Membrane in water
40167
    1TCq1    O1    1   0.862   1.642  11.328  0.6203 -0.2509  0.3067
    1TCq1    C1    2   0.786   1.538  11.278  0.8049  0.7851  0.5033
    1TCq1    O2    3   0.825   1.421  11.281 -0.2055  0.0945  0.1642
    1TCq1    C2    4   0.657   1.573  11.346 -0.3959 -0.0223  0.0297
    1TCq1    C3    5   0.609   1.696  11.313  0.0261  0.3635  0.0115
    1TCq1    C4    6   0.480   1.727  11.351 -0.0546  0.1212  0.0678
    1TCq1    C5    7   0.404   1.630  11.409  0.0355  0.0654  0.1473
    1TCq1    C6    8   0.456   1.508  11.438 -0.6959  0.5975  0.1450
    1TCq1    C7    9   0.593   1.480  11.416 -0.0716 -0.0474 -1.2239
    1TCq1    C8   10   0.370   1.417  11.507 -1.0149  0.0511 -0.0733
    1TCq1    O4   11   0.299   1.457  11.600  0.2833  0.2277 -0.1546
    1TCq1    C9   12   0.415   1.844  11.295 -0.1223  0.0398 -0.3327
    1TCq1    O5   13   0.484   1.916  11.220 -0.0997  0.1925 -0.1166
    1TCq1    O6   14   0.295   1.868  11.316 -0.2020 -0.1559 -0.2914
    1TCq1    H1   15   0.794   1.706  11.357 -1.3911 -1.3900 -1.9420
    1TCq1    H2   16   0.660   1.775  11.259 -2.9065  0.1995 -2.9587
    1TCq1    H3   17   0.310   1.673  11.442 -0.0908  0.4253 -0.6688
    1TCq1    H4   18   0.637   1.388  11.453  1.9567  1.4311  0.1061
    2MPD2     C   19   0.193   0.937  11.578  0.1829  0.3033  0.0505
    2MPD2    C1   20   0.151   1.052  11.632 -0.3344 -0.3156 -1.1893
    2MPD2    C2   21   0.211   1.171  11.598  0.0619 -0.2686 -0.2915
    2MPD2    C3   22   0.314   1.177  11.496  1.1477 -0.3487 -0.4465
    2MPD2    C4   23   0.353   1.056  11.442  0.1821  0.5322 -0.8368
    2MPD2    C5   24   0.292   0.937  11.474  0.2294 -0.2702  0.2969
    2MPD2     H   25   0.189   1.260  11.657 -2.5608 -2.0289  1.3653
    2MPD2    H1   26   0.417   1.060  11.355  0.0862  0.0490 -0.9310
    2MPD2    H2   27   0.158   0.841  11.614 -0.1206 -0.0277 -1.1284
    2MPD2    H3   28   0.320   0.841  11.432  2.5025 -0.2893  1.8482
    2MPD2     N   29   0.392   1.284  11.462  0.1922 -0.2753  0.3847
    2MPD2    H5   30   0.447   1.270  11.378  0.1854 -1.4894  0.5802
    2MPD2    N1   31   0.061   1.051  11.742 -0.6588  0.4054 -0.1859
    2MPD2    H7   32   0.041   1.143  11.780 -1.5456  0.1480 -0.0147
    3TCq1    O1   33   3.695   1.348  11.197  0.1279 -0.2696  1.3387
    3TCq1    C1   34   3.699   1.476  11.154  0.0117 -0.4046 -0.2247
    3TCq1    O2   35   3.772   1.521  11.069  0.0942  0.2113  0.0516
    3TCq1    C2   36   3.620   1.558  11.247 -0.4525 -0.2423 -0.4273
    3TCq1    C3   37   3.598   1.518  11.375 -0.6276 -0.0016  0.0238
    3TCq1    C4   38   3.551   1.611  11.461 -0.2835 -0.8370 -0.0682
    3TCq1    C5   39   3.531   1.748  11.430  1.1782  0.3929  0.4217
    3TCq1    C6   40   3.573   1.784  11.304  0.5371  0.6801 -0.3540
    3TCq1    C7   41   3.628   1.694  11.222 -0.9212 -0.4625 -0.2398
    3TCq1    C8   42   3.544   1.914  11.258 -0.4532  0.4057  0.6446
    3TCq1    O4   43   3.557   1.930  11.138  0.7019  0.2402 -0.1595
    3TCq1    C9   44   3.483   1.558  11.582  0.3463  0.0370  0.0358
    3TCq1    O5   45   3.437   1.438  11.575 -0.2548 -0.3036  0.2051
    3TCq1    O6   46   3.449   1.645  11.671 -0.1275  0.2544 -0.1644
    3TCq1    H1   47   3.621   1.331  11.259 -0.2427 -1.7648  0.4810
    3TCq1    H2   48   3.608   1.415  11.408 -1.3437 -1.1780 -3.4540
    3TCq1    H3   49   3.467   1.812  11.491 -0.4662 -0.1886 -0.6925
    3TCq1    H4   50   3.655   1.721  11.121  0.6535  1.5398  0.7170
    4MPD2     C   51   3.472   2.414  11.330 -0.2442 -0.1112 -0.1726
    4MPD2    C1   52   3.511   2.362  11.449 -0.4381 -0.0663 -0.1139
    4MPD2    C2   53   3.529   2.227  11.461  0.3608  0.2433  0.1616
    4MPD2    C3   54   3.525   2.150  11.341 -0.3520  0.1236  0.1047
    4MPD2    C4   55   3.500   2.207  11.219 -0.0585 -0.2447 -0.2319
    4MPD2    C5   56   3.452   2.334  11.219 -0.1651  0.0391 -0.3204
    4MPD2     H   57   3.556   2.181  11.555 -1.0022  0.8645  0.8540
    4MPD2    H1   58   3.493   2.147  11.129 -1.1997  0.7342 -0.8045
    4MPD2    H2   59   3.440   2.517  11.315 -1.4024 -0.2182  1.5222
    4MPD2    H3   60   3.426   2.389  11.129 -2.4276  0.5953  0.6937
    4MPD2     N   61   3.543   2.011  11.358 -0.6777 -0.3380  0.1467
    4MPD2    H5   62   3.544   1.963  11.447 -1.0930 -2.0083 -0.7586
    4MPD2    N1   63   3.526   2.435  11.573 -0.7033  0.3916 -0.7223
    4MPD2    H7   64   3.541   2.377  11.654  0.0323  3.4968  1.3771
    5TCq1    O1   65   4.336   4.358  12.212 -0.3711  0.1298 -0.3649
    5TCq1    C1   66   4.472   4.361  12.205  0.1391 -0.5946  0.6171
    5TCq1    O2   67   4.543   4.452  12.242 -0.7667 -0.1847 -0.1127
    5TCq1    C2   68   4.518   4.231  12.155 -0.2769 -0.0034 -0.3073
    5TCq1    C3   69   4.611   4.153  12.217  0.4559 -0.1451  0.0382
    5TCq1    C4   70   4.654   4.045  12.156 -0.1445  0.2208 -0.0757
    5TCq1    C5   71   4.615   4.014  12.031  0.3897 -0.0229  0.7968
    5TCq1    C6   72   4.523   4.096  11.971 -0.6917 -0.2331  0.2150
    5TCq1    C7   73   4.467   4.203  12.031 -0.5811 -0.5400 -0.0806
    5TCq1    C8   74   4.500   4.065  11.829 -0.6440  0.1722 -0.0501
    5TCq1    O4   75   4.550   3.960  11.789  0.5676 -0.2480 -0.5467
    5TCq1    C9   76   0.031   3.964  12.210 -0.2640  0.3097  0.5714
    5TCq1    O5   77   0.044   3.959  12.336  0.2616  0.6652 -0.1047
    5TCq1    O6   78   0.093   3.902  12.125  0.1972  0.4288  0.3737
    5TCq1    H1   79   4.293   4.270  12.207  1.5548 -0.8796  1.4679
    5TCq1    H2   80   4.648   4.183  12.314 -0.8621  1.2628  0.0975
    5TCq1    H3   81   4.641   3.919  11.987 -2.7720 -1.5487  2.1933
    5TCq1    H4   82   4.389   4.259  11.981  0.6115  1.0129 -0.2190
    6MPD2     C   83   4.412   4.300  11.562 -0.0089  0.1197 -0.3920
    6MPD2    C1   84   4.436   4.184  11.620  0.4394 -0.2119 -0.5112
    6MPD2    C2   85   4.441   4.075  11.534 -0.0700  0.8251  0.3626
    6MPD2    C3   86   4.440   4.099  11.393 -0.2071  0.3456  0.8105
    6MPD2    C4   87   4.436   4.222  11.338  1.0032  0.0004  0.6692
    6MPD2    C5   88   4.422   4.326  11.427 -0.0766  0.9074 -0.1111
    6MPD2     H   89   4.448   3.980  11.586 -1.3229  0.1789 -0.6473
    6MPD2    H1   90   4.453   4.255  11.237 -0.5916 -1.7687 -0.1902
    6MPD2    H2   91   4.407   4.381  11.634  0.9929  0.7831 -1.0763
    6MPD2    H3   92   4.416   4.422  11.378 -3.4254  0.1715 -1.1752
    6MPD2     N   93   4.451   3.988  11.310  0.4112  0.2208  0.7469
    6MPD2    H5   94   4.443   3.895  11.350  0.3684 -0.2910 -0.4411
    6MPD2    N1   95   4.452   4.175  11.758  0.1639 -0.2677 -0.1158
    6MPD2    H7   96   4.443   4.259  11.815 -0.5283 -1.8669  2.1215
    7TCq1    O1   97   1.610   4.290  13.857  0.4589  0.1682 -0.4358
    7TCq1    C1   98   1.611   4.324  13.728 -0.6152  0.1434  0.4242
    7TCq1    O2   99   1.698   4.382  13.671 -0.1483 -0.4857 -0.2078
    7TCq1    C2  100   1.529   4.218  13.665  0.1568 -0.3109  0.0251
    7TCq1    C3  101   1.459   4.268  13.551  0.3777 -0.2162 -0.0292
    7TCq1    C4  102   1.358   4.190  13.501  0.1668  0.0637  0.1709
    7TCq1    C5  103   1.327   4.066  13.556  0.2647 -0.1150 -0.3290
    7TCq1    C6  104   1.402   4.019  13.662  0.4056  0.4350 -0.6626
    7TCq1    C7  105   1.504   4.094  13.718  0.2701 -0.5712 -0.1789
    7TCq1    C8  106   1.373   3.882  13.714  0.2115 -0.2937 -0.3680
    7TCq1    O4  107   1.457   3.823  13.781 -0.1485  0.3834  0.5671
    7TCq1    C9  108   1.298   4.225  13.380 -0.3593  0.1314 -0.7210
    7TCq1    O5  109   1.322   4.340  13.335 -0.1269  0.6410 -0.0310
    7TCq1    O6  110   1.212   4.151  13.328  0.0948  0.1815  0.2562
    7TCq1    H1  111   1.519   4.262  13.880  0.7220 -1.2416 -1.1174
    7TCq1    H2  112   1.470   4.373  13.525  4.8624 -0.5428  0.4647
    7TCq1    H3  113   1.256   4.010  13.496 -1.3663  1.4748  0.0981
    7TCq1    H4  114   1.571   4.058  13.794 -0.5742 -0.5731  0.5633
    8MPD2     C  115   1.074   3.504  13.848  0.7512  0.0499 -0.6713
    8MPD2    C1  116   1.207   3.507  13.828  0.4167 -0.2096 -0.3885
    8MPD2    C2  117   1.269   3.618  13.773  0.1462 -0.3204  0.7963
    8MPD2    C3  118   1.191   3.728  13.752  0.8159 -0.3516  0.2496
    8MPD2    C4  119   1.057   3.724  13.782 -0.3599  0.4115 -0.1020
    8MPD2    C5  120   1.000   3.616  13.836 -0.5317 -0.4932  0.3622
    8MPD2     H  121   1.369   3.619  13.730 -0.1101 -0.0121  0.1976
    8MPD2    H1  122   0.991   3.810  13.774  2.8808  2.8960 -0.4103
    8MPD2    H2  123   1.034   3.412  13.889  0.2513  0.2364 -0.7457
    8MPD2    H3  124   0.898   3.624  13.870 -0.5433  2.7111 -0.4341
    8MPD2     N  125   1.243   3.845  13.703  1.0793 -0.0356  0.3062
    8MPD2    H5  126   1.183   3.926  13.693  0.9369  0.0411  1.7188
    8MPD2    N1  127   1.285   3.393  13.856  0.4235 -0.7721 -0.0935
    8MPD2    H7  128   1.241   3.314  13.901  0.6482 -0.2842  0.9977
    9TCq1    O1  129   4.040   2.081  10.649 -0.3759 -0.5434  0.0350
    9TCq1    C1  130   4.128   2.087  10.756  0.0631 -0.2567  0.1058
    9TCq1    O2  131   4.096   2.081  10.873  0.3908 -0.4250  0.3481
    9TCq1    C2  132   4.247   2.154  10.713 -0.7621 -0.0179 -0.5846
    9TCq1    C3  133   4.305   2.141  10.587  0.2741 -0.8844 -0.2676
    9TCq1    C4  134   4.426   2.201  10.569  0.6122  0.4593  0.6115
    9TCq1    C5  135   4.507   2.254  10.667 -0.9489 -0.4395 -0.6543
    9TCq1    C6  136   4.441   2.273  10.790  0.2200 -0.0859  0.2197
    9TCq1    C7  137   4.308   2.227  10.815  0.0780 -0.0041  0.6614
    9TCq1    C8  138   4.505   2.360  10.882  0.1485 -0.1145 -0.1592
    9TCq1    O4  139   4.603   2.419  10.842  0.5413  0.1930  0.0625
    9TCq1    C9  140   4.491   2.192  10.441 -1.1712  0.2634 -0.2173
    9TCq1    O5  141   4.601   2.255  10.428  0.5414 -0.3165  0.5357
    9TCq1    O6  142   4.424   2.141  10.351 -0.5663  0.1303 -0.4850
    9TCq1    H1  143   4.084   2.093  10.562 -1.7455 -0.3029 -0.6292
    9TCq1    H2  144   4.251   2.098  10.504 -1.8159 -0.2228  0.7379
    9TCq1    H3  145   4.604   2.297  10.646 -0.9677  0.7100  1.6553
    9TCq1    H4  146   4.249   2.253  10.902 -0.0618 -0.7741  0.7941
   10MPD2     C  147   4.637   2.478  11.127 -0.2794 -0.1402  0.8569
   10MPD2    C1  148   4.533   2.382  11.124 -0.0936 -0.2640  0.1536
   10MPD2    C2  149   4.503   2.342  11.249 -0.2754  0.2326 -0.1499
   10MPD2    C3  150   4.560   2.386  11.365 -0.2914  0.3647  0.0898
   10MPD2    C4  151   4.655   2.488  11.361  1.0898 -0.0335 -0.5334
   10MPD2    C5  152   4.689   2.533  11.238  0.1243  0.2370  0.8991
   10MPD2     H  153   4.420   2.273  11.258  1.2621 -1.4543  1.1079
   10MPD2    H1  154   4.704   2.527  11.450  0.6279 -2.1413  0.6636
   10MPD2    H2  155   4.674   2.516  11.033  0.4492  0.5869  1.4416
   10MPD2    H3  156   0.042   2.609  11.234  2.1479 -1.7754  1.9772
   10MPD2     N  157   4.521   2.341  11.497 -0.1412  0.2111 -0.2479
   10MPD2    H5  158   4.557   2.381  11.583 -2.4239  1.9701 -0.1188
   10MPD2    N1  159   4.468   2.335  11.007 -0.1502 -0.0834  0.0909
   10MPD2    H7  160   4.390   2.271  11.017  1.2381 -1.9696 -1.2853
   11TCq1    O1  161   0.204   1.813  14.977 -0.2681  0.0089  0.1583
   11TCq1    C1  162   0.171   1.857  14.853  0.3337 -0.4302 -0.0781
   11TCq1    O2  163   0.164   1.790  14.749  0.7119 -0.4670  0.1307
   11TCq1    C2  164   0.213   1.994  14.851  0.5588  0.5450  1.1278
   11TCq1    C3  165   0.314   2.040  14.932  0.0579 -0.0030  0.4629
   11TCq1    C4  166   0.359   2.167  14.906  0.2699  1.4230  0.2633
   11TCq1    C5  167   0.303   2.244  14.808  0.7655  0.7369 -0.2624
   11TCq1    C6  168   0.193   2.195  14.735 -0.9593 -0.1595  0.2743
   11TCq1    C7  169   0.143   2.067  14.754 -0.1314 -0.5948  0.1860
   11TCq1    C8  170   0.135   2.284  14.636 -0.2180 -0.2494 -0.4335
   11TCq1    O4  171   0.128   2.404  14.667  0.6192 -0.0628 -0.4368
   11TCq1    C9  172   0.470   2.227  14.984 -0.0039  0.0798  0.5777
   11TCq1    O5  173   0.446   2.341  15.033  0.6368  0.2448 -0.3739
   11TCq1    O6  174   0.557   2.154  15.024  0.1717  0.0333  0.5335
   11TCq1    H1  175   0.194   1.889  15.039 -0.7144 -0.9257  1.2240
   11TCq1    H2  176   0.365   1.987  15.013  1.3305 -0.2269 -0.4871
   11TCq1    H3  177   0.344   2.342  14.791  1.7888  0.4308  0.4430
   11TCq1    H4  178   0.047   2.038  14.713 -0.9321 -1.0271  2.3787
   12MPD2     C  179   4.718   2.402  14.426 -0.6250  0.4610 -0.2250
   12MPD2    C1  180   0.045   2.272  14.417  0.0706 -0.0458  0.0160
   12MPD2    C2  181   0.045   2.196  14.300 -0.6330 -0.1741 -0.9279
   12MPD2    C3  182   4.707   2.253  14.191 -0.2271 -0.0930  0.2938
   12MPD2    C4  183   4.633   2.366  14.211  0.7205 -0.4095  0.4829
   12MPD2    C5  184   4.651   2.450  14.321 -0.5880  0.4581 -0.3009
   12MPD2     H  185   0.074   2.092  14.294 -1.6722 -0.4299 -1.4753
   12MPD2    H1  186   4.556   2.398  14.141  1.5121 -0.0092 -0.2087
   12MPD2    H2  187   4.693   2.466  14.510 -0.5088  2.6186 -1.8120
   12MPD2    H3  188   4.588   2.536  14.340  0.1101  0.8044  0.4197
   12MPD2     N  189   4.706   2.176  14.072  0.8141 -0.0998 -0.0817
   12MPD2    H5  190   0.017   2.083  14.086 -0.7508 -0.5286  1.1305
   12MPD2    N1  191   0.097   2.212  14.529 -0.6151  0.5154 -0.6607
   12MPD2    H7  192   0.122   2.113  14.533  0.4265  0.8601  2.1693
   13TCq1    O1  193   0.116   2.311  10.400 -0.6936 -0.2664 -0.2123
   13TCq1    C1  194   0.223   2.241  10.445  0.0333  0.6788  0.5926
   13TCq1    O2  195   0.329   2.296  10.472  0.1749  0.4250 -0.1246
   13TCq1    C2  196   0.179   2.141  10.534 -0.5424 -0.5272 -0.7927
   13TCq1    C3  197   0.215   2.147  10.665  0.2431  0.0847 -0.4032
   13TCq1    C4  198   0.176   2.043  10.747  0.9287 -0.4438  0.2932
   13TCq1    C5  199   0.084   1.949  10.707  0.7122  0.1166 -0.1930
   13TCq1    C6  200   0.033   1.966  10.578 -0.4162  0.3699 -0.2890
   13TCq1    C7  201   0.086   2.050  10.488  0.4607 -0.4634 -0.5367
   13TCq1    C8  202   4.635   1.901  10.540  0.9522  0.5115  0.2748
   13TCq1    O4  203   4.615   1.890  10.419  0.0215  0.0908 -0.0002
   13TCq1    C9  204   0.218   2.026  10.884  0.2616 -0.1633  0.0481
   13TCq1    O5  205   0.131   1.968  10.957 -0.2504  0.0468  0.0511
   13TCq1    O6  206   0.324   2.088  10.920  0.0316  0.0016 -0.2811
   13TCq1    H1  207   0.039   2.257  10.426 -1.2539  0.4201 -0.4549
   13TCq1    H2  208   0.271   2.233  10.700  0.4764 -0.0708 -0.3995
   13TCq1    H3  209   0.054   1.873  10.778 -0.4855  0.7680  0.0145
   13TCq1    H4  210   0.059   2.050  10.383 -0.6693 -3.3315 -0.2515
   14MPD2     C  211   4.368   1.775  10.524  0.2912  0.7283  0.3622
   14MPD2    C1  212   4.424   1.824  10.643  0.0756 -0.0898 -0.2989
   14MPD2    C2  213   4.344   1.810  10.750 -0.5835 -0.3239 -0.0284
   14MPD2    C3  214   4.215   1.755  10.749 -0.5503  0.0171  0.0535
   14MPD2    C4  215   4.160   1.723  10.628 -0.6383 -0.7504 -0.0183
   14MPD2    C5  216   4.243   1.717  10.516  0.1276 -0.0988  0.0024
   14MPD2     H  217   4.394   1.820  10.846  0.7019  0.2911 -0.7741
   14MPD2    H1  218   4.062   1.677  10.628 -1.0319  0.1251 -1.0999
   14MPD2    H2  219   4.420   1.785  10.429  0.0228  0.3704  0.1793
   14MPD2    H3  220   4.198   1.686  10.422  2.3435 -0.6368 -0.8764
   14MPD2     N  221   4.150   1.745  10.880 -0.2546 -0.1312  0.4072
   14MPD2    H5  222   4.206   1.749  10.964 -0.1243  2.2540  0.1901
   14MPD2    N1  223   4.550   1.886  10.647 -0.3070 -0.2292  0.4032
   14MPD2    H7  224   4.581   1.908  10.742 -2.6921 -0.6395  1.2728
   15TCq1    O1  225   1.111   2.203   2.605 -0.8037  0.0647 -0.3612
   15TCq1    C1  226   1.195   2.283   2.539 -0.9094  0.6864 -0.7258
   15TCq1    O2  227   1.154   2.370   2.466  0.2166 -0.2309  0.0640
   15TCq1    C2  228   1.315   2.211   2.515  0.2269 -0.0674 -0.1374
   15TCq1    C3  229   1.408   2.232   2.608 -0.6296  0.6230  0.2661
   15TCq1    C4  230   1.530   2.169   2.591  0.5057 -0.4402 -0.1738
   15TCq1    C5  231   1.552   2.087   2.481  0.8953  0.2890 -0.2246
   15TCq1    C6  232   1.456   2.076   2.384  0.4233  0.2212 -0.2346
   15TCq1    C7  233   1.333   2.138   2.402  0.0964  0.9369  0.2130
   15TCq1    C8  234   1.482   1.996   2.258  0.1138  0.3488 -0.1147
   15TCq1    O4  235   1.595   1.952   2.236 -0.2061  0.0311  0.5688
   15TCq1    C9  236   1.624   2.186   2.696 -0.8916 -0.9389 -0.4557
   15TCq1    O5  237   1.591   2.249   2.801 -0.5808 -0.4899 -0.3065
   15TCq1    O6  238   1.741   2.145   2.677  0.2190 -0.2217  0.1818
   15TCq1    H1  239   1.147   2.141   2.672  0.4614  2.9309  1.6659
   15TCq1    H2  240   1.390   2.301   2.689  0.9012  1.0537  0.2284
   15TCq1    H3  241   1.648   2.039   2.476  0.1752 -1.3030  1.0844
   15TCq1    H4  242   1.244   2.128   2.341  0.7794 -0.8767 -0.4865
   16MPD2     C  243   1.243   1.972   1.966 -0.2703 -0.1885  0.6562
   16MPD2    C1  244   1.362   1.946   2.041 -0.6570  0.2567  0.3117
   16MPD2    C2  245   1.454   1.861   1.985  0.7723  0.7491  0.6653
   16MPD2    C3  246   1.434   1.812   1.860 -0.2310  0.0626 -0.3713
   16MPD2    C4  247   1.325   1.855   1.782 -0.1521 -0.2883 -0.0947
   16MPD2    C5  248   1.226   1.932   1.840  0.7924 -0.7846 -0.0406
   16MPD2     H  249   1.539   1.823   2.041 -0.5984 -2.6517  0.3692
   16MPD2    H1  250   1.313   1.820   1.680  1.0087 -1.7272  0.2724
   16MPD2    H2  251   1.161   2.022   2.017  0.4800 -0.2100  1.8771
   16MPD2    H3  252   1.138   1.958   1.783  2.1073 -1.3294 -2.2957
   16MPD2     N  253   1.536   1.723   1.813 -0.1484  0.3368  0.1417
   16MPD2    H5  254   1.610   1.704   1.879  0.3981  1.1739 -0.2336
   16MPD2    N1  255   1.372   1.997   2.175  0.3175  0.2241  0.0408
   16MPD2    H7  256   1.288   2.049   2.200  0.0300 -0.3279  0.2215
   17TCq1    O1  257   3.563   1.751  10.491 -0.4118  0.3605 -0.3227
   17TCq1    C1  258   3.528   1.653  10.405 -0.3063 -0.1936 -0.3778
   17TCq1    O2  259   3.409   1.632  10.377  0.2513 -0.3047  0.1438
   17TCq1    C2  260   3.627   1.559  10.411 -0.2007  0.0634  0.1983
   17TCq1    C3  261   3.638   1.469  10.300 -0.2869  0.5824 -0.0280
   17TCq1    C4  262   3.746   1.383  10.302 -0.6209  0.8889 -0.5705
   17TCq1    C5  263   3.835   1.378  10.405 -0.5518  0.0862  0.4448
   17TCq1    C6  264   3.821   1.468  10.505  0.0900  0.1953 -0.3163
   17TCq1    C7  265   3.714   1.547  10.516 -0.3740  0.1069  0.3749
   17TCq1    C8  266   3.876   1.442  10.639  0.1397 -0.0829  0.8390
   17TCq1    O4  267   3.796   1.451  10.733  0.3307  0.1239  0.1085
   17TCq1    C9  268   3.772   1.296  10.194 -0.0015  0.8603  0.2291
   17TCq1    O5  269   3.851   1.198  10.220  0.9151  0.1543  0.0582
   17TCq1    O6  270   3.722   1.322  10.078 -0.4096 -0.0197 -0.2371
   17TCq1    H1  271   3.659   1.769  10.501 -0.3751 -0.3999  0.6788
   17TCq1    H2  272   3.570   1.467  10.215  1.9375  1.3757 -1.8039
   17TCq1    H3  273   3.914   1.304  10.408 -0.7616 -0.0621  2.0588
   17TCq1    H4  274   3.693   1.597  10.610  2.5650  0.8582  0.6453
   18MPD2     C  275   4.051   1.373  10.871  0.7557 -0.0902  0.0266
   18MPD2    C1  276   4.099   1.393  10.739  0.6463 -0.8388 -0.1946
   18MPD2    C2  277   4.234   1.397  10.716 -0.6101  0.3106  0.3253
   18MPD2    C3  278   4.324   1.397  10.826  0.3217 -0.4747  0.3041
   18MPD2    C4  279   4.283   1.371  10.954 -0.8410  0.2515  0.3419
   18MPD2    C5  280   4.143   1.355  10.975 -0.1013 -1.0356 -0.0797
   18MPD2     H  281   4.264   1.400  10.612  2.0020  1.1181  1.1170
   18MPD2    H1  282   4.342   1.362  11.044 -0.5008  3.4379  0.4479
   18MPD2    H2  283   3.944   1.377  10.888  0.7833 -0.3523  0.2750
   18MPD2    H3  284   4.103   1.321  11.069 -2.2899  2.8179  0.3718
   18MPD2     N  285   4.465   1.412  10.799  0.3416 -0.7794 -0.0291
   18MPD2    H5  286   4.527   1.402  10.879  0.3538 -0.7740 -0.0379
   18MPD2    N1  287   4.013   1.415  10.630  0.5861  0.3286  0.5430
   18MPD2    H7  288   4.052   1.406  10.536  0.2295 -2.8141  0.7036
   19TMC2    C1  289   1.264   1.637  13.730  0.3425 -0.4680  0.3126
   19TMC2    C2  290   1.298   1.607  13.599  0.1629  0.2870  0.1273
   19TMC2    C3  291   1.226   1.511  13.540 -0.4551 -0.3343 -0.2401
   19TMC2    C4  292   1.153   1.589  13.787 -0.0351  0.3954 -0.3098
   19TMC2    C5  293   1.084   1.490  13.726  0.7158  1.0007 -0.1577
   19TMC2    C6  294   1.114   1.460  13.593  0.7094 -0.7720 -0.4139
   19TMC2     C  295   1.342   1.749  13.781 -0.5216 -0.5206  0.1487
   19TMC2     O  296   1.428   1.786  13.703  0.0094 -0.0887  0.4807
   19TMC2     H  297   1.394   1.635  13.558  1.5806 -0.1236  3.2117
   19TMC2    H1  298   1.119   1.628  13.883 -0.6531 -1.1326  0.0900
   19TMC2    H2  299   1.069   1.373  13.547  0.8083 -0.6052 -0.8255
   19TMC2    C7  300   0.954   1.451  13.777 -0.8913 -0.1981  0.2116
   19TMC2    C8  301   1.244   1.497  13.394  0.2697 -0.0210 -0.4430
   19TMC2    O1  302   0.932   1.437  13.896 -0.2478  0.5042 -0.0584
   19TMC2    O2  303   1.188   1.415  13.329 -0.3385 -0.2406  0.0619
   19TMC2    O5  304   1.257   1.629  13.354  0.4285  0.0053  0.3031
   19TMC2    H5  305   1.266   1.698  13.423 -1.9053  0.8101 -0.2220
   20MPD2     C  306   1.454   1.976  13.915 -0.2639  0.1911 -0.3436
   20MPD2    C1  307   1.396   1.869  13.981  0.2235 -0.4983 -0.4260
   20MPD2    C2  308   1.395   1.879  14.118  0.2195 -0.0483 -0.0486
   20MPD2    C3  309   1.469   1.976  14.189  0.1627  0.7848 -0.0147
   20MPD2    C4  310   1.537   2.070  14.120 -0.9337  0.6118  0.0292
   20MPD2    C5  311   1.520   2.079  13.981  0.3786 -0.7958  0.1900
   20MPD2     H  312   1.336   1.810  14.177 -1.0092  0.1748 -1.0147
   20MPD2    H1  313   1.587   2.148  14.177 -3.7909  1.7750  0.9213
   20MPD2    H2  314   1.434   1.993  13.810 -2.6056 -1.7915 -0.2103
   20MPD2    H3  315   1.552   2.161  13.917  0.1854 -0.9153 -0.0590
   20MPD2     N  316   1.482   1.978  14.331 -0.6748  0.2357 -0.4888
   20MPD2    H5  317   1.542   2.046  14.376 -1.4235 -0.0048  0.9050
   20MPD2    N1  318   1.333   1.760  13.919  0.2628 -0.1199  0.5691
   20MPD2    H7  319   1.285   1.688  13.971  2.1357 -0.4648  1.8009
   21MPD2     C  320   3.521   2.484  14.308 -0.2459  0.0358  0.4850
   21MPD2    C1  321   3.639   2.485  14.383 -0.4611 -0.8439 -0.3428
   21MPD2    C2  322   3.621   2.489  14.519 -0.8764  0.5566  0.2114
   21MPD2    C3  323   3.493   2.486  14.580  0.3267 -0.3825  0.1581
   21MPD2    C4  324   3.380   2.486  14.498 -0.3059  0.2265  0.2692
   21MPD2    C5  325   3.397   2.486  14.358  0.4823  0.1365  0.6275
   21MPD2     H  326   3.707   2.491  14.586 -0.6223 -0.0015 -0.0942
   21MPD2    H1  327   3.280   2.478  14.538 -0.3577  0.0094  0.0954
   21MPD2    H2  328   3.520   2.482  14.200 -1.3653 -5.0934  0.5942
   21MPD2    H3  329   3.311   2.480  14.292  0.2188  2.2462  0.7591
   21MPD2     N  330   3.466   2.457  14.712 -0.0565 -0.3407 -0.3766
   21MPD2    H5  331   3.371   2.477  14.739  0.3224 -0.9995  1.4456
   21MPD2    N1  332   3.766   2.485  14.326 -0.1068  0.6842 -0.0559
   21MPD2    H7  333   3.846   2.504  14.385 -1.2513 -1.6504  2.2554
   22TCq2    C1  334   3.554   2.415  14.803  0.1738  0.4025 -0.1729
   22TCq2    O2  335   3.676   2.388  14.792 -0.5523  0.1672  0.4636
   22TCq2    C2  336   3.501   2.405  14.936  0.3300 -0.5826  0.1927
   22TCq2    C3  337   3.586   2.371  15.031  0.7180 -0.9303 -0.4738
   22TCq2    C4  338   3.537   2.321  15.145 -0.4554  0.4620  0.5549
   22TCq2    C5  339   3.409   2.324  15.174 -0.2747 -0.5889 -1.0278
   22TCq2    C6  340   3.323   2.368  15.079  0.0326 -0.5601 -0.4653
   22TCq2    C7  341   3.365   2.410  14.951 -0.3641  1.0622  0.3067
   22TCq2    C8  342   3.187   2.367  15.119  0.1408 -0.0791  0.9387
   22TCq2    O4  343   3.160   2.316  15.228 -0.0730 -0.9992 -0.2072
   22TCq2    C9  344   3.627   2.283  15.256 -0.2649  0.9178 -0.3451
   22TCq2    O5  345   3.749   2.262  15.227  0.5238 -0.2292  0.0355
   22TCq2    O6  346   3.582   2.278  15.370  0.0418  0.3987 -0.4830
   22TCq2    H2  347   3.693   2.372  15.019  0.7966  1.2715  0.4608
   22TCq2    H3  348   3.381   2.269  15.263 -0.9465  1.4947  0.0464
   22TCq2    H4  349   3.292   2.444  14.879 -0.9856 -0.3447  0.2766
   23MPD2     C  350   0.169   3.784  15.032  0.1251  0.4257 -0.0934
   23MPD2    C1  351   0.126   3.726  15.149  0.3789 -0.0036 -0.9900
   23MPD2    C2  352   4.716   3.733  15.173 -0.2694 -0.3669  0.0214
   23MPD2    C3  353   4.624   3.780  15.075 -0.2505  0.3036 -0.2883
   23MPD2    C4  354   4.674   3.852  14.965 -0.4246  0.2659  0.0301
   23MPD2    C5  355   0.083   3.842  14.942  0.1576  0.1164  0.0441
   23MPD2     H  356   4.678   3.680  15.261 -0.1441 -3.5832 -1.8408
   23MPD2    H1  357   4.616   3.910  14.895 -1.6877  1.2077  1.8446
   23MPD2    H2  358   0.270   3.773  14.994  0.3025  2.5777 -0.2539
   23MPD2    H3  359   0.124   3.887  14.851 -0.8196 -1.9178 -1.4032
   23MPD2     N  360   4.479   3.767  15.106  0.3464  0.0351 -0.6479
   23MPD2    H5  361   4.465   3.705  15.185 -0.2831 -1.1947 -1.7303
   23MPD2    N1  362   0.221   3.655  15.231 -0.0676 -0.0948 -0.6618
   23MPD2    H7  363   0.184   3.604  15.310  1.5170 -1.4928 -0.8334
   24TCq2    C1  364   4.372   3.830  15.042  0.7936  0.3869  0.6517
   24TCq2    O2  365   4.366   3.878  14.933  0.3748 -0.1727  0.2095
   24TCq2    C2  366   4.246   3.798  15.106  0.6873 -0.6400 -0.4275
   24TCq2    C3  367   4.236   3.767  15.240  0.7020 -0.4489  0.3073
   24TCq2    C4  368   4.108   3.749  15.291 -0.4853  0.6074 -0.4582
   24TCq2    C5  369   3.992   3.760  15.213 -0.5963  0.6182 -0.2099
   24TCq2    C6  370   4.009   3.812  15.085 -0.5447  0.2454 -0.3449
   24TCq2    C7  371   4.131   3.818  15.027 -0.1954  0.5429  0.4477
   24TCq2    C8  372   3.893   3.838  14.996 -0.6189 -0.1556  0.1429
   24TCq2    O4  373   3.902   3.928  14.914  0.6787 -0.0967  0.2294
   24TCq2    C9  374   4.093   3.715  15.430 -0.2284  0.5319  0.2268
   24TCq2    O5  375   3.978   3.738  15.475 -0.7883  0.1052 -0.0730
   24TCq2    O6  376   4.193   3.722  15.503  0.5872 -0.1571 -0.5316
   24TCq2    H2  377   4.321   3.754  15.306  2.8880  0.8265 -2.2902
   24TCq2    H3  378   3.892   3.744  15.252 -0.0052 -0.4681  0.8524
   24TCq2    H4  379   4.147   3.854  14.926  0.0164 -0.4013  0.1510
   25TMC2    C1  380   4.390   0.505  11.535  0.0447  0.4016 -0.3178
   25TMC2    C2  381   4.470   0.556  11.435  0.4971 -0.3835  0.3046
   25TMC2    C3  382   4.477   0.688  11.415  0.5567 -0.2545 -0.0434
   25TMC2    C4  383   4.304   0.577  11.608  0.6792  0.0147  0.4832
   25TMC2    C5  384   4.319   0.712  11.592  0.6709  0.1751  0.2632
   25TMC2    C6  385   4.416   0.767  11.502 -0.2515  0.6338  0.2939
   25TMC2     C  386   4.423   0.366  11.559  0.3569 -0.0465 -0.6406
   25TMC2     O  387   4.535   0.329  11.524 -0.7316  0.2577  0.2874
   25TMC2     H  388   4.532   0.493  11.372 -1.1964 -0.0587 -1.7025
   25TMC2    H1  389   4.261   0.529  11.695  2.5037 -0.0933  1.3326
   25TMC2    H2  390   4.422   0.873  11.481 -0.0816  0.7424  0.8908
   25TMC2    C7  391   4.219   0.790  11.664 -0.5592 -0.4149  0.5376
   25TMC2    C8  392   4.580   0.730  11.327  0.0433 -0.3082  0.2200
   25TMC2    O1  393   4.122   0.722  11.698  0.1349  0.2622  0.0074
   25TMC2    O2  394   4.596   0.668  11.224  0.2399  1.0912  0.0154
   25TMC2    O5  395   4.682   0.746  11.416 -0.2942 -0.3714 -0.5645
   25TMC2    H5  396   4.657   0.762  11.510 -0.8008 -0.1176 -0.7404
   26MPD2     C  397   4.278   4.611  11.530  0.1022  0.1910 -0.0918
   26MPD2    C1  398   4.171   4.672  11.590 -0.2448 -0.0871 -0.2150
   26MPD2    C2  399   4.192   0.084  11.625  0.2962 -1.2488 -0.2816
   26MPD2    C3  400   4.314   0.147  11.597  0.9089 -0.3003 -0.0314
   26MPD2    C4  401   4.425   0.074  11.554  0.2856  0.3790 -0.4749
   26MPD2    C5  402   4.393   4.670  11.515  0.2108  0.2157  0.1080
   26MPD2     H  403   4.103   0.137  11.656  1.6839  0.3660  0.9053
   26MPD2    H1  404   4.526   0.108  11.534  0.0978  0.1296 -1.8462
   26MPD2    H2  405   4.270   4.510  11.490  2.2353 -0.5154  1.2701
   26MPD2    H3  406   4.466   4.610  11.462  1.3432  1.9218 -0.2558
   26MPD2     N  407   4.315   0.289  11.611  0.5507  0.2742 -0.3972
   26MPD2    H5  408   4.226   0.331  11.636  0.2098 -0.4901 -0.3324
   26MPD2    N1  409   4.054   4.605  11.593 -0.1215 -0.1469  0.0388
   26MPD2    H7  410   4.073   4.517  11.547  0.1961  0.0660 -0.2385
   27TMC2    C1  411   2.881   2.628  13.198 -0.3964  0.1423 -0.1965
   27TMC2    C2  412   2.875   2.535  13.295 -0.2599 -0.3723 -0.0089
   27TMC2    C3  413   2.986   2.467  13.347 -0.1172  0.9032  0.3467
   27TMC2    C4  414   3.013   2.669  13.170 -0.2218 -0.4282 -0.0790
   27TMC2    C5  415   3.118   2.599  13.230 -0.2856  0.2230 -0.4417
   27TMC2    C6  416   3.112   2.497  13.314  0.9941  0.1729  0.4176
   27TMC2     C  417   2.782   2.734  13.185  0.0320 -1.0647 -0.9217
   27TMC2     O  418   2.832   2.845  13.160  0.1589 -0.2588  0.1730
   27TMC2     H  419   2.779   2.505  13.335  1.7349 -0.4561  4.6496
   27TMC2    H1  420   3.031   2.751  13.102  0.2114 -0.9578 -0.6014
   27TMC2    H2  421   3.200   2.454  13.361  0.6954 -0.2088  0.6281
   27TMC2    C7  422   3.245   2.601  13.170  0.0048  0.5121  0.2714
   27TMC2    C8  423   2.946   2.360  13.438 -1.0951 -0.6414 -0.2427
   27TMC2    O1  424   3.334   2.534  13.225 -0.3607 -0.2399  0.0112
   27TMC2    O2  425   2.833   2.312  13.449 -0.4220 -0.3719 -0.0281
   27TMC2    O5  426   3.056   2.322  13.502  0.3818  0.1100 -0.3592
   27TMC2    H5  427   3.129   2.386  13.502 -0.6737  1.3037  4.1041
   28MPD2     C  428   2.330   2.965  13.246 -0.4261 -0.0166  0.1737
   28MPD2    C1  429   2.310   2.831  13.232  0.2084  0.0384 -0.0846
   28MPD2    C2  430   2.418   2.737  13.209  0.3241 -0.0083 -0.2415
   28MPD2    C3  431   2.546   2.789  13.208  0.0046 -0.0219  0.2493
   28MPD2    C4  432   2.563   2.927  13.223  0.2714  0.6921  0.7974
   28MPD2    C5  433   2.458   3.008  13.240 -0.1717 -0.2741  0.3649
   28MPD2     H  434   2.406   2.635  13.174  2.7375 -1.2767  2.6474
   28MPD2    H1  435   2.655   2.979  13.201  0.7477 -0.4602  0.0814
   28MPD2    H2  436   2.256   3.043  13.257 -0.2678  0.1249  0.2304
   28MPD2    H3  437   2.477   3.114  13.232  0.3499 -0.3336  0.8134
   28MPD2     N  438   2.655   2.697  13.199 -0.0788  0.6598  0.2159
   28MPD2    H5  439   2.631   2.599  13.189 -0.2353  0.8530 -1.4006
   28MPD2    N1  440   2.174   2.791  13.225 -0.1584  0.0392  0.3469
   28MPD2    H7  441   2.095   2.851  13.243  0.2579  0.6633  0.0714
   29MPD2     C  442   1.738   0.603  14.294  0.5089  0.4910  0.3979
   29MPD2    C1  443   1.834   0.595  14.386  0.6018 -0.2850 -0.9479
   29MPD2    C2  444   1.912   0.707  14.402 -0.2623 -0.0133 -0.2604
   29MPD2    C3  445   1.886   0.832  14.349  0.1329  0.1414  0.7132
   29MPD2    C4  446   1.770   0.836  14.272 -0.2381  0.0825 -0.3724
   29MPD2    C5  447   1.705   0.721  14.239  0.0995 -0.0109  0.0129
   29MPD2     H  448   2.005   0.706  14.457 -0.4456 -0.8005  0.0321
   29MPD2    H1  449   1.739   0.933  14.235 -2.1552  0.3225  1.8769
   29MPD2    H2  450   1.671   0.520  14.273  0.2733  0.9319 -0.5757
   29MPD2    H3  451   1.620   0.731  14.172  0.5948 -0.2908 -0.6544
   29MPD2     N  452   1.959   0.951  14.379  0.0094 -0.0611  0.2578
   29MPD2    H5  453   1.909   1.035  14.353  1.6406  0.3612 -1.4649
   29MPD2    N1  454   1.865   0.468  14.458 -0.0264  0.1698 -0.6272
   29MPD2    H7  455   1.944   0.469  14.521 -1.2386  0.6817  0.8991
   30TCq2    C1  456   2.095   0.954  14.401 -0.6218 -1.0486  0.0235
   30TCq2    O2  457   2.175   0.867  14.425  0.7570  0.5804  0.1251
   30TCq2    C2  458   2.151   1.090  14.388 -0.1195 -0.3621  0.6612
   30TCq2    C3  459   2.075   1.194  14.433  0.5966  0.0931  0.0269
   30TCq2    C4  460   2.137   1.319  14.424  0.8405  0.3197 -0.4504
   30TCq2    C5  461   2.259   1.339  14.371 -0.0745  0.0028 -0.4522
   30TCq2    C6  462   2.326   1.231  14.326 -0.2304 -0.2012 -0.1013
   30TCq2    C7  463   2.270   1.103  14.329 -0.1823 -1.6516 -0.7234
   30TCq2    C8  464   2.435   1.250  14.236 -0.0983  0.3744  0.5953
   30TCq2    O4  465   2.452   1.168  14.152 -0.9941  0.3206  0.2289
   30TCq2    C9  466   2.077   1.435  14.492 -1.3322  0.1976 -0.4020
   30TCq2    O5  467   1.998   1.414  14.585  0.1234 -0.2974 -0.8463
   30TCq2    O6  468   2.125   1.549  14.467 -0.1056  0.1922  0.7904
   30TCq2    H2  469   1.991   1.180  14.498  0.1289 -0.5570 -0.7117
   30TCq2    H3  470   2.294   1.441  14.371 -0.5888  0.1788 -0.4215
   30TCq2    H4  471   2.332   1.018  14.303  0.0493 -1.5961 -0.3491
   31MPD2     C  472   0.283   4.698  14.918 -0.4392  0.2843  0.6605
   31MPD2    C1  473   0.157   4.720  14.877  0.1588  0.3429  0.9296
   31MPD2    C2  474   0.056   4.659  14.951 -0.5580 -0.7212 -0.2992
   31MPD2    C3  475   0.088   4.577  15.059 -0.3683  0.1051 -0.0619
   31MPD2    C4  476   0.216   4.563  15.099 -0.4482 -0.2599 -0.1548
   31MPD2    C5  477   0.308   4.637  15.035 -0.6344 -0.2487  0.0191
   31MPD2     H  478   4.679   4.667  14.913 -0.1570 -2.2861 -1.7354
   31MPD2    H1  479   0.244   4.511  15.190 -0.5495  1.3084  0.7781
   31MPD2    H2  480   0.362   0.012  14.854 -0.0746 -0.1383  0.8581
   31MPD2    H3  481   0.410   4.643  15.071 -0.6746  1.8922 -0.2504
   31MPD2     N  482   4.716   4.508  15.136 -0.0495 -0.3724 -0.2499
   31MPD2    H5  483   0.016   4.467  15.226 -0.2125  2.4175  1.0767
   31MPD2    N1  484   0.136   0.077  14.760 -0.0290  0.5002  0.5143
   31MPD2    H7  485   0.214   0.122  14.714  0.3894 -0.6919  0.0588
   32TCq2    C1  486   4.581   4.508  15.105 -0.1372 -0.1970  0.2505
   32TCq2    O2  487   4.515   4.550  15.011  0.2808  0.0085  0.4169
   32TCq2    C2  488   4.493   4.471  15.212 -0.1664  0.3466  0.3148
   32TCq2    C3  489   4.369   4.511  15.199  0.2341  0.0547 -0.5802
   32TCq2    C4  490   4.283   4.474  15.300 -0.1685  0.1283  0.1742
   32TCq2    C5  491   4.321   4.403  15.410 -1.0357  0.0243  0.3173
   32TCq2    C6  492   4.452   4.359  15.415  0.1228 -0.8297 -0.3103
   32TCq2    C7  493   4.535   4.391  15.318  0.1817 -0.4668  0.7148
   32TCq2    C8  494   4.505   4.301  15.536 -0.4002 -0.1407 -0.0831
   32TCq2    O4  495   4.626   4.298  15.548  0.1602  0.0687  0.0947
   32TCq2    C9  496   4.143   4.504  15.285  0.8100  0.6332 -0.0329
   32TCq2    O5  497   4.063   4.441  15.361 -0.2184 -0.6184 -0.4573
   32TCq2    O6  498   4.102   4.584  15.197  0.0007 -0.2179 -0.1911
   32TCq2    H2  499   4.326   4.563  15.114 -2.7430 -0.3025  0.7224
   32TCq2    H3  500   4.256   4.382  15.494  0.2536  0.0120  1.3176
   32TCq2    H4  501   4.631   4.341  15.325  0.2220 -0.3834  0.7576
   33MPD2     C  502   0.411   1.765  10.392  0.3331  0.3190  0.6516
   33MPD2    C1  503   0.278   1.751  10.366  0.1618 -0.1557  0.1789
   33MPD2    C2  504   0.214   1.843  10.282 -0.4529 -0.1993  0.4514
   33MPD2    C3  505   0.287   1.943  10.222  0.0334 -0.2272 -0.4156
   33MPD2    C4  506   0.426   1.938  10.228  0.1368 -0.0577 -0.0333
   33MPD2    C5  507   0.489   1.847  10.312 -0.2570  0.5370  0.3497
   33MPD2     H  508   0.107   1.845  10.268 -0.6308  0.7673  1.9322
   33MPD2    H1  509   0.494   2.002  10.173  0.8611 -0.4798  0.3679
   33MPD2    H2  510   0.456   1.693  10.459 -1.3147 -0.9679  0.3765
   33MPD2    H3  511   0.597   1.854  10.324 -0.3505  0.7008  1.0884
   33MPD2     N  512   0.221   2.046  10.148  0.1836 -0.1763 -0.2998
   33MPD2    H5  513   0.286   2.108  10.101 -1.0997 -0.4114 -2.3421
   33MPD2    N1  514   0.201   1.647  10.432  0.6446 -0.4444 -0.2796
   33MPD2    H7  515   0.100   1.641  10.428  0.7013 -0.5843 -1.4967
   34TCq2    C1  516   0.088   2.058  10.111  0.5053 -0.1161 -0.4018
   34TCq2    O2  517   4.709   2.008  10.160 -0.0153  0.0828  0.0914
   34TCq2    C2  518   0.058   2.166  10.023  0.8419  0.1526  0.9238
   34TCq2    C3  519   4.661   2.217  10.025  0.7847 -0.1677 -0.1019
   34TCq2    C4  520   4.644   2.329   9.960  0.1404  0.0149 -0.2451
   34TCq2    C5  521   0.013   2.380   9.873 -0.1252 -0.2856  0.0231
   34TCq2    C6  522   0.139   2.315   9.869 -0.3749 -0.4094 -0.0544
   34TCq2    C7  523   0.160   2.209   9.946  0.0456  0.1475 -0.2392
   34TCq2    C8  524   0.254   2.389   9.815 -0.6455 -0.5029 -0.9580
   34TCq2    O4  525   0.358   2.345   9.852  0.6197 -0.5164  0.1543
   34TCq2    C9  526   4.513   2.394   9.954  0.1641  0.2050 -0.5541
   34TCq2    O5  527   4.474   2.425   9.839 -0.2842 -0.2619  0.2452
   34TCq2    O6  528   4.441   2.393  10.059  0.1251 -0.3389 -0.2172
   34TCq2    H2  529   4.587   2.197  10.102 -0.6698  0.8244 -1.2377
   34TCq2    H3  530   4.707   2.462   9.810 -3.3612 -3.2347 -2.2286
   34TCq2    H4  531   0.244   2.144   9.928  0.3191  0.2782  0.5774
   35MPD2     C  532   2.168   2.829  12.287 -0.9750  0.3566 -0.0559
   35MPD2    C1  533   2.035   2.858  12.312 -0.0671  0.2040 -0.2444
   35MPD2    C2  534   1.970   2.921  12.214 -0.2883 -0.1563 -0.1732
   35MPD2    C3  535   2.024   2.962  12.098  0.3728  0.1149 -0.2757
   35MPD2    C4  536   2.150   2.936  12.072  0.3619 -0.6029  0.1165
   35MPD2    C5  537   2.227   2.872  12.168 -0.7526 -0.5674 -0.4649
   35MPD2     H  538   1.868   2.956  12.227  0.1344  1.1053 -0.2441
   35MPD2    H1  539   2.195   2.951  11.975  3.2526 -0.6305  1.4610
   35MPD2    H2  540   2.227   2.785  12.366 -0.3599  0.8151 -0.2526
   35MPD2    H3  541   2.331   2.847  12.149 -0.0794  1.5782  0.3553
   35MPD2     N  542   1.934   3.007  11.999 -0.3281 -0.3285  0.5158
   35MPD2    H5  543   1.836   2.989  12.015 -0.1596 -0.8643  0.9592
   35MPD2    N1  544   1.993   2.844  12.449 -0.2483 -0.2610  0.3287
   35MPD2    H7  545   2.068   2.819  12.512 -0.1269  1.2737  0.7901
   36TCq2    C1  546   1.974   3.072  11.884 -0.0176  0.4415  0.4186
   36TCq2    O2  547   2.079   3.127  11.854  0.8926  0.7573 -0.3553
   36TCq2    C2  548   1.866   3.103  11.794 -0.0870  0.6932 -0.4646
   36TCq2    C3  549   1.894   3.195  11.694  0.2263  0.6775 -0.4716
   36TCq2    C4  550   1.832   3.192  11.577  0.0014 -0.2925 -0.2259
   36TCq2    C5  551   1.738   3.100  11.548  0.0941 -0.0940 -0.0813
   36TCq2    C6  552   1.718   2.998  11.641 -0.1700  0.7298 -0.4493
   36TCq2    C7  553   1.773   3.008  11.769  0.0954  0.1597  0.0511
   36TCq2    C8  554   1.620   2.895  11.615  0.9472  0.7434 -0.2675
   36TCq2    O4  555   1.606   2.803  11.688  0.4377 -0.2115 -0.8896
   36TCq2    C9  556   1.876   3.289  11.475 -0.3644  0.0782 -0.0388
   36TCq2    O5  557   1.846   3.261  11.356  0.3699 -0.2282 -0.3921
   36TCq2    O6  558   1.899   3.410  11.506  0.1177  0.3638  0.9134
   36TCq2    H2  559   1.967   3.273  11.712  0.8144  0.4934 -2.0206
   36TCq2    H3  560   1.701   3.089  11.447 -1.1061 -2.3696  0.5925
   36TCq2    H4  561   1.755   2.933  11.845  0.9020  1.0796  1.1486
   37TMC2    C1  562   3.909   2.535  12.446 -0.4410 -1.4417  0.3192
   37TMC2    C2  563   3.831   2.424  12.460  0.1549 -0.3017  0.0284
   37TMC2    C3  564   3.795   2.356  12.347  0.1961  0.7159 -0.6550
   37TMC2    C4  565   3.963   2.573  12.329 -0.5804 -0.3281 -0.3345
   37TMC2    C5  566   3.947   2.487  12.223  0.7264  0.7074  0.2275
   37TMC2    C6  567   3.856   2.382  12.230  0.0295  0.1614  0.2976
   37TMC2     C  568   3.870   2.639  12.540  0.6139  0.3622 -0.5186
   37TMC2     O  569   3.866   2.612  12.663 -0.7982 -0.7641 -0.0677
   37TMC2     H  570   3.776   2.413  12.553  0.9666 -0.2713  0.5117
   37TMC2    H1  571   4.031   2.657  12.327  0.1432 -0.8475  2.2320
   37TMC2    H2  572   3.854   2.307  12.152  2.3165 -0.3298  0.7015
   37TMC2    C7  573   3.980   2.549  12.101 -0.0415 -0.7094 -0.5033
   37TMC2    C8  574   3.680   2.269  12.361 -0.4806 -0.5310 -0.3816
   37TMC2    O1  575   3.986   2.670  12.099  0.1704 -0.0230 -0.0876
   37TMC2    O2  576   3.657   2.206  12.462  0.1130  0.4209  0.0703
   37TMC2    O5  577   3.661   2.223  12.234 -0.7198  0.0088 -0.6168
   37TMC2    H5  578   3.659   2.293  12.166 -1.4817  2.3329  1.8124
   38MPD2     C  579   3.771   3.139  12.604  0.2278  0.5447 -0.1044
   38MPD2    C1  580   3.793   3.123  12.471  0.3645  0.4507  0.4113
   38MPD2    C2  581   3.813   2.986  12.433  0.2531  1.1475 -0.4919
   38MPD2    C3  582   3.808   2.879  12.526  0.3917 -0.2575 -0.1698
   38MPD2    C4  583   3.783   2.906  12.657  0.3792 -0.8417 -0.7172
   38MPD2    C5  584   3.756   3.034  12.688 -0.3624  0.5952  0.0803
   38MPD2     H  585   3.838   2.955  12.332  0.9328  1.7414 -0.5083
   38MPD2    H1  586   3.762   2.830  12.730  0.4739  0.0787  0.2602
   38MPD2    H2  587   3.751   3.241  12.638 -3.2968  0.4333 -1.7645
   38MPD2    H3  588   3.720   3.047  12.789  0.4322 -0.0614  0.4451
   38MPD2     N  589   3.836   2.751  12.467 -0.2688  0.1699  0.0785
   38MPD2    H5  590   3.818   2.738  12.368 -0.0697 -0.0148  0.0662
   38MPD2    N1  591   3.808   3.227  12.378 -0.0999  0.1654 -0.5641
   38MPD2    H7  592   3.830   3.191  12.286  0.8823 -0.6335 -0.0184
   39MPD2     C  593   1.275   1.598   2.121 -0.2373 -0.1871  0.1799
   39MPD2    C1  594   1.343   1.515   2.033  0.0975 -0.6257  0.9816
   39MPD2    C2  595   1.284   1.493   1.910 -0.1023 -0.0641  0.2636
   39MPD2    C3  596   1.160   1.533   1.881 -0.7259  0.9804  0.0858
   39MPD2    C4  597   1.080   1.607   1.974 -0.4246 -0.4652 -0.5248
   39MPD2    C5  598   1.145   1.633   2.093  0.1324 -0.2452 -0.2482
   39MPD2     H  599   1.342   1.435   1.838  0.8924  0.6243  0.5166
   39MPD2    H1  600   0.972   1.621   1.972 -0.3660  0.4240  2.9042
   39MPD2    H2  601   1.326   1.626   2.212 -1.1379  1.3072  0.2228
   39MPD2    H3  602   1.082   1.669   2.173  2.0396 -2.0797  2.1074
   39MPD2     N  603   1.095   1.502   1.757 -0.1465 -0.2179 -0.0964
   39MPD2    H5  604   0.999   1.536   1.753 -0.5340 -1.1271  1.6041
   39MPD2    N1  605   1.464   1.455   2.078  0.0766 -0.2769 -0.0190
   39MPD2    H7  606   1.497   1.483   2.170  1.2203 -0.5629 -0.3526
   40TCq2    C1  607   1.541   1.367   1.998  0.0089  0.5647  0.4360
   40TCq2    O2  608   1.536   1.339   1.876 -0.8279 -0.5041 -0.3176
   40TCq2    C2  609   1.635   1.288   2.073 -0.3887  0.0406 -0.8691
   40TCq2    C3  610   1.675   1.165   2.028  0.1972 -0.2044 -0.2415
   40TCq2    C4  611   1.752   1.086   2.108  0.5087 -0.2128  0.3887
   40TCq2    C5  612   1.793   1.129   2.231 -0.5474 -0.5084  0.1519
   40TCq2    C6  613   1.750   1.249   2.272 -0.7332 -0.8087  0.4648
   40TCq2    C7  614   1.672   1.334   2.197  0.1996  0.6917  1.3307
   40TCq2    C8  615   1.828   1.306   2.376  0.0799  0.2915 -0.3306
   40TCq2    O4  616   1.838   1.240   2.480  0.1058  0.2625 -0.2150
   40TCq2    C9  617   1.811   0.961   2.057  0.4106 -0.6975  0.1623
   40TCq2    O5  618   1.865   0.889   2.141  0.4086 -0.0860  0.1596
   40TCq2    O6  619   1.784   0.923   1.939  0.2259  0.3681 -0.4582
   40TCq2    H2  620   1.645   1.133   1.929 -0.7405  0.3869 -0.1485
   40TCq2    H3  621   1.860   1.066   2.288  1.0175  1.7697  0.8427
   40TCq2    H4  622   1.654   1.436   2.228  0.1542  1.4031 -1.0961
   41TMC2    C1  623   0.832   3.124  14.078  0.3667  0.5907 -0.5404
   41TMC2    C2  624   0.825   3.247  14.136  0.4858  0.5505  0.0905
   41TMC2    C3  625   0.803   3.358  14.053 -0.5520  0.5668  0.0562
   41TMC2    C4  626   0.845   3.114  13.942  0.2851  0.4039  0.6030
   41TMC2    C5  627   0.818   3.220  13.867 -0.3322 -0.1302  0.1444
   41TMC2    C6  628   0.789   3.341  13.922 -0.4307 -0.0638 -0.1958
   41TMC2     C  629   0.830   2.999  14.159 -0.7503 -0.4609 -0.2928
   41TMC2     O  630   0.807   2.892  14.101 -0.1303 -0.7037  0.2145
   41TMC2     H  631   0.839   3.262  14.242 -1.8857 -0.8161  0.5676
   41TMC2    H1  632   0.852   3.015  13.899 -1.2247  0.4948  0.1579
   41TMC2    H2  633   0.754   3.429  13.869  0.4326  0.1002 -0.4948
   41TMC2    C7  634   0.767   3.198  13.731 -0.5266 -0.3404 -0.0375
   41TMC2    C8  635   0.830   3.488  14.104 -0.3870 -0.3835 -0.7667
   41TMC2    O1  636   0.685   3.284  13.693  0.0525  0.4590 -0.4565
   41TMC2    O2  637   0.764   3.587  14.067 -0.2027 -0.1851  0.4810
   41TMC2    O5  638   0.958   3.495  14.146  0.0280  0.5047 -0.0455
   41TMC2    H5  639   1.008   3.412  14.163 -0.0612  0.1274 -1.6669
   42MPD2     C  640   0.905   2.789  14.350 -0.3765 -0.1199 -0.0115
   42MPD2    C1  641   0.852   2.912  14.382  0.9228 -0.3964 -0.5487
   42MPD2    C2  642   0.816   2.925  14.520  0.3069 -0.3371 -0.2215
   42MPD2    C3  643   0.828   2.821  14.615 -0.7393 -0.6071 -0.1158
   42MPD2    C4  644   0.865   2.698  14.569  0.0526 -0.8763 -0.5624
   42MPD2    C5  645   0.903   2.685  14.439  0.4086  0.7070 -0.5956
   42MPD2     H  646   0.782   3.023  14.550  0.7152 -0.2461 -0.0456
   42MPD2    H1  647   0.865   2.616  14.640  0.1433  1.0802  1.6941
   42MPD2    H2  648   0.956   2.764  14.257  0.8531  1.3759  0.2509
   42MPD2    H3  649   0.933   2.588  14.399 -0.1260 -0.2944  1.4260
   42MPD2     N  650   0.801   2.845  14.756 -0.2490 -0.2905  0.3225
   42MPD2    H5  651   0.808   2.760  14.811 -0.3884 -0.1570  0.5496
   42MPD2    N1  652   0.838   3.024  14.295 -0.9480  0.2540 -0.5619
   42MPD2    H7  653   0.812   3.117  14.327  0.3187  0.3054  0.3251
   43MPD2     C  654   1.999   1.687   0.935 -0.4711 -0.1046  0.0912
   43MPD2    C1  655   2.124   1.719   0.972  0.4362  0.4082  0.6109
   43MPD2    C2  656   2.141   1.830   1.045  0.4966  0.3301  0.0777
   43MPD2    C3  657   2.033   1.912   1.070  0.1010  0.4049 -0.2172
   43MPD2    C4  658   1.908   1.883   1.026 -0.3589  0.0131  0.1376
   43MPD2    C5  659   1.891   1.768   0.951  0.0793 -0.1061 -0.6822
   43MPD2     H  660   2.236   1.857   1.089  0.8315  1.1523 -1.1373
   43MPD2    H1  661   1.824   1.940   1.063 -0.7249 -0.7682  0.5102
   43MPD2    H2  662   1.986   1.592   0.884  1.0045 -0.6083  0.6391
   43MPD2    H3  663   1.798   1.724   0.917  0.2435  3.7906 -6.1281
   43MPD2     N  664   2.043   2.020   1.159  0.4972 -0.1298 -0.0612
   43MPD2    H5  665   1.959   2.067   1.191 -1.3276 -2.7883 -1.0059
   43MPD2    N1  666   2.233   1.629   0.954 -0.2663  0.2349 -0.4344
   43MPD2    H7  667   2.320   1.650   1.003 -0.0776 -0.5263 -0.4466
   44TCq2    C1  668   2.247   2.232   1.645  0.3144  0.8755 -0.0592
   44TCq2    O2  669   2.361   2.225   1.609 -0.7694 -0.0548 -0.2705
   44TCq2    C2  670   2.143   2.205   1.552 -0.2089  0.5640  0.5701
   44TCq2    C3  671   2.025   2.275   1.551 -0.4675 -0.1866  0.4598
   44TCq2    C4  672   1.958   2.281   1.435 -0.2621 -0.2636 -0.4787
   44TCq2    C5  673   2.002   2.224   1.322 -0.1694 -0.1768  0.0812
   44TCq2    C6  674   2.120   2.154   1.327 -0.2670  0.3922 -0.5012
   44TCq2    C7  675   2.190   2.140   1.447 -0.0828 -0.9888  0.2531
   44TCq2    C8  676   2.158   2.067   1.224 -0.1141  0.0747 -0.8030
   44TCq2    O4  677   2.278   2.044   1.211 -0.1822  0.7544 -0.6954
   44TCq2    C9  678   1.827   2.337   1.440  0.2756 -0.0756  0.5495
   44TCq2    O5  679   1.805   2.409   1.544  0.7640 -0.0524  1.1612
   44TCq2    O6  680   1.748   2.301   1.355  0.5196  0.4035 -0.6286
   44TCq2    H2  681   1.996   2.331   1.639 -2.4736 -0.5366  0.0004
   44TCq2    H3  682   1.952   2.249   1.229 -0.0403 -1.1476 -0.2512
   44TCq2    H4  683   2.285   2.089   1.457  0.7174  0.6252  0.8503
   45TMC2    C1  684   3.571   2.880   9.938 -0.2936 -0.3338 -0.5024
   45TMC2    C2  685   3.680   2.814   9.981  0.1587 -1.4993 -0.8127
   45TMC2    C3  686   3.773   2.874  10.058 -0.3484 -0.1396  0.7084
   45TMC2    C4  687   3.556   3.012   9.968 -0.9701 -0.1364  0.7419
   45TMC2    C5  688   3.665   3.071  10.026  0.5842  0.4085 -0.2412
   45TMC2    C6  689   3.770   3.009  10.074  1.0678 -0.3013 -0.3920
   45TMC2     C  690   3.470   2.791   9.879  0.0063 -0.2513  0.9602
   45TMC2     O  691   3.493   2.672   9.893 -0.3864 -0.7424  0.0940
   45TMC2     H  692   3.687   2.706   9.978  1.2052 -1.4527 -0.0411
   45TMC2    H1  693   3.470   3.072   9.941 -1.5593 -1.4049 -0.2169
   45TMC2    H2  694   3.863   3.053  10.107 -0.0068 -0.9457  3.4431
   45TMC2    C7  695   3.653   3.199  10.092  0.2280  0.0376 -0.4572
   45TMC2    C8  696   3.878   2.789  10.111  0.0457  0.3106  0.3194
   45TMC2    O1  697   3.734   3.223  10.180 -0.5926 -0.0453  0.5919
   45TMC2    O2  698   3.898   2.673  10.071  0.4013 -0.1204  0.1347
   45TMC2    O5  699   3.934   2.846  10.219 -0.1583 -0.4135 -0.2868
   45TMC2    H5  700   3.888   2.930  10.237 -0.4762 -0.9305  1.3541
   46MPD2     C  701   3.242   2.635   9.752  0.4219 -0.6514  0.7860
   46MPD2    C1  702   3.244   2.773   9.770 -0.3522  0.1624 -0.2643
   46MPD2    C2  703   3.135   2.851   9.728 -0.2437 -0.0932 -0.2209
   46MPD2    C3  704   3.031   2.786   9.663 -0.1402  0.3604 -0.4863
   46MPD2    C4  705   3.033   2.655   9.639 -0.0013 -0.0804 -0.0504
   46MPD2    C5  706   3.142   2.585   9.677  0.7199  0.1269 -0.2534
   46MPD2     H  707   3.141   2.959   9.731 -0.2405 -0.0966 -0.0701
   46MPD2    H1  708   2.958   2.601   9.584 -1.6762  0.0803  2.0923
   46MPD2    H2  709   3.317   2.566   9.788  1.3812  0.5052  1.0167
   46MPD2    H3  710   3.135   2.479   9.654  2.5639 -0.1486  0.4859
   46MPD2     N  711   2.924   2.862   9.619  0.1936 -0.0710 -0.2952
   46MPD2    H5  712   2.933   2.961   9.640  0.0423  0.0151 -0.6499
   46MPD2    N1  713   3.360   2.846   9.816 -0.0860  0.1991 -0.7255
   46MPD2    H7  714   3.351   2.947   9.815 -1.3639  0.0683 -1.7026
   47TMC2    C1  715   0.150   3.983   9.088 -1.0341  0.4714 -0.7980
   47TMC2    C2  716   0.199   3.878   9.020  0.3238  0.2898  0.4963
   47TMC2    C3  717   0.122   3.766   9.019  0.6512  0.4064 -0.2941
   47TMC2    C4  718   0.030   3.991   9.155  0.0437  0.0827 -0.1943
   47TMC2    C5  719   4.679   3.877   9.144 -0.8360 -0.2349  0.6331
   47TMC2    C6  720   4.722   3.768   9.076  0.0005  0.7417 -0.8978
   47TMC2     C  721   0.245   4.077   9.139  0.3557 -0.7893 -0.2561
   47TMC2     O  722   0.197   4.184   9.181 -0.3853  0.6527 -0.2589
   47TMC2     H  723   0.284   3.894   8.955  0.5970  1.2967  1.0996
   47TMC2    H1  724   4.718   4.068   9.222 -0.6344  0.6823 -1.2497
   47TMC2    H2  725   4.661   3.679   9.067  0.1955  0.4819  0.3719
   47TMC2    C7  726   4.560   3.861   9.215  0.0460  0.0292  0.7941
   47TMC2    C8  727   0.143   3.665   8.922  0.0467 -0.0045  0.5193
   47TMC2    O1  728   4.511   3.746   9.226 -0.6230 -1.1671 -0.1189
   47TMC2    O2  729   0.059   3.592   8.876 -0.9332 -0.1975 -0.0572
   47TMC2    O5  730   0.263   3.621   8.946  0.3138  0.6252  0.0515
   47TMC2    H5  731   0.319   3.685   8.993  1.1027 -0.9009  1.1777
   48MPD2     C  732   0.473   4.238   9.230 -0.3452 -0.0600 -0.2640
   48MPD2    C1  733   0.478   4.101   9.223  0.2630 -0.3850 -0.1436
   48MPD2    C2  734   0.592   4.031   9.268  0.4234  0.0028  0.0841
   48MPD2    C3  735   0.691   4.092   9.349  0.3726 -0.0855  0.5311
   48MPD2    C4  736   0.670   4.234   9.370 -0.4259 -0.6145 -0.2913
   48MPD2    C5  737   0.562   4.303   9.310  0.1582 -0.0222  0.8047
   48MPD2     H  738   0.609   3.924   9.264 -2.1808 -0.2987 -3.1096
   48MPD2    H1  739   0.727   4.296   9.438  1.4401 -0.3423 -2.0888
   48MPD2    H2  740   0.391   4.297   9.191 -0.1375  0.3589 -0.0643
   48MPD2    H3  741   0.544   4.408   9.329 -1.9462  0.3758 -3.3144
   48MPD2     N  742   0.793   4.014   9.405 -0.0032 -0.0055 -0.8391
   48MPD2    H5  743   0.774   3.917   9.382 -0.0880  0.2500 -1.8391
   48MPD2    N1  744   0.373   4.027   9.162  0.0623 -0.1466  0.4199
   48MPD2    H7  745   0.390   3.929   9.140  0.9438 -0.1554  1.1659
   49MPD2     C  746   4.314   0.807  10.334  0.8886 -0.0302  0.4797
   49MPD2    C1  747   4.284   0.689  10.403 -0.0907  0.7038 -0.1923
   49MPD2    C2  748   4.289   0.690  10.538 -0.5191  0.8198  0.0217
   49MPD2    C3  749   4.313   0.808  10.603 -0.9845  0.5061  0.3740
   49MPD2    C4  750   4.332   0.922  10.527 -0.1717 -0.4765  0.0372
   49MPD2    C5  751   4.334   0.925  10.394 -0.5730  0.2305  0.1959
   49MPD2     H  752   4.266   0.596  10.588  3.4617 -0.0123  0.2936
   49MPD2    H1  753   4.338   1.019  10.577 -1.2962 -0.4956  0.2033
   49MPD2    H2  754   4.329   0.812  10.227 -3.2770 -0.2758 -0.1147
   49MPD2    H3  755   4.350   1.012  10.331 -1.1782 -0.1315 -0.4454
   49MPD2     N  756   4.332   0.831  10.740 -0.1967 -0.4806  0.6618
   49MPD2    H5  757   4.342   0.929  10.766 -0.8026 -0.2853  0.1650
   49MPD2    N1  758   4.240   0.570  10.332 -0.3525  0.7383 -0.2450
   49MPD2    H7  759   4.200   0.500  10.393  0.9847  0.7013  0.5899
   50TCq2    C1  760   4.214   0.569  10.191 -0.3140  0.9583 -0.1686
   50TCq2    O2  761   4.253   0.641  10.102  0.0091  0.1773  0.2094
   50TCq2    C2  762   4.121   0.467  10.144 -0.1839 -0.1356 -0.3642
   50TCq2    C3  763   4.115   0.425  10.012  0.9899  0.7079 -0.2025
   50TCq2    C4  764   4.045   0.310   9.972  0.7377  0.0365  0.0159
   50TCq2    C5  765   3.975   0.239  10.067  0.5250 -0.1633  0.5417
   50TCq2    C6  766   3.976   0.285  10.193 -0.3174 -0.3834 -0.8627
   50TCq2    C7  767   4.052   0.396  10.233 -0.3719 -0.4740  0.0189
   50TCq2    C8  768   3.879   0.238  10.297  1.1105  0.7146  0.7497
   50TCq2    O4  769   3.868   0.303  10.400  0.1219 -0.5250 -0.0347
   50TCq2    C9  770   4.054   0.258   9.837 -0.1471 -0.5596 -0.3506
   50TCq2    O5  771   3.975   0.164   9.796 -0.3923  0.9431 -0.3436
   50TCq2    O6  772   4.138   0.315   9.760 -0.7894  0.0460  0.1602
   50TCq2    H2  773   4.178   0.475   9.939  1.2215  0.4971 -0.1446
   50TCq2    H3  774   3.926   0.152  10.026 -4.1410  1.8462  1.9017
   50TCq2    H4  775   4.042   0.425  10.337 -0.8628 -1.4690  0.2482
   51MPD2     C  776   0.182   0.641   2.503  0.5373  0.1151 -0.4492
   51MPD2    C1  777   0.136   0.639   2.376  0.3821  0.0270 -0.5511
   51MPD2    C2  778   0.156   0.759   2.303  0.3535 -0.2841 -0.3953
   51MPD2    C3  779   0.215   0.870   2.357 -0.0827 -0.5634  0.4742
   51MPD2    C4  780   0.242   0.868   2.488 -0.7405  0.6682 -1.0397
   51MPD2    C5  781   0.230   0.754   2.560 -0.4450 -0.5718  0.4340
   51MPD2     H  782   0.126   0.772   2.200 -3.1334  1.7792  0.8770
   51MPD2    H1  783   0.268   0.961   2.538  0.9076  0.0237 -0.7241
   51MPD2    H2  784   0.165   0.555   2.567  0.5531 -0.7613 -1.6283
   51MPD2    H3  785   0.256   0.753   2.665 -1.3858  2.0399  0.6947
   51MPD2     N  786   0.235   0.989   2.284  0.3595 -0.0269 -0.8880
   51MPD2    H5  787   0.251   1.069   2.344  0.0297 -0.2595 -0.4943
   51MPD2    N1  788   0.070   0.525   2.329 -0.3046 -0.1327 -0.2374
   51MPD2    H7  789   0.062   0.454   2.402 -0.1108 -1.6628 -1.7090
   52TCq2    C1  790   0.245   1.005   2.146  0.2674 -0.5199 -1.0456
   52TCq2    O2  791   0.223   0.920   2.064  0.6202 -0.7660  0.0250
   52TCq2    C2  792   0.238   1.151   2.109  0.0929  0.0639  0.1085
   52TCq2    C3  793   0.236   1.254   2.204  0.6420  0.2780 -0.3918
   52TCq2    C4  794   0.183   1.374   2.165 -0.0907 -0.0401 -0.1937
   52TCq2    C5  795   0.163   1.393   2.036  0.1554  0.1963  0.3991
   52TCq2    C6  796   0.174   1.294   1.939 -0.3604  0.1923  0.4748
   52TCq2    C7  797   0.215   1.167   1.974 -1.1370 -0.3046 -0.0634
   52TCq2    C8  798   0.089   1.298   1.826  0.6092 -0.3774  1.0729
   52TCq2    O4  799   0.006   1.390   1.820  0.6213 -0.1696  0.1209
   52TCq2    C9  800   0.151   1.476   2.258  0.5177 -0.2510 -0.1638
   52TCq2    O5  801   0.142   1.597   2.220  0.0149  0.0227 -0.4510
   52TCq2    O6  802   0.126   1.438   2.372  0.5503 -0.7342  0.3144
   52TCq2    H2  803   0.254   1.249   2.311 -3.5681 -0.0126  0.2953
   52TCq2    H3  804   0.117   1.485   2.002 -0.1468  0.0030  0.2772
   52TCq2    H4  805   0.218   1.088   1.899  1.6768  0.7437 -1.0460
   53TMC2    C1  806   3.747   3.039  11.588  0.4565  0.4251 -0.5079
   53TMC2    C2  807   3.666   3.056  11.483  0.7681 -0.1387  0.2621
   53TMC2    C3  808   3.552   3.128  11.512 -0.1918 -0.3403 -0.2970
   53TMC2    C4  809   3.713   3.063  11.720 -0.3253 -0.8115 -1.0278
   53TMC2    C5  810   3.605   3.134  11.739  0.3533 -0.3126  0.6811
   53TMC2    C6  811   3.518   3.169  11.639 -0.1181  0.0072 -0.1740
   53TMC2     C  812   3.809   2.907  11.569 -0.1363  0.1136  1.0058
   53TMC2     O  813   3.815   2.856  11.459  0.6254  0.5126  0.0965
   53TMC2     H  814   3.691   3.040  11.379  0.1514  0.8651 -0.0414
   53TMC2    H1  815   3.789   3.065  11.797 -1.3505 -2.2240  0.0339
   53TMC2    H2  816   3.420   3.209  11.665 -0.0787 -0.2272  0.3397
   53TMC2    C7  817   3.558   3.155  11.875 -0.2576  0.3451  0.1371
   53TMC2    C8  818   3.503   3.204  11.403 -0.2813  0.6193 -0.6585
   53TMC2    O1  819   3.621   3.076  11.946  0.0236  0.0396  0.0017
   53TMC2    O2  820   3.545   3.183  11.293 -0.5294 -0.8277 -0.1112
   53TMC2    O5  821   3.431   3.312  11.449  0.0113 -0.2093 -0.5115
   53TMC2    H5  822   3.418   3.310  11.546  0.7295 -0.2988 -0.4185
   54MPD2     C  823   3.878   2.614  11.610 -0.6761  0.0244 -0.4605
   54MPD2    C1  824   3.860   2.709  11.708  0.0868  0.6864 -0.3210
   54MPD2    C2  825   3.872   2.652  11.836 -0.2873 -0.2699  0.2665
   54MPD2    C3  826   3.922   2.523  11.862  0.1306 -0.2119  0.0192
   54MPD2    C4  827   3.918   2.432  11.758 -0.3451  0.7932 -1.1056
   54MPD2    C5  828   3.900   2.484  11.637  0.3294  0.2814  0.6641
   54MPD2     H  829   3.859   2.710  11.927 -0.1948 -0.6822  0.5432
   54MPD2    H1  830   3.937   2.325  11.764 -0.0543  1.0384  1.8862
   54MPD2    H2  831   3.871   2.638  11.505  1.0013 -1.1531 -0.8523
   54MPD2    H3  832   3.900   2.422  11.548  2.2376  0.9702  0.1899
   54MPD2     N  833   3.968   2.471  11.988 -0.2156 -0.5496  0.8035
   54MPD2    H5  834   3.991   2.373  12.002 -1.0290 -0.9177 -0.4522
   54MPD2    N1  835   3.822   2.840  11.685 -0.4397 -0.2672  0.3372
   54MPD2    H7  836   3.801   2.892  11.770 -0.2550 -1.8937  1.3785
   55MPD2     C  837   0.143   1.439  17.596  0.0783 -0.5956 -0.1131
   55MPD2    C1  838   0.091   1.350  17.686 -0.1309 -0.0674 -0.3916
   55MPD2    C2  839   4.712   1.384   0.073 -0.2207 -0.5848 -0.4567
   55MPD2    C3  840   4.665   1.518   0.067  0.6132  0.3755  0.3739
   55MPD2    C4  841   4.711   1.604  17.674  0.3642 -0.0055 -0.2793
   55MPD2    C5  842   0.079   1.558  17.581  0.0541  0.0852 -0.3991
   55MPD2     H  843   4.673   1.315   0.147  0.3153 -1.2797 -0.8181
   55MPD2    H1  844   4.654   1.696  17.670 -2.5797 -1.8112 -0.1689
   55MPD2    H2  845   0.229   1.418  17.533  0.0333 -0.0793 -0.3445
   55MPD2    H3  846   0.122   1.625  17.507  0.8758  0.7183  0.6445
   55MPD2     N  847   4.569   1.561   0.167 -0.1438  1.4581 -0.5087
   55MPD2    H5  848   4.530   1.489   0.226  3.4871 -2.5336 -3.0162
   55MPD2    N1  849   0.176   1.233   0.000 -0.7416 -0.1125 -0.2390
   55MPD2    H7  850   0.233   1.218  17.616  0.8717  0.4637  0.7504
   56TCq2    C1  851   0.174   1.147   0.110 -0.1961 -0.1516  0.0643
   56TCq2    O2  852   0.091   1.143   0.201 -0.5805  0.2829  0.7945
   56TCq2    C2  853   0.282   1.056   0.111  0.7783 -0.3150  0.8734
   56TCq2    C3  854   0.357   1.031  17.695  0.0942 -0.6435 -0.2909
   56TCq2    C4  855   0.479   0.969   0.016  0.7337 -0.3190 -0.0182
   56TCq2    C5  856   0.521   0.930   0.138 -0.1425 -0.0338 -0.1589
   56TCq2    C6  857   0.446   0.943   0.250  0.9318 -0.3015 -0.2502
   56TCq2    C7  858   0.317   1.002   0.235 -0.9082 -0.1111  0.1995
   56TCq2    C8  859   0.507   0.927   0.382 -0.0364  0.3539 -0.2404
   56TCq2    O4  860   0.624   0.901   0.379 -0.0751  0.4429  0.1078
   56TCq2    C9  861   0.555   0.939  17.602  0.1030 -0.1978  0.0215
   56TCq2    O5  862   0.518   0.996  17.494  0.1624  0.4044  0.2647
   56TCq2    O6  863   0.643   0.850  17.612  0.6014  0.0725  0.3308
   56TCq2    H2  864   0.335   1.066  17.594 -0.2592 -0.5386 -0.1775
   56TCq2    H3  865   0.618   0.882   0.144  0.7697  1.9747  0.8969
   56TCq2    H4  866   0.250   0.996   0.320  0.1447  1.2491  1.1375
   57TMC2    C1  867   4.254   2.524  13.803  0.3459 -0.0157 -0.5745
   57TMC2    C2  868   4.319   2.564  13.916 -0.2340 -0.2424 -0.7258
   57TMC2    C3  869   4.453   2.592  13.899  0.0314  0.0221 -1.0615
   57TMC2    C4  870   4.314   2.489  13.687 -0.1226  0.3466  0.1594
   57TMC2    C5  871   4.451   2.505  13.683 -0.2964  0.1307  0.1148
   57TMC2    C6  872   4.519   2.560  13.787  0.0389 -0.4500 -0.2049
   57TMC2     C  873   4.109   2.535  13.808 -0.8473 -0.2406 -0.0947
   57TMC2     O  874   4.060   2.542  13.921  0.1997  0.2085  0.1708
   57TMC2     H  875   4.271   2.613  13.999  0.3364  0.4224 -0.7771
   57TMC2    H1  876   4.260   2.449  13.602 -2.3863  3.6663  0.0080
   57TMC2    H2  877   4.620   2.593  13.767 -0.5208 -0.0801 -2.3796
   57TMC2    C7  878   4.510   2.505  13.550 -0.1016 -0.1529 -0.4289
   57TMC2    C8  879   4.526   2.648  14.006 -0.0626 -0.4752  0.1441
   57TMC2    O1  880   4.621   2.551  13.543 -0.1602 -0.2759 -0.3417
   57TMC2    O2  881   4.476   2.725  14.088 -0.5923  0.2836  0.0125
   57TMC2    O5  882   4.646   2.583  13.998  0.7014  0.2053  0.0027
   57TMC2    H5  883   4.638   2.499  13.948  0.2429 -0.4039  1.1035
   58MPD2     C  884   3.643   2.525  13.599  0.2078 -0.2445  0.9113
   58MPD2    C1  885   3.683   2.545  13.729 -0.0219  0.0764 -0.3384
   58MPD2    C2  886   3.818   2.547  13.760 -0.2389  0.1028  0.1563
   58MPD2    C3  887   3.908   2.530  13.659  0.3057 -0.2668  0.4767
   58MPD2    C4  888   3.863   2.506  13.525 -0.1507 -0.4046  0.2913
   58MPD2    C5  889   3.727   2.504  13.491  0.7385  0.5816 -0.0373
   58MPD2     H  890   3.853   2.571  13.859  0.1262  1.0891 -0.2089
   58MPD2    H1  891   3.927   2.488  13.439 -1.0229 -0.2976 -0.3724
   58MPD2    H2  892   3.539   2.517  13.568  0.8558 -0.1939 -1.2544
   58MPD2    H3  893   3.692   2.494  13.389 -0.4260  1.8341  0.2463
   58MPD2     N  894   4.041   2.524  13.683 -0.6270  0.2012  0.1888
   58MPD2    H5  895   4.099   2.513  13.601 -0.7132  2.0788 -0.1159
   58MPD2    N1  896   3.590   2.572  13.838 -0.1162  0.1517 -0.2631
   58MPD2    H7  897   3.633   2.577  13.930 -0.0296 -1.3996 -0.2075
   59MPD2     C  898   1.891   2.211  13.790  0.4346  0.3386 -0.3476
   59MPD2    C1  899   1.936   2.257  13.667 -0.3141 -0.0224 -0.3831
   59MPD2    C2  900   1.988   2.384  13.669  0.0678  0.2432  0.4609
   59MPD2    C3  901   1.983   2.471  13.779  0.5474  0.1919  0.3861
   59MPD2    C4  902   1.934   2.424  13.897  0.3305  0.3999 -0.0425
   59MPD2    C5  903   1.879   2.297  13.887  0.1718 -0.6815 -0.1537
   59MPD2     H  904   2.036   2.409  13.575  1.6530 -0.7230  1.0170
   59MPD2    H1  905   1.925   2.499  13.975 -1.9374  1.5956 -1.4476
   59MPD2    H2  906   1.866   2.106  13.807 -2.3997  1.0201 -0.2548
   59MPD2    H3  907   1.835   2.267  13.981  2.5733 -2.7052  0.3155
   59MPD2     N  908   2.024   2.610  13.764 -0.2812 -0.1452  0.5728
   59MPD2    H5  909   2.025   2.659  13.854 -0.0262  2.8699 -1.0646
   59MPD2    N1  910   1.956   2.170  13.562  0.4239 -0.0482  0.0376
   59MPD2    H7  911   2.007   2.212  13.485 -1.0194  2.0012  0.2121
   60TCq2    C1  912   1.920   2.039  13.555 -0.0618  0.5998 -0.7957
   60TCq2    O2  913   1.855   1.971  13.636  0.1013 -0.0565  0.6664
   60TCq2    C2  914   1.961   1.973  13.430  0.1423 -0.0680  0.5532
   60TCq2    C3  915   1.938   1.840  13.421 -1.0910  0.1914 -0.4222
   60TCq2    C4  916   1.977   1.760  13.319 -0.6659 -0.6229 -0.2836
   60TCq2    C5  917   2.037   1.821  13.215 -0.6405  0.2646  0.0933
   60TCq2    C6  918   2.068   1.953  13.233 -0.0702 -0.2398  0.2611
   60TCq2    C7  919   2.032   2.038  13.336 -0.2091  0.5410  0.1395
   60TCq2    C8  920   2.131   2.008  13.115  0.5879 -0.0118  0.3624
   60TCq2    O4  921   2.210   1.937  13.059  0.3109 -0.6238  0.3298
   60TCq2    C9  922   1.917   1.628  13.299  0.3089  0.2567  0.7203
   60TCq2    O5  923   1.840   1.586  13.385 -0.0023 -0.2889  0.0368
   60TCq2    O6  924   1.953   1.572  13.189 -0.2433  0.0297 -0.5739
   60TCq2    H2  925   1.880   1.798  13.502  1.6073 -2.7314 -0.0287
   60TCq2    H3  926   2.054   1.780  13.116 -2.0188  1.1099 -0.4906
   60TCq2    H4  927   2.046   2.146  13.337  0.3051  0.4458  2.5328
   61MPD2     C  928   1.280   3.638  15.356  0.4697 -0.6307 -0.1932
   61MPD2    C1  929   1.296   3.778  15.331 -0.5898  0.1779  0.2519
   61MPD2    C2  930   1.237   3.840  15.220 -0.3195 -0.7626  0.0325
   61MPD2    C3  931   1.153   3.766  15.139  0.5765  0.5865  0.3135
   61MPD2    C4  932   1.133   3.630  15.176 -0.0240  0.4761 -0.7369
   61MPD2    C5  933   1.194   3.567  15.280  0.1879  0.0310 -0.2865
   61MPD2     H  934   1.236   3.948  15.210 -1.1436 -0.8921 -1.3139
   61MPD2    H1  935   1.056   3.579  15.118 -0.1766 -1.6187  1.2979
   61MPD2    H2  936   1.330   3.583  15.435 -1.9896 -2.6903 -0.0939
   61MPD2    H3  937   1.165   3.466  15.307  2.8860 -0.5553  0.3360
   61MPD2     N  938   1.076   3.821  15.031  0.5681 -0.2266  0.3925
   61MPD2    H5  939   1.009   3.760  14.985  1.4713 -0.7976 -0.1668
   61MPD2    N1  940   1.368   3.863  15.422  0.7070  0.1261 -0.4659
   61MPD2    H7  941   1.368   3.961  15.398 -0.9255 -0.0062 -0.9782
   62TCq2    C1  942   1.425   3.835  15.542 -0.4007  0.2686 -0.4577
   62TCq2    O2  943   1.455   3.727  15.584 -0.6109 -0.7716  0.1944
   62TCq2    C2  944   1.431   3.951  15.625 -0.3609  0.0537  0.0906
   62TCq2    C3  945   1.472   3.922  15.755  1.0309  0.1166 -0.4751
   62TCq2    C4  946   1.461   4.009  15.857  0.1294  0.1814  0.2504
   62TCq2    C5  947   1.374   4.114  15.827 -0.8605  0.4658  0.6222
   62TCq2    C6  948   1.327   4.145  15.705 -0.0152 -0.4538  0.1052
   62TCq2    C7  949   1.351   4.056  15.599  0.0719  0.5794 -0.0496
   62TCq2    C8  950   1.257   4.265  15.688  0.2423 -0.3467  0.4182
   62TCq2    O4  951   1.305   4.366  15.736  0.3219 -0.2530 -0.2765
   62TCq2    C9  952   1.503   3.974  15.983  0.6392  0.4785 -0.3185
   62TCq2    O5  953   1.564   3.867  15.997 -0.0052  0.6225  0.3839
   62TCq2    O6  954   1.465   4.049  16.076  0.9123 -0.7923 -0.0659
   62TCq2    H2  955   1.534   3.833  15.764  1.0175  0.3008  1.2744
   62TCq2    H3  956   1.338   4.171  15.912  1.5312  1.0693  1.2270
   62TCq2    H4  957   1.306   4.085  15.505  0.1395  2.2423  0.4277
   63TMC2    C1  958   0.735   3.908  10.577  0.4105 -0.3692 -0.5287
   63TMC2    C2  959   0.850   3.979  10.606 -0.3076  0.1460  0.1333
   63TMC2    C3  960   0.887   4.068  10.513 -0.0000  0.0100  0.1933
   63TMC2    C4  961   0.664   3.921  10.460 -0.8250  0.0870  0.0976
   63TMC2    C5  962   0.719   4.001  10.362  0.0497 -0.2693 -0.1066
   63TMC2    C6  963   0.820   4.083  10.395 -0.3300 -0.0184  0.2222
   63TMC2     C  964   0.681   3.811  10.680  0.3999  0.6676 -0.1525
   63TMC2     O  965   0.748   3.795  10.783  0.4503  0.1322  0.3110
   63TMC2     H  966   0.904   3.957  10.697 -0.5898  1.9289  0.7282
   63TMC2    H1  967   0.578   3.856  10.444 -0.5801 -0.6481  1.8511
   63TMC2    H2  968   0.861   4.146  10.317  0.6398 -2.3010 -1.1086
   63TMC2    C7  969   0.648   4.014  10.236  0.2493 -0.1957  0.2011
   63TMC2    C8  970   0.988   4.159  10.555  0.4594 -0.1028 -0.1080
   63TMC2    O1  971   0.534   3.965  10.229  0.3892  0.6029 -0.2232
   63TMC2    O2  972   1.083   4.108  10.611 -0.5975  0.3273  0.5430
   63TMC2    O5  973   0.986   4.267  10.473 -0.0286 -0.2093 -0.0024
   63TMC2    H5  974   0.900   4.310  10.454  0.7960  0.1713 -2.8825
   64MPD2     C  975   0.343   3.492  10.902 -0.0785  0.0779 -0.0351
   64MPD2    C1  976   0.474   3.476  10.876 -0.3713 -0.3252 -0.1811
   64MPD2    C2  977   0.545   3.573  10.809  0.2285 -0.5358 -0.4023
   64MPD2    C3  978   0.479   3.684  10.748  0.0624 -1.0569 -0.1358
   64MPD2    C4  979   0.340   3.693  10.772  0.1171 -0.0196  0.3106
   64MPD2    C5  980   0.275   3.592  10.840 -0.1339  0.3019  0.1237
   64MPD2     H  981   0.650   3.564  10.781  0.2076  2.4603 -1.4191
   64MPD2    H1  982   0.288   3.777  10.727  2.0952  0.5524 -0.9520
   64MPD2    H2  983   0.284   3.418  10.954 -3.1077  1.7973 -1.0153
   64MPD2    H3  984   0.171   3.602  10.868 -0.3023 -2.3527  0.4501
   64MPD2     N  985   0.546   3.780  10.664 -0.0706 -0.4967  0.5985
   64MPD2    H5  986   0.492   3.839  10.601 -0.6354 -0.8289  0.7645
   64MPD2    N1  987   0.546   3.367  10.924 -0.7593 -0.2982  0.0162
   64MPD2    H7  988   0.643   3.364  10.894 -0.2043  1.7258  1.6075
   65MPD2     C  989   1.952   3.458  16.323 -0.6755  0.7724  0.0015
   65MPD2    C1  990   1.965   3.466  16.187  0.1327 -0.5261  0.1330
   65MPD2    C2  991   1.926   3.352  16.108  0.4025 -0.3419  0.0891
   65MPD2    C3  992   1.864   3.252  16.173 -0.1692  0.6656 -0.4198
   65MPD2    C4  993   1.855   3.245  16.307  0.3987  0.9868  0.0344
   65MPD2    C5  994   1.899   3.342  16.384 -1.2689 -0.3826 -0.8180
   65MPD2     H  995   1.927   3.355  16.000 -1.7823  0.4713  0.0953
   65MPD2    H1  996   1.806   3.167  16.364  0.5217 -0.9319 -2.4752
   65MPD2    H2  997   1.963   3.540  16.391 -1.8103 -0.9213  2.2236
   65MPD2    H3  998   1.889   3.342  16.492  2.1750  2.9280 -0.4957
   65MPD2     N  999   1.795   3.150  16.107 -1.3518 -0.6356  0.5293
   65MPD2    H5 1000   1.732   3.090  16.159 -3.5785  0.1403 -1.2130
   65MPD2    N1 1001   1.993   3.588  16.122 -0.1608  0.3040 -0.1804
   65MPD2    H7 1002   1.994   3.583  16.020  0.6253  0.4633 -0.1785
   66TCq2    C1 1003   2.002   3.710  16.180 -0.1092 -0.4402  0.1571
   66TCq2    O2 1004   1.976   3.757  16.291 -0.0253 -0.8191  0.1692
   66TCq2    C2 1005   2.028   3.800  16.066  0.2888  0.0224 -0.3273
   66TCq2    C3 1006   2.031   3.758  15.938  0.1869 -0.0225 -0.2317
   66TCq2    C4 1007   2.000   3.848  15.842  0.1260 -0.5284  0.6312
   66TCq2    C5 1008   1.942   3.974  15.867  0.3897  0.1868  0.4725
   66TCq2    C6 1009   1.939   4.013  15.997 -0.2542 -0.0929 -0.0584
   66TCq2    C7 1010   1.993   3.930  16.091  0.1257  0.5867  0.1067
   66TCq2    C8 1011   1.900   4.152  16.037 -0.2008  0.1598  0.0617
   66TCq2    O4 1012   1.908   4.228  15.942 -0.5232 -0.2319  0.1386
   66TCq2    C9 1013   2.016   3.815  15.705 -0.0328 -0.4789  0.2360
   66TCq2    O5 1014   2.068   3.704  15.671 -0.2098  0.1227  0.4364
   66TCq2    O6 1015   1.980   3.904  15.624 -0.5319  0.6930  0.1216
   66TCq2    H2 1016   2.082   3.667  15.908 -0.4420 -0.6386  0.5369
   66TCq2    H3 1017   1.911   4.050  15.796  1.1974  1.4444  1.4844
   66TCq2    H4 1018   1.995   3.965  16.194 -0.2308  0.8780  0.0165
   67MPD2     C 1019   1.970   2.835  14.508 -0.1207 -0.1890 -0.0270
   67MPD2    C1 1020   1.892   2.946  14.549 -0.5582 -0.2230  0.5086
   67MPD2    C2 1021   1.766   2.967  14.490 -0.0794 -0.2178 -0.2815
   67MPD2    C3 1022   1.718   2.894  14.385  0.2836 -0.6573 -0.1361
   67MPD2    C4 1023   1.801   2.788  14.347 -0.8625  0.5180  0.1208
   67MPD2    C5 1024   1.920   2.755  14.407 -0.5666 -0.8937 -0.7680
   67MPD2     H 1025   1.713   3.057  14.515  2.3883  0.5468  2.2371
   67MPD2    H1 1026   1.762   2.723  14.270 -1.0272  1.5762 -0.6929
   67MPD2    H2 1027   2.065   2.811  14.554 -0.1022 -1.1233 -0.5582
   67MPD2    H3 1028   1.974   2.663  14.388  0.6830 -0.2357 -0.3925
   67MPD2     N 1029   1.584   2.914  14.331  0.2186  0.4921 -0.3913
   67MPD2    H5 1030   1.561   2.851  14.256  2.0343 -0.1832 -0.3958
   67MPD2    N1 1031   1.943   3.025  14.659  0.1371  0.2654  0.5833
   67MPD2    H7 1032   2.044   3.026  14.667  0.4372 -1.6104 -2.9097
   68TCq2    C1 1033   1.874   3.111  14.728 -0.4450  0.3607 -0.5005
   68TCq2    O2 1034   1.760   3.152  14.712  0.3056 -0.4342 -0.3108
   68TCq2    C2 1035   1.945   3.167  14.842  0.2285 -0.6932  0.1311
   68TCq2    C3 1036   1.903   3.292  14.888  0.3318  0.5126 -0.2113
   68TCq2    C4 1037   1.974   3.347  14.994 -0.8842 -0.5289 -0.3970
   68TCq2    C5 1038   2.093   3.288  15.033 -0.2479 -0.0123 -0.1061
   68TCq2    C6 1039   2.122   3.165  14.983 -0.0080 -0.6310  0.4863
   68TCq2    C7 1040   2.056   3.095  14.887  0.5258 -0.2950  0.1262
   68TCq2    C8 1041   2.226   3.088  15.063 -0.6451  0.5267  0.3964
   68TCq2    O4 1042   2.275   2.986  15.013  0.4656 -0.7427 -0.1904
   68TCq2    C9 1043   1.927   3.467  15.058  0.0228  0.0299  0.7707
   68TCq2    O5 1044   1.969   3.488  15.177 -0.4764  0.1272  0.4855
   68TCq2    O6 1045   1.830   3.522  15.003 -0.0906  0.8838  0.8051
   68TCq2    H2 1046   1.813   3.339  14.849  0.0007 -0.3128 -0.4421
   68TCq2    H3 1047   2.139   3.334  15.120  1.6533 -1.1139 -0.5130
   68TCq2    H4 1048   2.094   2.999  14.856 -1.3067 -0.7822 -0.5950
   69TMC2    C1 1049   3.726   3.906  12.551  0.1757  0.2082  0.6815
   69TMC2    C2 1050   3.605   3.860  12.523  0.5077  1.1574 -0.6422
   69TMC2    C3 1051   3.568   3.859  12.387  0.2742 -0.3468 -0.8656
   69TMC2    C4 1052   3.817   3.949  12.457 -0.4474  0.1282 -0.2811
   69TMC2    C5 1053   3.770   3.950  12.328 -0.3322  0.3467  0.4537
   69TMC2    C6 1054   3.647   3.909  12.283 -0.2859 -0.5710  0.0518
   69TMC2     C 1055   3.777   3.871  12.680 -0.3155 -0.5261  0.7996
   69TMC2     O 1056   3.733   3.767  12.727 -0.4401  0.2322  0.3655
   69TMC2     H 1057   3.542   3.835  12.608  0.8353  0.7612 -0.5130
   69TMC2    H1 1058   3.913   3.990  12.487 -1.8636  2.5730  0.9063
   69TMC2    H2 1059   3.609   3.915  12.181  1.1947 -1.1478 -0.5295
   69TMC2    C7 1060   3.876   3.938  12.231 -0.0080 -0.2337  0.1660
   69TMC2    C8 1061   3.440   3.805  12.355  0.1088 -0.2622 -0.0431
   69TMC2    O1 1062   3.991   3.952  12.270  0.4926 -0.2691 -0.2031
   69TMC2    O2 1063   3.376   3.824  12.253 -0.6956 -0.2662  0.8753
   69TMC2    O5 1064   3.419   3.696  12.432 -0.1258  0.1374  0.4786
   69TMC2    H5 1065   3.499   3.671  12.483 -1.3880 -3.7902  0.5141
   70MPD2     C 1066   3.964   4.082  12.903 -0.0129  0.3542 -0.2909
   70MPD2    C1 1067   3.914   3.967  12.856 -0.2180  0.9906 -0.0693
   70MPD2    C2 1068   3.937   3.854  12.926  0.7858  0.7342 -0.1607
   70MPD2    C3 1069   3.993   3.855  13.055  0.0532 -0.6287  0.7907
   70MPD2    C4 1070   4.043   3.973  13.102 -0.3744 -0.7552 -0.0583
   70MPD2    C5 1071   4.018   4.087  13.026  0.4317 -0.2845  0.4815
   70MPD2     H 1072   3.917   3.757  12.882  1.3739  1.3517 -1.8231
   70MPD2    H1 1073   4.087   3.981  13.201 -0.6108  0.0140 -0.0152
   70MPD2    H2 1074   3.956   4.171  12.842 -2.1012  0.5500  0.2659
   70MPD2    H3 1075   4.044   4.180  13.076 -2.5435 -0.8031  3.0485
   70MPD2     N 1076   3.999   3.739  13.140  0.6041 -0.7617 -0.3744
   70MPD2    H5 1077   4.028   3.757  13.236 -1.4557 -0.2622  0.1571
   70MPD2    N1 1078   3.853   3.974  12.729 -0.1216 -0.6206 -0.4049
   70MPD2    H7 1079   3.861   4.059  12.674  1.0907 -0.4857 -0.0091
   71TMC2    C1 1080   1.349   1.051   2.144 -0.0978 -0.3693 -0.1929
   71TMC2    C2 1081   1.427   1.069   2.258  0.2844 -0.2952 -0.7183
   71TMC2    C3 1082   1.387   1.172   2.345 -0.0257  0.6201 -0.3997
   71TMC2    C4 1083   1.229   1.106   2.127 -0.4069  0.5874 -0.0998
   71TMC2    C5 1084   1.187   1.203   2.218 -0.1295 -0.2756 -0.7030
   71TMC2    C6 1085   1.262   1.234   2.324 -0.6822 -0.4669  0.1219
   71TMC2     C 1086   1.371   0.929   2.077 -0.0708 -0.0085 -0.4432
   71TMC2     O 1087   1.433   0.834   2.130  0.5196 -0.3974 -0.3801
   71TMC2     H 1088   1.512   1.004   2.275 -1.5222 -2.2952  0.7265
   71TMC2    H1 1089   1.169   1.095   2.038  0.8956 -1.7254 -0.6916
   71TMC2    H2 1090   1.217   1.306   2.392 -1.1327 -0.8546  0.2354
   71TMC2    C7 1091   1.049   1.246   2.225  0.0738 -0.6874 -0.7870
   71TMC2    C8 1092   1.441   1.163   2.478  0.6767  0.4656  0.0374
   71TMC2    O1 1093   1.015   1.342   2.292 -0.2719  0.2907  0.2436
   71TMC2    O2 1094   1.501   1.070   2.525  0.5595 -0.4063 -0.7150
   71TMC2    O5 1095   1.369   1.247   2.555  0.2646 -0.1282  0.2833
   71TMC2    H5 1096   1.339   1.329   2.511  0.4217 -0.3586 -0.2519
   72MPD2     C 1097   1.209   0.581   1.764 -0.4320 -0.0698 -0.0414
   72MPD2    C1 1098   1.242   0.688   1.685  0.0539  0.1702  0.2515
   72MPD2    C2 1099   1.280   0.801   1.754 -0.4265  0.1505 -0.4345
   72MPD2    C3 1100   1.275   0.801   1.887  0.2267 -0.0163  0.0436
   72MPD2    C4 1101   1.249   0.692   1.953 -0.0490  0.5681  0.3072
   72MPD2    C5 1102   1.214   0.575   1.896  0.0070 -0.1240  0.5641
   72MPD2     H 1103   1.311   0.891   1.701 -1.4900  1.6069  1.4196
   72MPD2    H1 1104   1.254   0.683   2.061  1.6188 -0.1064  0.1669
   72MPD2    H2 1105   1.180   0.487   1.718  1.9473 -0.2881 -1.1037
   72MPD2    H3 1106   1.188   0.488   1.955 -1.5666  0.2544  0.4160
   72MPD2     N 1107   1.316   0.921   1.950 -0.3201  0.2853 -0.2603
   72MPD2    H5 1108   1.332   1.000   1.889  1.4813 -1.0083 -1.4239
   72MPD2    N1 1109   1.252   0.676   1.544  0.2060 -0.2621  0.4131
   72MPD2    H7 1110   1.316   0.737   1.494  2.2656 -1.5862  1.4441
   73TMC2    C1 1111   1.471   1.421  14.108  0.4188 -0.2596  0.1618
   73TMC2    C2 1112   1.524   1.520  14.185  0.0573 -0.1234 -0.5852
   73TMC2    C3 1113   1.586   1.484  14.302  0.2481 -0.0212 -0.4558
   73TMC2    C4 1114   1.511   1.294  14.129  0.7182 -0.9368 -0.0918
   73TMC2    C5 1115   1.587   1.264  14.243  0.4779  0.0300  0.5369
   73TMC2    C6 1116   1.608   1.357  14.340 -0.2083  0.0456  0.4755
   73TMC2     C 1117   1.465   1.444  13.966 -0.1906  0.7279  0.2585
   73TMC2     O 1118   1.555   1.502  13.907  0.4499 -0.6528 -0.4561
   73TMC2     H 1119   1.501   1.621  14.152 -0.5331  0.0347  0.2935
   73TMC2    H1 1120   1.490   1.209  14.064  3.9168 -1.0704 -0.9364
   73TMC2    H2 1121   1.659   1.322  14.430 -0.0765 -2.5629 -0.6068
   73TMC2    C7 1122   1.723   1.209  14.208 -0.3094 -0.3819  0.4964
   73TMC2    C8 1123   1.635   1.585  14.382  0.1225 -0.4465 -0.1485
   73TMC2    O1 1124   1.794   1.167  14.303  0.7087  0.2328 -0.0239
   73TMC2    O2 1125   1.662   1.564  14.503  0.1331 -0.0882 -0.5364
   73TMC2    O5 1126   1.706   1.675  14.309 -0.1612  0.1632  0.1935
   73TMC2    H5 1127   1.674   1.688  14.218  0.5800 -0.1526 -0.1175
   74MPD2     C 1128   1.380   1.168  13.538  0.6881  0.0918  0.2465
   74MPD2    C1 1129   1.491   1.243  13.566  0.0669 -0.5744 -0.4475
   74MPD2    C2 1130   1.493   1.316  13.685  0.1127  0.2599  0.5543
   74MPD2    C3 1131   1.382   1.306  13.768 -0.0324  0.1787 -0.0199
   74MPD2    C4 1132   1.277   1.220  13.737 -0.5134 -0.1576 -0.2535
   74MPD2    C5 1133   1.281   1.154  13.621  0.0582  0.0758  0.0942
   74MPD2     H 1134   1.580   1.369  13.724  0.3277  0.7529 -0.5772
   74MPD2    H1 1135   1.187   1.199  13.794  1.7079 -1.1438  2.8706
   74MPD2    H2 1136   1.368   1.112  13.446 -0.7967 -2.6493  2.1194
   74MPD2    H3 1137   1.203   1.086  13.588  0.2625 -0.0294 -0.1719
   74MPD2     N 1138   1.374   1.357  13.904  0.0113 -0.5368  0.0626
   74MPD2    H5 1139   1.287   1.334  13.949 -0.6738  2.4566  0.2933
   74MPD2    N1 1140   1.600   1.222  13.481  0.0244  0.3002  0.3067
   74MPD2    H7 1141   1.590   1.159  13.402  0.0599  0.1532  0.4208
   75TCq2    C1 1142   1.492   3.012  14.358 -0.7657 -0.1815 -0.1727
   75TCq2    O2 1143   1.495   3.106  14.437 -1.0158 -0.4203  0.6374
   75TCq2    C2 1144   1.372   2.995  14.283  0.0022  0.8088  0.3447
   75TCq2    C3 1145   1.301   3.100  14.235 -0.2474  0.4095 -0.3294
   75TCq2    C4 1146   1.208   3.082  14.138  0.3514  0.3094 -0.9717
   75TCq2    C5 1147   1.171   2.963  14.091  0.5213 -0.4460  0.1763
   75TCq2    C6 1148   1.244   2.859  14.143 -0.8958  0.2232  0.0323
   75TCq2    C7 1149   1.341   2.873  14.235  0.2490  0.0279 -0.7152
   75TCq2    C8 1150   1.194   2.726  14.101  0.4007 -0.2104 -0.7336
   75TCq2    O4 1151   1.104   2.717  14.015  0.2475  0.4982 -0.4181
   75TCq2    C9 1152   1.148   3.201  14.087 -0.0467 -0.2434  0.0018
   75TCq2    O5 1153   1.132   3.302  14.165  0.3304 -0.1776 -0.3436
   75TCq2    O6 1154   1.129   3.208  13.964  0.2445  0.2835  0.1457
   75TCq2    H2 1155   1.336   3.200  14.259 -0.5170  0.0927  1.4492
   75TCq2    H3 1156   1.088   2.947  14.023  1.3252 -1.2450 -0.6243
   75TCq2    H4 1157   1.389   2.782  14.270  0.9463 -0.1638 -2.1597
   76MPD2     C 1158   0.168   3.372  12.392 -0.0265  0.5282  0.1132
   76MPD2    C1 1159   0.204   3.390  12.261 -0.3203 -0.5086  0.2351
   76MPD2    C2 1160   0.316   3.318  12.220  0.4117  0.0843 -0.6387
   76MPD2    C3 1161   0.385   3.226  12.302  0.4162  0.1658 -0.2868
   76MPD2    C4 1162   0.345   3.223  12.432  0.0675 -0.2700 -0.7826
   76MPD2    C5 1163   0.238   3.293  12.476  0.0146  0.3863 -0.5591
   76MPD2     H 1164   0.345   3.338  12.118  2.9805  2.0112  0.4459
   76MPD2    H1 1165   0.400   3.160  12.502  1.4950  1.7875 -0.0582
   76MPD2    H2 1166   0.094   3.429  12.448 -1.1811 -0.2943 -0.5783
   76MPD2    H3 1167   0.212   3.280  12.580 -0.9410 -1.0584 -0.9752
   76MPD2     N 1168   0.490   3.143  12.268  0.3315  0.6267  0.8373
   76MPD2    H5 1169   0.526   3.075  12.334  2.0237  0.2998 -0.4370
   76MPD2    N1 1170   0.116   3.454  12.170 -0.6229  0.2716  0.1785
   76MPD2    H7 1171   0.143   3.443  12.073 -2.7848  0.3689 -0.4295
   77TCq2    C1 1172   0.556   3.147  12.144 -0.6450 -0.1427  0.0397
   77TCq2    O2 1173   0.528   3.206  12.042  0.1226 -0.4962  0.8909
   77TCq2    C2 1174   0.664   3.052  12.129 -0.5786 -0.0466 -0.0404
   77TCq2    C3 1175   0.691   3.009  12.003 -0.1574 -0.4017 -0.5006
   77TCq2    C4 1176   0.787   2.917  11.986 -0.1232  0.6355  0.5271
   77TCq2    C5 1177   0.859   2.858  12.088  1.1891 -0.4964 -0.0946
   77TCq2    C6 1178   0.817   2.897  12.213  0.2032 -0.6883 -0.7267
   77TCq2    C7 1179   0.728   2.996  12.241  0.3074 -0.3265  0.0158
   77TCq2    C8 1180   0.885   2.835  12.332 -0.3327  1.5304  0.2847
   77TCq2    O4 1181   0.880   2.901  12.438 -0.1596 -0.1453  0.6008
   77TCq2    C9 1182   0.819   2.877  11.849  0.0151 -0.0193  0.1816
   77TCq2    O5 1183   0.719   2.870  11.770 -0.1581  0.0573 -0.0949
   77TCq2    O6 1184   0.926   2.818  11.827 -0.5625  0.1535  0.0268
   77TCq2    H2 1185   0.640   3.036  11.911  1.7245 -0.8511 -1.6748
   77TCq2    H3 1186   0.944   2.793  12.074  0.0676 -2.0572  0.4250
   77TCq2    H4 1187   0.712   3.029  12.343  2.4401 -0.0142  0.2500
   78MPD1     C 1188   2.344   3.769   1.963 -0.3440 -0.3439 -0.0792
   78MPD1    C1 1189   2.357   3.636   1.990  0.3922  0.1799  0.3644
   78MPD1    C2 1190   2.479   3.592   2.048  0.2120  0.3385  0.3265
   78MPD1    C3 1191   2.584   3.678   2.089  0.8416  0.2721  0.4627
   78MPD1    C4 1192   2.561   3.814   2.064 -0.7454  0.5216  0.3632
   78MPD1    C5 1193   2.449   3.850   1.995 -0.1654  0.1882 -0.6603
   78MPD1     H 1194   2.478   3.487   2.077  0.0872 -0.0996 -1.2539
   78MPD1    H1 1195   2.632   3.889   2.096  0.5641 -0.5981  0.0719
   78MPD1    H2 1196   2.261   3.819   1.916 -0.6084 -2.5696 -2.0040
   78MPD1    H3 1197   2.430   3.953   1.967 -0.3045 -0.2319 -2.0772
   78MPD1     N 1198   2.702   3.633   2.162 -0.7014 -0.2974  0.0634
   78MPD1    H5 1199   2.777   3.700   2.177 -0.1856 -0.6972 -0.7246
   78MPD1    N1 1200   2.265   3.542   1.941  0.5625  0.0476  0.1563
   78MPD1    H6 1201   2.174   3.584   1.961  0.9871  0.7269  0.6710
   78MPD1    H7 1202   2.273   3.454   1.992 -0.0387  0.1555  0.4391
   79TCq2    C1 1203   2.721   3.511   2.223  1.1417 -0.1130 -0.0140
   79TCq2    O2 1204   2.658   3.409   2.207 -0.2620  0.6502  0.0666
   79TCq2    C2 1205   2.848   3.499   2.301 -0.1020 -0.4452  0.9133
   79TCq2    C3 1206   2.868   3.375   2.341  0.8519 -0.0797 -0.4648
   79TCq2    C4 1207   2.979   3.353   2.418  1.5059 -0.7812  0.8817
   79TCq2    C5 1208   3.059   3.460   2.451  0.1395 -0.1036 -0.1737
   79TCq2    C6 1209   3.039   3.585   2.396 -0.1045 -0.1721 -0.9709
   79TCq2    C7 1210   2.932   3.603   2.325 -0.4261  0.0134  0.5164
   79TCq2    C8 1211   3.098   3.704   2.450 -0.0338 -0.1167 -0.2594
   79TCq2    O4 1212   3.073   3.803   2.384 -0.0516  0.1987  0.1930
   79TCq2    C9 1213   3.011   3.219   2.459 -0.2239 -0.2403 -0.3642
   79TCq2    O5 1214   2.935   3.132   2.413  0.0984 -0.7050  0.6022
   79TCq2    O6 1215   3.122   3.195   2.512  0.3721  0.3273 -0.5102
   79TCq2    H2 1216   2.819   3.286   2.303  0.6863  1.0798 -3.0400
   79TCq2    H3 1217   3.153   3.433   2.498  0.2815  0.7140  0.0177
   79TCq2    H4 1218   2.905   3.704   2.297 -0.8903  0.7001  3.4088
   80MPD2     C 1219   3.773   3.396  11.495 -0.8175  0.0181  0.1093
   80MPD2    C1 1220   3.904   3.354  11.537 -0.0124  0.5672  0.4634
   80MPD2    C2 1221   3.934   3.367  11.670 -0.4084  0.1632 -0.2448
   80MPD2    C3 1222   3.844   3.408  11.761 -0.5422 -0.6153 -0.2730
   80MPD2    C4 1223   3.719   3.444  11.719  0.2086  0.6012  0.5432
   80MPD2    C5 1224   3.684   3.436  11.587  0.2986 -0.6069  0.3253
   80MPD2     H 1225   4.034   3.330  11.692  0.8670  2.5455 -2.0243
   80MPD2    H1 1226   3.649   3.474  11.796  2.5865 -0.4417  3.1152
   80MPD2    H2 1227   3.727   3.385  11.398 -2.0939 -1.8060  0.9241
   80MPD2    H3 1228   3.582   3.463  11.565 -0.2809 -0.4105  3.2589
   80MPD2     N 1229   3.879   3.416  11.902  0.2825  0.1686 -0.0576
   80MPD2    H5 1230   3.808   3.446  11.968 -0.9912 -0.3660 -1.2052
   80MPD2    N1 1231   4.006   3.297  11.452  0.1105  1.0442 -0.6688
   80MPD2    H7 1232   4.099   3.288  11.492  1.0126 -2.6957 -3.6197
   81TCq2    C1 1233   3.975   3.259  11.327  0.2709 -0.3432  0.1622
   81TCq2    O2 1234   3.871   3.236  11.270 -0.2576  0.3277  0.1652
   81TCq2    C2 1235   4.083   3.174  11.280 -0.0810  0.7637  0.3174
   81TCq2    C3 1236   4.199   3.230  11.244 -0.1620 -1.3793  0.3449
   81TCq2    C4 1237   4.297   3.149  11.213  0.5862  0.9095 -0.5535
   81TCq2    C5 1238   4.268   3.024  11.186  0.3934  0.0681 -0.0820
   81TCq2    C6 1239   4.140   2.977  11.195  0.0610  0.2741 -0.0365
   81TCq2    C7 1240   4.047   3.044  11.261 -1.1134 -0.8008 -0.5849
   81TCq2    C8 1241   4.128   2.836  11.228 -0.1237 -0.4173  0.1615
   81TCq2    O4 1242   4.155   2.754  11.143 -0.4377  0.6386 -0.6563
   81TCq2    C9 1243   4.425   3.198  11.178  0.3605 -0.4938  0.4548
   81TCq2    O5 1244   4.515   3.115  11.152 -0.1433  0.0454 -0.3420
   81TCq2    O6 1245   4.436   3.324  11.155 -0.0146 -0.1701  0.3187
   81TCq2    H2 1246   4.213   3.337  11.249 -0.4251 -1.4207  1.8509
   81TCq2    H3 1247   4.344   2.956  11.149  0.4793 -0.2337  0.6571
   81TCq2    H4 1248   3.952   2.995  11.278 -0.3382 -1.4515  1.8832
   82MPD2     C 1249   2.950   2.211  10.669 -0.4006 -0.1411 -0.1708
   82MPD2    C1 1250   2.844   2.154  10.739  0.6404  0.5079  0.0999
   82MPD2    C2 1251   2.871   2.072  10.843  0.2327  0.5940  0.0533
   82MPD2    C3 1252   3.001   2.050  10.896  1.3518 -0.1397  0.2882
   82MPD2    C4 1253   3.097   2.125  10.828 -0.0259 -0.1260 -0.3402
   82MPD2    C5 1254   3.070   2.211  10.723  0.1110 -0.0775 -0.1694
   82MPD2     H 1255   2.789   2.036  10.904  0.0422 -1.6585 -1.4844
   82MPD2    H1 1256   3.199   2.129  10.866  0.1892  0.5381 -0.9764
   82MPD2    H2 1257   2.921   2.262  10.578 -0.6530  2.5159  1.4166
   82MPD2    H3 1258   3.142   2.276  10.674 -0.4176 -0.7577 -1.8354
   82MPD2     N 1259   3.034   1.963  11.007 -0.6341  0.0367  0.4707
   82MPD2    H5 1260   3.126   1.954  11.049 -0.3650 -0.6239 -0.2803
   82MPD2    N1 1261   2.716   2.158  10.679 -0.4917  0.0046  0.5049
   82MPD2    H7 1262   2.709   2.219  10.597 -1.0626 -2.2036 -1.0800
   83TCq2    C1 1263   2.942   1.868  11.045  1.1435 -0.4196 -0.1749
   83TCq2    O2 1264   2.842   1.829  10.990 -0.2841 -0.0663 -0.4448
   83TCq2    C2 1265   2.977   1.784  11.169 -0.7126  0.0979  0.7169
   83TCq2    C3 1266   3.049   1.842  11.274 -0.4972 -0.0917  0.1388
   83TCq2    C4 1267   3.071   1.764  11.387  0.5022 -0.2736  0.6322
   83TCq2    C5 1268   3.022   1.633  11.399 -0.4046 -0.6390  0.1884
   83TCq2    C6 1269   2.950   1.587  11.291  0.1472 -0.3901  0.0656
   83TCq2    C7 1270   2.926   1.656  11.178  0.9616  0.4690 -0.4614
   83TCq2    C8 1271   2.849   1.494  11.329  0.1306  0.4141 -0.5308
   83TCq2    O4 1272   2.848   1.449  11.442  0.3411 -0.6987  0.9349
   83TCq2    C9 1273   3.126   1.832  11.506 -0.5670 -0.2836  0.0702
   83TCq2    O5 1274   3.135   1.961  11.509 -0.2053  0.1786  0.4335
   83TCq2    O6 1275   3.143   1.759  11.608 -0.0846 -0.2312 -0.2665
   83TCq2    H2 1276   3.086   1.943  11.280 -0.2617 -0.2737  1.9276
   83TCq2    H3 1277   3.049   1.565  11.479 -0.7428  0.9732  1.6956
   83TCq2    H4 1278   2.872   1.622  11.090 -1.1686  2.0996  0.2035
   84TCq2    C1 1279   4.284   0.738  10.832 -0.0541 -0.0521  0.0879
   84TCq2    O2 1280   4.214   0.643  10.810 -0.8281  0.1050  0.0403
   84TCq2    C2 1281   4.292   0.785  10.965 -0.1497 -0.1474 -0.6673
   84TCq2    C3 1282   4.388   0.878  11.002 -0.9500  0.3448 -0.3922
   84TCq2    C4 1283   4.373   0.953  11.114  0.0856 -0.2703 -0.1171
   84TCq2    C5 1284   4.274   0.920  11.203 -0.4524  0.1409 -0.1919
   84TCq2    C6 1285   4.174   0.832  11.163  0.3875 -0.6593  0.0572
   84TCq2    C7 1286   4.183   0.764  11.040 -0.5063  0.2638 -0.3538
   84TCq2    C8 1287   4.071   0.801  11.258 -0.3084 -0.0866 -0.1461
   84TCq2    O4 1288   4.045   0.894  11.336  0.2328 -0.0885 -0.4363
   84TCq2    C9 1289   4.471   1.054  11.145 -0.0938 -0.1900 -0.1131
   84TCq2    O5 1290   4.546   1.087  11.049  0.4454 -0.2225 -0.1130
   84TCq2    O6 1291   4.470   1.095  11.266  0.3983 -0.4456 -0.4538
   84TCq2    H2 1292   4.475   0.896  10.940 -0.3896  0.3458  0.4017
   84TCq2    H3 1293   4.268   0.967  11.300 -0.9282 -0.4005  0.0426
   84TCq2    H4 1294   4.106   0.691  11.017  1.5419 -2.3148  0.8969
   85MPD2     C 1295   3.900   4.391  16.747 -0.5599 -0.0452 -0.7049
   85MPD2    C1 1296   3.818   4.359  16.643 -0.1551 -0.1351 -0.5049
   85MPD2    C2 1297   3.787   4.455  16.553 -0.2207 -0.8053  0.5350
   85MPD2    C3 1298   3.838   4.581  16.566  0.3671  0.4374 -0.1683
   85MPD2    C4 1299   3.920   4.615  16.673 -0.4723 -0.2049  0.8611
   85MPD2    C5 1300   3.955   4.512  16.753  0.3382  0.2061 -0.4164
   85MPD2     H 1301   3.724   4.425  16.470 -0.6262 -1.5953  1.1381
   85MPD2    H1 1302   3.974   4.708  16.682  0.0555 -0.4668  0.4137
   85MPD2    H2 1303   3.930   4.324  16.827 -3.2637  0.5183  0.7862
   85MPD2    H3 1304   4.007   4.518  16.848 -2.2478 -1.4254  1.1323
   85MPD2     N 1305   3.812   4.667  16.454  0.2718 -0.3435 -0.1916
   85MPD2    H5 1306   3.772   4.622  16.372  1.2288  0.3887 -1.0544
   85MPD2    N1 1307   3.747   4.238  16.634  0.0821 -0.2960 -0.2428
   85MPD2    H7 1308   3.673   4.248  16.565  0.6251 -0.5788 -0.8580
   86TCq2    C1 1309   3.800   0.079  16.471 -0.1061 -0.4063  0.2601
   86TCq2    O2 1310   3.768   0.126  16.578 -0.2441  0.4293 -0.0594
   86TCq2    C2 1311   3.770   0.151  16.348  0.2587 -0.2708  0.6370
   86TCq2    C3 1312   3.676   0.250  16.345  0.0737 -0.7266 -0.2371
   86TCq2    C4 1313   3.669   0.321  16.229  0.2857  0.2233 -0.2840
   86TCq2    C5 1314   3.733   0.286  16.114 -0.0821  0.5527  0.0314
   86TCq2    C6 1315   3.833   0.193  16.121 -0.1223 -0.5225  0.1508
   86TCq2    C7 1316   3.852   0.123  16.236  0.1452 -0.2174 -0.0333
   86TCq2    C8 1317   3.885   0.126  16.003  0.1537  0.5953  0.1803
   86TCq2    O4 1318   3.954   0.029  16.032 -0.1388  0.4415  0.0775
   86TCq2    C9 1319   3.586   0.438  16.220  0.5413 -0.3953 -0.3880
   86TCq2    O5 1320   3.552   0.483  16.329  0.6129 -0.1164  0.3758
   86TCq2    O6 1321   3.576   0.504  16.111 -0.3981  0.1526 -0.3588
   86TCq2    H2 1322   3.620   0.269  16.436  1.2457 -1.3672  0.6304
   86TCq2    H3 1323   3.716   0.344  16.024  0.5679  0.5402 -0.0967
   86TCq2    H4 1324   3.938   0.060  16.254  1.2204  1.0339 -0.8247
   87MPD2     C 1325   1.611   3.177   1.548  0.5314 -0.4158 -0.3239
   87MPD2    C1 1326   1.696   3.256   1.624 -0.2237 -0.2442 -0.4636
   87MPD2    C2 1327   1.670   3.395   1.614  0.5057  0.1188 -0.5729
   87MPD2    C3 1328   1.568   3.457   1.551  0.2636  0.0749 -0.3305
   87MPD2    C4 1329   1.479   3.374   1.488  0.5848 -0.3586 -0.8246
   87MPD2    C5 1330   1.510   3.241   1.483  0.0700  0.0071  0.6586
   87MPD2     H 1331   1.741   3.453   1.671 -0.6279  0.2251  0.7214
   87MPD2    H1 1332   1.396   3.410   1.428  1.3776  1.2322 -0.9805
   87MPD2    H2 1333   1.633   3.077   1.514  0.0100 -0.8726  0.6916
   87MPD2    H3 1334   1.455   3.185   1.408  1.2165  0.2416 -0.3457
   87MPD2     N 1335   1.545   3.592   1.543 -0.0457  0.1499 -0.5240
   87MPD2    H5 1336   1.469   3.618   1.481 -0.4410  0.0374 -0.0829
   87MPD2    N1 1337   1.813   3.199   1.672 -0.3411 -0.5741  0.4766
   87MPD2    H7 1338   1.829   3.100   1.684  0.4081 -0.3275  1.4471
   88TCq2    C1 1339   1.903   3.272   1.744  0.3246 -1.0647 -0.2033
   88TCq2    O2 1340   1.887   3.379   1.803  0.5640  0.6277  0.0695
   88TCq2    C2 1341   2.037   3.214   1.752  0.0879 -0.0220 -0.5862
   88TCq2    C3 1342   2.113   3.237   1.863  0.3669 -0.0601 -0.4636
   88TCq2    C4 1343   2.232   3.174   1.871 -0.2241  0.2107 -0.0176
   88TCq2    C5 1344   2.275   3.090   1.773 -1.0291 -0.1098  0.4955
   88TCq2    C6 1345   2.200   3.069   1.660 -0.1108 -0.0558 -0.4306
   88TCq2    C7 1346   2.078   3.134   1.651 -1.2098 -0.7240  0.0334
   88TCq2    C8 1347   2.258   2.998   1.545  0.0214 -0.1864  0.4039
   88TCq2    O4 1348   2.345   2.913   1.567  0.2661  0.2467 -0.3956
   88TCq2    C9 1349   2.317   3.217   1.981 -0.6226  0.7841  0.2466
   88TCq2    O5 1350   2.424   3.152   1.997 -0.4664 -0.0628  0.2437
   88TCq2    O6 1351   2.263   3.294   2.057 -0.1608  0.5812 -0.2693
   88TCq2    H2 1352   2.071   3.302   1.939  1.3061 -0.2251  0.1850
   88TCq2    H3 1353   2.373   3.046   1.785 -1.2960 -1.0848 -0.8066
   88TCq2    H4 1354   2.027   3.122   1.557  1.6125  2.4073 -1.9183
   89MPD2     C 1355   1.969   1.503   2.547 -0.1720  0.1748  0.0138
   89MPD2    C1 1356   1.957   1.523   2.411 -0.3347  0.4125 -0.7428
   89MPD2    C2 1357   2.027   1.613   2.339  0.7947 -0.7074  0.0436
   89MPD2    C3 1358   2.109   1.703   2.403 -0.0902 -0.8408  0.3975
   89MPD2    C4 1359   2.119   1.690   2.542 -0.8473  0.5025 -0.1197
   89MPD2    C5 1360   2.058   1.589   2.608  0.7872 -0.3736 -0.5702
   89MPD2     H 1361   2.014   1.611   2.232  0.1393 -1.0539  0.1294
   89MPD2    H1 1362   2.195   1.740   2.601 -2.1854 -1.6465  3.4375
   89MPD2    H2 1363   1.922   1.422   2.601  0.0821  1.0742  1.5760
   89MPD2    H3 1364   2.067   1.587   2.716  0.4250  2.2117 -0.5025
   89MPD2     N 1365   2.184   1.788   2.321 -0.0193  0.3911 -0.1717
   89MPD2    H5 1366   2.181   1.780   2.220  1.7055  1.5367 -0.3144
   89MPD2    N1 1367   1.888   1.427   2.335  0.1170 -0.0076 -0.3451
   89MPD2    H7 1368   1.868   1.446   2.237  0.0441  0.8130 -0.1704
   90TCq2    C1 1369   2.266   1.891   2.355  0.3105 -0.1986  0.0258
   90TCq2    O2 1370   2.284   1.926   2.471  0.3280  0.4015  0.0090
   90TCq2    C2 1371   2.311   1.969   2.242 -0.3631 -0.3103 -0.3206
   90TCq2    C3 1372   2.432   2.025   2.249  0.1566  0.9006 -0.5780
   90TCq2    C4 1373   2.500   2.048   2.134 -0.2372 -0.8137 -0.6392
   90TCq2    C5 1374   2.438   2.040   2.010 -0.5452  0.0455  0.0027
   90TCq2    C6 1375   2.307   1.992   2.003 -0.2326 -0.1438 -0.4294
   90TCq2    C7 1376   2.250   1.942   2.122 -0.2176 -0.0179 -0.5426
   90TCq2    C8 1377   2.245   1.947   1.879 -0.1497  0.9455 -0.7099
   90TCq2    O4 1378   2.125   1.921   1.877 -0.7211  0.0042 -0.3485
   90TCq2    C9 1379   2.633   2.108   2.137  0.1723  0.5170 -0.2250
   90TCq2    O5 1380   2.667   2.151   2.251 -0.8038  0.4838  0.1584
   90TCq2    O6 1381   2.710   2.082   2.036 -0.2554  0.2824  0.1368
   90TCq2    H2 1382   2.488   2.045   2.340 -0.7564 -0.9089  0.3790
   90TCq2    H3 1383   2.495   2.061   1.920  1.4184  0.1577  1.2672
   90TCq2    H4 1384   2.144   1.920   2.124 -0.5287  1.5248  0.3901
   91TMC2    C1 1385   3.695   0.827  16.688 -0.0977  0.4035 -0.2226
   91TMC2    C2 1386   3.632   0.809  16.804  0.4891 -0.0416  0.2108
   91TMC2    C3 1387   3.538   0.895  16.850  0.0180 -0.7726  0.3707
   91TMC2    C4 1388   3.673   0.942  16.614  0.0692  0.0830 -0.1177
   91TMC2    C5 1389   3.582   1.027  16.668 -0.1689  0.1438  0.0080
   91TMC2    C6 1390   3.513   1.013  16.783 -0.3983 -0.2793 -0.0010
   91TMC2     C 1391   3.803   0.736  16.654  0.5772  0.5883  0.5812
   91TMC2     O 1392   3.804   0.629  16.708 -0.2925 -0.0820 -0.0339
   91TMC2     H 1393   3.660   0.724  16.865 -0.5378  2.2367  3.8712
   91TMC2    H1 1394   3.726   0.967  16.523  0.7390 -0.9420 -0.0091
   91TMC2    H2 1395   3.460   1.091  16.836  0.2697  0.7732 -0.8695
   91TMC2    C7 1396   3.529   1.134  16.589  0.4655  0.0919  0.2068
   91TMC2    C8 1397   3.530   0.897  17.002  0.3113 -0.4731  0.7974
   91TMC2    O1 1398   3.603   1.185  16.506 -0.6988 -0.3548 -0.3722
   91TMC2    O2 1399   3.450   0.825  17.056 -0.5819 -0.3214  0.4744
   91TMC2    O5 1400   3.664   0.910  17.027  0.2741 -0.2264  0.1191
   91TMC2    H5 1401   3.707   0.979  16.973 -2.3562  1.1847 -0.1740
   92MPD2     C 1402   3.929   0.579  16.459 -0.0505  0.2118 -0.7105
   92MPD2    C1 1403   3.976   0.706  16.485  1.0409  0.6095 -0.4732
   92MPD2    C2 1404   4.099   0.753  16.434 -0.0489 -0.2369 -0.5222
   92MPD2    C3 1405   4.176   0.665  16.359 -0.5489 -0.2459  0.2557
   92MPD2    C4 1406   4.130   0.542  16.329  0.0446  0.7559  0.0539
   92MPD2    C5 1407   4.009   0.500  16.377  0.4396 -0.3676 -0.0734
   92MPD2     H 1408   4.135   0.852  16.461 -2.4541  0.2406  1.0144
   92MPD2    H1 1409   4.184   0.477  16.261  2.1085  0.3111  2.1147
   92MPD2    H2 1410   3.826   0.550  16.475  0.2321  0.0180  0.7126
   92MPD2    H3 1411   3.983   0.399  16.349  3.0175 -1.2062  0.6152
   92MPD2     N 1412   4.306   0.699  16.316 -0.1094 -0.1645  0.5480
   92MPD2    H5 1413   4.370   0.624  16.293 -0.9084 -0.9598  0.9052
   92MPD2    N1 1414   3.890   0.789  16.559 -0.4870  0.7712  0.4888
   92MPD2    H7 1415   3.903   0.889  16.550 -1.3951  0.7991 -0.5927
   93MPD2     C 1416   0.720   0.970  13.671 -0.1206  0.4332 -0.1395
   93MPD2    C1 1417   0.712   0.961  13.812  0.3467 -0.1426 -0.7339
   93MPD2    C2 1418   0.586   0.946  13.870  0.4797 -0.1989 -0.4130
   93MPD2    C3 1419   0.474   0.950  13.788  0.4708  0.1673 -0.2495
   93MPD2    C4 1420   0.484   0.980  13.653 -0.5233  0.0258 -0.5294
   93MPD2    C5 1421   0.608   0.987  13.593 -0.6336  0.4855  0.5218
   93MPD2     H 1422   0.569   0.929  13.975 -0.6277  0.4043 -0.4919
   93MPD2    H1 1423   0.394   0.992  13.593 -1.5949 -0.7154  0.9471
   93MPD2    H2 1424   0.815   0.968  13.618 -0.3114 -0.0107 -0.4678
   93MPD2    H3 1425   0.613   1.001  13.485  0.3983  0.3707  0.5533
   93MPD2     N 1426   0.340   0.934  13.827 -0.9268 -0.3695 -0.3008
   93MPD2    H5 1427   0.269   0.940  13.755 -0.9173  0.1215 -0.2705
   93MPD2    N1 1428   0.826   0.958  13.894 -0.4228 -0.2967 -0.1371
   93MPD2    H7 1429   0.817   0.952  13.995  1.3074 -1.7010 -0.0703
   94TCq2    C1 1430   0.952   0.965  13.850 -0.1332  0.2021  0.2039
   94TCq2    O2 1431   1.005   0.951  13.742 -0.5528  0.2849 -0.2709
   94TCq2    C2 1432   1.054   1.000  13.946  0.2850  0.5274 -0.6929
   94TCq2    C3 1433   1.017   1.053  14.065 -0.0413  0.3201  0.1369
   94TCq2    C4 1434   1.120   1.080  14.160 -0.1990 -0.4098  0.0861
   94TCq2    C5 1435   1.249   1.028  14.142  0.5362 -0.2396 -0.4958
   94TCq2    C6 1436   1.278   0.972  14.021  0.4795  0.6450  0.3883
   94TCq2    C7 1437   1.189   0.960  13.920 -0.3630  0.4695 -0.1487
   94TCq2    C8 1438   1.422   0.946  13.996 -0.1708 -0.4954 -0.0158
   94TCq2    O4 1439   1.494   0.947  14.095 -0.0195 -0.0789 -0.3166
   94TCq2    C9 1440   1.087   1.146  14.280  0.1897 -0.2873  0.3470
   94TCq2    O5 1441   1.170   1.132  14.376  0.0930 -0.0236  0.1294
   94TCq2    O6 1442   1.010   1.246  14.268 -0.4963 -0.5305  0.2848
   94TCq2    H2 1443   0.914   1.075  14.088 -0.1966  1.0223 -1.2679
   94TCq2    H3 1444   1.315   1.041  14.226 -0.4677  0.8789  0.1157
   94TCq2    H4 1445   1.228   0.918  13.828  0.0620  2.0706 -0.7100
   95TMC2    C1 1446   1.036   2.912  16.662  0.1791  0.1276 -0.2036
   95TMC2    C2 1447   1.063   3.038  16.719  0.2032  0.0787  0.3123
   95TMC2    C3 1448   1.036   3.049  16.852 -0.0275  0.6065  0.1066
   95TMC2    C4 1449   0.977   2.812  16.728 -0.4965 -0.4586  0.2286
   95TMC2    C5 1450   0.937   2.835  16.857  0.2389  0.4625  0.0343
   95TMC2    C6 1451   0.967   2.953  16.925  0.5365  0.0995  0.7908
   95TMC2     C 1452   1.081   2.897  16.522  0.1586  0.4230  0.3515
   95TMC2     O 1453   1.125   3.003  16.477  0.0029 -0.2895  0.2517
   95TMC2     H 1454   1.132   3.104  16.667 -2.3663  0.6527 -2.3358
   95TMC2    H1 1455   0.956   2.721  16.673 -1.3084 -0.5178  0.6355
   95TMC2    H2 1456   0.951   2.965  17.032  0.3391  2.0162  0.5445
   95TMC2    C7 1457   0.860   2.742  16.938  0.0694 -0.6336  0.0578
   95TMC2    C8 1458   1.016   3.187  16.909  0.0231 -0.4506  0.4808
   95TMC2    O1 1459   0.779   2.670  16.877  0.3053 -0.0251  0.4637
   95TMC2    O2 1460   0.967   3.202  17.018 -0.2661 -0.4555 -0.2254
   95TMC2    O5 1461   1.006   3.276  16.804  0.6431  0.1873 -0.6652
   95TMC2    H5 1462   1.028   3.250  16.712  2.2435 -1.9015  0.3295
   96MPD2     C 1463   1.105   2.690  16.057  1.1181  0.2161  0.6204
   96MPD2    C1 1464   1.176   2.792  16.109 -0.2217  0.0105 -0.0897
   96MPD2    C2 1465   1.162   2.816  16.247  0.0499  0.3023  0.0436
   96MPD2    C3 1466   1.081   2.744  16.328  0.2162  0.0471  0.4922
   96MPD2    C4 1467   1.008   2.642  16.273 -0.1150  0.2795 -0.2346
   96MPD2    C5 1468   1.035   2.612  16.143 -0.2840 -1.0387  0.3738
   96MPD2     H 1469   1.221   2.898  16.288 -0.4713  1.2499 -1.0943
   96MPD2    H1 1470   0.929   2.583  16.318  2.3740 -2.8122  0.0863
   96MPD2    H2 1471   1.103   2.667  15.951 -0.9533  2.1578  0.2279
   96MPD2    H3 1472   0.979   2.528  16.103 -0.6674 -0.3494 -0.5366
   96MPD2     N 1473   1.052   2.772  16.461  0.3263 -0.6950 -0.0503
   96MPD2    H5 1474   1.001   2.700  16.511  1.3173 -0.7035  0.9540
   96MPD2    N1 1475   1.266   2.861  16.016  0.5892 -0.1063 -0.4762
   96MPD2    H7 1476   1.278   2.823  15.923  0.3934 -1.0744 -0.1013
   97MPD2     C 1477   3.816   0.744   1.337  0.2478  0.4736 -0.1374
   97MPD2    C1 1478   3.893   0.674   1.428  0.1581 -0.3959 -0.2205
   97MPD2    C2 1479   4.006   0.616   1.374  0.5946 -1.3964 -0.0362
   97MPD2    C3 1480   4.032   0.628   1.239 -0.3743 -0.4850  0.5310
   97MPD2    C4 1481   3.951   0.689   1.147 -0.1180 -0.8839  0.4504
   97MPD2    C5 1482   3.853   0.756   1.206 -0.5096 -0.8053 -0.4159
   97MPD2     H 1483   4.067   0.553   1.439 -0.1196 -2.2951 -0.2293
   97MPD2    H1 1484   3.977   0.698   1.042 -0.1497  0.3077  0.5477
   97MPD2    H2 1485   3.729   0.802   1.365 -0.6586 -1.0997  0.2899
   97MPD2    H3 1486   3.796   0.822   1.141 -1.4027  0.6344  1.8124
   97MPD2     N 1487   4.153   0.572   1.180  0.5496  0.4911  0.1274
   97MPD2    H5 1488   4.176   0.599   1.085  0.9098 -0.7441 -0.1233
   97MPD2    N1 1489   3.845   0.665   1.562 -0.5037 -0.0120 -0.4127
   97MPD2    H7 1490   3.759   0.713   1.586 -1.1702 -1.3882 -0.0461
   98TCq2    C1 1491   4.247   0.502   1.249 -0.2434  0.3721 -0.0794
   98TCq2    O2 1492   4.256   0.457   1.360 -0.0310 -0.0688  0.2488
   98TCq2    C2 1493   4.368   0.491   1.178  0.4778 -0.1055 -0.1365
   98TCq2    C3 1494   4.486   0.469   1.246  0.6073  0.3832  0.0514
   98TCq2    C4 1495   4.599   0.430   1.172  0.2033 -0.3096 -0.1717
   98TCq2    C5 1496   4.584   0.394   1.040  0.0026 -0.4473 -0.1541
   98TCq2    C6 1497   4.465   0.418   0.980  0.1570 -0.5878  0.2041
   98TCq2    C7 1498   4.354   0.475   1.039 -0.7767 -0.1488  0.0833
   98TCq2    C8 1499   4.450   0.396   0.836  0.2039  0.4699  0.5560
   98TCq2    O4 1500   4.368   0.464   0.773 -0.0926  0.3624  0.1291
   98TCq2    C9 1501   0.000   0.416   1.232 -0.0540  0.3299  0.3584
   98TCq2    O5 1502   0.096   0.364   1.167  0.0083 -0.4685  0.5657
   98TCq2    O6 1503   0.022   0.500   1.326 -0.4402  0.8470 -0.2546
   98TCq2    H2 1504   4.496   0.497   1.350  0.6781 -0.2825  0.2220
   98TCq2    H3 1505   4.671   0.353   0.989  0.9373 -1.6189  2.3281
   98TCq2    H4 1506   4.258   0.491   0.993 -0.9702  0.4618  0.6992
   99MPD2     C 1507   2.413   2.426   2.100  0.3315 -0.2670 -0.1558
   99MPD2    C1 1508   2.273   2.398   2.109 -0.1515 -0.3697 -0.0398
   99MPD2    C2 1509   2.201   2.341   2.006  0.5654 -0.5436  0.0206
   99MPD2    C3 1510   2.270   2.310   1.883  0.2063 -0.3534 -0.2180
   99MPD2    C4 1511   2.406   2.341   1.871 -0.1277 -0.7185  0.3809
   99MPD2    C5 1512   2.472   2.395   1.979 -0.2452  0.6428 -0.3707
   99MPD2     H 1513   2.098   2.313   2.025  0.2733 -0.6214 -1.6330
   99MPD2    H1 1514   2.475   2.307   1.796  0.3090 -0.0391  0.4709
   99MPD2    H2 1515   2.480   2.461   2.177 -0.9610  0.0514  0.8426
   99MPD2    H3 1516   2.580   2.393   1.967 -0.0643 -0.9397  1.5687
   99MPD2     N 1517   2.197   2.257   1.772 -0.2562 -0.2588  0.7305
   99MPD2    H5 1518   2.103   2.222   1.790 -0.5562  0.9879  1.5768
   99MPD2    N1 1519   2.216   2.394   2.234  0.1619  0.9236 -0.3026
   99MPD2    H7 1520   2.124   2.352   2.226  0.6410 -0.4275  1.3179
  100TCq2    C1 1521   2.273   2.431   2.351 -0.1698 -0.4938  0.1612
  100TCq2    O2 1522   2.387   2.452   2.385  0.5642 -0.2312  0.5280
  100TCq2    C2 1523   2.183   2.436   2.466  0.0873 -0.8266  0.5879
  100TCq2    C3 1524   2.236   2.462   2.586 -0.0182 -0.3055  0.2567
  100TCq2    C4 1525   2.153   2.499   2.688  0.3678 -0.3831 -0.0050
  100TCq2    C5 1526   2.017   2.509   2.672 -0.3851 -0.1437  0.5396
  100TCq2    C6 1527   1.966   2.496   2.550 -0.7421  0.1530  0.3449
  100TCq2    C7 1528   2.050   2.460   2.448 -0.5417  0.1735  0.3327
  100TCq2    C8 1529   1.827   2.534   2.540  0.4012 -0.7655  0.0243
  100TCq2    O4 1530   1.773   2.563   2.646 -0.6306 -0.2579 -0.4061
  100TCq2    C9 1531   2.206   2.517   2.821  0.3083  0.4587  0.3020
  100TCq2    O5 1532   2.128   2.545   2.914 -0.6486  0.0507  0.3805
  100TCq2    O6 1533   2.320   2.464   2.834 -0.0187 -0.1571  0.7822
  100TCq2    H2 1534   2.340   2.453   2.614 -0.5626 -2.3908  1.5940
  100TCq2    H3 1535   1.961   2.540   2.760 -1.8924 -0.0632 -0.4615
  100TCq2    H4 1536   2.005   2.444   2.351  0.2418 -1.6602  0.2696
  101MPD2     C 1537   2.282   3.559  13.244  0.3867 -0.2622 -0.2095
  101MPD2    C1 1538   2.384   3.515  13.325 -0.0027 -0.5619 -0.6157
  101MPD2    C2 1539   2.369   3.394  13.397  0.9842 -0.5788 -0.4965
  101MPD2    C3 1540   2.248   3.327  13.397  0.1390  0.8650  0.7091
  101MPD2    C4 1541   2.152   3.379  13.319 -0.3606 -0.4932 -0.2653
  101MPD2    C5 1542   2.163   3.491  13.243  0.1908  0.3848 -0.1872
  101MPD2     H 1543   2.454   3.358  13.454 -0.5616 -0.4676  1.8374
  101MPD2    H1 1544   2.060   3.325  13.300  0.8603 -2.4379 -0.7194
  101MPD2    H2 1545   2.297   3.645  13.180 -0.8023 -0.8297 -1.2602
  101MPD2    H3 1546   2.081   3.525  13.180 -0.0801 -1.5081 -0.8756
  101MPD2     N 1547   2.231   3.210  13.480  0.1534  0.4954 -0.3366
  101MPD2    H5 1548   2.307   3.180  13.540 -0.0496 -1.1983 -0.9254
  101MPD2    N1 1549   2.509   3.589  13.324 -0.3217  0.2904  0.4532
  101MPD2    H7 1550   2.505   3.676  13.271 -2.5910  0.2725  0.5755
  102TCq2    C1 1551   3.059   3.556  13.234  0.1341 -0.0268 -0.4283
  102TCq2    O2 1552   3.057   3.438  13.259 -0.3213 -0.3545 -0.1075
  102TCq2    C2 1553   2.944   3.638  13.269  0.4031 -0.0075  0.5624
  102TCq2    C3 1554   2.915   3.754  13.198 -0.1445 -0.0891 -0.6167
  102TCq2    C4 1555   2.800   3.820  13.234  0.6877  0.2118  0.0973
  102TCq2    C5 1556   2.703   3.770  13.313 -0.0398  0.1289  0.6653
  102TCq2    C6 1557   2.730   3.650  13.367 -0.7544 -0.2513  0.9316
  102TCq2    C7 1558   2.849   3.588  13.353  0.5219 -0.0907 -0.0562
  102TCq2    C8 1559   2.619   3.559  13.402 -0.3332 -0.0173  0.0994
  102TCq2    O4 1560   2.655   3.451  13.446  0.0902 -0.1407 -0.5082
  102TCq2    C9 1561   2.771   3.944  13.164  0.2656 -0.0699  0.1420
  102TCq2    O5 1562   2.652   3.981  13.183  0.0216 -0.2743 -0.2363
  102TCq2    O6 1563   2.832   3.963  13.051 -0.6203 -0.3974 -0.2369
  102TCq2    H2 1564   2.974   3.792  13.116 -1.7451  1.4629 -1.0581
  102TCq2    H3 1565   2.605   3.817  13.317  1.0475  2.6211 -2.0717
  102TCq2    H4 1566   2.861   3.494  13.405  0.8341 -0.3112 -0.5164
  103TMC2    C1 1567   1.174   2.734  12.959 -0.0555  0.5911 -0.5534
  103TMC2    C2 1568   1.253   2.621  12.988  0.1733 -0.1772 -0.5792
  103TMC2    C3 1569   1.263   2.582  13.117  0.2130  0.0465 -0.6476
  103TMC2    C4 1570   1.100   2.794  13.057 -0.3187  1.0233  0.0868
  103TMC2    C5 1571   1.107   2.746  13.183  0.0772 -1.0641 -0.0455
  103TMC2    C6 1572   1.186   2.640  13.217 -0.4662  0.3298  0.4492
  103TMC2     C 1573   1.128   2.743  12.826  0.3659  0.4770 -0.4514
  103TMC2     O 1574   1.063   2.841  12.790 -0.3622 -0.4262  0.2528
  103TMC2     H 1575   1.324   2.586  12.914 -1.3992 -0.4369 -1.9613
  103TMC2    H1 1576   1.032   2.875  13.034  0.1165  0.9930 -1.3325
  103TMC2    H2 1577   1.199   2.602  13.318 -2.6903 -1.1279  0.1967
  103TMC2    C7 1578   1.019   2.802  13.286 -0.5434  0.1555 -0.6059
  103TMC2    C8 1579   1.383   2.514  13.160  0.0877  0.1146 -0.2533
  103TMC2    O1 1580   1.047   2.775  13.403 -0.5305 -0.2432 -0.2071
  103TMC2    O2 1581   1.439   2.543  13.261  0.2538  0.3515 -0.1327
  103TMC2    O5 1582   1.401   2.403  13.086  0.1034 -0.3878 -0.1948
  103TMC2    H5 1583   1.332   2.398  13.017 -0.1166  0.6864 -0.0445
  104MPD2     C 1584   1.148   2.477  12.580 -0.0275 -0.1032  0.5886
  104MPD2    C1 1585   1.121   2.599  12.625 -0.6283  0.3392  0.5714
  104MPD2    C2 1586   1.066   2.684  12.537 -0.1164  0.7072  1.3030
  104MPD2    C3 1587   1.010   2.635  12.413 -0.3521 -0.0131 -0.0914
  104MPD2    C4 1588   1.035   2.506  12.377  1.0008  0.4623 -0.1853
  104MPD2    C5 1589   1.102   2.428  12.463  0.2979  0.4358 -0.5888
  104MPD2     H 1590   1.044   2.787  12.561  2.1567  1.5302 -0.1380
  104MPD2    H1 1591   0.998   2.465  12.284 -0.0083  0.9450  0.0066
  104MPD2    H2 1592   1.204   2.410  12.643  2.2760  1.4848  0.2458
  104MPD2    H3 1593   1.123   2.323  12.444  1.2601  0.0662  2.4578
  104MPD2     N 1594   0.942   2.711  12.309  0.1999 -0.3534  0.0623
  104MPD2    H5 1595   0.910   2.662  12.226 -2.6736  1.0206  0.3387
  104MPD2    N1 1596   1.158   2.627  12.763  0.1437 -0.5347  0.0770
  104MPD2    H7 1597   1.206   2.549  12.806  0.9611  1.2622  2.4217
  105MPD2     C 1598   2.769   2.380   0.230 -0.2922 -0.2305  0.2172
  105MPD2    C1 1599   2.712   2.497   0.265 -0.2259  0.1299  0.2312
  105MPD2    C2 1600   2.720   2.534   0.400  0.1392  0.0347 -1.0069
  105MPD2    C3 1601   2.759   2.447   0.504 -0.5723 -0.1536 -0.7073
  105MPD2    C4 1602   2.794   2.325   0.457  0.1640  0.5774 -0.5171
  105MPD2    C5 1603   2.801   2.289   0.320 -0.2901 -0.0671  0.0131
  105MPD2     H 1604   2.682   2.630   0.432 -3.1101 -2.2077  1.8795
  105MPD2    H1 1605   2.792   2.242   0.526 -2.2670  1.5436  0.5951
  105MPD2    H2 1606   2.752   2.340   0.131  1.6966  0.8084 -0.5485
  105MPD2    H3 1607   2.817   2.185   0.293  2.2559  0.5399 -0.8006
  105MPD2     N 1608   2.733   2.485   0.638  0.1925 -0.5731  0.1772
  105MPD2    H5 1609   2.687   2.575   0.653 -1.2179 -1.4962  1.3969
  105MPD2    N1 1610   2.667   2.591   0.174  0.0297  0.1491  0.0703
  105MPD2    H7 1611   2.623   2.669   0.222  0.3161  0.9634 -0.9958
  106TCq2    C1 1612   2.763   2.408   0.745 -0.0883  0.1472  0.2404
  106TCq2    O2 1613   2.826   2.301   0.754  0.0261  0.0366 -0.5580
  106TCq2    C2 1614   2.702   2.471   0.865  0.9269 -0.8062 -0.0725
  106TCq2    C3 1615   2.752   2.425   0.986  0.8196  0.1375  0.6458
  106TCq2    C4 1616   2.684   2.451   1.102 -0.2269 -0.3762  0.6536
  106TCq2    C5 1617   2.579   2.539   1.106 -0.4677  0.1708 -0.6996
  106TCq2    C6 1618   2.542   2.598   0.989 -0.0240  0.0555  0.5507
  106TCq2    C7 1619   2.597   2.559   0.867  0.4126  0.5602  0.3818
  106TCq2    C8 1620   2.442   2.706   0.986 -0.3389 -0.4427 -0.4687
  106TCq2    O4 1621   2.393   2.724   0.876  0.6343  0.6458 -0.2695
  106TCq2    C9 1622   2.719   2.375   1.221 -0.0150 -0.3248 -0.2407
  106TCq2    O5 1623   2.651   2.394   1.327  0.2929 -0.4795  0.0243
  106TCq2    O6 1624   2.813   2.300   1.203  0.3015 -0.2628 -1.0282
  106TCq2    H2 1625   2.827   2.347   0.991  0.6669  0.0359  1.3795
  106TCq2    H3 1626   2.528   2.544   1.202 -0.2711 -0.7808 -0.5426
  106TCq2    H4 1627   2.550   2.597   0.777 -2.9506 -2.4623  0.8847
  107TMC2    C1 1628   3.270   1.086  11.658 -0.3294 -0.5858 -0.0872
  107TMC2    C2 1629   3.291   1.188  11.565  0.3434 -0.1405 -0.4846
  107TMC2    C3 1630   3.379   1.162  11.463  0.1998  0.4642  0.2597
  107TMC2    C4 1631   3.334   0.963  11.654 -0.1663 -0.3321 -0.2285
  107TMC2    C5 1632   3.423   0.947  11.552  0.1491 -0.4371 -0.4539
  107TMC2    C6 1633   3.444   1.044  11.459 -0.4259  0.3882 -0.1256
  107TMC2     C 1634   3.181   1.112  11.775 -0.2145  0.2067  0.0483
  107TMC2     O 1635   3.152   1.227  11.798  0.1322 -0.1875 -0.4546
  107TMC2     H 1636   3.230   1.276  11.581 -0.1275 -0.6853  0.6863
  107TMC2    H1 1637   3.332   0.881  11.725 -1.3841  0.9401  1.2013
  107TMC2    H2 1638   3.492   1.023  11.364 -0.7882 -1.9601  0.2285
  107TMC2    C7 1639   3.485   0.814  11.526  0.0907  0.2030 -0.1633
  107TMC2    C8 1640   3.349   1.225  11.335  0.2396 -0.3871  0.1461
  107TMC2    O1 1641   3.432   0.711  11.570  1.0671 -0.0056 -0.1980
  107TMC2    O2 1642   3.384   1.178  11.226 -0.0514  0.2052  0.2921
  107TMC2    O5 1643   3.333   1.355  11.363 -0.4513 -0.0940 -0.5272
  107TMC2    H5 1644   3.360   1.375  11.455 -0.7854 -0.5179 -0.3425
  108MPD2     C 1645   2.977   0.873  11.958  0.5898  0.1268  0.6734
  108MPD2    C1 1646   3.054   0.987  11.940  0.0491 -0.5165 -0.3824
  108MPD2    C2 1647   3.052   1.085  12.040  0.2250  0.5011  0.0550
  108MPD2    C3 1648   2.973   1.057  12.151 -0.0418 -0.3432 -0.0233
  108MPD2    C4 1649   2.903   0.937  12.163 -0.7229 -0.2965 -0.6936
  108MPD2    C5 1650   2.898   0.850  12.065  0.1800 -0.1248 -0.0953
  108MPD2     H 1651   3.110   1.176  12.040 -0.4718  0.9458  0.0912
  108MPD2    H1 1652   2.855   0.902  12.254  0.8032  0.4399  0.4015
  108MPD2    H2 1653   2.983   0.798  11.880 -3.2030 -0.0550  0.5604
  108MPD2    H3 1654   2.842   0.757  12.070 -0.9456  0.6405  1.5540
  108MPD2     N 1655   2.979   1.132  12.270 -0.3710 -0.0299  0.3532
  108MPD2    H5 1656   2.935   1.091  12.351 -0.9703 -0.8228 -0.3680
  108MPD2    N1 1657   3.126   0.992  11.818 -0.1535  0.2416 -1.1425
  108MPD2    H7 1658   3.154   0.902  11.781 -0.7260  0.0039 -0.9871
  109MPD2     C 1659   3.617   4.591   2.888 -0.1441 -1.3887 -0.2943
  109MPD2    C1 1660   3.639   4.623   2.759 -0.4427 -0.1614  0.2516
  109MPD2    C2 1661   3.761   4.690   2.733 -0.4831  0.4859 -0.6328
  109MPD2    C3 1662   3.854   4.704   2.834  0.6270  0.7189  0.2288
  109MPD2    C4 1663   3.823   4.662   2.963 -0.0125 -0.0687 -0.4256
  109MPD2    C5 1664   3.700   4.607   2.994 -0.0500  0.6406  0.6223
  109MPD2     H 1665   3.806   4.704   2.636 -1.7298 -1.7153 -1.5184
  109MPD2    H1 1666   3.882   4.684   3.052 -1.7655 -0.3232  0.8081
  109MPD2    H2 1667   3.529   4.533   2.914  0.5513 -1.8319  1.0808
  109MPD2    H3 1668   3.675   4.594   3.098 -1.2969 -1.1685  0.0901
  109MPD2     N 1669   3.967   0.048   2.796  0.2506 -0.1189 -0.0891
  109MPD2    H5 1670   3.973   0.068   2.697 -1.2412  1.4708  0.1457
  109MPD2    N1 1671   3.539   4.587   2.660  0.5641 -0.2184  0.1143
  109MPD2    H7 1672   3.468   4.520   2.689 -2.3748  2.9973  0.3688
  110TCq2    C1 1673   4.058   0.096   2.884 -0.2128 -0.3731 -0.7874
  110TCq2    O2 1674   4.071   0.071   3.000  0.4627  0.0620 -0.3492
  110TCq2    C2 1675   4.163   0.179   2.819 -0.3340 -0.0517 -0.4473
  110TCq2    C3 1676   4.283   0.191   2.891  0.8131 -0.3435  0.3700
  110TCq2    C4 1677   4.383   0.251   2.822  0.3848  0.2460  0.2345
  110TCq2    C5 1678   4.369   0.297   2.702 -0.2281 -0.7827 -0.6209
  110TCq2    C6 1679   4.252   0.294   2.640 -0.1425 -0.4851 -0.1416
  110TCq2    C7 1680   4.141   0.227   2.691 -0.2158  0.3121 -0.3789
  110TCq2    C8 1681   4.219   0.373   2.516 -0.6366  0.5312  0.2061
  110TCq2    O4 1682   4.115   0.348   2.455  0.5352  0.2450  0.3626
  110TCq2    C9 1683   4.512   0.265   2.888 -0.1239  0.2168 -0.0001
  110TCq2    O5 1684   4.535   0.185   2.981  0.1259  0.3647 -0.4920
  110TCq2    O6 1685   4.587   0.362   2.850 -0.4076 -0.3807  0.3420
  110TCq2    H2 1686   4.294   0.167   2.996  0.9693 -1.2173  0.1496
  110TCq2    H3 1687   4.460   0.348   2.671  0.1702 -1.2063 -0.1528
  110TCq2    H4 1688   4.057   0.198   2.629  0.0641 -0.1036 -0.5680
  111TMC2    C1 1689   2.626   3.506  12.064 -0.0903 -0.3889  0.0487
  111TMC2    C2 1690   2.559   3.627  12.076 -0.5914 -0.1167 -0.1796
  111TMC2    C3 1691   2.513   3.673  12.199 -0.6401  0.5180  0.6019
  111TMC2    C4 1692   2.653   3.434  12.176  0.6532 -0.4574 -0.3140
  111TMC2    C5 1693   2.621   3.491  12.296  0.2502  0.1237  0.2514
  111TMC2    C6 1694   2.545   3.600  12.310 -0.1457 -0.1159 -0.1585
  111TMC2     C 1695   2.705   3.473  11.949 -0.5051 -0.0622  0.1150
  111TMC2     O 1696   2.666   3.509  11.841  0.2954  0.8128  0.5348
  111TMC2     H 1697   2.517   3.672  11.988  0.6848  1.2053 -0.1104
  111TMC2    H1 1698   2.688   3.332  12.172  2.8160  0.2373  0.5221
  111TMC2    H2 1699   2.504   3.625  12.407  2.0588  1.8759  0.2615
  111TMC2    C7 1700   2.618   3.398  12.413  0.2782  0.4305 -0.2914
  111TMC2    C8 1701   2.396   3.756  12.208  0.1490  0.6057  0.4611
  111TMC2    O1 1702   2.521   3.398  12.484  0.0662 -0.0042  0.2438
  111TMC2    O2 1703   2.383   3.823  12.307 -0.1638  0.0914  0.4162
  111TMC2    O5 1704   2.293   3.673  12.157  0.4573 -0.1962 -0.3204
  111TMC2    H5 1705   2.310   3.639  12.067  1.1754  0.0986 -0.2922
  112MPD2     C 1706   3.103   3.233  11.747 -0.4439 -0.0364 -0.3259
  112MPD2    C1 1707   3.005   3.314  11.685 -0.3500  0.1447  0.1045
  112MPD2    C2 1708   2.914   3.378  11.761  0.2272  0.6624 -0.6567
  112MPD2    C3 1709   2.929   3.362  11.900  0.3996  0.5609 -0.0963
  112MPD2    C4 1710   3.036   3.305  11.959  0.3649  0.3255 -0.4959
  112MPD2    C5 1711   3.123   3.237  11.879 -0.5325  0.5638  0.1853
  112MPD2     H 1712   2.826   3.424  11.718 -0.0786  1.0948  0.4563
  112MPD2    H1 1713   3.046   3.281  12.064  0.0583  2.1554 -0.0592
  112MPD2    H2 1714   3.180   3.175  11.697  0.0026 -0.5212  0.9203
  112MPD2    H3 1715   3.206   3.176  11.913 -1.3259 -0.2795  0.6106
  112MPD2     N 1716   2.830   3.411  11.989  0.2252 -0.2257 -0.1471
  112MPD2    H5 1717   2.842   3.389  12.088  0.8771  0.3845 -0.0874
  112MPD2    N1 1718   2.990   3.325  11.547  0.1055 -0.7711 -0.0068
  112MPD2    H7 1719   2.905   3.373  11.520  0.3643 -0.6829 -0.6771
  113MPD2     C 1720   1.499   2.800   1.411  0.3958 -0.2466  0.1377
  113MPD2    C1 1721   1.372   2.856   1.443  0.0690 -0.1316 -0.4167
  113MPD2    C2 1722   1.271   2.857   1.342 -0.1697 -0.3517 -0.5024
  113MPD2    C3 1723   1.303   2.812   1.215  0.0121 -0.0528 -0.1440
  113MPD2    C4 1724   1.428   2.762   1.188 -0.0215  0.4257  0.2183
  113MPD2    C5 1725   1.521   2.754   1.287 -0.2482  0.1547  0.3832
  113MPD2     H 1726   1.172   2.897   1.362 -0.6770 -1.7554 -0.1713
  113MPD2    H1 1727   1.448   2.715   1.092 -1.1590  1.4620 -0.5216
  113MPD2    H2 1728   1.578   2.808   1.485 -0.0948 -2.1197  0.8464
  113MPD2    H3 1729   1.618   2.711   1.267 -1.0557 -1.2859 -0.4828
  113MPD2     N 1730   1.209   2.797   1.111  0.0809 -0.5804  0.3004
  113MPD2    H5 1731   1.239   2.746   1.028 -0.6352 -0.5131 -0.0031
  113MPD2    N1 1732   1.345   2.923   1.560 -0.2650 -0.3383 -0.2064
  113MPD2    H7 1733   1.273   2.994   1.564 -0.3302 -0.4379  0.3658
  114TCq2    C1 1734   1.070   2.813   1.116  0.1302 -0.1279 -1.2711
  114TCq2    O2 1735   1.003   2.874   1.201 -0.2768  0.5447 -0.1956
  114TCq2    C2 1736   0.999   2.749   1.007 -0.4841  0.5240 -0.1470
  114TCq2    C3 1737   0.887   2.819   0.954 -0.1460  0.3390 -0.0455
  114TCq2    C4 1738   0.788   2.746   0.888 -0.1129  0.0414 -0.2289
  114TCq2    C5 1739   0.801   2.613   0.893  0.0069 -0.4879 -0.9360
  114TCq2    C6 1740   0.911   2.543   0.936 -0.4330 -0.5531  0.1706
  114TCq2    C7 1741   1.006   2.617   1.002 -0.1473 -0.2416  0.2536
  114TCq2    C8 1742   0.897   2.401   0.974 -0.4137 -0.7639 -0.5009
  114TCq2    O4 1743   0.999   2.349   1.017  0.5152  0.4710 -0.1524
  114TCq2    C9 1744   0.668   2.798   0.826 -0.1126 -0.0210  0.8669
  114TCq2    O5 1745   0.598   2.722   0.755  0.6608 -0.7917 -0.0823
  114TCq2    O6 1746   0.631   2.916   0.861  0.0226  0.2748  0.3425
  114TCq2    H2 1747   0.881   2.927   0.961 -0.2410  0.0653  3.9651
  114TCq2    H3 1748   0.728   2.564   0.829  1.5202 -0.9727 -2.2940
  114TCq2    H4 1749   1.094   2.565   1.038 -0.2655 -0.8975 -0.3942
  115TMC2    C1 1750   1.420   0.033   0.458  0.3640  0.3916  0.4777
  115TMC2    C2 1751   1.557   0.018   0.428 -0.0080  0.3481 -0.2736
  115TMC2    C3 1752   1.635   0.132   0.409  0.0144  0.1206 -0.4600
  115TMC2    C4 1753   1.368   0.157   0.467  0.1973  0.1412  0.5173
  115TMC2    C5 1754   1.458   0.267   0.463  0.7197 -0.7217 -0.2531
  115TMC2    C6 1755   1.589   0.259   0.425 -0.3458  0.6794 -0.3780
  115TMC2     C 1756   1.336   4.642   0.456  0.5434  0.1731 -0.3574
  115TMC2     O 1757   1.399   4.546   0.416 -0.4746 -0.3825  0.4601
  115TMC2     H 1758   1.597   4.642   0.439 -2.5945 -0.9170 -2.3938
  115TMC2    H1 1759   1.261   0.173   0.471 -0.5838 -4.7795 -0.4614
  115TMC2    H2 1760   1.655   0.343   0.409  0.4603  0.0146 -0.5531
  115TMC2    C7 1761   1.389   0.399   0.475 -0.1560 -0.1836  0.2833
  115TMC2    C8 1762   1.774   0.119   0.430  0.2902  0.5828  0.5049
  115TMC2    O1 1763   1.305   0.425   0.555 -0.2279  0.4241 -0.4362
  115TMC2    O2 1764   1.850   0.203   0.481 -0.0766 -0.3827  0.0240
  115TMC2    O5 1765   1.809   4.718   0.397  0.4024 -0.2059  0.1094
  115TMC2    H5 1766   1.744   4.680   0.335 -0.0948  3.2854 -1.5411
  116MPD2     C 1767   0.909   4.378   0.393  0.3822  0.5928  0.5406
  116MPD2    C1 1768   1.037   4.360   0.332  0.6317  0.0739 -0.1183
  116MPD2    C2 1769   1.133   4.453   0.368 -0.1982  0.1576 -0.4408
  116MPD2    C3 1770   1.115   4.560   0.460  0.4449  0.6495  0.2153
  116MPD2    C4 1771   0.988   4.568   0.517 -0.3283 -0.0416 -0.2747
  116MPD2    C5 1772   0.897   4.478   0.477  0.0207 -0.3950 -0.0101
  116MPD2     H 1773   1.225   4.454   0.311 -0.4254 -0.9402 -0.8301
  116MPD2    H1 1774   0.967   4.647   0.590  0.3449 -1.8790  1.9121
  116MPD2    H2 1775   0.822   4.319   0.366  1.0767  0.4990 -1.4777
  116MPD2    H3 1776   0.801   4.492   0.526 -0.0184  0.0310 -0.2089
  116MPD2     N 1777   1.203   4.658   0.488  0.3514  0.1654  0.3393
  116MPD2    H5 1778   1.174   0.012   0.546 -0.2435 -0.2225  0.5623
  116MPD2    N1 1779   1.053   4.258   0.236 -0.0211 -0.5747 -0.3020
  116MPD2    H7 1780   0.968   4.215   0.199 -0.5481 -1.0184  1.4424
  117TMC2    C1 1781   0.191   1.198  14.201  0.1995  0.2486 -0.0569
  117TMC2    C2 1782   0.231   1.123  14.303  0.2053 -0.6399  0.2563
  117TMC2    C3 1783   0.363   1.106  14.312 -0.3145  0.0114  0.5691
  117TMC2    C4 1784   0.279   1.253  14.111  0.1888  0.2033  1.3765
  117TMC2    C5 1785   0.412   1.232  14.130 -0.7246 -0.8521  0.5061
  117TMC2    C6 1786   0.459   1.168  14.239  0.8241  0.1064 -0.2618
  117TMC2     C 1787   0.049   1.218  14.172  0.1974  0.2272  0.2325
  117TMC2     O 1788   4.690   1.134  14.200  0.1793  0.6709 -0.1014
  117TMC2     H 1789   0.166   1.069  14.370  0.0531  0.1103  0.7077
  117TMC2    H1 1790   0.250   1.293  14.014  1.9950  1.5819  1.4124
  117TMC2    H2 1791   0.565   1.147  14.251  0.6969  0.1076  0.8505
  117TMC2    C7 1792   0.519   1.264  14.035  0.2728 -0.9755  0.2574
  117TMC2    C8 1793   0.405   1.084  14.445 -0.1656 -0.1697 -0.5987
  117TMC2    O1 1794   0.632   1.271  14.083  0.1800 -0.5139 -0.1201
  117TMC2    O2 1795   0.355   1.000  14.515 -0.0485  0.1262  0.6085
  117TMC2    O5 1796   0.441   1.209  14.491 -0.4130  0.1469  0.5397
  117TMC2    H5 1797   0.471   1.261  14.414  1.1526 -1.2004  0.2392
  118MPD2     C 1798   0.477   1.298  13.660 -0.2125 -0.5947  0.6336
  118MPD2    C1 1799   0.544   1.311  13.786  0.5224  0.7330  0.1910
  118MPD2    C2 1800   0.678   1.348  13.789  0.0083  0.0889 -0.2209
  118MPD2    C3 1801   0.740   1.377  13.671  0.3676  0.1350  0.4419
  118MPD2    C4 1802   0.677   1.353  13.548 -0.4198  0.0008  1.0434
  118MPD2    C5 1803   0.548   1.308  13.548  0.3185  0.4325 -0.0315
  118MPD2     H 1804   0.724   1.354  13.887  1.7101 -0.4222 -0.9888
  118MPD2    H1 1805   0.722   1.360  13.449 -0.8137 -0.0576  0.8606
  118MPD2    H2 1806   0.376   1.260  13.661  0.3237 -1.9900  2.1056
  118MPD2    H3 1807   0.499   1.299  13.452 -0.8899  1.0864  0.5240
  118MPD2     N 1808   0.870   1.431  13.669 -0.0980 -0.0947  0.6176
  118MPD2    H5 1809   0.904   1.467  13.580  0.1055 -0.9669  0.3388
  118MPD2    N1 1810   0.471   1.287  13.907  0.5784  0.2641 -0.2138
  118MPD2    H7 1811   0.373   1.265  13.891  0.3127  3.0819 -2.4643
  119MPD2     C 1812   3.907   2.781  14.176  0.5671 -0.6785  0.1952
  119MPD2    C1 1813   3.777   2.819  14.153 -0.7986 -0.2320  0.4025
  119MPD2    C2 1814   3.745   2.874  14.033  0.7188 -0.2503 -0.2946
  119MPD2    C3 1815   3.833   2.877  13.927  0.4313 -0.0758 -0.7510
  119MPD2    C4 1816   3.960   2.823  13.945 -0.0813  0.6939 -0.4092
  119MPD2    C5 1817   3.996   2.788  14.070  0.5672  0.4492  0.1087
  119MPD2     H 1818   3.644   2.908  14.018 -0.0351 -1.7777  1.3611
  119MPD2    H1 1819   4.039   2.823  13.871  0.1453 -0.0525 -0.1675
  119MPD2    H2 1820   3.934   2.750  14.276  1.2210  2.0403  0.8633
  119MPD2    H3 1821   4.095   2.754  14.097  0.4724  0.4070  0.4136
  119MPD2     N 1822   3.791   2.904  13.796 -0.1630  0.0151 -0.2987
  119MPD2    H5 1823   3.853   2.865  13.726 -2.9108 -2.2281 -1.4531
  119MPD2    N1 1824   3.690   2.815  14.266  0.4194 -0.1309  0.3142
  119MPD2    H7 1825   3.735   2.794  14.354 -1.0467  1.5266  1.4478
  120TCq2    C1 1826   3.666   2.938  13.750  0.5727  0.9059 -0.1782
  120TCq2    O2 1827   3.564   2.966  13.812  0.3391  0.0966 -0.2847
  120TCq2    C2 1828   3.645   2.927  13.607  0.8013 -0.0776  0.0131
  120TCq2    C3 1829   3.750   2.925  13.518 -0.2217 -0.2025  0.3189
  120TCq2    C4 1830   3.712   2.906  13.387 -0.4246  0.0569 -0.1167
  120TCq2    C5 1831   3.581   2.880  13.342 -0.2897 -0.2217 -0.3935
  120TCq2    C6 1832   3.487   2.882  13.438  0.1134  0.2686 -0.3793
  120TCq2    C7 1833   3.517   2.898  13.566  0.0719 -0.2220 -0.0692
  120TCq2    C8 1834   3.346   2.869  13.396  0.6410 -0.0671  0.3612
  120TCq2    O4 1835   3.303   2.901  13.285  0.5987  0.0601  0.3435
  120TCq2    C9 1836   3.820   2.910  13.292 -0.3194 -0.3141 -0.2686
  120TCq2    O5 1837   3.939   2.941  13.329  0.0878  0.0997  0.0356
  120TCq2    O6 1838   3.792   2.898  13.167  0.2138  0.0839 -0.5609
  120TCq2    H2 1839   3.854   2.939  13.545 -0.2982  1.6157 -0.3856
  120TCq2    H3 1840   3.553   2.867  13.238 -2.4644  1.3609  0.0014
  120TCq2    H4 1841   3.436   2.911  13.637  0.2906 -0.0102  0.1463
  121TMC2    C1 1842   0.169   4.662  14.371  0.2821 -0.4423  1.0920
  121TMC2    C2 1843   0.102   4.589  14.454 -0.0860 -0.3980  0.0808
  121TMC2    C3 1844   0.014   4.498  14.407  0.6380  0.5055  0.1073
  121TMC2    C4 1845   0.135   4.665  14.240 -0.4520  0.4431 -0.3400
  121TMC2    C5 1846   0.029   4.589  14.196  0.6003 -0.8067 -0.1980
  121TMC2    C6 1847   4.699   4.494  14.274 -0.5449 -0.3619  0.4184
  121TMC2     C 1848   0.291   4.724  14.425  0.2187 -0.3787  0.3210
  121TMC2     O 1849   0.298   4.716  14.549  0.1826 -0.2881 -0.3487
  121TMC2     H 1850   0.128   4.568  14.557  0.1496 -2.0095 -0.2922
  121TMC2    H1 1851   0.177   0.023  14.183 -0.6550 -0.0083 -1.1390
  121TMC2    H2 1852   4.636   4.412  14.242 -1.5527  0.3702  0.5382
  121TMC2    C7 1853   4.678   4.647  14.088  0.2299  0.0662 -0.2723
  121TMC2    C8 1854   4.720   4.381  14.488  0.0211 -0.5574 -0.1268
  121TMC2    O1 1855   0.011   4.724  14.013 -0.2227 -0.2394 -0.0065
  121TMC2    O2 1856   0.086   4.341  14.557 -0.5090  0.2671 -0.2759
  121TMC2    O5 1857   4.620   4.305  14.450  0.2266  0.0294  0.3731
  121TMC2    H5 1858   4.557   4.357  14.395  2.1837  2.3118  0.2861
  122MPD2     C 1859   0.524   0.151  14.502  0.3563 -0.4671  0.1868
  122MPD2    C1 1860   0.477   0.143  14.372 -0.8992 -0.0430  0.2020
  122MPD2    C2 1861   0.556   0.192  14.267 -0.2617  0.7819  0.0485
  122MPD2    C3 1862   0.674   0.255  14.292 -0.1456 -0.4977 -0.5751
  122MPD2    C4 1863   0.718   0.272  14.424 -0.3193 -0.3608  0.6371
  122MPD2    C5 1864   0.638   0.226  14.524  0.0884 -0.0035  0.2646
  122MPD2     H 1865   0.520   0.172  14.166  1.4829  2.8422 -0.9896
  122MPD2    H1 1866   0.805   0.332  14.448 -2.5218  2.8548  0.5411
  122MPD2    H2 1867   0.473   0.120  14.592  0.1028  4.8672  1.8863
  122MPD2    H3 1868   0.659   0.249  14.628 -0.9783  2.9909 -0.1671
  122MPD2     N 1869   0.763   0.296  14.193  0.4248  0.0944 -0.3328
  122MPD2    H5 1870   0.845   0.353  14.209  0.2383  1.1910 -3.2295
  122MPD2    N1 1871   0.364   0.066  14.338  0.1352 -0.1678  0.4282
  122MPD2    H7 1872   0.337   0.062  14.240  2.4923  2.6313 -0.3424
  123MPD2     C 1873   3.512   1.966  10.176  0.4652  0.2370  0.8467
  123MPD2    C1 1874   3.508   1.854  10.100 -0.3324 -0.2800  0.4549
  123MPD2    C2 1875   3.619   1.767  10.088  0.2429 -0.3110  0.0189
  123MPD2    C3 1876   3.729   1.784  10.163 -0.5096 -0.0510  0.5533
  123MPD2    C4 1877   3.727   1.890  10.253 -0.6905 -0.0241 -0.4972
  123MPD2    C5 1878   3.623   1.976  10.262  0.8688 -0.3179 -0.0834
  123MPD2     H 1879   3.618   1.677  10.028  0.5158  1.0419 -2.0008
  123MPD2    H1 1880   3.807   1.896  10.325 -1.2749 -1.7447  0.2930
  123MPD2    H2 1881   3.445   2.051  10.179 -0.8913 -0.7553 -1.4062
  123MPD2    H3 1882   3.630   2.054  10.337  2.6577  0.9241 -1.5391
  123MPD2     N 1883   3.845   1.704  10.144  0.1139 -0.9974  0.3060
  123MPD2    H5 1884   3.843   1.639  10.066 -0.5732 -1.1296  0.4360
  123MPD2    N1 1885   3.394   1.816  10.036  0.3187  0.4767  0.0099
  123MPD2    H7 1886   3.322   1.887  10.028 -0.3491 -0.2457 -0.4584
  124TCq2    C1 1887   3.973   1.719  10.199  0.3942 -0.2914  0.1815
  124TCq2    O2 1888   4.018   1.819  10.257  0.0533  0.7364 -0.1031
  124TCq2    C2 1889   4.074   1.633  10.141 -0.4789 -0.5797 -0.1052
  124TCq2    C3 1890   4.198   1.689  10.147 -0.1715 -0.3155 -0.5581
  124TCq2    C4 1891   4.294   1.634  10.062  0.2640  0.0843 -0.7059
  124TCq2    C5 1892   4.262   1.531   9.966  0.6988  0.0134 -0.5773
  124TCq2    C6 1893   4.133   1.489   9.958  0.4140  0.5347  0.4935
  124TCq2    C7 1894   4.043   1.538  10.048 -0.3811 -0.0984 -0.2347
  124TCq2    C8 1895   4.097   1.353   9.907  0.4326 -0.0586  0.4645
  124TCq2    O4 1896   4.015   1.288   9.967  0.1741 -0.2743  0.2252
  124TCq2    C9 1897   4.426   1.678  10.066  0.0633 -0.2921  0.5774
  124TCq2    O5 1898   4.496   1.670   9.962 -0.0453  0.2774  0.4214
  124TCq2    O6 1899   4.459   1.739  10.169  0.3105 -0.0418  0.3314
  124TCq2    H2 1900   4.227   1.768  10.215 -2.1501 -0.0021 -0.0622
  124TCq2    H3 1901   4.341   1.496   9.901  2.5184  1.3989  0.8541
  124TCq2    H4 1902   3.946   1.489  10.054 -1.3006  1.3144 -3.8385
  125TMC2    C1 1903   3.741   3.538   9.536 -0.7764 -0.1360  0.5972
  125TMC2    C2 1904   3.802   3.436   9.464 -0.1827 -0.6087  0.0367
  125TMC2    C3 1905   3.930   3.446   9.420  0.1005 -0.3329 -0.3131
  125TMC2    C4 1906   3.814   3.653   9.552  0.9652 -0.3235  0.8144
  125TMC2    C5 1907   3.939   3.664   9.509  0.0080 -0.0540  0.0280
  125TMC2    C6 1908   4.001   3.558   9.451  0.4911 -0.9058 -0.0528
  125TMC2     C 1909   3.596   3.538   9.551 -0.3894  0.9866 -0.1962
  125TMC2     O 1910   3.541   3.442   9.499 -0.2314 -0.0055  0.7627
  125TMC2     H 1911   3.758   3.337   9.450 -0.7839 -0.4241  0.6169
  125TMC2    H1 1912   3.767   3.742   9.593  2.0504  0.6823 -0.1378
  125TMC2    H2 1913   4.107   3.549   9.431  0.4392 -1.2242 -0.1821
  125TMC2    C7 1914   4.013   3.788   9.542 -0.1413  0.4330 -0.3041
  125TMC2    C8 1915   4.004   3.325   9.399  0.5794 -0.2490  0.0688
  125TMC2    O1 1916   3.961   3.876   9.616  0.0932  0.3367 -0.4892
  125TMC2    O2 1917   4.119   3.307   9.445  0.0860 -0.2865 -0.3777
  125TMC2    O5 1918   3.922   3.230   9.352 -0.2333 -0.0514 -0.1182
  125TMC2    H5 1919   3.842   3.263   9.305  0.0209  0.4353 -0.2086
  126MPD1     C 1920   3.132   3.757   9.640  0.0758  1.0844 -0.1424
  126MPD1    C1 1921   3.163   3.627   9.594 -1.2265  0.2997 -0.4888
  126MPD1    C2 1922   3.296   3.594   9.569  0.2861 -0.1213  1.4777
  126MPD1    C3 1923   3.400   3.683   9.611 -0.0725 -0.3030  0.0276
  126MPD1    C4 1924   3.372   3.811   9.652  0.3068 -0.3737  0.0695
  126MPD1    C5 1925   3.235   3.844   9.668 -0.2120  0.1054 -0.4312
  126MPD1     H 1926   3.326   3.497   9.529  0.6676  0.1001  1.2253
  126MPD1    H1 1927   3.457   3.873   9.678  2.4899 -2.4478 -2.1187
  126MPD1    H2 1928   3.033   3.797   9.659 -0.0413  0.4902  0.4895
  126MPD1    H3 1929   3.208   3.941   9.706  0.4047  0.5220 -1.0530
  126MPD1     N 1930   3.536   3.648   9.607  0.6807 -0.5068  0.5033
  126MPD1    H5 1931   3.599   3.716   9.648 -0.9410  0.9966  0.5187
  126MPD1    N1 1932   3.060   3.529   9.590 -0.8136 -0.6982 -0.1608
  126MPD1    H6 1933   2.964   3.562   9.584  0.0054  1.6334 -0.3173
  126MPD1    H7 1934   3.072   3.460   9.516 -0.6127 -2.3655  1.4194
  127MPD2     C 1935   1.135   3.155   9.307  0.1821  0.1993 -1.1531
  127MPD2    C1 1936   1.113   3.161   9.445  0.2762  0.0078  0.0249
  127MPD2    C2 1937   1.113   3.291   9.507 -0.4360 -0.0374  0.4654
  127MPD2    C3 1938   1.107   3.397   9.420 -0.3291  0.1963 -0.9580
  127MPD2    C4 1939   1.121   3.383   9.288 -0.5128 -0.4760  0.2749
  127MPD2    C5 1940   1.135   3.266   9.227  0.6265 -0.2175 -0.4307
  127MPD2     H 1941   1.087   3.310   9.611 -0.1780  1.6942  0.1981
  127MPD2    H1 1942   1.135   3.470   9.224  0.4362 -0.0886  1.0043
  127MPD2    H2 1943   1.151   3.061   9.257 -3.0232  0.7176 -3.1375
  127MPD2    H3 1944   1.138   3.265   9.119  0.1898 -2.0897 -0.4172
  127MPD2     N 1945   1.085   3.518   9.484 -0.2513 -0.2320  0.4713
  127MPD2    H5 1946   1.063   3.519   9.583  1.4174  2.9203  0.8158
  127MPD2    N1 1947   1.111   3.042   9.523 -1.0461 -0.6539 -0.1884
  127MPD2    H7 1948   1.112   2.955   9.471  0.9342 -1.1893  0.7615
  128TCq2    C1 1949   1.100   3.032   9.662 -0.1579 -0.0078  0.4980
  128TCq2    O2 1950   1.099   3.108   9.758  0.0422 -0.0054 -0.1453
  128TCq2    C2 1951   1.051   2.901   9.700  0.1112  0.2292 -0.2854
  128TCq2    C3 1952   1.041   2.868   9.836  0.3180 -0.2109  0.0345
  128TCq2    C4 1953   0.963   2.759   9.871 -0.4409 -0.0362  0.0191
  128TCq2    C5 1954   0.900   2.685   9.780  0.0646 -0.2189  0.8713
  128TCq2    C6 1955   0.906   2.723   9.647 -0.5953  0.2457 -0.1138
  128TCq2    C7 1956   0.984   2.829   9.603  0.3615 -0.1133  0.2354
  128TCq2    C8 1957   0.790   2.682   9.562  0.0688  0.2776 -0.1997
  128TCq2    O4 1958   0.799   2.694   9.442  0.3393  0.4220  0.5667
  128TCq2    C9 1959   0.961   2.711  10.008  0.3624  0.0901  0.4687
  128TCq2    O5 1960   1.037   2.772  10.092 -0.6534  0.2281 -0.3655
  128TCq2    O6 1961   0.859   2.643  10.035 -0.0447 -0.2745 -0.1053
  128TCq2    H2 1962   1.094   2.924   9.912 -0.6147 -1.8477  1.9119
  128TCq2    H3 1963   0.864   2.586   9.805  1.1725 -0.7116  0.5048
  128TCq2    H4 1964   0.959   2.878   9.509 -1.0577  1.1883  1.2844
  129MPD2     C 1965   4.171   4.543   2.627  0.1371  0.2998 -0.0418
  129MPD2    C1 1966   4.102   4.595   2.520 -0.3295 -0.3509 -0.1508
  129MPD2    C2 1967   4.167   4.686   2.444  0.2307  0.2863 -0.0885
  129MPD2    C3 1968   4.302   0.003   2.475 -0.1253  0.0806  0.9788
  129MPD2    C4 1969   4.362   4.671   2.588  0.5111 -0.2781 -0.3660
  129MPD2    C5 1970   4.294   4.588   2.665 -0.5086 -0.6469  0.1664
  129MPD2     H 1971   4.117   0.009   2.360  0.2617  1.2566  0.4409
  129MPD2    H1 1972   4.462   4.700   2.619 -0.2879  2.6726 -0.5285
  129MPD2    H2 1973   4.128   4.480   2.704 -0.6608 -1.0813 -1.6132
  129MPD2    H3 1974   4.339   4.535   2.748 -0.6444  2.0947  2.0154
  129MPD2     N 1975   4.360   0.081   2.375 -0.1270  0.0587  0.5412
  129MPD2    H5 1976   4.305   0.095   2.291  1.3329  0.4200 -0.3640
  129MPD2    N1 1977   3.980   4.536   2.484  0.3677 -0.0165  0.7417
  129MPD2    H7 1978   3.931   4.573   2.403  2.0172 -0.1394 -0.3077
  130TCq2    C1 1979   3.942   4.403   2.503 -0.0065  0.1128  0.5544
  130TCq2    O2 1980   3.964   4.325   2.598  0.5935 -0.5499  0.2834
  130TCq2    C2 1981   3.834   4.369   2.409 -0.0098  0.5437 -0.0803
  130TCq2    C3 1982   3.804   4.455   2.306 -0.1023  0.0391  0.3881
  130TCq2    C4 1983   3.735   4.411   2.201 -0.2994  0.0013 -0.0803
  130TCq2    C5 1984   3.694   4.281   2.193  0.0800 -0.4533 -0.0189
  130TCq2    C6 1985   3.731   4.194   2.296 -0.2391 -0.0797  0.5488
  130TCq2    C7 1986   3.799   4.236   2.413 -0.8318 -0.6993 -0.6918
  130TCq2    C8 1987   3.683   4.062   2.280  0.5981  0.6177 -0.5179
  130TCq2    O4 1988   3.596   4.042   2.196  0.1687 -0.1099  0.3928
  130TCq2    C9 1989   3.690   4.506   2.105  0.0393 -0.4199 -0.1457
  130TCq2    O5 1990   3.608   4.464   2.020 -0.2935  0.0699  0.3327
  130TCq2    O6 1991   3.765   4.599   2.079 -0.2613  0.5748  0.3758
  130TCq2    H2 1992   3.818   4.562   2.301  1.2220 -0.1888 -0.8565
  130TCq2    H3 1993   3.644   4.256   2.100  1.0573 -2.0517 -0.1191
  130TCq2    H4 1994   3.816   4.184   2.507 -1.9016 -2.8732 -1.6927
  131MPD2     C 1995   3.080   2.315   9.423 -0.0511 -0.0107  0.4208
  131MPD2    C1 1996   3.201   2.273   9.483  0.1069 -0.0339  0.2218
  131MPD2    C2 1997   3.207   2.168   9.571 -0.0958  0.2236 -0.5496
  131MPD2    C3 1998   3.085   2.111   9.614 -0.0330  0.1806 -0.3123
  131MPD2    C4 1999   2.960   2.147   9.558  0.1985  0.3441 -0.1611
  131MPD2    C5 2000   2.962   2.257   9.469  0.4236  0.2325  0.6205
  131MPD2     H 2001   3.301   2.135   9.612  0.4904  1.1326 -1.1712
  131MPD2    H1 2002   2.861   2.108   9.578  0.7234 -0.3933  0.9702
  131MPD2    H2 2003   3.071   2.406   9.366 -1.8149 -0.4334  0.0358
  131MPD2    H3 2004   2.865   2.293   9.437  0.0216  0.0642  1.6611
  131MPD2     N 2005   3.096   2.005   9.704  0.7146  0.3071  1.1686
  131MPD2    H5 2006   3.187   1.984   9.745  1.8876  1.0060 -1.0459
  131MPD2    N1 2007   3.315   2.347   9.459  0.1151 -0.4934  0.0280
  131MPD2    H7 2008   3.302   2.424   9.394 -1.0951 -1.1107 -0.4542
  132TCq2    C1 2009   3.775   2.669   9.644 -0.1830 -0.1937 -0.2853
  132TCq2    O2 2010   3.838   2.574   9.694 -0.0296  0.3319  0.1362
  132TCq2    C2 2011   3.654   2.626   9.569  0.4590  0.3235  0.1969
  132TCq2    C3 2012   3.620   2.700   9.457  0.8465  0.4616 -0.8767
  132TCq2    C4 2013   3.554   2.632   9.357  0.1185  0.7776 -0.2292
  132TCq2    C5 2014   3.500   2.505   9.373  0.4227 -0.6763  0.4079
  132TCq2    C6 2015   3.524   2.444   9.491  0.5475 -0.2519 -0.9610
  132TCq2    C7 2016   3.608   2.500   9.590 -1.1239  0.0917  0.2509
  132TCq2    C8 2017   3.435   2.338   9.533 -0.2016 -0.1995  0.8636
  132TCq2    O4 2018   3.473   2.271   9.627 -0.0987 -0.1487  0.4629
  132TCq2    C9 2019   3.537   2.706   9.231  0.5415  0.2830 -0.3274
  132TCq2    O5 2020   3.581   2.821   9.222 -0.5237 -0.3800  0.7612
  132TCq2    O6 2021   3.484   2.643   9.139 -0.8747 -0.4352 -0.2554
  132TCq2    H2 2022   3.659   2.800   9.440 -0.1765  1.0062 -0.0399
  132TCq2    H3 2023   3.456   2.451   9.289 -0.0401 -2.0400  1.5272
  132TCq2    H4 2024   3.627   2.445   9.681 -1.6763  2.0108  1.5033
  133MPD2     C 2025   2.610   3.707   9.275  0.0699  0.2547  0.8256
  133MPD2    C1 2026   2.728   3.636   9.286  0.0357  0.4965  0.2504
  133MPD2    C2 2027   2.720   3.498   9.315 -0.7853  0.0321 -0.8556
  133MPD2    C3 2028   2.601   3.446   9.353  0.3059  0.8838  0.1647
  133MPD2    C4 2029   2.485   3.519   9.345  0.0572  0.5329  0.2233
  133MPD2    C5 2030   2.491   3.651   9.307 -0.2222 -0.4378  0.0370
  133MPD2     H 2031   2.812   3.449   9.343 -1.2833  0.1715  1.0427
  133MPD2    H1 2032   2.391   3.476   9.379  0.4111 -0.0250  0.4838
  133MPD2    H2 2033   2.609   3.814   9.256 -2.2237 -0.2741 -1.9221
  133MPD2    H3 2034   2.392   3.695   9.303  0.9011  1.9887 -1.1588
  133MPD2     N 2035   2.584   3.313   9.398 -0.0995 -0.1596  0.5778
  133MPD2    H5 2036   2.489   3.295   9.430 -1.3135 -1.5590 -3.8686
  133MPD2    N1 2037   2.848   3.710   9.268 -0.5542 -0.5476  0.2586
  133MPD2    H7 2038   2.848   3.811   9.256 -1.4121 -0.6092 -0.2319
  134TCq2    C1 2039   2.976   3.649   9.258 -0.1800  0.3284 -0.2503
  134TCq2    O2 2040   3.009   3.530   9.255 -0.0085  0.2621 -0.3301
  134TCq2    C2 2041   3.083   3.742   9.249 -1.0633 -0.1352 -0.2377
  134TCq2    C3 2042   3.060   3.877   9.270 -0.2356  0.2129  0.2698
  134TCq2    C4 2043   3.163   3.969   9.265 -0.0322 -0.9176  0.1423
  134TCq2    C5 2044   3.288   3.926   9.237 -0.4388 -0.1322 -0.1193
  134TCq2    C6 2045   3.308   3.790   9.211 -0.6229 -0.4457  0.5470
  134TCq2    C7 2046   3.204   3.700   9.214 -0.1488  0.4054  0.0268
  134TCq2    C8 2047   3.439   3.730   9.192 -1.2435  0.7454 -0.1591
  134TCq2    O4 2048   3.449   3.622   9.127  0.1835  0.8428  0.0757
  134TCq2    C9 2049   3.132   4.110   9.293 -0.7844 -0.6164 -0.6741
  134TCq2    O5 2050   3.227   4.193   9.290  0.7619 -0.4460 -0.3676
  134TCq2    O6 2051   3.004   4.139   9.301  0.0635 -0.6602  0.3018
  134TCq2    H2 2052   2.962   3.913   9.300 -0.8144 -0.3191 -0.9726
  134TCq2    H3 2053   3.369   3.997   9.225 -1.5380  0.6652 -2.7375
  134TCq2    H4 2054   3.226   3.593   9.216 -1.4944  0.0676 -2.3572
  135MPD2     C 2055   4.715   4.415   9.682 -0.3812  0.1197  0.6365
  135MPD2    C1 2056   4.599   4.417   9.608 -0.8206  0.4204  0.1377
  135MPD2    C2 2057   4.605   4.403   9.471  0.1912  0.0341 -0.1069
  135MPD2    C3 2058   0.005   4.387   9.405  0.2384  0.2598  0.6238
  135MPD2    C4 2059   0.124   4.405   9.480 -0.4566 -1.0904  0.2833
  135MPD2    C5 2060   0.114   4.410   9.615  0.0766  0.1018 -0.4232
  135MPD2     H 2061   4.508   4.411   9.424 -0.6022  0.4187  1.5885
  135MPD2    H1 2062   0.222   4.413   9.435 -0.6078  0.7240  0.2464
  135MPD2    H2 2063   4.714   4.437   9.788  1.6694  0.9436  0.4918
  135MPD2    H3 2064   0.206   4.423   9.671 -0.1452  2.6522 -0.6635
  135MPD2     N 2065   0.005   4.368   9.266  0.1604  0.3512  0.1718
  135MPD2    H5 2066   0.094   4.380   9.219 -0.0168 -1.9329 -0.7501
  135MPD2    N1 2067   4.471   4.419   9.670 -0.3319 -0.5459  0.1693
  135MPD2    H7 2068   4.390   4.422   9.608 -0.4834 -2.6133  0.2615
  136TCq2    C1 2069   4.440   4.403   9.804 -0.0606 -0.5540  0.1977
  136TCq2    O2 2070   4.519   4.390   9.894 -0.4680 -0.1403 -0.3513
  136TCq2    C2 2071   4.295   4.379   9.837 -0.0763  0.3265 -0.6384
  136TCq2    C3 2072   4.200   4.385   9.740 -0.9746 -0.2916 -1.0148
  136TCq2    C4 2073   4.091   4.301   9.766 -0.1217  0.0760  0.0351
  136TCq2    C5 2074   4.077   4.220   9.876 -0.4420  1.0365  0.3139
  136TCq2    C6 2075   4.179   4.214   9.960 -0.0056 -0.5123  0.6525
  136TCq2    C7 2076   4.290   4.289   9.942 -0.4482  0.0301  0.2285
  136TCq2    C8 2077   4.197   4.090  10.033  0.7308  0.4900 -0.8146
  136TCq2    O4 2078   4.136   3.996   9.985  0.0821  0.2257 -0.2156
  136TCq2    C9 2079   3.985   4.297   9.666  0.5661 -0.4208 -0.1592
  136TCq2    O5 2080   3.897   4.209   9.694  0.9548 -0.3981  0.5398
  136TCq2    O6 2081   3.987   4.374   9.570 -0.8225  0.3720  0.2514
  136TCq2    H2 2082   4.211   4.442   9.649  2.7633 -1.3225 -1.2198
  136TCq2    H3 2083   3.982   4.171   9.895  0.4105 -0.7511 -0.0470
  136TCq2    H4 2084   4.371   4.258  10.008  0.7145  0.6348 -0.9164
  137MPD2     C 2085   0.377   3.087   9.583  0.4296 -0.1997 -0.7126
  137MPD2    C1 2086   0.323   3.194   9.648  0.1070  0.1349 -0.0201
  137MPD2    C2 2087   0.282   3.173   9.780 -0.0436 -0.7057  0.6268
  137MPD2    C3 2088   0.307   3.057   9.848 -0.1860  0.2156 -0.3379
  137MPD2    C4 2089   0.355   2.950   9.775 -0.7391 -0.0774  0.1194
  137MPD2    C5 2090   0.395   2.965   9.648 -0.2779  0.4810  0.7814
  137MPD2     H 2091   0.231   3.252   9.835  0.4318  0.4584 -0.6272
  137MPD2    H1 2092   0.369   2.854   9.823  0.7434 -0.4253 -1.0099
  137MPD2    H2 2093   0.412   3.104   9.482 -2.3872 -0.2286 -1.6929
  137MPD2    H3 2094   0.441   2.881   9.597 -0.6081  1.0469 -0.4466
  137MPD2     N 2095   0.254   3.047   9.979  0.3024  0.3667  0.3017
  137MPD2    H5 2096   0.217   3.133  10.017 -3.7672 -1.6236  0.8430
  137MPD2    N1 2097   0.327   3.319   9.583 -0.2475  0.1022 -0.1025
  137MPD2    H7 2098   0.351   3.306   9.486 -1.2987  1.1729 -0.5015
  138TCq2    C1 2099   0.324   3.443   9.638  0.1985 -0.0150 -0.7292
  138TCq2    O2 2100   0.301   3.453   9.754  0.0886 -0.9161  0.1961
  138TCq2    C2 2101   0.325   3.549   9.545  0.3679 -0.1182 -0.2246
  138TCq2    C3 2102   0.388   3.540   9.422  0.2550  0.2861 -0.2477
  138TCq2    C4 2103   0.369   3.645   9.336 -0.3195  0.5722  0.6581
  138TCq2    C5 2104   0.282   3.747   9.362  0.0237  0.5082 -0.2866
  138TCq2    C6 2105   0.214   3.729   9.480  0.0449 -0.0169  0.2636
  138TCq2    C7 2106   0.235   3.644   9.577  0.0643  0.5339  0.2838
  138TCq2    C8 2107   0.101   3.828   9.499  0.5099  0.2885  0.6202
  138TCq2    O4 2108   0.108   3.937   9.446  0.2830 -0.5395  0.2291
  138TCq2    C9 2109   0.430   3.645   9.204 -0.0159 -0.0178 -0.1957
  138TCq2    O5 2110   0.418   3.747   9.127  0.1307 -0.0380  0.4899
  138TCq2    O6 2111   0.508   3.546   9.176  0.0352  0.1694  0.0565
  138TCq2    H2 2112   0.457   3.460   9.395 -0.4138 -0.5220  0.4662
  138TCq2    H3 2113   0.255   3.815   9.282  0.2102 -1.6467 -2.1501
  138TCq2    H4 2114   0.180   3.645   9.670  0.8781 -0.8084  0.7682
  139TMC2    C1 2115   0.171   2.696  13.521 -0.0391 -0.4444 -0.9533
  139TMC2    C2 2116   0.134   2.727  13.389 -0.2906 -0.3004  0.0992
  139TMC2    C3 2117   0.038   2.822  13.371 -0.1602  0.7518 -0.3806
  139TMC2    C4 2118   0.106   2.757  13.629 -0.7363 -0.0429  0.7123
  139TMC2    C5 2119   0.019   2.864  13.605  0.0076  0.3351  0.0952
  139TMC2    C6 2120   4.705   2.888  13.475  0.0342  0.6030  0.4830
  139TMC2     C 2121   0.201   2.557  13.527 -0.4310 -0.0664 -0.3403
  139TMC2     O 2122   0.225   2.496  13.426 -0.2373  0.0374  0.1539
  139TMC2     H 2123   0.182   2.677  13.306 -0.7579  1.3037 -1.1344
  139TMC2    H1 2124   0.114   2.722  13.732 -1.1955 -2.4418 -0.0724
  139TMC2    H2 2125   4.656   2.978  13.439 -2.4134 -0.6740  0.6185
  139TMC2    C7 2126   4.673   2.931  13.707 -0.2317  0.0081  0.0754
  139TMC2    C8 2127   4.719   2.852  13.234  0.2934  0.0796  0.5879
  139TMC2    O1 2128   4.577   3.001  13.674 -0.4962 -0.0567 -0.2852
  139TMC2    O2 2129   0.056   2.821  13.133  0.1112 -0.5185 -0.2854
  139TMC2    O5 2130   4.585   2.842  13.233  0.4866  0.1937 -0.4998
  139TMC2    H5 2131   4.538   2.840  13.319 -1.3558  1.8808 -1.4888
  140MPD2     C 2132   0.285   2.342  13.809  0.5060  0.2400  0.6391
  140MPD2    C1 2133   0.229   2.373  13.686  0.1656 -0.1844 -0.0202
  140MPD2    C2 2134   0.182   2.271  13.608 -0.1754 -0.6152 -0.0049
  140MPD2    C3 2135   0.190   2.134  13.647  0.9146 -0.3717  0.1771
  140MPD2    C4 2136   0.242   2.104  13.773 -0.9409 -0.2715  0.0226
  140MPD2    C5 2137   0.284   2.213  13.851  0.0143  0.3060  0.5335
  140MPD2     H 2138   0.154   2.290  13.505 -0.7357  1.7810  0.5906
  140MPD2    H1 2139   0.242   2.005  13.815 -0.3919 -1.0272 -1.7507
  140MPD2    H2 2140   0.334   2.419  13.867  0.3399  1.2753 -0.5931
  140MPD2    H3 2141   0.331   2.190  13.947 -0.3445  2.6967  1.2840
  140MPD2     N 2142   0.153   2.036  13.556 -0.5371 -0.0431  0.2702
  140MPD2    H5 2143   0.123   2.070  13.465 -1.4230 -1.8837 -0.1452
  140MPD2    N1 2144   0.221   2.513  13.648 -0.3649  0.4449  0.1894
  140MPD2    H7 2145   0.236   2.580  13.723  0.5577 -1.1872  1.4675
  141TCq2    C1 2146   0.785   2.972  14.820  0.0306 -0.0653  0.3504
  141TCq2    O2 2147   0.808   3.082  14.774  0.6433  0.2461  0.4966
  141TCq2    C2 2148   0.751   2.964  14.964  0.2234 -0.0511 -0.0034
  141TCq2    C3 2149   0.707   2.848  15.022  0.3439  0.6082  0.3308
  141TCq2    C4 2150   0.704   2.851  15.157 -0.2329  0.3220  0.5970
  141TCq2    C5 2151   0.748   2.946  15.237 -0.2499  0.2699  0.2934
  141TCq2    C6 2152   0.779   3.067  15.176  0.1643  0.7871 -0.9237
  141TCq2    C7 2153   0.791   3.074  15.037  0.4585 -0.2201 -0.0241
  141TCq2    C8 2154   0.826   3.178  15.256  0.3230 -0.1215 -0.0486
  141TCq2    O4 2155   0.879   3.144  15.362 -0.2872  0.1128 -0.6314
  141TCq2    C9 2156   0.655   2.735  15.226 -0.3341  0.2669  0.6707
  141TCq2    O5 2157   0.621   2.635  15.158  0.1087  0.4909 -0.3501
  141TCq2    O6 2158   0.678   2.726  15.353  0.0547  0.5496 -0.4617
  141TCq2    H2 2159   0.682   2.757  14.969 -2.3925  2.1158 -0.9899
  141TCq2    H3 2160   0.737   2.938  15.345 -2.6735  0.5293  0.0842
  141TCq2    H4 2161   0.832   3.157  14.982 -0.5274  1.6715  2.0828
  142MPD2     C 2162   3.550   0.511  10.575 -0.3805 -0.2021 -0.1369
  142MPD2    C1 2163   3.489   0.460  10.462  0.1910  0.5388 -0.6182
  142MPD2    C2 2164   3.545   0.472  10.342 -0.0488  0.1437 -0.2552
  142MPD2    C3 2165   3.662   0.540  10.330  0.3320  0.3834 -0.7021
  142MPD2    C4 2166   3.726   0.595  10.441 -1.0676  0.2806  0.0372
  142MPD2    C5 2167   3.674   0.572  10.565  0.1008 -0.9013  0.0737
  142MPD2     H 2168   3.496   0.422  10.259 -1.3163  2.4097 -0.8659
  142MPD2    H1 2169   3.819   0.648  10.429 -0.3977 -0.5897  1.4757
  142MPD2    H2 2170   3.505   0.493  10.672 -0.6966  1.3291  0.0048
  142MPD2    H3 2171   3.727   0.598  10.656  0.8686  0.2238 -0.6945
  142MPD2     N 2172   3.726   0.559  10.202 -0.6636  0.0494  0.4057
  142MPD2    H5 2173   3.803   0.625  10.196  1.2565 -2.2150 -0.0170
  142MPD2    N1 2174   3.376   0.375  10.472  0.5813 -0.1292 -0.0029
  142MPD2    H7 2175   3.357   0.329  10.560  0.2386  0.0066 -0.0068
  143TCq2    C1 2176   3.693   0.500  10.082 -0.7086 -0.2593 -0.6107
  143TCq2    O2 2177   3.611   0.411  10.065 -0.3759 -0.2045 -0.4848
  143TCq2    C2 2178   3.768   0.544   9.964  0.3031 -0.3847 -0.5546
  143TCq2    C3 2179   3.756   0.467   9.852  0.1253 -0.4737 -0.0196
  143TCq2    C4 2180   3.786   0.526   9.735  0.0461  0.3856 -0.2347
  143TCq2    C5 2181   3.844   0.648   9.715 -0.2468  0.4663  0.7202
  143TCq2    C6 2182   3.851   0.719   9.832 -0.0038  0.5126  0.3505
  143TCq2    C7 2183   3.819   0.672   9.954 -0.2889  0.8881 -0.1394
  143TCq2    C8 2184   3.907   0.850   9.820 -0.0744 -0.5704  0.3294
  143TCq2    O4 2185   3.874   0.938   9.896 -1.1165  0.3148 -0.6319
  143TCq2    C9 2186   3.739   0.464   9.621 -0.1027  0.4185  0.5378
  143TCq2    O5 2187   3.663   0.366   9.631  0.0735  0.3208  0.6473
  143TCq2    O6 2188   3.778   0.507   9.513  0.1799  0.0392 -0.1566
  143TCq2    H2 2189   3.698   0.376   9.858  0.0487 -0.3639  0.9660
  143TCq2    H3 2190   3.853   0.700   9.620  0.8090 -0.8149  0.1329
  143TCq2    H4 2191   3.819   0.741  10.037 -0.2642 -0.8623  1.3017
  144MPD2     C 2192   0.862   1.639   1.074 -0.1068  0.1985  0.0463
  144MPD2    C1 2193   0.886   1.525   1.013 -0.2428 -0.6088 -0.3409
  144MPD2    C2 2194   1.021   1.488   1.017  0.2784 -0.3822  0.1576
  144MPD2    C3 2195   1.120   1.563   1.088 -1.1563  0.0405 -0.0083
  144MPD2    C4 2196   1.081   1.675   1.154 -0.0290 -0.1262  0.2937
  144MPD2    C5 2197   0.952   1.711   1.148  0.5363  0.2437 -0.2757
  144MPD2     H 2198   1.051   1.397   0.965  1.4475  0.0658  0.0465
  144MPD2    H1 2199   1.152   1.732   1.214  1.2462 -1.2053 -0.1846
  144MPD2    H2 2200   0.760   1.674   1.078 -0.3921 -0.5965 -0.1770
  144MPD2    H3 2201   0.915   1.799   1.199 -1.4572 -0.7789  0.0144
  144MPD2     N 2202   1.251   1.526   1.106 -0.1109 -0.3400  0.5002
  144MPD2    H5 2203   1.300   1.584   1.173 -0.4659  1.5107 -0.8444
  144MPD2    N1 2204   0.798   1.453   0.930 -0.3623 -0.2135  0.0044
  144MPD2    H7 2205   0.833   1.362   0.902 -1.4558 -0.8329  0.6388
  145TCq2    C1 2206   1.318   1.430   1.031 -0.0888 -1.5176 -0.7501
  145TCq2    O2 2207   1.285   1.371   0.929  0.0122  0.2732  0.2473
  145TCq2    C2 2208   1.461   1.437   1.063  0.7828 -0.2656  0.7522
  145TCq2    C3 2209   1.547   1.383   0.973 -0.7305  0.0159  0.0218
  145TCq2    C4 2210   1.679   1.404   0.982  0.4291  0.0664  0.6248
  145TCq2    C5 2211   1.736   1.471   1.091  0.0863 -0.5916  0.1476
  145TCq2    C6 2212   1.651   1.552   1.163 -0.1955  0.3607 -0.4009
  145TCq2    C7 2213   1.516   1.527   1.155 -0.1249 -0.2007  0.2612
  145TCq2    C8 2214   1.708   1.653   1.253 -0.4367 -0.4089 -0.0330
  145TCq2    O4 2215   1.828   1.629   1.284  0.0090  0.5955  0.1085
  145TCq2    C9 2216   1.764   1.357   0.877 -0.4400 -0.1129  0.3906
  145TCq2    O5 2217   1.700   1.309   0.776  0.3197 -0.5546  0.4636
  145TCq2    O6 2218   1.886   1.374   0.893 -0.4318  0.3993 -0.0777
  145TCq2    H2 2219   1.510   1.323   0.890  0.4990 -2.0087  0.9541
  145TCq2    H3 2220   1.843   1.486   1.093 -0.0090  0.0795  0.2839
  145TCq2    H4 2221   1.445   1.577   1.219  0.7896 -0.6383  1.6114
  146TMC2    C1 2222   2.884   4.107  12.564 -0.1819  0.6052 -0.1770
  146TMC2    C2 2223   2.879   4.079  12.429 -0.0451  0.0375 -0.1591
  146TMC2    C3 2224   2.992   4.017  12.387 -0.0974  0.3692 -0.1530
  146TMC2    C4 2225   2.988   4.078  12.647  0.5917 -0.1996  0.2465
  146TMC2    C5 2226   3.104   4.027  12.587 -0.0998 -0.1957 -0.0213
  146TMC2    C6 2227   3.104   3.994  12.458  0.9660  0.6796  0.1275
  146TMC2     C 2228   2.764   4.169  12.607  0.4132  0.0225 -0.2816
  146TMC2     O 2229   2.693   4.220  12.515 -0.4401  0.2747  0.3739
  146TMC2     H 2230   2.799   4.104  12.360  0.7524  0.3657 -0.9590
  146TMC2    H1 2231   2.980   4.094  12.754 -1.7041 -0.7716  0.1720
  146TMC2    H2 2232   3.197   3.953  12.420  0.1715 -1.8565  0.9022
  146TMC2    C7 2233   3.232   4.033  12.659  0.2465  0.9961 -1.0264
  146TMC2    C8 2234   2.983   3.935  12.265  0.8016  0.4778  0.7163
  146TMC2    O1 2235   3.330   4.032  12.586  0.0920 -0.2200 -0.1248
  146TMC2    O2 2236   3.068   3.889  12.193  0.3023 -0.0467 -0.1465
  146TMC2    O5 2237   2.854   3.908  12.236  0.1471  0.4929  0.0427
  146TMC2    H5 2238   2.784   3.940  12.297  1.1031  0.8160  0.9634
  147MPD2     C 2239   3.520   4.122  13.086  0.0059  0.3962  0.0466
  147MPD2    C1 2240   3.400   4.067  13.121  0.0459  0.6231 -0.6994
  147MPD2    C2 2241   3.313   4.032  13.023 -0.3453  0.3620 -0.3638
  147MPD2    C3 2242   3.343   4.046  12.890  0.2283 -0.0503 -0.2288
  147MPD2    C4 2243   3.465   4.096  12.845  0.7449  0.1755  0.0660
  147MPD2    C5 2244   3.553   4.127  12.951  0.1296 -0.1201 -0.5483
  147MPD2     H 2245   3.208   4.010  13.041 -0.3384  0.2193 -0.4979
  147MPD2    H1 2246   3.491   4.099  12.740  0.5483 -2.0548 -0.0428
  147MPD2    H2 2247   3.602   4.166  13.143 -0.3114 -0.4521  1.1453
  147MPD2    H3 2248   3.651   4.161  12.920 -0.2244 -1.0524 -2.7093
  147MPD2     N 2249   3.234   4.021  12.800 -0.1104  0.0897  0.8321
  147MPD2    H5 2250   3.152   3.989  12.849  0.2406  0.3099  1.5801
  147MPD2    N1 2251   3.370   4.052  13.256  0.2239  0.2152  0.3508
  147MPD2    H7 2252   3.436   4.075  13.330 -1.2240 -1.9117  2.3028
  148MPD2     C 2253   3.056   3.095  10.489 -0.3690 -0.2618  0.1286
  148MPD2    C1 2254   3.087   2.962  10.516 -0.0312 -0.2080  0.3816
  148MPD2    C2 2255   3.005   2.865  10.457  0.4609 -0.0356 -0.1365
  148MPD2    C3 2256   2.891   2.905  10.381 -0.6746 -0.0753 -0.1557
  148MPD2    C4 2257   2.860   3.038  10.366  0.0078 -0.4118 -0.8135
  148MPD2    C5 2258   2.947   3.129  10.412  0.1834 -0.6195 -0.3139
  148MPD2     H 2259   3.032   2.760  10.467  1.9475  0.1734 -1.9257
  148MPD2    H1 2260   2.769   3.078  10.324  2.0221  3.6060 -1.3213
  148MPD2    H2 2261   3.117   3.176  10.528 -2.0963  0.8014  0.6356
  148MPD2    H3 2262   2.924   3.235  10.410  2.4965 -0.0959  0.9341
  148MPD2     N 2263   2.791   2.812  10.345  0.3324  0.1538  0.2607
  148MPD2    H5 2264   2.696   2.847  10.348 -0.0641 -0.9380  0.4752
  148MPD2    N1 2265   3.196   2.923  10.591 -0.2479 -0.0147 -0.1721
  148MPD2    H7 2266   3.212   2.823  10.594  2.2623  0.4174  0.9853
  149TCq2    C1 2267   3.290   3.000  10.661 -0.0390 -0.7203  0.4530
  149TCq2    O2 2268   3.294   3.124  10.669 -0.1591 -0.8327 -0.2853
  149TCq2    C2 2269   3.406   2.919  10.709 -0.1247 -0.3445 -0.8061
  149TCq2    C3 2270   3.530   2.985  10.730  0.3149 -0.4879  0.2036
  149TCq2    C4 2271   3.642   2.910  10.736  0.4072 -0.0023  0.3018
  149TCq2    C5 2272   3.639   2.770  10.712  0.3313 -0.1578  0.6831
  149TCq2    C6 2273   3.511   2.709  10.707 -0.5203 -0.6061 -0.0459
  149TCq2    C7 2274   3.401   2.785  10.696 -0.3169  0.4678 -0.3083
  149TCq2    C8 2275   3.501   2.567  10.692  0.8018  1.4341 -1.1311
  149TCq2    O4 2276   3.397   2.528  10.640  0.1068 -0.3841  0.3559
  149TCq2    C9 2277   3.769   2.977  10.717 -0.6745 -0.2925 -0.6208
  149TCq2    O5 2278   3.775   3.066  10.630 -0.5116 -0.2813  0.5162
  149TCq2    O6 2279   3.867   2.918  10.765 -0.7151 -0.4234 -0.0616
  149TCq2    H2 2280   3.546   3.093  10.733  1.6809 -0.6138 -1.9467
  149TCq2    H3 2281   3.731   2.714  10.700  1.7289  1.5536  3.5115
  149TCq2    H4 2282   3.305   2.736  10.696 -1.1940  2.1734 -1.0212
  150MPD2     C 2283   0.256   1.878  12.052  0.0211 -0.0077 -0.6469
  150MPD2    C1 2284   0.219   2.004  12.027 -0.3516  0.0007 -0.1431
  150MPD2    C2 2285   0.291   2.108  12.085 -0.0761  0.5101  0.4513
  150MPD2    C3 2286   0.402   2.090  12.160 -0.1495  0.3839 -0.0698
  150MPD2    C4 2287   0.439   1.959  12.189  0.2528  0.2912  0.5321
  150MPD2    C5 2288   0.363   1.853  12.142  0.2271  0.1354  0.9314
  150MPD2     H 2289   0.255   2.208  12.064 -0.3960 -0.0338 -1.5669
  150MPD2    H1 2290   0.519   1.944  12.261  2.1816  2.0427 -1.2300
  150MPD2    H2 2291   0.190   1.803  12.010 -0.7538 -0.4772  1.4089
  150MPD2    H3 2292   0.400   1.753  12.162 -0.0791 -0.4155 -1.1748
  150MPD2     N 2293   0.463   2.212  12.206  0.3904  0.2340  0.9639
  150MPD2    H5 2294   0.433   2.305  12.181  0.1075 -0.0853  0.0978
  150MPD2    N1 2295   0.108   2.030  11.947  0.8184 -0.3106 -0.2782
  150MPD2    H7 2296   0.054   1.948  11.921  0.7425 -0.2713 -0.2428
  151TCq2    C1 2297   0.577   2.222  12.289 -0.5642 -0.3119 -0.6360
  151TCq2    O2 2298   0.635   2.137  12.353 -0.0217  0.6034  0.3456
  151TCq2    C2 2299   0.622   2.357  12.314 -0.0797  0.6415 -0.2505
  151TCq2    C3 2300   0.559   2.458  12.248 -0.0866  0.0064 -0.1601
  151TCq2    C4 2301   0.561   2.582  12.293  0.4307 -0.8597  0.0590
  151TCq2    C5 2302   0.611   2.611  12.417  1.2672 -0.0269 -0.0879
  151TCq2    C6 2303   0.670   2.512  12.490 -0.1165  0.0376  0.7316
  151TCq2    C7 2304   0.668   2.378  12.441 -0.4769 -0.3293 -0.5480
  151TCq2    C8 2305   0.705   2.532  12.631  0.2494 -0.6899  0.0527
  151TCq2    O4 2306   0.706   2.644  12.681 -0.5985 -0.7418 -0.3326
  151TCq2    C9 2307   0.479   2.685  12.230  0.3566 -0.0858 -0.4908
  151TCq2    O5 2308   0.442   2.772  12.311  0.2880 -0.1155 -0.3490
  151TCq2    O6 2309   0.417   2.653  12.124  0.2888 -0.4633  0.2245
  151TCq2    H2 2310   0.519   2.455  12.147  1.1103 -0.5512 -0.6133
  151TCq2    H3 2311   0.607   2.710  12.461  1.0752 -0.4450  0.8384
  151TCq2    H4 2312   0.709   2.295  12.498 -0.9513  0.1431  0.4830
  152MPD2     C 2313   0.004   2.002  12.367 -0.0679  0.6492  0.6225
  152MPD2    C1 2314   0.065   2.127  12.378  0.2928  0.9652 -0.2918
  152MPD2    C2 2315   4.723   2.238  12.326  0.1840 -0.2202 -0.3013
  152MPD2    C3 2316   4.600   2.219  12.260  0.9430  0.2971 -0.8264
  152MPD2    C4 2317   4.540   2.096  12.249  0.2168 -0.0422 -0.7671
  152MPD2    C5 2318   4.604   1.985  12.309 -0.3339  0.2302 -1.0273
  152MPD2     H 2319   0.042   2.337  12.330 -0.0963 -0.1603  1.0552
  152MPD2    H1 2320   4.438   2.077  12.216  0.1886 -1.9008  0.3903
  152MPD2    H2 2321   0.063   1.915  12.393  0.0483  0.3954 -0.4852
  152MPD2    H3 2322   4.560   1.886  12.307  0.0801 -0.0146  2.7386
  152MPD2     N 2323   4.530   2.336  12.217 -0.2236  0.1030  0.1032
  152MPD2    H5 2324   4.551   2.424  12.262  1.9297 -1.0376  1.3520
  152MPD2    N1 2325   0.187   2.136  12.452 -0.0549 -0.1006 -0.3058
  152MPD2    H7 2326   0.227   2.060  12.506  0.8482 -0.6217 -1.7230
  153TCq2    C1 2327   0.253   2.250  12.488  0.0882 -0.8015  0.5885
  153TCq2    O2 2328   0.230   2.368  12.465 -0.3336 -0.2323  0.4693
  153TCq2    C2 2329   0.355   2.212  12.581 -0.1205 -0.0440  0.3922
  153TCq2    C3 2330   0.406   2.087  12.583  0.1055  0.5123 -0.6086
  153TCq2    C4 2331   0.510   2.066  12.672  0.3558  0.4302  0.1813
  153TCq2    C5 2332   0.532   2.159  12.765  0.0897  0.2806  0.6748
  153TCq2    C6 2333   0.465   2.273  12.777 -0.0371  0.5395  0.3752
  153TCq2    C7 2334   0.376   2.307  12.682  0.9569  0.4402 -0.2331
  153TCq2    C8 2335   0.448   2.337  12.906 -0.8636 -1.1278 -0.7002
  153TCq2    O4 2336   0.395   2.445  12.892  0.2088 -0.4456 -0.4467
  153TCq2    C9 2337   0.572   1.934  12.680  0.4142  0.2228  0.0655
  153TCq2    O5 2338   0.652   1.917  12.775 -0.1968 -0.3403  0.3148
  153TCq2    O6 2339   0.553   1.861  12.582 -0.0698 -0.9103  0.0966
  153TCq2    H2 2340   0.383   2.021  12.501  0.1217  0.9009 -0.9244
  153TCq2    H3 2341   0.613   2.138  12.833  1.3951  2.4238 -0.2163
  153TCq2    H4 2342   0.323   2.400  12.669  1.7918  0.6787 -1.9455
  154MPD2     C 2343   0.994   2.785   0.534  0.2202 -0.2819 -0.4126
  154MPD2    C1 2344   1.092   2.799   0.628 -0.6059  0.0574 -0.5345
  154MPD2    C2 2345   1.096   2.911   0.716  0.2048  0.7081 -0.6637
  154MPD2    C3 2346   0.996   3.011   0.703  0.1160  0.3737  0.3499
  154MPD2    C4 2347   0.918   2.995   0.593 -0.3109 -0.0942  0.4429
  154MPD2    C5 2348   0.909   2.888   0.515  0.4180  0.4057  0.2250
  154MPD2     H 2349   1.171   2.931   0.792 -0.5018  0.2796  0.1607
  154MPD2    H1 2350   0.846   3.069   0.559 -1.8784 -1.5208  0.6424
  154MPD2    H2 2351   0.985   2.696   0.472 -0.3914 -0.8497  0.4721
  154MPD2    H3 2352   0.837   2.871   0.435 -0.0155  1.8914  0.2893
  154MPD2     N 2353   0.998   3.131   0.784 -0.0544 -0.4428 -0.1104
  154MPD2    H5 2354   1.049   3.119   0.871  1.8081  1.8786 -0.8911
  154MPD2    N1 2355   1.187   2.690   0.645  0.2925  0.5672 -0.3479
  154MPD2    H7 2356   1.200   2.617   0.576  0.3689  0.2410  0.0160
  155TCq2    C1 2357   1.280   2.682   0.744  0.0770  0.2063  0.0735
  155TCq2    O2 2358   1.290   2.745   0.850 -0.2887  0.4915 -0.2928
  155TCq2    C2 2359   1.371   2.574   0.719  0.2199 -0.6333  0.5121
  155TCq2    C3 2360   1.379   2.469   0.809  0.2105  0.3809 -0.0014
  155TCq2    C4 2361   1.477   2.378   0.778 -0.6581 -0.0540  0.7186
  155TCq2    C5 2362   1.583   2.405   0.680 -0.4673 -0.1640 -0.2299
  155TCq2    C6 2363   1.563   2.510   0.606 -0.0517 -0.1506  0.1775
  155TCq2    C7 2364   1.463   2.596   0.619  0.0389 -0.4742  0.3292
  155TCq2    C8 2365   1.637   2.505   0.479  0.3279 -0.3292  0.0042
  155TCq2    O4 2366   1.663   2.395   0.434  0.4002  0.3098 -0.5943
  155TCq2    C9 2367   1.485   2.265   0.863  0.4797 -0.7065 -0.0046
  155TCq2    O5 2368   1.419   2.262   0.969  0.0968 -0.4924 -0.1079
  155TCq2    O6 2369   1.565   2.172   0.824  0.1482  0.3332 -0.4252
  155TCq2    H2 2370   1.315   2.442   0.892  0.2702 -3.2632 -1.1065
  155TCq2    H3 2371   1.660   2.331   0.657  2.4267  2.3187  1.4605
  155TCq2    H4 2372   1.446   2.686   0.561  0.6813 -1.7072 -1.7434
  156MPD2     C 2373   0.658   4.475  12.578 -1.2872  0.6644 -0.9103
  156MPD2    C1 2374   0.529   4.500  12.537  1.1769 -0.0613  0.6008
  156MPD2    C2 2375   0.463   4.610  12.591 -0.7372 -0.4287  0.1449
  156MPD2    C3 2376   0.532   4.700  12.672 -0.3040  0.0213  0.3305
  156MPD2    C4 2377   0.657   4.666  12.714 -0.2934 -0.3927 -0.5705
  156MPD2    C5 2378   0.722   4.560  12.664 -0.2129 -0.6369 -0.1225
  156MPD2     H 2379   0.362   4.631  12.557 -0.1432  1.3992 -0.5033
  156MPD2    H1 2380   0.709   0.014  12.776 -0.0414 -1.2656  0.2239
  156MPD2    H2 2381   0.715   4.390  12.542 -0.2685  1.1096 -0.3511
  156MPD2    H3 2382   0.823   4.541  12.697 -0.8767 -0.5907  1.9305
  156MPD2     N 2383   0.471   0.097  12.705 -0.3575 -0.0650 -0.4139
  156MPD2    H5 2384   0.372   0.114  12.688 -0.0400 -0.1241 -2.3101
  156MPD2    N1 2385   0.464   4.415  12.441 -0.5994 -0.0876  0.2105
  156MPD2    H7 2386   0.522   4.349  12.391 -1.2004 -0.0262 -0.5706
  157TCq2    C1 2387   0.329   4.430  12.408  0.4862 -0.0784  0.1811
  157TCq2    O2 2388   0.237   4.494  12.452 -0.5094 -0.1168  0.6414
  157TCq2    C2 2389   0.299   4.350  12.286  0.1593 -0.2147  0.0296
  157TCq2    C3 2390   0.361   4.229  12.264  0.5234  0.2999  0.3745
  157TCq2    C4 2391   0.347   4.164  12.146  0.2614 -0.0183  0.5075
  157TCq2    C5 2392   0.274   4.226  12.048  0.1229  0.0828 -0.5294
  157TCq2    C6 2393   0.201   4.338  12.075  0.1318 -0.1122  0.8358
  157TCq2    C7 2394   0.214   4.408  12.192 -0.1719 -0.7807  0.5107
  157TCq2    C8 2395   0.126   4.411  11.977 -0.6256  0.2736 -0.0833
  157TCq2    O4 2396   0.115   4.530  11.983  0.3220 -0.0067  0.2027
  157TCq2    C9 2397   0.430   4.051  12.120 -0.2986 -0.1080  0.0153
  157TCq2    O5 2398   0.408   3.988  12.014 -0.4750  0.4287 -0.5782
  157TCq2    O6 2399   0.527   4.024  12.194 -0.3396 -0.1904 -0.3744
  157TCq2    H2 2400   0.414   4.185  12.347 -0.8377 -1.2468  0.4114
  157TCq2    H3 2401   0.282   4.186  11.947 -1.1735 -0.5816 -0.3636
  157TCq2    H4 2402   0.169   4.506  12.198  0.2169 -0.6003  0.5142
  158TMC2    C1 2403   4.420   3.935  13.582  0.4999 -0.3669 -0.7185
  158TMC2    C2 2404   4.478   3.923  13.457 -0.8328 -0.2096 -0.8300
  158TMC2    C3 2405   4.391   3.880  13.356 -0.1542  0.1196  0.1291
  158TMC2    C4 2406   4.287   3.903  13.605  0.7461  0.3203 -0.1701
  158TMC2    C5 2407   4.214   3.857  13.503  0.4681 -0.5776  0.7297
  158TMC2    C6 2408   4.259   3.855  13.373 -0.1926  0.0050  0.1497
  158TMC2     C 2409   4.517   3.967  13.686 -0.1453 -0.3309 -0.7349
  158TMC2     O 2410   4.628   4.005  13.655  0.0936 -0.6929  0.1378
  158TMC2     H 2411   4.578   3.957  13.433 -0.1640 -1.1433  0.6305
  158TMC2    H1 2412   4.241   3.915  13.703  1.3233  1.0049  0.0187
  158TMC2    H2 2413   4.207   3.798  13.297  1.3274 -0.4236 -0.5670
  158TMC2    C7 2414   4.084   3.801  13.524  0.0692 -0.4926  0.6314
  158TMC2    C8 2415   4.445   3.864  13.219  0.5254  0.7617  0.5917
  158TMC2    O1 2416   4.014   3.789  13.419  0.2194 -0.2091  0.2948
  158TMC2    O2 2417   4.402   3.784  13.140 -0.1233 -0.2489 -0.4840
  158TMC2    O5 2418   4.458   3.994  13.177 -0.5593 -0.2357  0.4729
  158TMC2    H5 2419   4.484   4.059  13.246 -2.5283 -0.2196  1.1860
  159MPD2     C 2420   0.002   3.956  14.151 -0.6467  0.3670  0.3205
  159MPD2    C1 2421   4.601   3.909  14.165 -0.0093 -0.0993  0.3694
  159MPD2    C2 2422   4.516   3.905  14.056 -0.2633  0.0422  0.5672
  159MPD2    C3 2423   4.562   3.951  13.930 -0.3495 -0.5741 -0.3203
  159MPD2    C4 2424   4.688   4.011  13.927 -0.4301 -1.1096  0.3679
  159MPD2    C5 2425   0.048   3.996  14.029  0.1180  0.0690 -0.3338
  159MPD2     H 2426   4.414   3.870  14.052 -0.2970  0.2033  0.0165
  159MPD2    H1 2427   0.001   4.059  13.837 -0.5756 -0.0350  0.8900
  159MPD2    H2 2428   0.070   3.958  14.235  0.7085 -0.2266 -0.7721
  159MPD2    H3 2429   0.152   4.021  14.010 -0.1206  0.7749 -0.7140
  159MPD2     N 2430   4.476   3.940  13.815 -0.0296 -0.6014 -0.3517
  159MPD2    H5 2431   4.390   3.889  13.829  1.2626 -2.6804  0.0532
  159MPD2    N1 2432   4.567   3.865  14.291  0.0075  0.7687  0.9882
  159MPD2    H7 2433   4.637   3.890  14.360 -1.8368  0.7882  2.8798
  160TMC2    C1 2434   0.551   2.062   1.886 -0.0483 -0.2808 -0.0349
  160TMC2    C2 2435   0.579   1.931   1.916  0.5365  0.7430 -0.1211
  160TMC2    C3 2436   0.615   1.849   1.811 -0.0138  0.0037  0.1108
  160TMC2    C4 2437   0.552   2.111   1.758  0.0069 -0.1186 -0.0651
  160TMC2    C5 2438   0.594   2.028   1.660  0.7372 -0.3501 -0.1448
  160TMC2    C6 2439   0.620   1.897   1.685 -1.1035  0.3661  0.3663
  160TMC2     C 2440   0.468   2.129   1.981  0.1985 -0.5703 -0.2217
  160TMC2     O 2441   0.506   2.114   2.097  0.1530  0.1072 -0.0276
  160TMC2     H 2442   0.583   1.903   2.021 -0.8710 -0.4946 -0.3981
  160TMC2    H1 2443   0.520   2.213   1.742 -2.3630 -0.5411  1.9473
  160TMC2    H2 2444   0.655   1.838   1.600  1.9788  0.8179  1.3269
  160TMC2    C7 2445   0.550   2.059   1.528  0.5254  0.0922  0.4850
  160TMC2    C8 2446   0.707   1.733   1.825 -0.7921 -0.4577 -0.0678
  160TMC2    O1 2447   0.491   1.979   1.456  0.4565  0.1755  0.2772
  160TMC2    O2 2448   0.811   1.718   1.764  0.0488  0.1664  0.3971
  160TMC2    O5 2449   0.700   1.697   1.953  0.1038  0.4374 -0.0186
  160TMC2    H5 2450   0.605   1.704   1.979  0.0788  3.7450 -0.9015
  161MPD2     C 2451   0.252   2.263   2.136 -0.7159 -0.0031  0.1808
  161MPD2    C1 2452   0.238   2.221   2.010  0.3442  0.0808 -0.1036
  161MPD2    C2 2453   0.113   2.215   1.958  0.4053 -0.3000 -0.3966
  161MPD2    C3 2454   0.002   2.273   2.010  0.1248 -0.1009  0.5775
  161MPD2    C4 2455   0.023   2.316   2.143 -0.1294  0.1091 -0.0007
  161MPD2    C5 2456   0.146   2.310   2.201 -0.4254 -0.6845 -0.1212
  161MPD2     H 2457   0.104   2.176   1.858 -2.2236 -0.0708 -0.2464
  161MPD2    H1 2458   4.669   2.353   2.208 -1.1715  0.1684 -1.2853
  161MPD2    H2 2459   0.348   2.281   2.185 -0.3652  1.0982 -0.9317
  161MPD2    H3 2460   0.156   2.351   2.301  0.3266 -1.3435  0.0713
  161MPD2     N 2461   4.595   2.269   1.957 -0.6260  0.0300  0.0664
  161MPD2    H5 2462   4.528   2.333   1.999 -2.4479 -1.0120 -1.2497
  161MPD2    N1 2463   0.346   2.165   1.934  0.5631 -0.9663  0.0037
  161MPD2    H7 2464   0.317   2.143   1.839  1.0090  0.8701 -0.5535
  162TMC2    C1 2465   2.559   3.820   1.407  0.2613  0.3892  0.1380
  162TMC2    C2 2466   2.502   3.922   1.340  0.0857 -0.0805 -0.3961
  162TMC2    C3 2467   2.542   4.046   1.364 -0.9227  0.1458  0.5454
  162TMC2    C4 2468   2.649   3.846   1.512 -0.5671  0.6506  0.1169
  162TMC2    C5 2469   2.665   3.981   1.544 -0.5696  0.8413  0.1133
  162TMC2    C6 2470   2.613   4.087   1.475  0.5419 -0.6987  0.2843
  162TMC2     C 2471   2.520   3.681   1.365  0.1089 -0.4615  0.6719
  162TMC2     O 2472   2.514   3.667   1.242 -0.0838  0.0554  0.3250
  162TMC2     H 2473   2.429   3.895   1.264  0.1818  1.3132 -0.9960
  162TMC2    H1 2474   2.709   3.764   1.550 -1.6118 -1.2606 -2.2980
  162TMC2    H2 2475   2.632   4.192   1.497  1.5206 -1.0192  0.9613
  162TMC2    C7 2476   2.733   4.019   1.669  0.3807 -0.5345  0.0298
  162TMC2    C8 2477   2.454   4.139   1.306  0.1855  0.5018 -0.5131
  162TMC2    O1 2478   2.732   4.135   1.707  0.1373 -0.2775  0.1245
  162TMC2    O2 2479   2.404   4.224   1.376  0.0326  0.3523 -0.0056
  162TMC2    O5 2480   2.431   4.110   1.174  0.0803  0.1194 -0.3133
  162TMC2    H5 2481   2.514   4.070   1.139  2.5398  1.6166  3.9026
  163MPD2     C 2482   2.546   3.171   1.384  0.0683  0.0442 -0.6360
  163MPD2    C1 2483   2.538   3.256   1.280 -0.3236  0.4448 -0.1888
  163MPD2    C2 2484   2.534   3.392   1.298 -0.5898  0.1749 -0.2950
  163MPD2    C3 2485   2.520   3.444   1.424  0.5636  0.1677 -0.1230
  163MPD2    C4 2486   2.506   3.353   1.527  0.3150  0.3397 -0.5833
  163MPD2    C5 2487   2.514   3.219   1.511  0.2885 -0.1969  0.0988
  163MPD2     H 2488   2.559   3.457   1.215 -1.1514  0.3491 -0.3282
  163MPD2    H1 2489   2.496   3.382   1.631  2.0413  1.1036 -0.6370
  163MPD2    H2 2490   2.562   3.065   1.367  0.5596  0.0803 -0.3861
  163MPD2    H3 2491   2.506   3.152   1.596 -1.0724 -3.5054 -2.6138
  163MPD2     N 2492   2.523   3.586   1.459 -0.4163  0.6571 -0.0847
  163MPD2    H5 2493   2.518   3.611   1.557 -0.5824  0.9550 -0.1674
  163MPD2    N1 2494   2.542   3.200   1.140  0.0016 -0.2291 -0.4988
  163MPD2    H7 2495   2.567   3.101   1.140  2.6553  0.4341 -1.0735
  164TCq2    C1 2496   3.529   2.572  11.586  0.1268  0.0589  0.4394
  164TCq2    O2 2497   3.512   2.649  11.495 -0.1200 -0.1798  0.5938
  164TCq2    C2 2498   3.536   2.621  11.719 -0.1452  0.5992 -0.3804
  164TCq2    C3 2499   3.573   2.534  11.814 -0.2600  0.8193 -0.4057
  164TCq2    C4 2500   3.550   2.580  11.938 -0.9890 -0.9308 -0.1984
  164TCq2    C5 2501   3.498   2.701  11.966 -0.2229  0.2223  0.4948
  164TCq2    C6 2502   3.454   2.782  11.869 -0.1475  0.5428 -0.1669
  164TCq2    C7 2503   3.477   2.742  11.743  0.0963  0.5557 -0.1092
  164TCq2    C8 2504   3.336   2.866  11.899 -0.7049  0.3792  0.2377
  164TCq2    O4 2505   3.310   2.947  11.813  0.1853  0.6736 -0.4115
  164TCq2    C9 2506   3.604   2.501  12.048  0.4385  0.1319 -0.3154
  164TCq2    O5 2507   3.597   2.556  12.164 -1.0474 -0.7609  0.9428
  164TCq2    O6 2508   3.624   2.379  12.026  0.0411 -0.3402  0.4559
  164TCq2    H2 2509   3.604   2.431  11.797  2.2242  1.6488 -0.8462
  164TCq2    H3 2510   3.480   2.718  12.071 -2.0752  0.8443  0.0797
  164TCq2    H4 2511   3.441   2.809  11.665 -1.0081  0.4181  0.2874
  165MPD2     C 2512   0.107   1.107   1.516  0.5712 -0.4989 -0.1149
  165MPD2    C1 2513   0.051   1.189   1.609 -0.2793 -0.1400  0.1099
  165MPD2    C2 2514   4.651   1.244   1.585 -0.1991 -1.0607  0.2182
  165MPD2    C3 2515   4.588   1.213   1.474 -0.4033 -0.0691  0.9890
  165MPD2    C4 2516   4.644   1.129   1.378 -0.1957  0.0853  0.6548
  165MPD2    C5 2517   0.037   1.065   1.406 -0.2047  0.1590 -0.4146
  165MPD2     H 2518   4.610   1.314   1.657 -1.0624 -0.7541 -0.5693
  165MPD2    H1 2519   4.595   1.081   1.294 -0.2309 -0.2208  0.8535
  165MPD2    H2 2520   0.205   1.071   1.546  0.5168 -0.8415 -0.3571
  165MPD2    H3 2521   0.091   0.999   1.339 -0.5435  0.3184 -0.8400
  165MPD2     N 2522   4.458   1.258   1.471 -0.0629  0.0438 -0.1167
  165MPD2    H5 2523   4.429   1.293   1.562  0.4570  2.7702 -1.0182
  165MPD2    N1 2524   0.132   1.215   1.721  0.0070 -0.1886 -0.2903
  165MPD2    H7 2525   0.221   1.167   1.731 -0.1384 -1.1864 -3.6700
  166TCq2    C1 2526   4.376   1.250   1.362  0.3416 -0.5972 -0.5123
  166TCq2    O2 2527   4.397   1.205   1.248  0.0473 -0.0833 -0.5238
  166TCq2    C2 2528   4.257   1.327   1.378 -0.1777 -0.8214 -0.9658
  166TCq2    C3 2529   4.207   1.359   1.498 -0.9875  0.3608  0.3546
  166TCq2    C4 2530   4.111   1.447   1.518 -0.1895 -0.0362  0.1101
  166TCq2    C5 2531   4.056   1.511   1.410  0.0972 -0.2705 -0.0971
  166TCq2    C6 2532   4.093   1.467   1.283 -0.0418 -0.1812  0.1376
  166TCq2    C7 2533   4.191   1.370   1.266  0.0283  0.1167  0.0646
  166TCq2    C8 2534   4.099   1.554   1.169 -0.4428 -0.2190 -0.3238
  166TCq2    O4 2535   4.104   1.508   1.055  0.7436 -0.2474  0.1859
  166TCq2    C9 2536   4.085   1.489   1.645 -0.2609 -0.0041  0.3553
  166TCq2    O5 2537   4.154   1.431   1.736  0.4579  0.2917 -0.2082
  166TCq2    O6 2538   4.006   1.588   1.650  0.5163  0.1159  0.1280
  166TCq2    H2 2539   4.254   1.319   1.587  1.0303 -1.4441 -1.4985
  166TCq2    H3 2540   3.990   1.596   1.424 -2.8884 -2.2814 -1.7843
  166TCq2    H4 2541   4.241   1.364   1.170  2.2322  1.3187  1.1413
  167TMC2    C1 2542   3.903   2.526  13.033 -0.5522  0.4258 -0.4503
  167TMC2    C2 2543   3.975   2.549  13.147  0.1558  0.2587  0.2194
  167TMC2    C3 2544   4.110   2.535  13.144  0.3445  0.5348  0.4129
  167TMC2    C4 2545   3.963   2.476  12.927 -0.8686 -0.1926 -0.5946
  167TMC2    C5 2546   4.092   2.439  12.931  0.4656 -0.1743  0.5367
  167TMC2    C6 2547   4.172   2.485  13.034  0.2421  0.2533 -0.1892
  167TMC2     C 2548   3.759   2.540  13.043 -0.4392  0.0325  0.2454
  167TMC2     O 2549   3.711   2.528  13.155 -0.3717 -0.0312  0.2782
  167TMC2     H 2550   3.927   2.581  13.239  0.6533 -0.7265  0.8250
  167TMC2    H1 2551   3.900   2.464  12.839 -0.6338 -0.7581 -0.6847
  167TMC2    H2 2552   4.278   2.465  13.030  0.0904 -0.6372  0.2440
  167TMC2    C7 2553   4.164   2.390  12.821  0.1626 -0.1236  0.3854
  167TMC2    C8 2554   4.185   2.557  13.268 -0.4378 -0.8562  0.2222
  167TMC2    O1 2555   4.285   2.393  12.830 -0.1148 -0.1816 -0.0328
  167TMC2    O2 2556   4.146   2.527  13.378  0.1521 -1.1804  0.2171
  167TMC2    O5 2557   4.294   2.639  13.240  0.3358  0.2388  0.5176
  167TMC2    H5 2558   4.315   2.657  13.146 -2.9757 -0.2894 -0.3013
  168MPD2     C 2559   3.551   2.631  12.764 -0.1818  0.7439  0.0248
  168MPD2    C1 2560   3.577   2.608  12.893 -0.1651 -0.0174  0.5143
  168MPD2    C2 2561   3.483   2.622  12.993  0.4243 -0.6088  0.9856
  168MPD2    C3 2562   3.355   2.638  12.952 -0.1962  0.1147  1.5773
  168MPD2    C4 2563   3.328   2.667  12.819 -0.0640  0.0370 -1.1613
  168MPD2    C5 2564   3.423   2.674  12.727  0.3411 -0.1551  0.2555
  168MPD2     H 2565   3.512   2.621  13.097 -0.2339 -0.5585  1.1654
  168MPD2    H1 2566   3.229   2.700  12.791 -1.9339 -0.4710  4.7873
  168MPD2    H2 2567   3.620   2.622  12.681  2.2616 -0.4928  2.2226
  168MPD2    H3 2568   3.405   2.684  12.621  1.3756  0.7458  0.1643
  168MPD2     N 2569   3.244   2.633  13.041  0.0950  0.0064  0.4060
  168MPD2    H5 2570   3.157   2.660  12.997 -1.0316 -1.7942  1.5330
  168MPD2    N1 2571   3.704   2.567  12.915 -0.2215 -0.4712 -0.1469
  168MPD2    H7 2572   3.773   2.558  12.840 -0.7202 -2.3769 -0.3707
  169MPD1     C 2573   0.377   2.552   8.715 -0.4799 -0.3607  0.3449
  169MPD1    C1 2574   0.302   2.447   8.769 -0.6143  0.0253  0.5645
  169MPD1    C2 2575   0.352   2.377   8.875 -0.1509 -0.3129 -0.1517
  169MPD1    C3 2576   0.468   2.409   8.936  0.3171  0.0102  0.6985
  169MPD1    C4 2577   0.532   2.519   8.897 -0.4380 -1.3123  0.3495
  169MPD1    C5 2578   0.492   2.587   8.786  0.3605  0.9224 -0.0257
  169MPD1     H 2579   0.292   2.296   8.915 -0.6702  0.0148 -0.2672
  169MPD1    H1 2580   0.617   2.570   8.941 -0.6881 -0.3052 -0.3087
  169MPD1    H2 2581   0.354   2.604   8.623  1.7605  0.6961  0.3999
  169MPD1    H3 2582   0.546   2.678   8.763  1.5492  0.3172  0.3224
  169MPD1     N 2583   0.500   2.340   9.053  0.4727  0.4811  0.1369
  169MPD1    H5 2584   0.442   2.259   9.070  1.0031 -0.0982 -0.7949
  169MPD1    N1 2585   0.202   2.382   8.690  0.8494 -0.5947 -0.3107
  169MPD1    H6 2586   0.128   2.335   8.742 -0.3032  1.8932  0.3006
  169MPD1    H7 2587   0.156   2.448   8.628 -1.9466  0.9188  3.3571
  170MPD1     C 2588   3.154   0.516  12.996  0.1212  0.4174  0.0365
  170MPD1    C1 2589   3.258   0.604  12.966  0.2880  0.0458 -0.3521
  170MPD1    C2 2590   3.303   0.679  13.075 -0.3964  0.1523 -0.5098
  170MPD1    C3 2591   3.246   0.669  13.205  0.8516  0.3943 -0.9902
  170MPD1    C4 2592   3.154   0.570  13.227 -0.3552 -0.4846  0.4428
  170MPD1    C5 2593   3.107   0.493  13.123 -0.1323 -0.1866 -0.0745
  170MPD1     H 2594   3.386   0.747  13.065  0.4828 -1.1384 -1.8637
  170MPD1    H1 2595   3.116   0.547  13.325 -1.5977 -0.9678 -0.1529
  170MPD1    H2 2596   3.110   0.456  12.917 -0.6129  0.5288  0.3582
  170MPD1    H3 2597   3.020   0.430  13.135 -1.1605  1.3197  0.4077
  170MPD1     N 2598   3.303   0.752  13.306 -0.5642 -0.5303 -0.1166
  170MPD1    H5 2599   3.376   0.818  13.281 -0.6335 -1.9410 -4.0211
  170MPD1    N1 2600   3.298   0.636  12.840  0.1661 -1.0754  0.9208
  170MPD1    H6 2601   3.398   0.654  12.834 -0.1718  1.1490  2.3210
  170MPD1    H7 2602   3.283   0.564  12.770 -1.2366  0.2436 -0.1210
  171MPD1     C 2603   2.248   2.312  15.621 -0.2982  0.0064  0.1821
  171MPD1    C1 2604   2.214   2.199  15.552 -0.5389  0.3574 -0.0257
  171MPD1    C2 2605   2.224   2.084  15.623 -0.4755 -0.0251  0.0697
  171MPD1    C3 2606   2.282   2.076  15.749 -0.5067 -0.4671 -0.4539
  171MPD1    C4 2607   2.334   2.187  15.806 -0.8788  0.1997 -0.3069
  171MPD1    C5 2608   2.321   2.302  15.737 -0.2502  0.5440  0.2785
  171MPD1     H 2609   2.189   1.992  15.579 -0.8675  0.1538  0.0103
  171MPD1    H1 2610   2.380   2.188  15.904 -2.2545 -0.5198  0.3406
  171MPD1    H2 2611   2.225   2.407  15.574  0.3247  0.1578  0.1889
  171MPD1    H3 2612   2.344   2.398  15.782 -3.5738 -0.3065  3.8106
  171MPD1     N 2613   2.265   1.952  15.824 -0.3079 -1.0125 -0.1516
  171MPD1    H5 2614   2.296   1.962  15.920 -1.4598  0.4241  0.0803
  171MPD1    N1 2615   2.146   2.195  15.420 -0.4307  0.2577  0.0561
  171MPD1    H6 2616   2.151   2.108  15.367  1.9700  0.8404 -0.6707
  171MPD1    H7 2617   2.171   2.269  15.355 -0.6205 -0.0860 -0.4050
  172MPD1     C 2618   0.986   1.009   0.561 -0.7034  0.0993 -0.5355
  172MPD1    C1 2619   0.935   1.120   0.511  0.3991 -0.3849 -0.7524
  172MPD1    C2 2620   0.984   1.244   0.547 -0.0764  0.1204 -0.3463
  172MPD1    C3 2621   1.092   1.250   0.638 -0.0592 -0.2086 -0.1337
  172MPD1    C4 2622   1.139   1.134   0.687  0.9493  0.2450 -0.1509
  172MPD1    C5 2623   1.085   1.012   0.654 -0.6966  0.5239  0.2163
  172MPD1     H 2624   0.935   1.328   0.499  0.7381 -0.4590 -2.1881
  172MPD1    H1 2625   1.221   1.135   0.758 -0.4128  0.9314  1.4045
  172MPD1    H2 2626   0.944   0.912   0.538  2.5006 -1.3351 -0.3533
  172MPD1    H3 2627   1.115   0.925   0.710  1.1182  0.6847 -0.5082
  172MPD1     N 2628   1.155   1.366   0.692  0.1478 -0.4952  0.2147
  172MPD1    H5 2629   1.234   1.338   0.750  0.5155  1.6729  0.7695
  172MPD1    N1 2630   0.837   1.106   0.407  0.7975  0.4436  0.0920
  172MPD1    H6 2631   0.780   1.023   0.409 -0.5851  1.4544  3.2195
  172MPD1    H7 2632   0.773   1.185   0.415  0.8743  0.6510 -1.3260
  173MPD1     C 2633   1.930   1.531  15.554 -0.1041  0.1619 -0.2335
  173MPD1    C1 2634   1.956   1.512  15.420  0.3578  0.6813 -0.2755
  173MPD1    C2 2635   1.977   1.382  15.379 -0.2741 -0.8910 -0.3772
  173MPD1    C3 2636   1.995   1.281  15.473 -0.0083 -0.4582  0.6967
  173MPD1    C4 2637   1.969   1.297  15.608  0.1655 -0.6567 -0.0601
  173MPD1    C5 2638   1.933   1.426  15.644  0.4659 -0.5537 -0.4411
  173MPD1     H 2639   1.991   1.362  15.273  2.3104 -3.2032  0.3938
  173MPD1    H1 2640   2.005   1.227  15.683  1.1601 -0.0018  0.0811
  173MPD1    H2 2641   1.897   1.627  15.594 -1.9819 -0.9406  0.8922
  173MPD1    H3 2642   1.938   1.452  15.749 -1.5256  0.5364 -0.6042
  173MPD1     N 2643   2.044   1.161  15.413 -0.6618 -0.4866 -0.4000
  173MPD1    H5 2644   2.061   1.166  15.313 -1.3315 -0.1059 -0.4969
  173MPD1    N1 2645   1.939   1.617  15.330 -0.1908 -0.3663  0.3162
  173MPD1    H6 2646   1.989   1.608  15.242 -0.2186 -1.3530  0.4027
  173MPD1    H7 2647   1.976   1.702  15.373 -0.5428 -0.0018 -0.0992
  174MPD1     C 2648   2.643   1.191  14.798 -0.5553 -0.0391  0.2234
  174MPD1    C1 2649   2.656   1.059  14.823 -0.2761  0.6689  0.3575
  174MPD1    C2 2650   2.584   1.007  14.930  0.3327  0.6818  0.1773
  174MPD1    C3 2651   2.507   1.090  15.008  0.2937  0.5014 -0.7803
  174MPD1    C4 2652   2.495   1.222  14.980  0.2816 -0.0775  0.0292
  174MPD1    C5 2653   2.568   1.277  14.879 -0.0267 -0.0257  0.0801
  174MPD1     H 2654   2.588   0.902  14.955 -1.3362 -0.2288 -3.4640
  174MPD1    H1 2655   2.429   1.286  15.037 -1.1329 -0.7002 -0.8979
  174MPD1    H2 2656   2.688   1.229  14.707  2.7992 -1.0297  1.4422
  174MPD1    H3 2657   2.570   1.384  14.859 -0.2516 -0.0369  0.0039
  174MPD1     N 2658   2.421   1.035  15.108  0.2417 -0.3587  0.4949
  174MPD1    H5 2659   2.349   1.095  15.146 -0.6481 -1.2334  0.1870
  174MPD1    N1 2660   2.706   0.972  14.720  0.8835 -0.6069  1.0198
  174MPD1    H6 2661   2.779   1.008  14.660  1.7389 -1.3741  1.6046
  174MPD1    H7 2662   2.764   0.897  14.758  0.0498 -0.2870  2.9121
  175MPD1     C 2663   1.381   1.863  15.750  0.0437 -0.2058 -0.0385
  175MPD1    C1 2664   1.245   1.851  15.779  0.4019  0.2539 -0.1848
  175MPD1    C2 2665   1.215   1.827  15.914  0.1371  0.1264 -0.2483
  175MPD1    C3 2666   1.299   1.849  16.016 -0.2877 -0.1654 -0.2392
  175MPD1    C4 2667   1.433   1.881  15.990  0.1758 -0.0389  0.4440
  175MPD1    C5 2668   1.468   1.880  15.855 -0.0383  0.6870 -0.9173
  175MPD1     H 2669   1.108   1.810  15.921  0.3177 -1.0619 -0.3100
  175MPD1    H1 2670   1.504   1.919  16.063  0.4554  0.4832 -0.0949
  175MPD1    H2 2671   1.424   1.859  15.650 -1.0973  1.9596 -0.6247
  175MPD1    H3 2672   1.569   1.910  15.831 -0.1440  1.1029 -0.8439
  175MPD1     N 2673   1.260   1.842  16.155 -0.6979 -0.0061  0.2411
  175MPD1    H5 2674   1.332   1.863  16.223  0.9178 -1.9287 -0.8736
  175MPD1    N1 2675   1.150   1.820  15.685  0.0506  0.5374  0.5329
  175MPD1    H6 2676   1.056   1.850  15.711 -0.6381  0.3869 -1.7389
  175MPD1    H7 2677   1.167   1.872  15.599  2.1981 -1.3089 -0.1550
  176MPD1     C 2678   2.796   4.266   0.730  0.1441 -0.4174 -0.5714
  176MPD1    C1 2679   2.844   4.220   0.610  0.0613  0.3016 -0.3741
  176MPD1    C2 2680   2.764   4.241   0.503 -0.1736 -0.1396  0.0303
  176MPD1    C3 2681   2.639   4.304   0.508 -0.3585  0.1698  0.2627
  176MPD1    C4 2682   2.602   4.356   0.635 -0.5478 -0.4699  0.0817
  176MPD1    C5 2683   2.680   4.329   0.745  0.0440  0.2698 -0.3081
  176MPD1     H 2684   2.801   4.220   0.404  1.2287  0.6163  0.3917
  176MPD1    H1 2685   2.508   4.406   0.654 -0.1807 -0.1442  1.0458
  176MPD1    H2 2686   2.854   4.244   0.818  0.4656  1.2489 -0.3566
  176MPD1    H3 2687   2.659   4.358   0.848  1.1728 -0.2352  0.0584
  176MPD1     N 2688   2.561   4.316   0.389  0.0487 -0.1813 -0.3811
  176MPD1    H5 2689   2.596   4.260   0.312  1.2163 -2.1273  1.5556
  176MPD1    N1 2690   2.947   4.122   0.603  1.0748 -0.5095  0.2712
  176MPD1    H6 2691   3.019   4.146   0.671  0.7171 -0.3114  0.5776
  176MPD1    H7 2692   2.995   4.113   0.514  2.0569 -0.9765  0.8488
  177MPD1     C 2693   1.517   3.871  10.195 -0.0016 -0.1450 -0.2559
  177MPD1    C1 2694   1.523   3.754  10.123 -0.1006  0.1818  0.5748
  177MPD1    C2 2695   1.454   3.748  10.004  0.4513 -0.0254  0.2786
  177MPD1    C3 2696   1.384   3.851   9.949  0.2075 -0.5155  0.4683
  177MPD1    C4 2697   1.390   3.973  10.015 -0.8731  0.3857  0.0688
  177MPD1    C5 2698   1.456   3.978  10.136 -0.6998 -0.2415  0.5187
  177MPD1     H 2699   1.466   3.656   9.947 -2.0041 -0.4443  0.4379
  177MPD1    H1 2700   1.357   4.068   9.974 -0.6821  0.3221 -0.2314
  177MPD1    H2 2701   1.571   3.881  10.288  0.1560  2.2610 -0.5969
  177MPD1    H3 2702   1.462   4.074  10.185 -0.7214 -0.8065  1.6245
  177MPD1     N 2703   1.321   3.831   9.821  0.0103 -0.4540 -0.2156
  177MPD1    H5 2704   1.325   3.734   9.789  1.1829 -1.1651  2.0562
  177MPD1    N1 2705   1.576   3.641  10.182  0.1618  0.1275  0.2292
  177MPD1    H6 2706   1.648   3.656  10.252  0.5523 -2.4785  0.3954
  177MPD1    H7 2707   1.617   3.580  10.112 -0.1588 -0.2701  0.3910
  178MPD1     C 2708   3.011   0.017   0.677  0.1747  0.5550  0.2308
  178MPD1    C1 2709   2.965   4.629   0.612  0.1260 -0.0731  0.6388
  178MPD1    C2 2710   3.027   4.601   0.490 -0.2052 -0.5778  0.0981
  178MPD1    C3 2711   3.135   4.669   0.441  0.0934 -0.0700  0.3445
  178MPD1    C4 2712   3.178   0.054   0.515 -0.0378 -0.3284  0.4398
  178MPD1    C5 2713   3.115   0.088   0.630 -0.0869  0.1607  0.1991
  178MPD1     H 2714   2.967   4.531   0.433 -1.0782 -1.1246  1.6847
  178MPD1    H1 2715   3.259   0.113   0.474  0.0538 -0.8742 -0.1506
  178MPD1    H2 2716   2.971   0.053   0.771  2.2952  2.5514  0.3796
  178MPD1    H3 2717   3.152   0.175   0.683 -0.4783  0.7697 -0.5215
  178MPD1     N 2718   3.207   4.634   0.322  0.6647 -0.7176 -0.9122
  178MPD1    H5 2719   3.282   4.694   0.290 -1.2088  1.4879 -1.1333
  178MPD1    N1 2720   2.845   4.579   0.653 -0.8717 -0.1912 -0.3011
  178MPD1    H6 2721   2.836   4.599   0.752 -2.1620  0.8544 -0.6343
  178MPD1    H7 2722   2.828   4.479   0.656  0.2307 -0.3626  0.2336
  179MPD1     C 2723   2.689   3.477  15.774 -0.0644 -0.0802  0.2732
  179MPD1    C1 2724   2.807   3.462  15.837 -0.3788  0.0466  0.1906
  179MPD1    C2 2725   2.863   3.342  15.853 -0.3756 -0.2091 -0.1668
  179MPD1    C3 2726   2.815   3.226  15.800 -0.0571  0.1117  0.4947
  179MPD1    C4 2727   2.699   3.240  15.726 -0.1569  0.0930 -0.4538
  179MPD1    C5 2728   2.638   3.360  15.719 -0.3443  0.2288 -0.3876
  179MPD1     H 2729   2.956   3.337  15.908 -0.4049 -0.3685 -0.1328
  179MPD1    H1 2730   2.657   3.153  15.677  0.7480 -1.5182  1.6083
  179MPD1    H2 2731   2.637   3.572  15.769 -2.9767 -1.6913  0.5928
  179MPD1    H3 2732   2.546   3.372  15.661 -1.7554 -1.9888  1.3980
  179MPD1     N 2733   2.857   3.095  15.821 -0.2499 -0.0290 -0.1273
  179MPD1    H5 2734   2.802   3.019  15.783 -0.3690 -1.0907  2.1429
  179MPD1    N1 2735   2.855   3.583  15.904 -0.5386  0.2685  0.4430
  179MPD1    H6 2736   2.806   3.666  15.872 -1.4354  0.8388  3.3147
  179MPD1    H7 2737   2.956   3.596  15.908 -0.3469 -0.1936 -2.9757
  180MPD1     C 2738   2.412   4.507  15.606  0.0063 -0.1591  0.1526
  180MPD1    C1 2739   2.513   4.510  15.518 -0.2168 -0.4366  0.4201
  180MPD1    C2 2740   2.501   4.436  15.397 -0.2821  0.3550  0.1986
  180MPD1    C3 2741   2.381   4.383  15.356  0.0521 -0.4467 -0.3698
  180MPD1    C4 2742   2.278   4.382  15.446  0.0651 -0.9089  0.1581
  180MPD1    C5 2743   2.301   4.438  15.573 -0.1184 -0.0768  0.2978
  180MPD1     H 2744   2.586   4.432  15.330  0.4931 -1.0794  1.2809
  180MPD1    H1 2745   2.181   4.340  15.422 -1.0087  0.5327  1.9833
  180MPD1    H2 2746   2.423   4.570  15.693 -0.5736  2.8342 -1.9497
  180MPD1    H3 2747   2.209   4.447  15.630 -0.3054  0.3052 -0.0638
  180MPD1     N 2748   2.374   4.334  15.229 -0.6403 -0.3961  0.6579
  180MPD1    H5 2749   2.457   4.348  15.173 -1.0362  5.8928  1.5748
  180MPD1    N1 2750   2.631   4.576  15.565 -0.3884  0.3984 -0.5941
  180MPD1    H6 2751   2.607   4.660  15.616 -0.4698  0.1344 -0.1949
  180MPD1    H7 2752   2.689   4.605  15.487  2.0468 -0.4448  0.9195
  181MPD1     C 2753   4.467   1.548   9.157  0.2533  0.1908 -0.1819
  181MPD1    C1 2754   4.458   1.407   9.170 -0.4331  0.5201  0.1265
  181MPD1    C2 2755   4.521   1.349   9.280  0.2485 -0.2630 -0.2607
  181MPD1    C3 2756   4.572   1.429   9.388 -0.2591 -0.0980 -0.0398
  181MPD1    C4 2757   4.565   1.566   9.378  0.2944 -0.4768 -0.0344
  181MPD1    C5 2758   4.515   1.621   9.263 -0.0775  0.5753  0.7017
  181MPD1     H 2759   4.539   1.242   9.280 -2.5003 -0.7437 -0.4698
  181MPD1    H1 2760   4.589   1.642   9.452 -1.1309 -0.9760  0.9323
  181MPD1    H2 2761   4.422   1.600   9.073 -0.8688  0.7917  0.7965
  181MPD1    H3 2762   4.515   1.728   9.249 -0.5515  0.3107 -1.3787
  181MPD1     N 2763   4.635   1.364   9.499  0.7156 -0.2262  0.3950
  181MPD1    H5 2764   4.671   1.426   9.571  0.2882  0.6174 -0.1122
  181MPD1    N1 2765   4.408   1.334   9.062  0.0315  0.2769  0.5553
  181MPD1    H6 2766   4.362   1.249   9.095  0.8173 -0.4798 -0.2909
  181MPD1    H7 2767   4.337   1.378   9.004  1.1882  0.5380 -0.6381
  182MPD1     C 2768   0.948   1.153   1.761  0.0346  0.5966  0.0887
  182MPD1    C1 2769   0.829   1.213   1.722  0.6558 -0.5304 -0.0393
  182MPD1    C2 2770   0.755   1.152   1.618 -0.1629 -0.5137 -0.3229
  182MPD1    C3 2771   0.804   1.040   1.553 -0.5619 -0.9883  0.3893
  182MPD1    C4 2772   0.931   0.991   1.589 -1.1928  0.2374  0.3881
  182MPD1    C5 2773   0.995   1.043   1.696 -0.3022  0.5460  1.0456
  182MPD1     H 2774   0.657   1.191   1.595  0.1467 -0.3190 -1.3002
  182MPD1    H1 2775   0.969   0.903   1.538 -2.7016 -1.7880  2.8140
  182MPD1    H2 2776   1.006   1.195   1.843 -1.2715 -0.4418  1.5486
  182MPD1    H3 2777   1.083   0.996   1.739  0.4945 -0.3704 -1.6125
  182MPD1     N 2778   0.734   0.982   1.445  0.4943 -0.2585  0.1092
  182MPD1    H5 2779   0.779   0.910   1.389  1.6719  1.0341 -0.6161
  182MPD1    N1 2780   0.792   1.337   1.785  0.2504  0.2870  0.3836
  182MPD1    H6 2781   0.824   1.337   1.882  1.8126  1.5573 -0.1355
  182MPD1    H7 2782   0.692   1.354   1.780 -0.2595 -2.6330  0.4583
  183MPD1     C 2783   1.433   4.469   9.151 -0.6635 -0.3253 -0.1761
  183MPD1    C1 2784   1.337   4.570   9.174 -0.1421  0.3125 -0.1872
  183MPD1    C2 2785   1.312   4.610   9.308  0.3303 -0.1418  0.5223
  183MPD1    C3 2786   1.388   4.559   9.412 -0.2687  0.0132 -0.1796
  183MPD1    C4 2787   1.484   4.463   9.383  0.8562  0.1913  0.4808
  183MPD1    C5 2788   1.504   4.426   9.255 -0.2190  0.2140  0.0048
  183MPD1     H 2789   1.254   4.699   9.326 -0.3608 -0.5080  0.1196
  183MPD1    H1 2790   1.551   4.416   9.454 -1.5779 -2.8207  0.7695
  183MPD1    H2 2791   1.458   4.441   9.050 -0.4313 -0.7272 -0.0045
  183MPD1    H3 2792   1.571   4.345   9.231  1.4167  1.5039  0.2432
  183MPD1     N 2793   1.344   4.606   9.540 -0.6192 -0.3657  0.9063
  183MPD1    H5 2794   1.288   4.690   9.545  0.8126  0.6176  0.0047
  183MPD1    N1 2795   1.285   4.643   9.070 -0.4465  0.0569 -0.8597
  183MPD1    H6 2796   1.318   4.606   8.980  0.8931 -0.5578 -0.1167
  183MPD1    H7 2797   1.186   4.666   9.065  0.0245  1.7633 -2.4749
  184MPD1     C 2798   0.486   3.082  10.523 -0.1664  0.4913  0.0428
  184MPD1    C1 2799   0.521   3.041  10.394  0.3549  0.1847  0.0299
  184MPD1    C2 2800   0.515   3.141  10.298 -0.8039 -0.1554  0.8064
  184MPD1    C3 2801   0.508   3.273  10.328  0.1470 -0.1096  0.6048
  184MPD1    C4 2802   0.474   3.312  10.456  0.7655 -0.2598 -0.1743
  184MPD1    C5 2803   0.461   3.216  10.552 -1.2137  0.1809  0.2369
  184MPD1     H 2804   0.519   3.108  10.195 -1.6064  1.8348  0.1227
  184MPD1    H1 2805   0.447   3.414  10.482  0.3577 -0.0885 -1.2510
  184MPD1    H2 2806   0.473   3.009  10.603 -2.0931  0.2318 -0.5180
  184MPD1    H3 2807   0.436   3.243  10.653 -0.3675  0.5014  0.3568
  184MPD1     N 2808   0.531   3.372  10.232 -0.2966 -0.7082  0.4981
  184MPD1    H5 2809   0.524   3.469  10.261 -1.7683 -1.4034  2.4209
  184MPD1    N1 2810   0.517   2.908  10.356 -0.4806  0.5728  0.8882
  184MPD1    H6 2811   0.559   2.853  10.431  0.5707 -0.3503 -0.3678
  184MPD1    H7 2812   0.556   2.891  10.264 -4.3759  1.1660 -0.8361
  185MPD1     C 2813   0.783   3.111   9.301  0.3447 -0.2696 -0.2057
  185MPD1    C1 2814   0.762   3.248   9.285 -0.0241 -0.9504 -0.0121
  185MPD1    C2 2815   0.723   3.320   9.397  0.2147 -0.5544 -0.7667
  185MPD1    C3 2816   0.710   3.263   9.521  0.1628  0.0972  0.7323
  185MPD1    C4 2817   0.736   3.127   9.531 -0.2249 -0.4167 -0.6744
  185MPD1    C5 2818   0.763   3.043   9.419  0.2017 -0.2617  0.0623
  185MPD1     H 2819   0.724   3.429   9.392  1.6459 -0.4883  0.6953
  185MPD1    H1 2820   0.739   3.080   9.629 -0.9019  1.8035  0.4160
  185MPD1    H2 2821   0.809   3.049   9.216  0.1555  0.2008 -0.6045
  185MPD1    H3 2822   0.777   2.936   9.418  0.5788 -0.2372  1.7163
  185MPD1     N 2823   0.686   3.326   9.646 -0.4259 -0.2933  0.0024
  185MPD1    H5 2824   0.658   3.274   9.728  0.0722 -0.0154  0.3556
  185MPD1    N1 2825   0.765   3.311   9.156  0.0906  0.3351 -0.1996
  185MPD1    H6 2826   0.804   3.256   9.080 -2.9146 -0.0262 -1.5026
  185MPD1    H7 2827   0.798   3.408   9.152 -0.0645  0.3636 -0.8144
  186MPD1     C 2828   2.723   3.173  16.129  0.2449  0.2783  0.4938
  186MPD1    C1 2829   2.730   3.034  16.151 -0.4339 -0.3562  0.4912
  186MPD1    C2 2830   2.837   2.991  16.231  0.9112  0.4805  0.5196
  186MPD1    C3 2831   2.934   3.077  16.291  0.6008 -0.5699 -0.3867
  186MPD1    C4 2832   2.926   3.204  16.250 -0.5616 -0.8428 -0.6755
  186MPD1    C5 2833   2.825   3.251  16.168 -0.1810 -0.1506  0.6703
  186MPD1     H 2834   2.851   2.885  16.243  1.8387  0.2353 -2.6278
  186MPD1    H1 2835   3.007   3.270  16.280 -0.7290 -0.5709 -0.8193
  186MPD1    H2 2836   2.646   3.213  16.064 -0.1878 -3.0261 -1.0110
  186MPD1    H3 2837   2.818   3.356  16.142 -0.7978 -0.1026  1.0144
  186MPD1     N 2838   3.043   3.047  16.370  0.2059 -0.1796  0.0776
  186MPD1    H5 2839   3.103   3.126  16.386 -0.1948 -0.0191  0.8123
  186MPD1    N1 2840   2.627   2.942  16.127 -1.1434 -0.1469  0.1356
  186MPD1    H6 2841   2.660   2.846  16.136 -2.9587 -0.8989 -1.4024
  186MPD1    H7 2842   2.582   2.952  16.037  0.2732  0.2195 -0.5310
  187MPD1     C 2843   1.940   1.012   0.750 -0.0912  0.7277 -0.1531
  187MPD1    C1 2844   1.929   1.061   0.627  0.3887  0.2540  0.3614
  187MPD1    C2 2845   2.000   0.996   0.525 -0.5769  0.4050  0.1865
  187MPD1    C3 2846   2.064   0.872   0.546  0.1022  0.4304  0.0745
  187MPD1    C4 2847   2.067   0.825   0.671 -0.0155  0.4834  0.3723
  187MPD1    C5 2848   2.006   0.894   0.773 -0.3530  0.2497 -0.2671
  187MPD1     H 2849   1.998   1.041   0.427  1.5324  0.7397  0.3041
  187MPD1    H1 2850   2.120   0.735   0.701  1.0137  1.6826  2.1799
  187MPD1    H2 2851   1.882   1.060   0.827  0.6288  0.0434  0.8122
  187MPD1    H3 2852   2.013   0.848   0.871 -0.3614  0.7944 -0.0132
  187MPD1     N 2853   2.128   0.808   0.434  0.8211 -0.1636  0.3054
  187MPD1    H5 2854   2.196   0.734   0.447  1.4048  0.1725 -0.8880
  187MPD1    N1 2855   1.874   1.186   0.593 -0.2930  0.1015  0.3738
  187MPD1    H6 2856   1.847   1.198   0.495  1.4067  3.4919  0.3258
  187MPD1    H7 2857   1.803   1.223   0.655  0.5473 -1.2395  2.1356
  188MPD1     C 2858   3.224   3.958  10.921 -0.0640  0.3320  0.0011
  188MPD1    C1 2859   3.288   3.833  10.945 -0.3550  0.5078 -0.4975
  188MPD1    C2 2860   3.319   3.763  10.826 -0.0068  0.1325 -0.3500
  188MPD1    C3 2861   3.260   3.789  10.706 -0.6331 -0.2489  0.1414
  188MPD1    C4 2862   3.183   3.904  10.688  0.2491 -0.3520 -0.0455
  188MPD1    C5 2863   3.161   3.983  10.802  0.1708  0.0228 -0.4098
  188MPD1     H 2864   3.378   3.672  10.830 -1.7538 -1.0590 -1.3138
  188MPD1    H1 2865   3.123   3.930  10.601  0.6403 -0.0346 -0.2189
  188MPD1    H2 2866   3.189   4.021  11.002 -0.3044  2.1344 -1.5173
  188MPD1    H3 2867   3.100   4.070  10.784  1.9271  0.8930 -2.1248
  188MPD1     N 2868   3.252   3.707  10.598 -0.0486 -0.2358  0.3723
  188MPD1    H5 2869   3.213   3.745  10.513  0.4420 -1.6378 -0.4694
  188MPD1    N1 2870   3.354   3.813  11.067 -0.0061 -0.0179 -0.0355
  188MPD1    H6 2871   3.286   3.824  11.142  0.6309 -1.0708  0.7018
  188MPD1    H7 2872   3.388   3.717  11.075  0.4671  0.0871 -0.8297
  189MPD1     C 2873   0.254   0.650   0.417  0.1850 -0.0444 -0.0503
  189MPD1    C1 2874   0.148   0.739   0.425  0.1229 -0.4931  0.6945
  189MPD1    C2 2875   0.086   0.763   0.304  0.5909  0.7968  0.1683
  189MPD1    C3 2876   0.128   0.709   0.178 -0.3276 -0.0704 -0.3911
  189MPD1    C4 2877   0.233   0.622   0.176  0.2505 -0.0834 -0.2057
  189MPD1    C5 2878   0.300   0.592   0.297  0.9017 -0.0080 -0.5650
  189MPD1     H 2879   0.004   0.833   0.312  0.2891  0.4782 -0.1432
  189MPD1    H1 2880   0.261   0.579   0.081  1.5515 -0.5018  0.3668
  189MPD1    H2 2881   0.317   0.616   0.499  1.6990  2.3806 -0.2013
  189MPD1    H3 2882   0.377   0.517   0.302  2.4674  1.6231 -0.3903
  189MPD1     N 2883   0.067   0.742   0.053  0.1239 -0.0293 -0.6317
  189MPD1    H5 2884   0.119   0.706  17.672  2.6298  1.5654  0.2928
  189MPD1    N1 2885   0.129   0.823   0.534  0.9367 -0.3638 -0.3801
  189MPD1    H6 2886   0.038   0.869   0.531  0.9207 -0.3424  0.5900
  189MPD1    H7 2887   0.137   0.780   0.625  1.5586  1.8156  0.5932
  190MPD1     C 2888   2.980   0.030  15.667  0.8375 -0.4647 -0.4405
  190MPD1    C1 2889   3.037   4.642  15.617  0.2097  0.9197  0.0017
  190MPD1    C2 2890   3.110   4.564  15.701  0.6262  0.1998  0.3485
  190MPD1    C3 2891   3.124   4.594  15.831 -0.1491  0.0520  0.6431
  190MPD1    C4 2892   3.056   4.701  15.878 -0.2947 -0.4390  0.3221
  190MPD1    C5 2893   2.987   0.055  15.801 -0.6457  0.3023  0.3836
  190MPD1     H 2894   3.179   4.486  15.671 -1.1460 -2.1895  2.4211
  190MPD1    H1 2895   3.062   0.011  15.981 -0.7222  1.1283 -0.1706
  190MPD1    H2 2896   2.921   0.094  15.602 -1.4785 -1.2870  0.8768
  190MPD1    H3 2897   2.951   0.147  15.846 -1.1517 -0.0693  0.7333
  190MPD1     N 2898   3.202   4.501  15.912  0.2583 -0.4197 -0.4247
  190MPD1    H5 2899   3.247   4.428  15.859  1.3410 -0.1459  0.1092
  190MPD1    N1 2900   3.049   4.617  15.481 -0.1195  0.1943 -0.3550
  190MPD1    H6 2901   2.959   4.649  15.446 -0.6722  0.9849  1.8260
  190MPD1    H7 2902   3.051   4.517  15.458 -2.5502 -0.2205  1.1690
  191MPD1     C 2903   3.049   4.447  12.541 -0.1108  0.2225 -0.3955
  191MPD1    C1 2904   2.936   4.516  12.586  0.4559 -0.1124  0.4516
  191MPD1    C2 2905   2.918   4.643  12.530  0.2052 -0.1319  0.3800
  191MPD1    C3 2906   3.004   4.695  12.429 -0.5651 -0.3371  0.8930
  191MPD1    C4 2907   3.113   4.617  12.383  0.2139 -0.0602 -0.3447
  191MPD1    C5 2908   3.134   4.491  12.438 -0.5462  0.1863  0.3825
  191MPD1     H 2909   2.837   4.710  12.559 -1.0824 -1.0655 -1.0504
  191MPD1    H1 2910   3.179   4.653  12.306  0.7668  1.2894  0.7564
  191MPD1    H2 2911   3.082   4.356  12.589 -1.2394  0.3624  0.6251
  191MPD1    H3 2912   3.221   4.432  12.413 -0.9994 -0.7919  1.1171
  191MPD1     N 2913   2.978   0.094  12.380 -0.0093  0.1093 -0.2517
  191MPD1    H5 2914   2.906   0.156  12.418  2.0574  0.5616  3.0042
  191MPD1    N1 2915   2.857   4.476  12.698 -0.1758  0.1548 -0.1288
  191MPD1    H6 2916   2.841   4.375  12.698 -1.3309  0.3398 -0.4992
  191MPD1    H7 2917   2.775   4.533  12.681 -0.5161  0.6109  3.1672
  192MPD1     C 2918   2.542   0.938  12.640 -0.3857 -0.1129 -0.1973
  192MPD1    C1 2919   2.610   0.833  12.690  0.5516  0.2329 -0.3714
  192MPD1    C2 2920   2.659   0.736  12.607 -0.3116 -0.1404 -0.0473
  192MPD1    C3 2921   2.653   0.744  12.470  0.3164  0.0982  0.7511
  192MPD1    C4 2922   2.577   0.850  12.424  0.4071 -0.1956  0.7258
  192MPD1    C5 2923   2.518   0.944  12.508 -0.0919  0.1000 -0.2386
  192MPD1     H 2924   2.713   0.653  12.650  1.5624  0.8734 -0.4261
  192MPD1    H1 2925   2.568   0.871  12.318 -1.6840 -0.0749  0.9409
  192MPD1    H2 2926   2.497   1.011  12.706 -1.2640 -0.6727 -0.1781
  192MPD1    H3 2927   2.470   1.032  12.465  2.2998  0.9596 -1.1976
  192MPD1     N 2928   2.724   0.653  12.382  0.6533 -0.2669 -0.8520
  192MPD1    H5 2929   2.717   0.672  12.282  4.0853 -0.0955 -1.0499
  192MPD1    N1 2930   2.618   0.808  12.831 -0.1289  0.3350  0.2419
  192MPD1    H6 2931   2.688   0.739  12.857 -1.2204 -1.3688 -1.3445
  192MPD1    H7 2932   2.621   0.894  12.884 -0.6209  1.0134 -0.8334
  193MPD1     C 2933   1.806   1.935  16.350  0.0397  0.1192 -0.1320
  193MPD1    C1 2934   1.805   1.861  16.470  0.4354 -1.0089 -0.0227
  193MPD1    C2 2935   1.905   1.883  16.562 -0.1154 -0.0816  0.4757
  193MPD1    C3 2936   1.993   1.994  16.550  0.2468 -0.0001  0.0688
  193MPD1    C4 2937   1.991   2.070  16.429  0.0483 -0.1096 -0.1838
  193MPD1    C5 2938   1.894   2.035  16.339  0.2222 -0.0705  1.1023
  193MPD1     H 2939   1.901   1.822  16.652  1.3310 -2.2841 -0.9565
  193MPD1    H1 2940   2.055   2.155  16.407  0.7142 -0.2530  1.2238
  193MPD1    H2 2941   1.730   1.920  16.275 -1.5062  1.3392  1.1784
  193MPD1    H3 2942   1.891   2.101  16.253 -2.5018 -0.9818  0.5019
  193MPD1     N 2943   2.092   2.024  16.647  0.0200 -0.8870 -0.5230
  193MPD1    H5 2944   2.151   2.105  16.633 -1.1776  0.4170  1.8969
  193MPD1    N1 2945   1.711   1.756  16.481 -0.1814  0.5574  0.2233
  193MPD1    H6 2946   1.696   1.736  16.580  2.1824 -0.2501  0.4368
  193MPD1    H7 2947   1.629   1.802  16.443  0.2210 -0.2561 -1.6205
  194MPD1     C 2948   4.469   3.636  16.406  0.4947 -0.9108 -0.1681
  194MPD1    C1 2949   4.466   3.682  16.535  0.4636 -0.9101 -0.7587
  194MPD1    C2 2950   4.530   3.611  16.638 -0.3729  0.1610 -0.9579
  194MPD1    C3 2951   4.576   3.483  16.621  0.4375 -0.3298 -0.2650
  194MPD1    C4 2952   4.553   3.429  16.493  0.0457 -0.4097 -0.0395
  194MPD1    C5 2953   4.497   3.504  16.395 -0.6725 -0.4212  0.1715
  194MPD1     H 2954   4.532   3.652  16.739  2.0857  1.1034 -1.3810
  194MPD1    H1 2955   4.584   3.327  16.472 -2.0199 -0.8367 -0.9883
  194MPD1    H2 2956   4.436   3.696  16.323  0.6575  0.0767  0.4865
  194MPD1    H3 2957   4.490   3.448  16.302  0.2671 -0.6895  0.2552
  194MPD1     N 2958   4.637   3.406  16.714  0.4479  0.5066  0.0906
  194MPD1    H5 2959   4.675   3.318  16.678 -1.2776 -0.9775  1.9255
  194MPD1    N1 2960   4.421   3.813  16.555 -0.7004  0.0836  0.0618
  194MPD1    H6 2961   4.407   3.847  16.650  1.9990 -1.4691  1.0019
  194MPD1    H7 2962   4.347   3.845  16.492 -0.7563  0.8911  0.5262
  195MPD1     C 2963   1.612   1.372   0.261 -0.6351 -0.1758  0.8141
  195MPD1    C1 2964   1.548   1.299   0.358 -0.8058  0.1500  0.5671
  195MPD1    C2 2965   1.575   1.162   0.361 -0.1550 -0.2850 -0.1901
  195MPD1    C3 2966   1.680   1.109   0.292  0.0787 -0.4799 -0.0307
  195MPD1    C4 2967   1.750   1.185   0.203  0.0079  0.5823 -0.4474
  195MPD1    C5 2968   1.703   1.314   0.176 -0.6014  1.2442  0.3002
  195MPD1     H 2969   1.528   1.111   0.445 -1.2177  0.1728 -0.5172
  195MPD1    H1 2970   1.825   1.139   0.140  0.9846  0.7924  0.5655
  195MPD1    H2 2971   1.591   1.477   0.244  1.1448 -0.0446 -0.5903
  195MPD1    H3 2972   1.743   1.372   0.093 -0.7351  1.6841  0.5458
  195MPD1     N 2973   1.716   0.976   0.302  0.5111  0.4573  0.2956
  195MPD1    H5 2974   1.786   0.950   0.233  1.5617 -1.0038  1.8735
  195MPD1    N1 2975   1.439   1.363   0.417  0.8163  0.0037  0.1092
  195MPD1    H6 2976   1.444   1.332   0.514 -2.3718 -1.8719 -0.3375
  195MPD1    H7 2977   1.457   1.462   0.436 -2.0244  0.0142  2.7315
  196MPD1     C 2978   1.843   4.718   1.136  0.1991  0.4699  0.0492
  196MPD1    C1 2979   1.710   4.687   1.153  0.6027 -0.7581  0.5526
  196MPD1    C2 2980   1.631   0.070   1.159 -0.7382  0.4321  0.0473
  196MPD1    C3 2981   1.673   0.200   1.145  0.6010  0.2761  0.1562
  196MPD1    C4 2982   1.801   0.227   1.103  0.1552 -0.4789 -0.1220
  196MPD1    C5 2983   1.888   0.120   1.106 -1.0023  0.3677 -0.1963
  196MPD1     H 2984   1.529   0.054   1.191 -0.2979 -1.2393  0.6278
  196MPD1    H1 2985   1.837   0.322   1.063 -0.2437 -0.3656 -0.2123
  196MPD1    H2 2986   1.920   4.642   1.149  0.1538  0.1573 -1.5904
  196MPD1    H3 2987   1.989   0.135   1.071 -0.6526 -2.5821 -0.3978
  196MPD1     N 2988   1.598   0.323   1.162 -0.1216  0.0127 -0.1196
  196MPD1    H5 2989   1.656   0.406   1.151  0.5069 -0.6133 -1.5418
  196MPD1    N1 2990   1.662   4.566   1.185  0.1108 -0.4990 -0.0018
  196MPD1    H6 2991   1.563   4.552   1.170  0.1291 -0.0467 -0.5248
  196MPD1    H7 2992   1.708   4.490   1.135 -0.5516  0.8269 -2.6228
  197MPD1     C 2993   0.692   1.805   0.169 -0.1957  0.4447 -0.1789
  197MPD1    C1 2994   0.801   1.851   0.230  0.0992  0.1260 -0.7437
  197MPD1    C2 2995   0.876   1.943   0.156  0.4783 -0.0119  0.1042
  197MPD1    C3 2996   0.851   1.974   0.030  0.1787  0.0892  0.1593
  197MPD1    C4 2997   0.739   1.927  17.665 -0.4309  0.6276 -0.0338
  197MPD1    C5 2998   0.660   1.845   0.038  0.0085 -0.1668 -0.3092
  197MPD1     H 2999   0.969   1.984   0.194  0.7215  0.1628 -0.6838
  197MPD1    H1 3000   0.696   1.964  17.573  0.7325 -2.0454 -1.6667
  197MPD1    H2 3001   0.613   1.754   0.224  0.5629 -1.5460 -0.9708
  197MPD1    H3 3002   0.571   1.809  17.688  1.0322 -1.3797 -1.2889
  197MPD1     N 3003   0.926   2.061  17.645  0.4384 -0.2258  0.0949
  197MPD1    H5 3004   0.898   2.059  17.547  1.2902  1.2684 -0.1795
  197MPD1    N1 3005   0.814   1.834   0.372  0.0430  0.3602  0.1614
  197MPD1    H6 3006   0.778   1.745   0.406 -1.8869  1.2078  0.3761
  197MPD1    H7 3007   0.910   1.849   0.402  0.4509 -1.1723 -0.3806
  198MPD1     C 3008   3.161   0.591  16.750 -0.2265  0.7337  0.4079
  198MPD1    C1 3009   3.101   0.714  16.780 -0.8967 -0.1243  0.3509
  198MPD1    C2 3010   3.010   0.767  16.696 -0.7258  0.0436  0.9151
  198MPD1    C3 3011   2.949   0.692  16.592  0.3377 -0.2901 -0.0473
  198MPD1    C4 3012   3.005   0.570  16.557  0.6313 -0.2584  0.4391
  198MPD1    C5 3013   3.108   0.522  16.637 -0.1320 -0.4265  0.0145
  198MPD1     H 3014   2.967   0.864  16.720 -1.5567 -0.3878  1.2058
  198MPD1    H1 3015   2.969   0.520  16.468 -0.8810  0.5034  0.6327
  198MPD1    H2 3016   3.245   0.548  16.802  0.3477  1.0973 -0.2155
  198MPD1    H3 3017   3.169   0.436  16.610  1.5107  0.7794 -0.1043
  198MPD1     N 3018   2.841   0.756  16.526 -0.1460 -0.7946 -0.1341
  198MPD1    H5 3019   2.826   0.856  16.541 -0.2410 -0.8014 -0.1848
  198MPD1    N1 3020   3.155   0.794  16.885  0.9109 -0.2110  0.4851
  198MPD1    H6 3021   3.192   0.732  16.957 -0.7968 -1.4482  0.3096
  198MPD1    H7 3022   3.087   0.858  16.925  1.8634  0.5030  0.9516
  199MPD1     C 3023   0.887   1.315  10.719  0.0264 -0.1845  0.0507
  199MPD1    C1 3024   0.948   1.341  10.595  0.9819 -0.6457  0.4135
  199MPD1    C2 3025   0.858   1.380  10.490  0.2093 -0.7831 -0.0915
  199MPD1    C3 3026   0.725   1.378  10.507  0.3554  0.2902 -0.4114
  199MPD1    C4 3027   0.669   1.332  10.622  0.3609  0.5079  0.1480
  199MPD1    C5 3028   0.750   1.287  10.722 -0.0733  0.5433 -0.4317
  199MPD1     H 3029   0.907   1.383  10.394  1.7896 -0.3307  0.7311
  199MPD1    H1 3030   0.562   1.325  10.639  0.1831 -1.8683 -1.9133
  199MPD1    H2 3031   0.950   1.300  10.806  0.9357 -1.1085 -0.7692
  199MPD1    H3 3032   0.700   1.266  10.816  0.2938 -0.3369 -0.4345
  199MPD1     N 3033   0.628   1.409  10.405 -0.2410 -0.3114 -0.8789
  199MPD1    H5 3034   0.531   1.412  10.434 -0.4122  0.3702 -1.5129
  199MPD1    N1 3035   1.090   1.340  10.589 -1.0062 -0.5508 -0.1872
  199MPD1    H6 3036   1.134   1.265  10.641 -0.9381 -0.2681  0.1611
  199MPD1    H7 3037   1.105   1.321  10.490  2.7797 -0.6257  0.4313
  200MPD1     C 3038   3.779   1.718  14.798 -0.2922 -0.7687 -0.1251
  200MPD1    C1 3039   3.825   1.668  14.679  0.3438  0.4844  0.4641
  200MPD1    C2 3040   3.960   1.642  14.662  0.2803 -0.3709  0.3544
  200MPD1    C3 3041   4.051   1.675  14.760  0.0847 -0.4812 -0.0862
  200MPD1    C4 3042   4.002   1.728  14.878  0.0362 -0.0405  0.6452
  200MPD1    C5 3043   3.866   1.749  14.890  0.3369 -0.1963 -0.4847
  200MPD1     H 3044   3.999   1.594  14.573  0.8416 -4.6071  2.8877
  200MPD1    H1 3045   4.065   1.733  14.966  0.8143  3.4168 -0.1004
  200MPD1    H2 3046   3.672   1.730  14.814  0.0527  1.0249  0.9382
  200MPD1    H3 3047   3.826   1.777  14.987  0.7657  0.4580 -0.5003
  200MPD1     N 3048   4.188   1.657  14.733 -0.3729  0.5468 -0.4709
  200MPD1    H5 3049   4.219   1.616  14.645 -1.3187 -0.9421 -0.1020
  200MPD1    N1 3050   3.738   1.619  14.583 -0.0123  0.4960  0.1186
  200MPD1    H6 3051   3.655   1.678  14.579  0.0021  0.5550  0.6201
  200MPD1    H7 3052   3.770   1.602  14.488 -1.5657 -0.6284 -0.2092
  201MPD1     C 3053   2.123   0.724  13.513  0.0049  0.5427  0.4964
  201MPD1    C1 3054   2.237   0.647  13.514  0.2976  0.0957 -0.7190
  201MPD1    C2 3055   2.229   0.523  13.459  0.2449 -0.2157  0.6379
  201MPD1    C3 3056   2.103   0.468  13.424  0.3526 -0.1594  0.9868
  201MPD1    C4 3057   1.990   0.551  13.421  0.4044  0.2661 -0.0671
  201MPD1    C5 3058   2.004   0.677  13.465 -1.3228 -0.0481 -0.2894
  201MPD1     H 3059   2.322   0.467  13.460 -0.0591 -0.7395 -0.8350
  201MPD1    H1 3060   1.897   0.510  13.383 -0.0678  0.8215  0.4856
  201MPD1    H2 3061   2.134   0.821  13.559 -0.4817  0.8948 -0.1253
  201MPD1    H3 3062   1.912   0.735  13.468 -1.4494 -0.2060 -1.1132
  201MPD1     N 3063   2.096   0.324  13.412  0.6045 -0.6180  0.1492
  201MPD1    H5 3064   2.182   0.274  13.430 -1.1863 -2.7320  2.8432
  201MPD1    N1 3065   2.362   0.709  13.532  1.1451  0.2835  0.2334
  201MPD1    H6 3066   2.347   0.792  13.588 -0.8869  0.0111  0.0915
  201MPD1    H7 3067   2.426   0.635  13.562 -0.9131 -1.1478  1.1066
  202MPD1     C 3068   2.301   0.094  10.540  0.4873 -0.3105  0.3627
  202MPD1    C1 3069   2.369   4.715  10.599 -0.2922  0.5700 -0.9441
  202MPD1    C2 3070   2.330   4.583  10.561  0.0929  0.3855  0.1249
  202MPD1    C3 3071   2.203   4.566  10.511 -0.6799 -0.5456 -0.5068
  202MPD1    C4 3072   2.129   4.675  10.475  0.4525 -0.5058 -0.3496
  202MPD1    C5 3073   2.181   0.074  10.475 -0.0280  0.8070  0.1742
  202MPD1     H 3074   2.388   4.499  10.598 -0.6605  0.2947  1.1008
  202MPD1    H1 3075   2.032   4.665  10.429  1.3460 -1.2377 -2.0991
  202MPD1    H2 3076   2.344   0.193  10.544  0.3976 -0.2630  0.1541
  202MPD1    H3 3077   2.137   0.156  10.420 -0.5490  0.0476 -0.5420
  202MPD1     N 3078   2.149   4.441  10.479  0.1618 -0.4524  0.1065
  202MPD1    H5 3079   2.057   4.436  10.436  0.0512 -2.5864  0.5707
  202MPD1    N1 3080   2.502   0.013  10.646  0.5800 -0.2174 -0.0265
  202MPD1    H6 3081   2.531   4.658  10.704 -1.3567 -0.6474  0.3712
  202MPD1    H7 3082   2.507   0.102  10.694  0.7302  0.6447 -1.6416
  203MPD1     C 3083   0.409   1.169  12.784  0.8735 -0.0909 -1.0917
  203MPD1    C1 3084   0.516   1.145  12.704  0.1336 -0.1109  0.8570
  203MPD1    C2 3085   0.565   1.024  12.700  0.2602 -0.6487  0.0317
  203MPD1    C3 3086   0.518   0.926  12.779  0.2064 -0.0870 -0.3403
  203MPD1    C4 3087   0.407   0.947  12.865  0.5311  0.0478  0.4812
  203MPD1    C5 3088   0.353   1.072  12.862  0.2506 -0.7411  0.3382
  203MPD1     H 3089   0.650   1.002  12.636  0.4547 -0.7772  0.3315
  203MPD1    H1 3090   0.365   0.872  12.931  0.5873 -1.1395 -0.8283
  203MPD1    H2 3091   0.355   1.262  12.765  0.0561 -0.2146  0.5802
  203MPD1    H3 3092   0.263   1.093  12.919  0.3232 -1.2350  0.6383
  203MPD1     N 3093   0.577   0.789  12.783  0.1392  0.2533 -0.2880
  203MPD1    H5 3094   0.668   0.784  12.737  1.3614  2.5015  1.8706
  203MPD1    N1 3095   0.550   1.248  12.613  0.4271 -0.0708  0.1979
  203MPD1    H6 3096   0.534   1.343  12.644  1.1139  0.4338 -0.9670
  203MPD1    H7 3097   0.646   1.247  12.577  1.0058 -1.0376  1.7602
  204MPD1     C 3098   0.287   2.423   0.038  0.2221  0.5529  0.3942
  204MPD1    C1 3099   0.293   2.444  17.600 -0.3452 -0.1205 -0.0450
  204MPD1    C2 3100   0.210   2.368  17.524  0.5239 -0.1913  0.5976
  204MPD1    C3 3101   0.123   2.280  17.580 -0.4728  0.3006 -0.1956
  204MPD1    C4 3102   0.118   2.260   0.018 -0.1625  0.4483  0.3372
  204MPD1    C5 3103   0.208   2.331   0.095  0.3206  0.0966 -0.1538
  204MPD1     H 3104   0.210   2.383  17.417 -1.6978  0.5191  0.7024
  204MPD1    H1 3105   0.077   2.170   0.061  2.0307 -0.4641  0.4956
  204MPD1    H2 3106   0.361   2.472   0.100  1.3647 -1.4566  0.5932
  204MPD1    H3 3107   0.208   2.313   0.202 -0.1889  0.3868 -0.1085
  204MPD1     N 3108   0.042   2.202  17.498  0.3435 -0.0705  0.6806
  204MPD1    H5 3109   0.079   2.193  17.403  0.3317 -0.1525  0.6840
  204MPD1    N1 3110   0.377   2.548  17.554 -0.5576  0.2040  0.4861
  204MPD1    H6 3111   0.400   2.531  17.456 -0.9511  0.8279  0.2826
  204MPD1    H7 3112   0.464   2.560  17.606 -0.1214 -0.4214 -0.0895
  205MPD1     C 3113   0.661   1.149  16.873  0.3535  0.0685  0.0608
  205MPD1    C1 3114   0.582   1.078  16.786 -0.0700 -0.2467 -0.2589
  205MPD1    C2 3115   0.455   1.046  16.827 -0.2228  0.4254 -0.2219
  205MPD1    C3 3116   0.408   1.095  16.945 -0.0816 -0.6866 -0.7127
  205MPD1    C4 3117   0.472   1.179  17.021 -0.3918  0.0444 -0.1728
  205MPD1    C5 3118   0.609   1.194  16.990 -0.7370 -0.0430  0.5411
  205MPD1     H 3119   0.391   0.983  16.766 -0.5471 -0.0355  0.6078
  205MPD1    H1 3120   0.438   1.226  17.113 -1.6796  1.4859 -1.3933
  205MPD1    H2 3121   0.767   1.164  16.853  0.4112 -0.6603 -0.1868
  205MPD1    H3 3122   0.676   1.249  17.054  0.2039  1.0131 -1.3489
  205MPD1     N 3123   0.272   1.076  16.984  0.1943  0.2032 -0.7855
  205MPD1    H5 3124   0.244   1.128  17.066 -1.0154 -0.5326 -0.7436
  205MPD1    N1 3125   0.648   1.023  16.680  0.4010 -0.4884 -0.1592
  205MPD1    H6 3126   0.734   1.066  16.646  1.1486 -2.4424 -0.7665
  205MPD1    H7 3127   0.584   1.025  16.601  0.5439 -0.6171 -0.2788
  206MPD1     C 3128   0.197   3.774  16.917 -0.2859 -0.6322 -0.3511
  206MPD1    C1 3129   0.291   3.704  16.845 -0.8422  0.6993 -0.0325
  206MPD1    C2 3130   0.298   3.726  16.709 -0.7170 -0.0913 -0.1281
  206MPD1    C3 3131   0.199   3.796  16.642 -0.2130  0.3518 -0.1454
  206MPD1    C4 3132   0.088   3.836  16.716  0.5055  0.4368 -0.8407
  206MPD1    C5 3133   0.087   3.828  16.854  0.1757 -0.1965  0.4901
  206MPD1     H 3134   0.383   3.681  16.659  0.8036  1.2214  1.2820
  206MPD1    H1 3135   0.001   3.874  16.664 -0.2848 -1.0456 -0.5742
  206MPD1    H2 3136   0.198   3.786  17.025 -2.7086  2.2125 -0.6367
  206MPD1    H3 3137   0.008   3.882  16.905 -1.2571 -0.6373 -1.2500
  206MPD1     N 3138   0.186   3.801  16.501 -0.2069  0.1906  0.4943
  206MPD1    H5 3139   0.104   3.840  16.455 -0.9121 -0.4853  1.1717
  206MPD1    N1 3140   0.400   3.651  16.904  0.3959 -0.3798  0.4307
  206MPD1    H6 3141   0.386   3.609  16.996  0.0061  0.4771  0.7618
  206MPD1    H7 3142   0.424   3.577  16.838 -0.1884 -0.4100  0.2553
  207MPD1     C 3143   2.669   4.464   9.939 -0.7147 -0.4180 -0.1159
  207MPD1    C1 3144   2.651   4.597   9.943  0.5936  0.2030  0.4718
  207MPD1    C2 3145   2.732   4.660  10.030 -0.2414 -0.9630  0.0509
  207MPD1    C3 3146   2.831   4.594  10.105  0.3222  0.3409 -0.3328
  207MPD1    C4 3147   2.844   4.463  10.095  0.1907 -0.1254  0.4922
  207MPD1    C5 3148   2.756   4.394  10.018 -0.5314  0.3731  0.4603
  207MPD1     H 3149   2.721   0.042  10.050  0.5896 -0.4092 -2.3949
  207MPD1    H1 3150   2.912   4.407  10.157 -0.5055  0.7419  2.0303
  207MPD1    H2 3151   2.612   4.405   9.869 -0.8900 -0.2626 -0.1037
  207MPD1    H3 3152   2.749   4.286  10.009  0.1812  0.2856  1.0546
  207MPD1     N 3153   2.915   4.661  10.204  0.6487 -0.4399  0.4466
  207MPD1    H5 3154   2.983   4.608  10.257  2.0799 -0.5969 -1.5660
  207MPD1    N1 3155   2.568   4.663   9.854  0.6045  0.3720  0.0865
  207MPD1    H6 3156   2.489   4.608   9.819  2.4860 -2.8999  0.9725
  207MPD1    H7 3157   2.532   0.028   9.887 -2.6111 -1.1296  0.6838
  208MPD1     C 3158   1.055   1.139  17.375 -0.4538 -0.5174 -0.4153
  208MPD1    C1 3159   0.919   1.151  17.396 -0.6120 -0.1858  0.4946
  208MPD1    C2 3160   0.867   1.074  17.502 -0.0829 -0.1218 -0.0249
  208MPD1    C3 3161   0.941   0.999  17.589 -0.4675  0.1238  0.0797
  208MPD1    C4 3162   1.079   1.008  17.568 -0.2750 -0.4821 -0.0878
  208MPD1    C5 3163   1.127   1.071  17.461 -0.2371 -0.1785  0.4658
  208MPD1     H 3164   0.762   1.080  17.528 -0.9828  0.4286 -3.7977
  208MPD1    H1 3165   1.146   0.951  17.631  0.5958  1.7424  0.9859
  208MPD1    H2 3166   1.099   1.184  17.287  1.5297  1.8488  1.7459
  208MPD1    H3 3167   1.233   1.071  17.440 -0.3940 -0.5355 -0.3381
  208MPD1     N 3168   0.887   0.924  17.696 -0.5970 -0.1640 -0.3163
  208MPD1    H5 3169   0.791   0.899  17.678 -0.4474 -1.7288  0.9966
  208MPD1    N1 3170   0.836   1.217  17.304  0.5519  0.6824  0.3758
  208MPD1    H6 3171   0.888   1.286  17.250  2.7716  1.6113  3.6911
  208MPD1    H7 3172   0.747   1.245  17.343 -0.2805 -1.6076  0.1335
  209MPD1     C 3173   3.120   3.670  11.417 -0.3667  0.4638  0.8049
  209MPD1    C1 3174   3.061   3.744  11.319  0.6647 -0.2863  0.4885
  209MPD1    C2 3175   3.114   3.870  11.307 -0.4240  0.0680 -0.4523
  209MPD1    C3 3176   3.228   3.918  11.368 -0.0234  0.4872  0.1646
  209MPD1    C4 3177   3.298   3.829  11.444  0.3739 -0.2829 -0.3529
  209MPD1    C5 3178   3.242   3.704  11.468 -0.4392 -0.3013  0.7506
  209MPD1     H 3179   3.063   3.927  11.231 -1.4528  0.7696  0.7645
  209MPD1    H1 3180   3.398   3.845  11.481  0.2905 -0.4788 -0.0443
  209MPD1    H2 3181   3.078   3.576  11.452  0.4385  0.0838  0.7564
  209MPD1    H3 3182   3.280   3.628  11.536  1.4224  1.2946  1.4938
  209MPD1     N 3183   3.272   4.045  11.334  0.4506 -0.3794  0.2771
  209MPD1    H5 3184   3.227   4.093  11.256 -1.9308  1.3765  2.7369
  209MPD1    N1 3185   2.931   3.717  11.267  0.1558 -0.3202 -0.7267
  209MPD1    H6 3186   2.906   3.764  11.181 -0.4975 -2.4851 -1.7296
  209MPD1    H7 3187   2.899   3.621  11.283 -0.8048 -0.1680 -1.7680
  210MPD1     C 3188   3.426   0.316  11.697 -0.1646 -0.4906 -0.6473
  210MPD1    C1 3189   3.322   0.225  11.711  0.3369 -0.0985  0.2251
  210MPD1    C2 3190   3.334   0.104  11.634  0.4416 -1.1416  0.1276
  210MPD1    C3 3191   3.441   0.084  11.546  0.1456  0.2286  0.0601
  210MPD1    C4 3192   3.543   0.174  11.545  0.8421  0.1762  0.2642
  210MPD1    C5 3193   3.531   0.293  11.612 -0.2357 -0.4825 -0.3161
  210MPD1     H 3194   3.254   0.032  11.645  2.1900 -3.1006 -0.0328
  210MPD1    H1 3195   3.636   0.162  11.489  0.2314 -0.9805 -0.5087
  210MPD1    H2 3196   3.417   0.411  11.748  0.4131 -0.3055 -0.8940
  210MPD1    H3 3197   3.608   0.370  11.609  0.3385 -0.9734  1.4466
  210MPD1     N 3198   3.470   4.686  11.485 -0.1518  0.2769 -0.8446
  210MPD1    H5 3199   3.546   4.684  11.417  0.4806  0.2062 -0.1335
  210MPD1    N1 3200   3.232   0.238  11.814 -0.0426 -0.2578  0.2475
  210MPD1    H6 3201   3.144   0.188  11.809  0.9200 -1.7890 -1.3287
  210MPD1    H7 3202   3.211   0.336  11.830  0.5464  0.2249 -1.9807
  211MPD1     C 3203   0.498   0.440  15.999  0.7961 -0.0318  0.0971
  211MPD1    C1 3204   0.513   0.565  16.036  0.7659 -0.5667 -0.2030
  211MPD1    C2 3205   0.409   0.645  16.076 -0.9088 -0.1265 -0.0204
  211MPD1    C3 3206   0.281   0.597  16.072  0.4929  0.2322  0.4739
  211MPD1    C4 3207   0.268   0.468  16.037 -0.3010  0.0144 -0.3848
  211MPD1    C5 3208   0.376   0.387  16.010  0.6233  0.0088  0.4939
  211MPD1     H 3209   0.413   0.752  16.096 -0.0936 -0.3775  1.1982
  211MPD1    H1 3210   0.174   0.415  16.048  2.0560 -3.3694  3.1976
  211MPD1    H2 3211   0.578   0.372  15.973 -0.3690 -1.7540  1.0346
  211MPD1    H3 3212   0.366   0.282  15.986 -0.1260  0.0575  0.5845
  211MPD1     N 3213   0.179   0.682  16.122  0.0738  0.3167  0.1367
  211MPD1    H5 3214   0.204   0.779  16.139  0.7461 -0.1186  1.6401
  211MPD1    N1 3215   0.643   0.614  16.053  0.8042  0.8675  0.1269
  211MPD1    H6 3216   0.654   0.715  16.047  0.7288  0.7954 -1.1654
  211MPD1    H7 3217   0.706   0.573  15.984 -0.3563 -1.1937  0.3103
  212MPD1     C 3218   0.044   3.484  17.314 -0.1522  0.1019  0.6496
  212MPD1    C1 3219   4.671   3.577  17.269 -0.4703 -0.0626  0.1557
  212MPD1    C2 3220   4.550   3.530  17.253 -0.4558 -0.2521 -0.1275
  212MPD1    C3 3221   4.512   3.397  17.277 -0.4799  0.2048  0.3818
  212MPD1    C4 3222   4.615   3.301  17.281 -0.6787  0.2876 -0.0671
  212MPD1    C5 3223   0.018   3.346  17.308 -0.3014 -1.1120  1.0952
  212MPD1     H 3224   4.469   3.594  17.220  0.6196  0.6733 -0.9979
  212MPD1    H1 3225   4.596   3.195  17.287 -1.5803  0.4153 -0.7412
  212MPD1    H2 3226   0.145   3.513  17.343 -0.3860  0.9266  0.6434
  212MPD1    H3 3227   0.102   3.281  17.331 -0.1274 -1.9467 -1.9319
  212MPD1     N 3228   4.383   3.348  17.283  0.1913 -1.1960  0.6345
  212MPD1    H5 3229   4.373   3.247  17.284  2.2470 -1.4147 -4.4931
  212MPD1    N1 3230   4.700   3.715  17.271  0.8795 -0.1247  0.3415
  212MPD1    H6 3231   0.073   3.737  17.248  0.7624  0.1286  0.0982
  212MPD1    H7 3232   4.635   3.772  17.218 -0.0599 -2.1093 -0.6682
  213MPD1     C 3233   1.923   4.536  15.557 -0.2000  0.5047 -0.4738
  213MPD1    C1 3234   2.007   4.643  15.587 -0.0389 -0.4909 -0.3279
  213MPD1    C2 3235   2.104   4.675  15.495  0.1149  0.6001 -0.3576
  213MPD1    C3 3236   2.098   4.626  15.362 -0.4809  0.5456  0.6818
  213MPD1    C4 3237   2.012   4.520  15.341 -0.4547  0.1974 -0.2066
  213MPD1    C5 3238   1.928   4.466  15.435 -0.4101  0.0712  0.0617
  213MPD1     H 3239   2.186   0.017  15.519 -0.1675  0.4243  1.1236
  213MPD1    H1 3240   2.018   4.469  15.245 -0.9595  1.2435 -0.7981
  213MPD1    H2 3241   1.838   4.514  15.620 -1.3103  0.2523 -2.0472
  213MPD1    H3 3242   1.855   4.388  15.415 -1.1006  1.0959 -1.3812
  213MPD1     N 3243   2.199   4.668  15.268 -0.0726  0.0678  0.0248
  213MPD1    H5 3244   2.274   0.006  15.296 -1.0902  1.8472 -1.2032
  213MPD1    N1 3245   2.029   4.674  15.723  0.2151 -0.2852  0.8345
  213MPD1    H6 3246   2.063   0.043  15.741  2.4619 -0.5377 -2.1500
  213MPD1    H7 3247   1.946   4.657  15.780  0.2189  2.4272  1.6067
  214MPD1     C 3248   1.678   0.506  14.802  0.5497  0.5832 -0.7379
  214MPD1    C1 3249   1.803   0.573  14.789  0.1995 -0.2606  0.3421
  214MPD1    C2 3250   1.919   0.498  14.823 -1.1566 -0.2822  0.2089
  214MPD1    C3 3251   1.912   0.367  14.863 -0.3664 -0.0653  0.3364
  214MPD1    C4 3252   1.784   0.300  14.866 -0.0592 -0.1902 -0.5899
  214MPD1    C5 3253   1.669   0.379  14.843  0.8006 -0.1868 -0.0314
  214MPD1     H 3254   2.015   0.545  14.837 -0.7740 -1.0970  0.2714
  214MPD1    H1 3255   1.763   0.195  14.886  0.9045  0.1252  2.0413
  214MPD1    H2 3256   1.587   0.559  14.774 -0.6430 -0.1903  1.7253
  214MPD1    H3 3257   1.578   0.321  14.837 -1.3569  3.2373 -0.4130
  214MPD1     N 3258   2.024   0.280  14.888 -0.1555  0.0249  0.0318
  214MPD1    H5 3259   2.009   0.191  14.933  2.1174 -0.2866  0.1937
  214MPD1    N1 3260   1.818   0.707  14.763 -0.3382  0.2443 -0.0863
  214MPD1    H6 3261   1.914   0.740  14.749 -0.8483  0.6353 -2.6245
  214MPD1    H7 3262   1.754   0.744  14.693  1.4915  0.8785 -1.4281
  215MPD1     C 3263   2.728   4.130  10.808  0.1238 -0.3151 -0.2763
  215MPD1    C1 3264   2.819   4.183  10.719 -1.0348 -0.0982 -0.6744
  215MPD1    C2 3265   2.896   4.286  10.765  0.2432  0.1977  0.5805
  215MPD1    C3 3266   2.894   4.331  10.899 -0.7461  0.1911 -0.2636
  215MPD1    C4 3267   2.812   4.260  10.986  0.0176 -0.3303 -0.3016
  215MPD1    C5 3268   2.733   4.160  10.942  0.1318  0.9578  0.9969
  215MPD1     H 3269   2.967   4.329  10.696 -0.7926  0.1101 -0.5351
  215MPD1    H1 3270   2.810   4.280  11.093  0.8620 -0.4318 -0.2677
  215MPD1    H2 3271   2.653   4.068  10.761 -0.9113  1.0030 -0.3528
  215MPD1    H3 3272   2.651   4.115  10.997  0.8584 -2.9806 -1.1912
  215MPD1     N 3273   2.976   4.440  10.934 -0.0075 -0.2283  0.0889
  215MPD1    H5 3274   3.013   4.491  10.855  0.0324 -2.1769 -1.1525
  215MPD1    N1 3275   2.810   4.158  10.585  0.3995 -0.0886 -0.2965
  215MPD1    H6 3276   2.893   4.172  10.527  0.2764  1.3593 -0.1326
  215MPD1    H7 3277   2.777   4.064  10.564 -1.3462  0.2773  0.7537
  216MPD1     C 3278   4.322   3.211  16.723  0.1552  0.1722 -0.1264
  216MPD1    C1 3279   4.362   3.085  16.701 -0.1029 -0.1597 -0.6109
  216MPD1    C2 3280   4.400   3.001  16.804 -0.0546 -0.2042  0.1170
  216MPD1    C3 3281   4.384   3.043  16.933 -0.0894 -0.1975  0.5697
  216MPD1    C4 3282   4.356   3.177  16.958 -1.1441 -0.5506  0.4743
  216MPD1    C5 3283   4.329   3.263  16.850  0.0280  0.0408 -0.4571
  216MPD1     H 3284   4.432   2.897  16.798  0.5903  0.0223 -0.4584
  216MPD1    H1 3285   4.366   3.224  17.056 -1.0759  1.0665 -0.3103
  216MPD1    H2 3286   4.292   3.279  16.643  1.3095 -0.0116 -0.7112
  216MPD1    H3 3287   4.311   3.367  16.873 -1.9778 -0.2365 -0.7473
  216MPD1     N 3288   4.410   2.949  17.037 -0.2202  0.1986 -0.1685
  216MPD1    H5 3289   4.448   2.859  17.012 -1.5832 -0.8653  1.6019
  216MPD1    N1 3290   4.389   3.046  16.568  0.3990  0.0284 -0.2685
  216MPD1    H6 3291   4.369   2.947  16.562 -0.8860  0.2807 -0.1085
  216MPD1    H7 3292   4.353   3.109  16.496 -0.7621 -1.2433 -0.7786
  217MPD1     C 3293   4.187   3.707   8.816 -0.4492 -0.4150 -0.2178
  217MPD1    C1 3294   4.318   3.679   8.842 -0.2265  0.2398 -0.0100
  217MPD1    C2 3295   4.407   3.785   8.856  0.3579 -0.8609 -0.6278
  217MPD1    C3 3296   4.355   3.916   8.855  0.7266 -0.4443 -1.0353
  217MPD1    C4 3297   4.218   3.944   8.839  0.3737 -0.4210 -0.0282
  217MPD1    C5 3298   4.132   3.836   8.818  0.1203 -0.1051  0.3791
  217MPD1     H 3299   4.510   3.763   8.883  0.5511  1.5084  0.6211
  217MPD1    H1 3300   4.183   4.046   8.825 -0.0962 -0.5538  0.1711
  217MPD1    H2 3301   4.111   3.633   8.791  0.9985 -2.4388  1.4102
  217MPD1    H3 3302   4.033   3.859   8.780 -0.3378 -0.8034  1.1429
  217MPD1     N 3303   4.442   4.021   8.866  0.2272  0.0410 -0.4994
  217MPD1    H5 3304   4.400   4.113   8.873  0.0831 -0.0484 -0.1939
  217MPD1    N1 3305   4.368   3.555   8.814  0.1233  0.2743 -0.3478
  217MPD1    H6 3306   4.454   3.528   8.862 -0.3114 -0.9976 -0.2714
  217MPD1    H7 3307   4.306   3.475   8.830  0.4397 -0.1251 -1.1008
  218MPD1     C 3308   2.119   1.164  13.039  0.3049  0.3922 -0.7408
  218MPD1    C1 3309   2.257   1.131  13.054 -0.9179  0.3948  0.2889
  218MPD1    C2 3310   2.308   1.026  12.972 -0.5195  1.0531 -0.6469
  218MPD1    C3 3311   2.218   0.963  12.884  0.0389 -0.5658 -0.6270
  218MPD1    C4 3312   2.084   0.998  12.879  0.5230  0.0118 -0.5021
  218MPD1    C5 3313   2.034   1.102  12.955  0.3534  0.0114  0.0555
  218MPD1     H 3314   2.405   0.985  12.994 -0.4695  0.6178 -1.7030
  218MPD1    H1 3315   2.014   0.934  12.826  0.1335 -1.6225  2.0071
  218MPD1    H2 3316   2.076   1.229  13.114  2.5699  1.1917 -0.1446
  218MPD1    H3 3317   1.933   1.139  12.951  1.1039  2.1101  0.3734
  218MPD1     N 3318   2.270   0.852  12.813  0.1376 -0.3703  0.1676
  218MPD1    H5 3319   2.367   0.829  12.833 -0.7248 -2.2119  2.2730
  218MPD1    N1 3320   2.321   1.181  13.165 -0.5565 -0.4570 -0.2098
  218MPD1    H6 3321   2.275   1.263  13.202 -1.4972  0.2627 -2.9679
  218MPD1    H7 3322   2.419   1.197  13.144 -0.4867  0.6208  0.9468
  219MPD1     C 3323   2.091   0.281  11.927 -0.3801 -0.3608 -0.1988
  219MPD1    C1 3324   2.187   0.381  11.920 -0.0450  0.0225  0.4232
  219MPD1    C2 3325   2.250   0.419  12.045 -0.2487  0.2446 -0.2657
  219MPD1    C3 3326   2.204   0.368  12.168  0.0222 -0.0357  0.3999
  219MPD1    C4 3327   2.117   0.265  12.167  0.1621 -0.0848 -0.0560
  219MPD1    C5 3328   2.058   0.228  12.048  0.0902 -0.6907 -0.0829
  219MPD1     H 3329   2.338   0.482  12.053 -0.0534 -0.0521 -0.0937
  219MPD1    H1 3330   2.078   0.208  12.251  2.9706 -1.9666 -0.0353
  219MPD1    H2 3331   2.038   0.236  11.844 -2.9381 -1.0585  1.8055
  219MPD1    H3 3332   1.980   0.153  12.051 -0.2384 -0.2344  2.5111
  219MPD1     N 3333   2.255   0.409  12.295  1.2691  0.0644  0.4777
  219MPD1    H5 3334   2.247   0.357  12.382  0.5232 -0.5817  0.0234
  219MPD1    N1 3335   2.235   0.419  11.796  0.2783 -0.3146  0.6146
  219MPD1    H6 3336   2.171   0.430  11.718  1.6161 -0.8239 -0.5619
  219MPD1    H7 3337   2.284   0.508  11.802  1.2902 -0.7811 -0.7668
  220MPD1     C 3338   2.513   3.940  10.252 -0.0140 -0.0406 -0.5261
  220MPD1    C1 3339   2.521   3.996  10.124  0.2306  0.5053 -0.1146
  220MPD1    C2 3340   2.488   4.131  10.115 -0.1528  0.7555 -0.1461
  220MPD1    C3 3341   2.484   4.213  10.218 -0.3360  0.0288  0.1795
  220MPD1    C4 3342   2.498   4.157  10.342  0.4448 -0.2037  0.4140
  220MPD1    C5 3343   2.508   4.021  10.363 -0.5668  0.7538  0.2867
  220MPD1     H 3344   2.467   4.177  10.019  2.5317  0.8910 -0.6782
  220MPD1    H1 3345   2.507   4.214  10.434  1.3225  0.4476 -0.0907
  220MPD1    H2 3346   2.525   3.833  10.265 -1.2812  0.0711  1.6040
  220MPD1    H3 3347   2.521   3.988  10.465 -0.1444 -0.0622 -0.0291
  220MPD1     N 3348   2.467   4.355  10.207 -0.1262  0.5338  0.0467
  220MPD1    H5 3349   2.441   4.394  10.117  0.6723 -0.5516 -0.6557
  220MPD1    N1 3350   2.511   3.912  10.014 -0.3101  0.7841  0.3428
  220MPD1    H6 3351   2.542   3.945   9.923  0.2069  0.8195  0.5298
  220MPD1    H7 3352   2.557   3.823  10.035 -1.6531  0.1118  0.4490
  221MPD1     C 3353   0.003   0.754  16.620  0.2821  0.2583  0.5862
  221MPD1    C1 3354   4.629   0.656  16.599 -0.3003  0.7363 -0.6474
  221MPD1    C2 3355   4.676   0.540  16.538  0.4470 -0.2818 -0.1281
  221MPD1    C3 3356   0.087   0.528  16.502 -0.1944 -0.0461  0.8354
  221MPD1    C4 3357   0.182   0.625  16.531  0.0488 -0.6183  0.2217
  221MPD1    C5 3358   0.135   0.739  16.592  1.4775  0.3077  0.0855
  221MPD1     H 3359   4.603   0.466  16.508 -1.2266  0.7881  1.3142
  221MPD1    H1 3360   0.287   0.614  16.507  0.1112  0.5390 -0.0405
  221MPD1    H2 3361   4.706   0.854  16.655  0.7957  0.4843  0.2468
  221MPD1    H3 3362   0.202   0.816  16.629  1.1733  1.1190 -1.0454
  221MPD1     N 3363   0.134   0.413  16.432  0.6011 -0.5682 -0.7195
  221MPD1    H5 3364   0.232   0.412  16.407  0.5154  2.5921 -1.1764
  221MPD1    N1 3365   4.495   0.683  16.603  0.3903  0.3805 -0.1392
  221MPD1    H6 3366   4.474   0.758  16.670  0.2662  0.6346 -0.4636
  221MPD1    H7 3367   4.449   0.595  16.621 -0.7318  0.8648 -0.6595
  222MPD1     C 3368   2.670   0.700   1.617  0.6577 -0.5528 -0.4369
  222MPD1    C1 3369   2.674   0.660   1.752  0.0249 -0.2242 -0.0817
  222MPD1    C2 3370   2.789   0.582   1.789 -0.4841 -0.0566 -0.0876
  222MPD1    C3 3371   2.899   0.566   1.704 -0.4305 -0.1664 -0.2138
  222MPD1    C4 3372   2.888   0.623   1.579  0.7437  0.0282  0.3277
  222MPD1    C5 3373   2.776   0.680   1.532  0.2695  0.4061 -0.5815
  222MPD1     H 3374   2.795   0.539   1.888  0.7940  1.7322  0.6043
  222MPD1    H1 3375   2.973   0.608   1.514  1.2094 -0.8198  1.1386
  222MPD1    H2 3376   2.585   0.754   1.577 -0.4940 -1.0489  1.3339
  222MPD1    H3 3377   2.783   0.725   1.433  1.1315  0.0189 -0.6970
  222MPD1     N 3378   3.025   0.505   1.742  0.2448 -0.5021  0.3989
  222MPD1    H5 3379   3.094   0.500   1.668 -0.5954 -2.8795 -0.2232
  222MPD1    N1 3380   2.554   0.663   1.829  0.1605  0.6846  0.4114
  222MPD1    H6 3381   2.501   0.749   1.816  0.8168  1.1665  0.9212
  222MPD1    H7 3382   2.581   0.666   1.927 -0.9680  0.3072  0.7379
  223MPD1     C 3383   3.408   0.328   2.684 -0.4299  1.0531 -0.0005
  223MPD1    C1 3384   3.314   0.413   2.632 -0.0193 -0.5016  0.2242
  223MPD1    C2 3385   3.286   0.410   2.493 -0.1835  0.8038  0.4150
  223MPD1    C3 3386   3.373   0.344   2.406 -0.2225  0.0060  0.2089
  223MPD1    C4 3387   3.468   0.258   2.461  0.0904  0.1570 -0.7439
  223MPD1    C5 3388   3.482   0.251   2.600 -0.1302  0.5221 -0.0814
  223MPD1     H 3389   3.209   0.474   2.451  0.6577  0.5365 -1.5063
  223MPD1    H1 3390   3.541   0.212   2.394  1.0866 -0.3664  0.7049
  223MPD1    H2 3391   3.426   0.324   2.791 -1.2340 -0.5143  0.0782
  223MPD1    H3 3392   3.568   0.193   2.634  0.0911  0.6715 -0.3941
  223MPD1     N 3393   3.338   0.351   2.265 -0.0862 -0.2491  0.3974
  223MPD1    H5 3394   3.265   0.417   2.240  0.1470  0.8106  2.4758
  223MPD1    N1 3395   3.235   0.484   2.724 -0.0140 -0.6445 -0.7208
  223MPD1    H6 3396   3.271   0.502   2.817 -1.2333 -1.3837 -0.1042
  223MPD1    H7 3397   3.211   0.576   2.687 -0.0399 -0.9544 -1.4873
  224MPD1     C 3398   4.420   4.643   8.890 -0.9102  0.9046 -0.4460
  224MPD1    C1 3399   4.353   4.627   9.014 -0.3905 -0.9069  0.3505
  224MPD1    C2 3400   4.429   4.660   9.129  0.2192  0.1084 -0.1836
  224MPD1    C3 3401   4.565   4.698   9.127 -0.2781 -0.1006 -0.4630
  224MPD1    C4 3402   4.626   4.706   9.003 -0.9180 -0.0601  0.3231
  224MPD1    C5 3403   4.552   4.684   8.888  0.7639  0.1786  0.0676
  224MPD1     H 3404   4.385   4.642   9.226 -1.4014 -1.2671 -1.1626
  224MPD1    H1 3405   0.002   0.020   8.991 -0.9301  0.3796  1.5896
  224MPD1    H2 3406   4.367   4.626   8.797  0.3069 -1.2760 -0.7596
  224MPD1    H3 3407   4.591   4.703   8.789 -2.5112  0.5119 -1.1414
  224MPD1     N 3408   4.639   0.000   9.238 -0.3968 -0.3924 -0.2959
  224MPD1    H5 3409   0.014   0.004   9.216 -0.3209  0.1610  0.1298
  224MPD1    N1 3410   4.213   4.598   9.030 -0.3029 -0.1135  0.5723
  224MPD1    H6 3411   4.194   4.547   9.115  0.0026 -0.9023  0.1645
  224MPD1    H7 3412   4.180   4.543   8.951  0.4134  1.7389 -1.0166
  225MPD1     C 3413   2.670   1.220  12.405 -0.1702  0.9030 -0.3986
  225MPD1    C1 3414   2.602   1.239  12.297 -0.2331  0.0489  0.6203
  225MPD1    C2 3415   2.467   1.269  12.311  0.5351 -0.5493 -0.4187
  225MPD1    C3 3416   2.419   1.310  12.434 -0.8986 -0.1223  0.4699
  225MPD1    C4 3417   2.500   1.305  12.544  0.2313 -0.8528 -0.2504
  225MPD1    C5 3418   2.623   1.248  12.530  0.2329  0.3397  0.2264
  225MPD1     H 3419   2.401   1.282  12.226 -0.6253 -0.7681  0.4534
  225MPD1    H1 3420   2.468   1.338  12.642  3.5530  2.0757 -0.1475
  225MPD1    H2 3421   2.767   1.172  12.396 -1.0443 -1.1765  1.2709
  225MPD1    H3 3422   2.691   1.241  12.614  0.5160 -1.7285 -0.1790
  225MPD1     N 3423   2.281   1.348  12.456 -0.1374 -0.4504 -0.0328
  225MPD1    H5 3424   2.251   1.376  12.549  1.0787 -0.7722  0.4519
  225MPD1    N1 3425   2.653   1.195  12.173 -0.1159 -0.5378  0.6721
  225MPD1    H6 3426   2.614   1.242  12.093  0.5596 -0.6729  0.2638
  225MPD1    H7 3427   2.753   1.197  12.157 -0.2293  1.0436  0.2300
  226MPD1     C 3428   0.082   0.288   9.084  0.1227  0.7714  0.8712
  226MPD1    C1 3429   0.018   0.389   9.139 -0.1733 -0.4367 -0.2311
  226MPD1    C2 3430   0.078   0.447   9.247  0.6590 -0.0601  0.8309
  226MPD1    C3 3431   0.182   0.389   9.318  0.0187  0.4745  0.0526
  226MPD1    C4 3432   0.246   0.279   9.261  0.7697 -0.2998 -0.2105
  226MPD1    C5 3433   0.196   0.238   9.133  0.1379  0.5852 -1.0775
  226MPD1     H 3434   0.033   0.536   9.289 -1.8809 -0.4992 -0.9268
  226MPD1    H1 3435   0.326   0.220   9.305  1.7654  1.2825  0.0674
  226MPD1    H2 3436   0.052   0.257   8.984  1.5756  3.6060 -0.4279
  226MPD1    H3 3437   0.256   0.162   9.084  0.1298  0.2873 -0.6312
  226MPD1     N 3438   0.246   0.458   9.429 -0.4306 -0.3171 -0.2117
  226MPD1    H5 3439   0.200   0.544   9.458 -1.3714 -1.1054  0.5985
  226MPD1    N1 3440   4.642   0.452   9.068 -0.0908 -0.2694 -0.0994
  226MPD1    H6 3441   4.590   0.499   9.142  0.0021 -0.2468 -0.0487
  226MPD1    H7 3442   4.580   0.386   9.022 -1.2627  1.4351 -0.9675
  227MPD1     C 3443   0.322   1.262   9.275 -0.3016 -1.0192 -0.5244
  227MPD1    C1 3444   0.206   1.181   9.266 -0.1250  0.6692 -0.0260
  227MPD1    C2 3445   0.212   1.062   9.341 -0.3762  0.3686 -0.2249
  227MPD1    C3 3446   0.312   1.043   9.432  0.1487 -0.6241 -0.2676
  227MPD1    C4 3447   0.410   1.138   9.451 -0.0242 -0.1348  0.0222
  227MPD1    C5 3448   0.416   1.253   9.371 -0.4340  0.5884  0.1555
  227MPD1     H 3449   0.135   0.986   9.340  2.4253 -2.4955  0.2959
  227MPD1    H1 3450   0.500   1.127   9.511 -0.4890  1.7976  1.0571
  227MPD1    H2 3451   0.342   1.350   9.215  1.6248  0.8586  2.9084
  227MPD1    H3 3452   0.497   1.325   9.380 -0.0082  0.5562 -3.3789
  227MPD1     N 3453   0.327   0.920   9.497 -0.3569  0.1847 -0.1860
  227MPD1    H5 3454   0.272   0.841   9.465 -0.3945  0.6926 -1.3780
  227MPD1    N1 3455   0.123   1.189   9.156  0.0093  0.2692 -1.4910
  227MPD1    H6 3456   0.103   1.284   9.126  1.9998  1.2327  0.2520
  227MPD1    H7 3457   0.032   1.151   9.182 -1.0801  2.3359 -2.3486
  228MPD1     C 3458   3.973   3.941  13.863  0.1387  0.5321 -0.5893
  228MPD1    C1 3459   3.951   4.019  13.749 -0.1668 -0.2315  0.8655
  228MPD1    C2 3460   3.832   4.002  13.678  0.8433 -0.1875  0.8491
  228MPD1    C3 3461   3.738   3.914  13.726  0.0945  0.0634 -0.2523
  228MPD1    C4 3462   3.761   3.844  13.840 -0.6884  0.2790 -0.0035
  228MPD1    C5 3463   3.876   3.853  13.916  0.8224 -0.2943 -0.0777
  228MPD1     H 3464   3.841   4.048  13.580  0.7304  0.7533  1.2823
  228MPD1    H1 3465   3.689   3.786  13.896  2.2318 -1.8702  1.5442
  228MPD1    H2 3466   4.063   3.944  13.923  0.0408 -1.8703 -0.3239
  228MPD1    H3 3467   3.886   3.790  14.003  2.1741  2.3682  1.6928
  228MPD1     N 3468   3.617   3.903  13.654  0.2768 -0.1798  0.3648
  228MPD1    H5 3469   3.603   3.973  13.583 -4.6590 -0.0629  1.4632
  228MPD1    N1 3470   4.053   4.103  13.691 -0.6061  0.9156 -0.0569
  228MPD1    H6 3471   4.108   4.161  13.754 -0.3374 -0.9613  1.4231
  228MPD1    H7 3472   4.005   4.169  13.629  0.2048  1.5082 -0.0498
  229MPD1     C 3473   3.092   2.883  14.666 -0.1247 -0.0728 -0.1329
  229MPD1    C1 3474   3.216   2.877  14.607 -0.2312 -0.5143  0.5959
  229MPD1    C2 3475   3.320   2.860  14.693 -0.2825  0.0306 -0.1543
  229MPD1    C3 3476   3.309   2.826  14.826 -0.3178  0.5201  0.1912
  229MPD1    C4 3477   3.185   2.821  14.882 -0.4731 -0.3238  0.2792
  229MPD1    C5 3478   3.083   2.849  14.799  0.4132 -0.2589 -0.2945
  229MPD1     H 3479   3.419   2.862  14.648 -0.9264 -1.2744 -1.6460
  229MPD1    H1 3480   3.163   2.812  14.988 -1.7526 -1.0991 -0.0465
  229MPD1    H2 3481   2.999   2.884  14.610  0.5043  0.6819 -1.1744
  229MPD1    H3 3482   2.985   2.847  14.845  0.7974  1.9267  0.6299
  229MPD1     N 3483   3.421   2.790  14.903 -0.2488 -0.0610 -0.0172
  229MPD1    H5 3484   3.405   2.772  15.002  0.7888 -0.2038  0.1298
  229MPD1    N1 3485   3.242   2.920  14.477  0.2095  0.4774  0.7322
  229MPD1    H6 3486   3.331   2.884  14.444 -0.7828 -0.9328 -0.3828
  229MPD1    H7 3487   3.164   2.887  14.419 -0.2653  0.4737  1.3681
  230MPD1     C 3488   3.683   2.474  15.786 -0.5367  0.6632 -0.0093
  230MPD1    C1 3489   3.777   2.417  15.716 -0.2647 -0.5403  0.4532
  230MPD1    C2 3490   3.791   2.457  15.578  0.4451  0.0262 -0.3147
  230MPD1    C3 3491   3.725   2.568  15.531 -0.2154 -0.8493  0.1803
  230MPD1    C4 3492   3.645   2.633  15.613  0.3731 -0.4428 -0.4233
  230MPD1    C5 3493   3.626   2.590  15.738  1.3295 -0.1997 -0.1012
  230MPD1     H 3494   3.860   2.400  15.517 -0.5642 -2.0141  0.4821
  230MPD1    H1 3495   3.605   2.731  15.589 -0.2236 -0.2390  1.4649
  230MPD1    H2 3496   3.672   2.448  15.891  2.5588 -0.0172  0.1401
  230MPD1    H3 3497   3.565   2.647  15.807  2.9274  2.1066 -0.6030
  230MPD1     N 3498   3.750   2.602  15.395 -0.0858 -0.1658  0.3454
  230MPD1    H5 3499   3.810   2.547  15.335  1.4164  1.8892 -0.0450
  230MPD1    N1 3500   3.835   2.299  15.765 -0.4090  0.3663 -0.2725
  230MPD1    H6 3501   3.928   2.290  15.723  0.2515  0.2863  1.1949
  230MPD1    H7 3502   3.836   2.290  15.866  1.0247  0.4679 -0.2743
  231MPD1     C 3503   0.904   4.608  16.064 -0.7166 -0.0166 -0.5511
  231MPD1    C1 3504   0.935   4.512  15.974  0.5869  0.0265  0.1380
  231MPD1    C2 3505   1.070   4.508  15.934  0.0600 -0.2454  0.2376
  231MPD1    C3 3506   1.169   4.595  15.975  0.0160 -0.1843 -0.0670
  231MPD1    C4 3507   1.134   4.682  16.075 -0.2679 -0.6867  0.1375
  231MPD1    C5 3508   1.002   4.684  16.115  0.3198 -0.0166 -0.3752
  231MPD1     H 3509   1.093   4.439  15.853 -0.0237  0.4467 -0.3772
  231MPD1    H1 3510   1.203   0.025  16.124  1.1751  0.2123 -3.1212
  231MPD1    H2 3511   0.805   4.626  16.104 -0.8424  2.0284 -1.7301
  231MPD1    H3 3512   0.973   0.036  16.186  2.2246 -1.9125  2.4254
  231MPD1     N 3513   1.300   4.609  15.920 -0.0332 -0.0391  0.3071
  231MPD1    H5 3514   1.310   4.547  15.840 -1.7160  0.6175 -0.4213
  231MPD1    N1 3515   0.844   4.426  15.914 -0.1475  0.0252  0.1990
  231MPD1    H6 3516   0.744   4.442  15.920  0.4151  3.0083  1.5183
  231MPD1    H7 3517   0.873   4.400  15.820 -0.7177  0.0721  0.0088
  232MPD1     C 3518   3.640   2.796   0.754 -0.7412  0.7414 -0.2029
  232MPD1    C1 3519   3.708   2.688   0.800  0.2941 -0.0540 -0.3844
  232MPD1    C2 3520   3.670   2.566   0.748  0.0162  0.7787  0.1243
  232MPD1    C3 3521   3.567   2.544   0.656 -0.0508 -0.7089 -0.8394
  232MPD1    C4 3522   3.509   2.658   0.607  0.7748 -0.4919 -0.3814
  232MPD1    C5 3523   3.544   2.779   0.659  0.1604  0.3944  0.4530
  232MPD1     H 3524   3.710   2.472   0.785  2.2402 -0.0888 -4.4330
  232MPD1    H1 3525   3.431   2.651   0.532  0.3543  0.6987 -0.0573
  232MPD1    H2 3526   3.677   2.893   0.785 -0.9907  0.5904  0.5675
  232MPD1    H3 3527   3.503   2.868   0.615  0.7870  1.3612  1.8093
  232MPD1     N 3528   3.526   2.408   0.632 -0.4627 -0.2017  0.1844
  232MPD1    H5 3529   3.573   2.336   0.687 -0.7055 -1.4545 -1.2651
  232MPD1    N1 3530   3.790   2.701   0.911 -1.2917 -0.7318 -0.1757
  232MPD1    H6 3531   3.850   2.619   0.915 -2.0570 -1.2662  0.5009
  232MPD1    H7 3532   3.836   2.792   0.907 -0.4064 -1.0751  2.2063
  233MPD1     C 3533   3.540   1.161   1.085 -0.2765 -0.2725 -0.7004
  233MPD1    C1 3534   3.651   1.166   1.008  0.6441  0.2619 -0.2768
  233MPD1    C2 3535   3.777   1.150   1.068  0.4088 -0.0520 -0.0228
  233MPD1    C3 3536   3.790   1.121   1.205  0.3974  0.8956  0.4923
  233MPD1    C4 3537   3.672   1.127   1.276 -0.3605  0.3697  0.2522
  233MPD1    C5 3538   3.549   1.143   1.220 -0.2667  0.8762  0.4513
  233MPD1     H 3539   3.864   1.143   1.004 -0.8929  3.0582 -2.1585
  233MPD1    H1 3540   3.676   1.114   1.383 -0.4238  1.6045  0.4060
  233MPD1    H2 3541   3.440   1.160   1.044  0.1479 -1.5091 -1.6993
  233MPD1    H3 3542   3.456   1.143   1.276 -0.5907 -0.0971 -0.0931
  233MPD1     N 3543   3.913   1.088   1.271 -0.4113 -0.7043  0.5567
  233MPD1    H5 3544   3.907   1.072   1.371 -0.1953 -0.1087  0.6663
  233MPD1    N1 3545   3.631   1.153   0.870  0.3631 -0.1063  0.4579
  233MPD1    H6 3546   3.543   1.191   0.835  1.8256  0.1815 -2.9738
  233MPD1    H7 3547   3.706   1.184   0.808  0.0641 -0.6705 -0.1960
  234MPD1     C 3548   1.526   3.862   9.432 -0.5902  0.0406  0.2222
  234MPD1    C1 3549   1.527   3.985   9.488  0.4965  0.4073  0.2818
  234MPD1    C2 3550   1.434   4.079   9.459 -0.0326 -0.0724  0.3940
  234MPD1    C3 3551   1.340   4.060   9.361  0.6095  0.0505 -0.0225
  234MPD1    C4 3552   1.328   3.926   9.318 -0.2262 -0.1899  0.7456
  234MPD1    C5 3553   1.427   3.829   9.346 -0.0245  0.9165  0.1189
  234MPD1     H 3554   1.437   4.176   9.508 -0.0035  0.4082 -0.5525
  234MPD1    H1 3555   1.256   3.886   9.247  2.2085 -1.5295 -0.9896
  234MPD1    H2 3556   1.599   3.788   9.461  1.1045  1.1183 -1.2458
  234MPD1    H3 3557   1.425   3.727   9.310 -0.3207 -0.3605  3.7604
  234MPD1     N 3558   1.258   4.160   9.318 -0.4374  0.3767 -0.2845
  234MPD1    H5 3559   1.264   4.256   9.352  0.2348  0.2559 -0.0694
  234MPD1    N1 3560   1.639   4.003   9.574  0.3178 -0.2728  0.1403
  234MPD1    H6 3561   1.671   3.913   9.610 -2.3835 -0.6279  1.6275
  234MPD1    H7 3562   1.615   4.060   9.655  0.2357 -0.1839  0.0516
  235MPD1     C 3563   2.501   1.238   9.817 -0.0337 -0.2017 -0.1111
  235MPD1    C1 3564   2.541   1.317   9.711 -0.3864 -0.0185 -0.6210
  235MPD1    C2 3565   2.657   1.397   9.722  0.0351 -0.3650  0.3253
  235MPD1    C3 3566   2.720   1.408   9.843  0.8890  0.1231  0.3258
  235MPD1    C4 3567   2.672   1.337   9.954 -0.4982  0.7328 -0.7180
  235MPD1    C5 3568   2.562   1.255   9.937 -0.2040 -0.5917  0.8935
  235MPD1     H 3569   2.675   1.461   9.636  0.6947  0.6545  1.2282
  235MPD1    H1 3570   2.721   1.337  10.051  0.9966 -4.6484 -1.4992
  235MPD1    H2 3571   2.416   1.170   9.815  1.0497 -1.6106  1.6010
  235MPD1    H3 3572   2.522   1.200  10.022 -0.7367 -1.9255 -0.2355
  235MPD1     N 3573   2.831   1.497   9.853  0.0588  0.0305 -0.1809
  235MPD1    H5 3574   2.853   1.549   9.768  1.3422  1.3233  0.9434
  235MPD1    N1 3575   2.490   1.299   9.585  0.8402 -0.1345 -0.0793
  235MPD1    H6 3576   2.498   1.382   9.527  1.5638 -0.0891  0.0844
  235MPD1    H7 3577   2.393   1.268   9.581 -0.5174  4.0485  1.0294
  236MPD1     C 3578   2.171   2.475   9.633 -0.3438  0.4769  0.4680
  236MPD1    C1 3579   2.145   2.559   9.731  0.0474  0.0922  0.0681
  236MPD1    C2 3580   2.229   2.559   9.841  0.3025  0.6088  0.2660
  236MPD1    C3 3581   2.320   2.452   9.862 -0.4355 -0.5002 -0.3872
  236MPD1    C4 3582   2.323   2.350   9.765 -0.6427 -0.2404 -0.7797
  236MPD1    C5 3583   2.252   2.368   9.647  0.3845  0.0504 -0.7516
  236MPD1     H 3584   2.231   2.651   9.898 -2.0780 -0.0392  1.4218
  236MPD1    H1 3585   2.400   2.274   9.756 -0.5352 -0.4220  1.6409
  236MPD1    H2 3586   2.129   2.498   9.537 -0.1645 -1.4918 -0.0788
  236MPD1    H3 3587   2.274   2.311   9.557 -2.1781 -1.0621 -0.6675
  236MPD1     N 3588   2.411   2.448   9.967 -0.0556 -0.1094  0.0806
  236MPD1    H5 3589   2.466   2.363   9.968 -0.4845 -0.3659  1.1586
  236MPD1    N1 3590   2.071   2.678   9.709  0.4416 -0.4925 -0.0077
  236MPD1    H6 3591   2.015   2.715   9.786  0.2155 -1.3997  0.2654
  236MPD1    H7 3592   2.007   2.660   9.633  1.2820  1.4831 -1.1642
  237MPD1     C 3593   1.880   1.880  15.984 -0.1319  0.3268  0.0088
  237MPD1    C1 3594   1.839   1.900  15.851  0.6017  0.0993 -0.9667
  237MPD1    C2 3595   1.774   1.789  15.797  0.6385 -0.2943  0.1897
  237MPD1    C3 3596   1.769   1.660  15.857 -0.3607 -0.3897  0.3391
  237MPD1    C4 3597   1.826   1.644  15.979  0.2497 -0.1754 -0.6936
  237MPD1    C5 3598   1.873   1.754  16.048 -0.2540  1.1340  0.6973
  237MPD1     H 3599   1.717   1.815  15.708 -0.3882  4.9267  2.3974
  237MPD1    H1 3600   1.821   1.547  16.027 -1.8196  0.6359  0.7256
  237MPD1    H2 3601   1.921   1.963  16.041 -2.1020 -0.1306  2.0971
  237MPD1    H3 3602   1.903   1.737  16.150 -3.6371 -2.2698  1.1310
  237MPD1     N 3603   1.689   1.551  15.808 -0.0799 -0.1221 -0.2136
  237MPD1    H5 3604   1.689   1.465  15.863 -0.6496  0.1720  0.2510
  237MPD1    N1 3605   1.803   2.026  15.806  0.2535 -0.2923 -0.1475
  237MPD1    H6 3606   1.807   2.036  15.705  3.4723  1.5207  0.1593
  237MPD1    H7 3607   1.864   2.097  15.846 -0.5508  0.8237 -0.9208
  238MPD1     C 3608   3.844   4.198  15.083  0.5296  0.6684 -0.1185
  238MPD1    C1 3609   3.849   4.321  15.020  0.3392 -0.4369 -0.1959
  238MPD1    C2 3610   3.727   4.381  14.997 -0.0231  0.4447  0.0611
  238MPD1    C3 3611   3.612   4.332  15.050 -0.4453  0.1422 -0.4326
  238MPD1    C4 3612   3.609   4.216  15.128  0.1303  0.2857  0.8987
  238MPD1    C5 3613   3.728   4.149  15.136 -0.2454 -0.4195 -0.0231
  238MPD1     H 3614   3.730   4.478  14.948 -1.0898  1.2022  1.4840
  238MPD1    H1 3615   3.523   4.166  15.171  0.8596 -2.1498 -0.4196
  238MPD1    H2 3616   3.929   4.132  15.093  0.0174  0.1944  1.1639
  238MPD1    H3 3617   3.739   4.054  15.187 -0.3226  0.0085  0.7872
  238MPD1     N 3618   3.485   4.387  15.033  0.0863  0.6665 -0.1137
  238MPD1    H5 3619   3.412   4.341  15.086 -0.0291  0.6675 -0.2763
  238MPD1    N1 3620   3.969   4.374  14.961 -0.2449 -0.1152  0.3265
  238MPD1    H6 3621   4.059   4.345  15.000  0.0315  1.6423  0.9777
  238MPD1    H7 3622   3.984   4.474  14.960  1.9266 -0.4326  1.0742
  239MPD1     C 3623   3.935   0.960  15.120 -0.0025  0.1017 -0.2149
  239MPD1    C1 3624   4.007   0.940  14.998 -0.4231 -0.4609  0.1406
  239MPD1    C2 3625   3.950   0.971  14.880  0.5977 -0.0387 -0.0343
  239MPD1    C3 3626   3.816   1.005  14.873 -0.4097 -0.7027 -0.0756
  239MPD1    C4 3627   3.736   1.013  14.989 -0.1125  0.0765  0.5218
  239MPD1    C5 3628   3.798   0.987  15.107 -0.0366  0.0227  0.0156
  239MPD1     H 3629   4.010   0.958  14.790  2.2041  0.3142  0.9795
  239MPD1    H1 3630   3.632   1.044  14.990 -0.2671 -0.3658 -1.1692
  239MPD1    H2 3631   3.977   0.939  15.218  3.1858  0.7218 -1.4668
  239MPD1    H3 3632   3.735   0.994  15.194  1.8336 -1.1558  1.4855
  239MPD1     N 3633   3.751   1.034  14.750 -0.0730  0.4339  0.2266
  239MPD1    H5 3634   3.650   1.049  14.753 -0.0890 -0.2588  3.1706
  239MPD1    N1 3635   4.147   0.910  15.003 -0.1318 -0.0265  0.1607
  239MPD1    H6 3636   4.152   0.845  15.081  3.5653 -2.1165 -1.8230
  239MPD1    H7 3637   4.167   0.861  14.916  1.2073 -0.1460  0.5334
  240MPD1     C 3638   3.017   0.981  14.548 -1.0848  0.0657  0.1300
  240MPD1    C1 3639   2.923   0.901  14.490 -0.4675 -0.0012  0.0442
  240MPD1    C2 3640   2.898   0.777  14.548  0.0279 -0.5323  0.0778
  240MPD1    C3 3641   2.968   0.735  14.661  0.3907  0.0612 -0.5506
  240MPD1    C4 3642   3.072   0.814  14.704  0.2790 -0.1257  0.2979
  240MPD1    C5 3643   3.085   0.938  14.659  0.4025 -0.4340 -0.6264
  240MPD1     H 3644   2.807   0.726  14.521  0.8153 -1.3385 -1.0653
  240MPD1    H1 3645   3.142   0.777  14.778 -1.3848 -0.7796  1.5551
  240MPD1    H2 3646   3.028   1.085  14.519  0.9531 -0.1475  0.1112
  240MPD1    H3 3647   3.161   1.007  14.695 -0.5036  0.8254 -1.1325
  240MPD1     N 3648   2.929   0.616  14.718  0.1641 -0.5307 -0.0812
  240MPD1    H5 3649   2.860   0.564  14.664  0.4568  0.6208 -1.5249
  240MPD1    N1 3650   2.830   0.949  14.399 -0.0389  0.2177 -0.8431
  240MPD1    H6 3651   2.878   1.014  14.336 -0.1594 -0.8181 -2.0029
  240MPD1    H7 3652   2.772   0.879  14.353  0.1018 -0.9143  0.7488
  241MPD1     C 3653   3.503   4.668  15.246 -0.0577 -0.2140 -0.3364
  241MPD1    C1 3654   3.377   4.655  15.297 -0.4200  0.0592  0.1479
  241MPD1    C2 3655   3.269   4.723  15.239 -0.2309 -0.4192 -0.3846
  241MPD1    C3 3656   3.301   0.083  15.132  0.8858  0.4642  0.6200
  241MPD1    C4 3657   3.428   0.101  15.097  0.0475  0.8338 -0.0017
  241MPD1    C5 3658   3.528   0.028  15.150  0.0652 -0.2627  0.0280
  241MPD1     H 3659   3.167   4.713  15.275  0.0055  0.4890  0.5368
  241MPD1    H1 3660   3.451   0.172  15.019  0.2979 -1.1178 -1.7008
  241MPD1    H2 3661   3.580   4.601  15.282  1.5971  1.6921 -0.2799
  241MPD1    H3 3662   3.631   0.035  15.116  0.1511 -0.9439  0.1385
  241MPD1     N 3663   3.205   0.162  15.064  0.5055  0.5723  0.1515
  241MPD1    H5 3664   3.253   0.223  14.998 -0.4078  0.1349 -0.9088
  241MPD1    N1 3665   3.359   4.546  15.383  0.3482  0.2720  0.6779
  241MPD1    H6 3666   3.443   4.534  15.439  2.0177 -1.4303 -2.2280
  241MPD1    H7 3667   3.278   4.567  15.442  0.2924 -0.8299  0.9950
  242MPD1     C 3668   3.272   3.919  16.051 -0.4905  0.3010 -0.0424
  242MPD1    C1 3669   3.184   3.924  15.944 -0.3302 -0.1873 -0.3324
  242MPD1    C2 3670   3.171   3.815  15.862 -0.5339  0.2543 -0.2929
  242MPD1    C3 3671   3.213   3.695  15.912  0.4093  0.6670 -0.4484
  242MPD1    C4 3672   3.296   3.690  16.023  0.7985 -0.2162 -0.1926
  242MPD1    C5 3673   3.322   3.800  16.093 -0.8238  0.0937  0.0349
  242MPD1     H 3674   3.124   3.820  15.764 -0.2069 -0.5853 -0.4875
  242MPD1    H1 3675   3.349   3.599  16.051 -0.8601 -1.2612 -0.4310
  242MPD1    H2 3676   3.299   4.006  16.110  1.6665  1.9820 -3.5440
  242MPD1    H3 3677   3.380   3.793  16.185  0.1006  0.4492 -0.5179
  242MPD1     N 3678   3.187   3.571  15.849  0.3363 -1.0376  0.1820
  242MPD1    H5 3679   3.224   3.490  15.898 -0.2706 -0.8603  0.9344
  242MPD1    N1 3680   3.153   4.045  15.888  0.2952  0.2906 -0.7688
  242MPD1    H6 3681   3.139   4.114  15.961 -1.6875  0.2234 -1.0976
  242MPD1    H7 3682   3.068   4.045  15.833 -1.2921 -0.7173  1.6862
  243MPD1     C 3683   3.924   2.062   0.854 -0.2702 -0.2229  0.2548
  243MPD1    C1 3684   3.826   1.976   0.816  0.1881  0.2158  0.3207
  243MPD1    C2 3685   3.845   1.909   0.697 -0.5002  0.5820 -0.1670
  243MPD1    C3 3686   3.955   1.934   0.613 -0.0472 -0.1565 -0.7871
  243MPD1    C4 3687   4.043   2.032   0.649 -0.2206  0.3348 -1.0856
  243MPD1    C5 3688   4.039   2.081   0.776 -0.4543  0.7463 -0.3375
  243MPD1     H 3689   3.765   1.849   0.653 -0.5234 -0.2399  1.0042
  243MPD1    H1 3690   4.125   2.064   0.585  1.0245 -0.0183  0.3331
  243MPD1    H2 3691   3.907   2.128   0.938  0.5134  0.2054  0.0783
  243MPD1    H3 3692   4.112   2.153   0.811  0.3268  0.3358 -1.1025
  243MPD1     N 3693   3.956   1.868   0.485  0.3505 -0.1910  0.8033
  243MPD1    H5 3694   3.891   1.790   0.477 -2.3909  2.0802  1.0701
  243MPD1    N1 3695   3.701   1.975   0.874 -0.3504 -0.4519 -1.4825
  243MPD1    H6 3696   3.655   1.884   0.882  1.4415 -1.0441  2.3199
  243MPD1    H7 3697   3.700   2.008   0.971 -0.8352 -2.9720 -0.6215
  244MPD1     C 3698   3.484   1.200   0.326 -0.7314  0.5185 -0.0645
  244MPD1    C1 3699   3.589   1.249   0.406 -0.2719  0.6076  0.3534
  244MPD1    C2 3700   3.666   1.360   0.363 -0.3847 -0.1036 -0.3186
  244MPD1    C3 3701   3.649   1.420   0.239  0.6460  0.2766  0.3636
  244MPD1    C4 3702   3.558   1.361   0.158  0.0653 -0.1496 -0.8496
  244MPD1    C5 3703   3.486   1.252   0.196  0.7227  0.4225 -0.7126
  244MPD1     H 3704   3.727   1.406   0.440 -2.0812 -2.5044  2.4790
  244MPD1    H1 3705   3.545   1.397   0.057 -0.2560  0.6445 -0.5236
  244MPD1    H2 3706   3.414   1.119   0.346  0.2488  0.1416  1.8998
  244MPD1    H3 3707   3.420   1.213   0.119  0.3121  0.3879 -0.3409
  244MPD1     N 3708   3.733   1.534   0.217  0.0369 -0.5588  0.3407
  244MPD1    H5 3709   3.801   1.562   0.287 -0.2307  1.5143 -0.2434
  244MPD1    N1 3710   3.611   1.192   0.534 -0.6828  0.0071  0.3716
  244MPD1    H6 3711   3.710   1.211   0.548 -0.8596  1.8778 -0.8802
  244MPD1    H7 3712   3.594   1.092   0.541 -4.6560  0.5650 -1.3920
  245MPD1     C 3713   1.394   2.413  13.662 -0.0766  0.2550  0.6521
  245MPD1    C1 3714   1.521   2.444  13.701  0.3003  0.3787  0.3570
  245MPD1    C2 3715   1.555   2.574  13.741 -0.6637 -0.3809 -0.2835
  245MPD1    C3 3716   1.456   2.670  13.728  0.1976  0.4862  0.7036
  245MPD1    C4 3717   1.339   2.642  13.675 -0.4248 -0.0611 -0.1162
  245MPD1    C5 3718   1.308   2.514  13.636 -0.6243  0.7716  0.0995
  245MPD1     H 3719   1.641   2.613  13.794 -2.7074  3.5087  0.1715
  245MPD1    H1 3720   1.256   2.708  13.655 -0.6131  0.0178  0.9462
  245MPD1    H2 3721   1.362   2.310  13.650 -0.3655  0.4230  0.0070
  245MPD1    H3 3722   1.208   2.489  13.603 -0.9261  1.7190  0.2757
  245MPD1     N 3723   1.488   2.799  13.787 -0.0539 -0.4770 -0.7271
  245MPD1    H5 3724   1.583   2.807  13.821  0.0936  0.0613 -1.2713
  245MPD1    N1 3725   1.608   2.341  13.733  0.4279  0.2943  0.1221
  245MPD1    H6 3726   1.575   2.263  13.677  2.9164 -2.4720  2.5633
  245MPD1    H7 3727   1.710   2.341  13.734  0.4018  0.3753  2.0587
  246MPD1     C 3728   3.934   3.774   9.133  0.2303 -0.0020 -0.1222
  246MPD1    C1 3729   3.893   3.879   9.212 -0.4808 -0.2495 -0.2969
  246MPD1    C2 3730   3.764   3.893   9.234 -0.2957 -0.1564  0.1306
  246MPD1    C3 3731   3.678   3.791   9.202  0.7615  0.3322  0.1967
  246MPD1    C4 3732   3.726   3.668   9.159 -0.0220  0.4405  0.3105
  246MPD1    C5 3733   3.854   3.663   9.112 -0.0079 -0.6592 -0.8763
  246MPD1     H 3734   3.720   3.983   9.275 -0.1202  1.0015 -2.2180
  246MPD1    H1 3735   3.662   3.583   9.137  0.8044 -0.2804  0.6819
  246MPD1    H2 3736   4.038   3.763   9.106  0.4075 -0.1998  0.6439
  246MPD1    H3 3737   3.890   3.576   9.058  2.2010  0.3483 -1.0385
  246MPD1     N 3738   3.540   3.821   9.222  0.8358  0.0167  0.4033
  246MPD1    H5 3739   3.515   3.910   9.262 -2.4035 -1.3207  1.3343
  246MPD1    N1 3740   3.972   3.995   9.223  0.5732 -0.1757  0.1651
  246MPD1    H6 3741   4.069   3.968   9.242  0.8621 -0.3893 -1.6420
  246MPD1    H7 3742   3.944   4.048   9.305 -0.0135  1.2956 -0.9843
  247MPD1     C 3743   0.727   2.532  17.374  0.0967  0.3066 -0.5392
  247MPD1    C1 3744   0.652   2.560  17.263 -0.5377 -0.4203 -0.1402
  247MPD1    C2 3745   0.707   2.617  17.154 -0.1816  0.1453  0.2413
  247MPD1    C3 3746   0.841   2.657  17.161 -0.4317 -0.3959 -0.2904
  247MPD1    C4 3747   0.921   2.621  17.270  0.2785 -0.2476 -0.2920
  247MPD1    C5 3748   0.861   2.552  17.372  0.3403 -0.1142  0.0745
  247MPD1     H 3749   0.645   2.650  17.071  0.8876  0.3476 -0.4717
  247MPD1    H1 3750   1.024   2.656  17.272  0.8047 -1.6620 -2.6198
  247MPD1    H2 3751   0.684   2.485  17.462  0.4626  1.7730  0.4273
  247MPD1    H3 3752   0.922   2.522  17.456  1.8758  0.1121 -0.9503
  247MPD1     N 3753   0.902   2.737  17.064 -0.2833 -0.0478 -0.2801
  247MPD1    H5 3754   0.994   2.772  17.089  0.4309 -1.2385 -1.2600
  247MPD1    N1 3755   0.513   2.542  17.269 -0.0811 -0.1773  0.3280
  247MPD1    H6 3756   0.482   2.458  17.316 -2.6726  0.2532 -0.6095
  247MPD1    H7 3757   0.474   2.525  17.177 -2.2695 -0.6976  1.3661
  248MPD1     C 3758   1.897   2.709   0.082  0.1065 -0.1680  0.0909
  248MPD1    C1 3759   1.846   2.819   0.148 -0.2399  0.0183 -1.0069
  248MPD1    C2 3760   1.783   2.792   0.272 -0.2316 -0.0639  0.0343
  248MPD1    C3 3761   1.755   2.663   0.312 -0.1304  0.1845  0.2477
  248MPD1    C4 3762   1.790   2.561   0.223 -0.2053 -0.5124 -0.5722
  248MPD1    C5 3763   1.875   2.578   0.118 -0.3771 -0.3535 -0.5655
  248MPD1     H 3764   1.746   2.873   0.334  2.3723  0.6424  0.6650
  248MPD1    H1 3765   1.761   2.457   0.237 -1.1759 -0.1540  0.1240
  248MPD1    H2 3766   1.957   2.722  17.692 -0.1134 -2.2306 -0.3420
  248MPD1    H3 3767   1.911   2.494   0.060 -0.5546 -1.1563  0.4816
  248MPD1     N 3768   1.675   2.629   0.434 -0.4434  0.5401 -0.0952
  248MPD1    H5 3769   1.634   2.709   0.482 -0.6145 -0.3627  1.2577
  248MPD1    N1 3770   1.884   2.943   0.109  0.4941  0.3605  0.0391
  248MPD1    H6 3771   1.808   3.008   0.128  1.2072  0.7656  1.4926
  248MPD1    H7 3772   1.899   2.943   0.008 -1.5486  1.8472 -0.2585
  249MPD1     C 3773   3.595   4.601  10.509 -0.1459  0.2290 -0.2602
  249MPD1    C1 3774   3.681   4.544  10.416  0.3510 -0.3106 -1.0211
  249MPD1    C2 3775   3.749   4.628  10.326 -0.5616  0.6834 -0.7688
  249MPD1    C3 3776   3.742   0.044  10.346  0.2801  0.0768 -0.0974
  249MPD1    C4 3777   3.657   0.102  10.440 -0.1024 -0.2445  0.1978
  249MPD1    C5 3778   3.577   0.015  10.517  0.6402 -0.4202  0.2405
  249MPD1     H 3779   3.807   4.584  10.246 -1.1356 -0.1862 -0.7118
  249MPD1    H1 3780   3.639   0.208  10.453 -1.7145 -0.5861  0.8381
  249MPD1    H2 3781   3.533   4.545  10.577  0.7555 -0.7030 -0.2116
  249MPD1    H3 3782   3.526   0.067  10.597 -2.4972  1.1058 -2.7874
  249MPD1     N 3783   3.829   0.113  10.264 -0.2830 -0.6529  0.3195
  249MPD1    H5 3784   3.861   0.066  10.180 -2.9694 -1.4154 -0.2638
  249MPD1    N1 3785   3.668   4.411  10.392 -0.1177 -0.2667  0.4874
  249MPD1    H6 3786   3.670   4.349  10.473 -0.1076  0.9217  1.3936
  249MPD1    H7 3787   3.742   4.375  10.331 -3.3713 -0.6160 -3.2487
  250MPD2     C 3788   4.187   1.516  13.302 -0.6277  0.2464 -0.0174
  250MPD2    C1 3789   4.202   1.494  13.172 -0.4503 -0.5486  0.3471
  250MPD2    C2 3790   4.180   1.371  13.123  0.1096 -0.4624  1.1047
  250MPD2    C3 3791   4.146   1.262  13.198  0.1193 -0.1588 -0.2685
  250MPD2    C4 3792   4.140   1.285  13.336  0.0493 -0.5597 -0.8743
  250MPD2    C5 3793   4.163   1.408  13.389 -0.3291 -0.7427 -0.4873
  250MPD2     H 3794   4.177   1.368  13.015 -0.5285 -0.9842  1.1430
  250MPD2    H1 3795   4.127   1.204  13.406  0.1455  0.2971  0.1414
  250MPD2    H2 3796   4.197   1.616  13.342 -0.8393  0.7127 -1.1318
  250MPD2    H3 3797   4.148   1.421  13.496  4.3045  1.0103 -0.0860
  250MPD2     N 3798   4.118   1.129  13.145  0.1035  0.0721 -0.6121
  250MPD2    H5 3799   4.087   1.054  13.206  1.4804  0.1585  0.2032
  250MPD2    N1 3800   4.215   1.618  13.102 -0.4948  1.1738  0.5031
  250MPD2    H7 3801   4.238   1.698  13.160 -2.7582  3.9455 -2.4076
  251TMC3    C1 3802   4.260   1.761  12.923  0.0942 -0.2250 -0.6882
  251TMC3    C2 3803   4.245   1.869  13.002 -0.0613  0.6829  1.1948
  251TMC3    C3 3804   4.263   1.998  12.952 -0.4053  0.3169  0.6289
  251TMC3    C4 3805   4.319   1.782  12.804  1.1703  0.6846 -0.2925
  251TMC3    C5 3806   4.354   1.906  12.759  0.0537 -0.2608 -0.1794
  251TMC3    C6 3807   4.334   2.018  12.830  0.3538 -0.3953  0.1213
  251TMC3     C 3808   4.223   1.633  12.963 -0.1074  0.5828 -0.3363
  251TMC3     O 3809   4.227   1.537  12.882 -0.1341 -0.0559  0.6352
  251TMC3     H 3810   4.182   1.860  13.089 -1.4961 -1.3542 -0.0453
  251TMC3    H1 3811   4.341   1.696  12.740  0.5127 -1.8470  2.8838
  251TMC3    H2 3812   4.317   2.114  12.783 -0.2716 -1.2409 -1.3839
  251TMC3    C7 3813   4.446   1.904  12.647  0.6928 -0.5496 -1.2275
  251TMC3    C8 3814   4.288   2.108  13.056  0.3948  0.0491  0.0563
  251TMC3    O1 3815   4.405   1.833  12.557 -0.1866  0.0805 -0.5730
  251TMC3    O2 3816   4.217   2.088  13.154 -0.5110  0.0737 -0.1439
  252TMC3    C1 3817   0.598   2.302   9.264 -0.6824 -0.5466 -0.0803
  252TMC3    C2 3818   0.713   2.308   9.342  0.2311  0.2680  0.9628
  252TMC3    C3 3819   0.698   2.268   9.473  0.2810  0.0612  0.2005
  252TMC3    C4 3820   0.479   2.270   9.315 -0.6374  0.4937 -0.1587
  252TMC3    C5 3821   0.478   2.235   9.450 -0.2539  0.3409  0.0793
  252TMC3    C6 3822   0.582   2.243   9.529  0.2444  0.3659  0.2015
  252TMC3     C 3823   0.606   2.375   9.137 -0.0696  0.4539 -0.8140
  252TMC3     O 3824   0.705   2.444   9.109 -0.5491 -0.5611  0.2287
  252TMC3     H 3825   0.809   2.329   9.296  0.0045  0.2423  0.4837
  252TMC3    H1 3826   0.387   2.264   9.257 -2.2098 -2.0278  2.5905
  252TMC3    H2 3827   0.569   2.232   9.636 -1.9140 -0.0686 -0.0889
  252TMC3    C7 3828   0.353   2.172   9.496 -0.4234  0.6982  0.1873
  252TMC3    C8 3829   0.803   2.294   9.564  0.4202 -0.4182  0.7359
  252TMC3    O1 3830   0.248   2.234   9.461  0.2199  0.1595  0.1906
  252TMC3    O2 3831   0.791   2.247   9.676 -0.0159 -0.2199 -0.2911
  253MPD2     C 3832   1.299   1.601  15.216  0.3805 -0.0531  0.0819
  253MPD2    C1 3833   1.204   1.500  15.230 -0.1886  0.1672  0.1980
  253MPD2    C2 3834   1.162   1.475  15.359  0.4218 -0.1760 -0.9637
  253MPD2    C3 3835   1.211   1.537  15.472 -0.7697 -0.2112 -0.1050
  253MPD2    C4 3836   1.300   1.641  15.455 -0.2057  0.0811 -0.4499
  253MPD2    C5 3837   1.344   1.668  15.331  0.1667  0.7207  0.5732
  253MPD2     H 3838   1.093   1.392  15.371  2.6431 -2.0312 -0.8377
  253MPD2    H1 3839   1.339   1.708  15.530  1.9098 -1.0044 -0.5886
  253MPD2    H2 3840   1.349   1.623  15.122  1.2835  0.3534  0.6535
  253MPD2    H3 3841   1.426   1.737  15.318  2.1054 -1.5048  0.9727
  253MPD2     N 3842   1.147   1.526  15.598  0.4811  0.2456 -0.5192
  253MPD2    H5 3843   1.168   1.599  15.666 -0.4837  1.5088 -1.5815
  253MPD2    N1 3844   1.162   1.408  15.126 -0.0424 -0.3934 -0.0711
  253MPD2    H7 3845   1.107   1.327  15.153 -0.0913 -0.7614 -1.2669
  254TMC3    C1 3846   1.020   1.475  15.768 -0.4739 -0.1692 -0.3572
  254TMC3    C2 3847   0.889   1.450  15.801 -0.8149  0.1399 -0.2500
  254TMC3    C3 3848   0.851   1.487  15.927  0.5505  0.6101  0.2156
  254TMC3    C4 3849   1.118   1.511  15.860  0.8455  0.2446 -0.3683
  254TMC3    C5 3850   1.070   1.528  15.989  1.2783  0.4407  0.6122
  254TMC3    C6 3851   0.941   1.521  16.019  0.4645 -0.6417  0.3124
  254TMC3     C 3852   1.058   1.436  15.637 -0.0015  0.0256 -0.0975
  254TMC3     O 3853   0.983   1.378  15.563 -0.3040 -0.4239  0.3916
  254TMC3     H 3854   0.818   1.404  15.735 -1.2879 -0.4113  0.6428
  254TMC3    H1 3855   1.225   1.517  15.845  0.7368  1.2264 -0.7390
  254TMC3    H2 3856   0.910   1.550  16.119  0.6607 -1.8844  0.7335
  254TMC3    C7 3857   1.149   1.476  16.100  0.7741  0.8269 -0.1878
  254TMC3    C8 3858   0.740   1.409  15.981 -0.3998 -0.0496  0.2580
  254TMC3    O1 3859   1.087   1.431  16.197 -0.1433 -0.1990  1.2573
  254TMC3    O2 3860   0.764   1.379  16.097  0.3974 -0.3826 -0.3026
  255MPD2     C 3861   4.210   3.150  10.422 -0.1502 -0.4399 -0.1175
  255MPD2    C1 3862   4.312   3.197  10.497 -0.1435 -0.5612 -0.0769
  255MPD2    C2 3863   4.428   3.131  10.499  0.2013 -0.2061 -0.0693
  255MPD2    C3 3864   4.453   3.019  10.426 -0.7941  0.2557 -0.4776
  255MPD2    C4 3865   4.345   2.969  10.355 -0.6193 -0.6045  0.1094
  255MPD2    C5 3866   4.224   3.025  10.359  0.0079 -0.0875 -0.9298
  255MPD2     H 3867   4.514   3.170  10.552 -1.1503 -1.7076  3.2050
  255MPD2    H1 3868   4.357   2.888  10.284  0.4754 -1.3996  1.1994
  255MPD2    H2 3869   4.119   3.206  10.403  0.1467 -0.1227 -0.6062
  255MPD2    H3 3870   4.143   2.988  10.297  0.7761 -2.9601 -0.2369
  255MPD2     N 3871   4.583   2.963  10.439  0.1356 -0.0153 -0.2243
  255MPD2    H5 3872   4.656   3.024  10.474 -0.6598  0.9301 -0.2110
  255MPD2    N1 3873   4.294   3.319  10.565 -0.0037  0.0867  0.5799
  255MPD2    H7 3874   4.198   3.349  10.580  0.5972  2.2083  0.2204
  256TMC3    C1 3875   4.357   3.512  10.712 -0.9511  0.2601 -0.4490
  256TMC3    C2 3876   4.457   3.607  10.698 -0.0251 -0.3890  0.3294
  256TMC3    C3 3877   4.413   3.733  10.683 -0.5843  0.5331 -0.1596
  256TMC3    C4 3878   4.223   3.544  10.687  0.1206  0.3131  0.4769
  256TMC3    C5 3879   4.190   3.675  10.682 -0.0765  0.0153 -0.6196
  256TMC3    C6 3880   4.282   3.777  10.685  0.1098  0.4919  0.1809
  256TMC3     C 3881   4.394   3.391  10.634  0.0157  0.5218  0.1155
  256TMC3     O 3882   4.512   3.372  10.646  0.1541 -0.2360 -0.2738
  256TMC3     H 3883   4.561   3.579  10.684  0.1369  0.8372 -0.9250
  256TMC3    H1 3884   4.143   3.473  10.702 -1.2215  1.9281  0.9582
  256TMC3    H2 3885   4.273   3.885  10.682 -1.6178  0.3432 -0.0269
  256TMC3    C7 3886   4.079   3.693  10.592  0.3820 -0.6609  0.0266
  256TMC3    C8 3887   4.514   3.841  10.652 -0.1555 -0.1720 -0.5488
  256TMC3    O1 3888   4.034   3.593  10.543  0.2079 -0.6116 -0.0508
  256TMC3    O2 3889   4.603   3.853  10.731 -0.3937 -0.4644 -0.1814
  257MPD2     C 3890   3.436   1.555  13.081  0.3734  0.2443  0.0536
  257MPD2    C1 3891   3.427   1.429  13.032 -0.2375  0.6284 -0.0712
  257MPD2    C2 3892   3.400   1.328  13.117 -0.5899 -0.8596 -0.1974
  257MPD2    C3 3893   3.390   1.345  13.256  0.2661 -0.0384  0.2727
  257MPD2    C4 3894   3.395   1.479  13.308 -0.1376 -0.1548 -0.0562
  257MPD2    C5 3895   3.414   1.576  13.217 -0.7397  0.3870  0.6312
  257MPD2     H 3896   3.385   1.228  13.079 -1.1564 -0.4076 -1.1815
  257MPD2    H1 3897   3.386   1.513  13.411  0.6387 -1.1184  0.3339
  257MPD2    H2 3898   3.458   1.638  13.016  0.5338  1.4159  1.5973
  257MPD2    H3 3899   3.419   1.678  13.255  2.4389 -0.1592  1.6689
  257MPD2     N 3900   3.367   1.228  13.334 -0.6286 -0.0145  0.2200
  257MPD2    H5 3901   3.352   1.139  13.286 -0.3965  0.1955 -0.2498
  257MPD2    N1 3902   3.442   1.412  12.894  0.4005 -0.1445 -0.2511
  257MPD2    H7 3903   3.470   1.496  12.845  2.4612 -0.0314  1.1480
  258TMC3    C1 3904   3.330   1.107  13.527 -0.4193  0.1183 -0.3374
  258TMC3    C2 3905   3.311   0.998  13.445 -0.4205  0.0081  0.4661
  258TMC3    C3 3906   3.320   0.874  13.510 -0.7523  0.0300 -1.1306
  258TMC3    C4 3907   3.366   1.097  13.659 -0.0533 -0.6300  0.8225
  258TMC3    C5 3908   3.362   0.975  13.716  0.1117  0.5643 -0.7736
  258TMC3    C6 3909   3.339   0.866  13.642 -0.3569 -0.5033  1.1056
  258TMC3     C 3910   3.364   1.232  13.472 -0.1422  0.5827 -0.0040
  258TMC3     O 3911   3.386   1.322  13.551  0.7650  0.2663 -0.0987
  258TMC3     H 3912   3.267   1.004  13.346  0.8437  0.0957 -0.0878
  258TMC3    H1 3913   3.383   1.181  13.725 -0.9538 -1.1125  1.6814
  258TMC3    H2 3914   3.327   0.768  13.686 -1.5492 -0.4240  0.9445
  258TMC3    C7 3915   3.292   0.978  13.835 -0.0718 -0.3147 -0.1107
  258TMC3    C8 3916   3.256   0.760  13.439 -0.1562 -0.2478 -0.2204
  258TMC3    O1 3917   3.236   1.084  13.870  0.6420 -0.0607  0.0060
  258TMC3    O2 3918   3.183   0.685  13.507 -0.2896 -0.0227  0.2121
  259MPD2     C 3919   2.083   2.635   1.378 -0.3638 -0.3954 -0.1742
  259MPD2    C1 3920   2.211   2.585   1.407  0.1773 -0.4540 -0.1668
  259MPD2    C2 3921   2.273   2.504   1.317  0.9694 -0.7400 -0.0844
  259MPD2    C3 3922   2.215   2.477   1.195 -0.1107  0.5432 -0.2963
  259MPD2    C4 3923   2.088   2.529   1.172  0.6623 -0.5977  0.1367
  259MPD2    C5 3924   2.023   2.602   1.259 -0.5229  0.7795  0.2759
  259MPD2     H 3925   2.373   2.468   1.339  0.5614 -1.4400  0.6702
  259MPD2    H1 3926   2.039   2.513   1.077 -1.6421  2.7020  0.7677
  259MPD2    H2 3927   2.035   2.709   1.439  0.6364  1.1479 -1.2604
  259MPD2    H3 3928   1.933   2.649   1.222 -1.0228  0.2871  0.8728
  259MPD2     N 3929   2.295   2.400   1.101  0.0732  0.4427 -0.3924
  259MPD2    H5 3930   2.377   2.349   1.134 -1.1157 -1.0320  0.2942
  259MPD2    N1 3931   2.257   2.619   1.538  0.1886 -0.0546 -0.1160
  259MPD2    H7 3932   2.208   2.679   1.604  0.2434  1.7055 -1.6816
  260TMC3    C1 3933   2.359   2.301   0.897 -0.6966  0.8735  0.1494
  260TMC3    C2 3934   2.436   2.213   0.962  0.1803 -0.6294  0.0728
  260TMC3    C3 3935   2.524   2.137   0.889  0.3517  0.1214 -0.6173
  260TMC3    C4 3936   2.368   2.315   0.763  0.6330  0.3735 -0.2655
  260TMC3    C5 3937   2.459   2.241   0.688 -0.3724 -0.2967  0.4970
  260TMC3    C6 3938   2.543   2.153   0.750 -0.0175  0.3569  0.8239
  260TMC3     C 3939   2.265   2.387   0.971 -0.5191  0.4100  0.0507
  260TMC3     O 3940   2.186   2.446   0.903  0.1707  0.2183  0.2442
  260TMC3     H 3941   2.408   2.178   1.061 -0.3379 -1.1373 -0.2494
  260TMC3    H1 3942   2.307   2.384   0.706  0.2190 -0.9676 -1.4521
  260TMC3    H2 3943   2.613   2.087   0.700  1.4362  1.5253  1.3132
  260TMC3    C7 3944   2.450   2.217   0.540 -0.0124 -0.3651 -0.1815
  260TMC3    C8 3945   2.624   2.061   0.966  1.3556 -0.1898 -0.4693
  260TMC3    O1 3946   2.504   2.118   0.492 -0.3445  0.0593 -0.0280
  260TMC3    O2 3947   2.599   2.028   1.083  0.0083 -0.7610 -0.1121
  261MPD2     C 3948   4.000   0.685  12.412 -0.1062 -0.1596 -0.8871
  261MPD2    C1 3949   4.067   0.794  12.469 -0.2344  0.7916  0.1180
  261MPD2    C2 3950   4.154   0.861  12.387 -0.3225  0.0469  0.3199
  261MPD2    C3 3951   4.176   0.820  12.254  0.2313  0.2498 -0.2131
  261MPD2    C4 3952   4.116   0.706  12.208 -0.1557  0.5851  0.4644
  261MPD2    C5 3953   4.023   0.642  12.282 -0.1306 -0.0426 -0.1294
  261MPD2     H 3954   4.221   0.939  12.420  1.4738 -0.5007 -1.9676
  261MPD2    H1 3955   4.125   0.676  12.104  1.8532 -2.2805  1.4514
  261MPD2    H2 3956   3.931   0.625  12.470  0.6822 -0.8147 -0.6265
  261MPD2    H3 3957   3.957   0.562  12.250  1.0330 -1.4636  1.0460
  261MPD2     N 3958   4.262   0.895  12.171 -0.2049  0.2845 -0.2013
  261MPD2    H5 3959   4.280   0.986  12.211 -0.5037  0.4756 -0.4953
  261MPD2    N1 3960   4.067   0.837  12.605  0.1386 -0.2123  0.3002
  261MPD2    H7 3961   4.123   0.914  12.640 -0.6647  0.2523  0.5516
  262TMC3    C1 3962   4.412   0.939  11.993 -0.4497 -0.2122  1.1057
  262TMC3    C2 3963   4.406   1.072  12.035  0.1928  0.0395 -0.6531
  262TMC3    C3 3964   4.511   1.152  12.000  0.1502  0.0250 -0.1483
  262TMC3    C4 3965   4.523   0.891  11.931 -0.1292  0.5333  0.0811
  262TMC3    C5 3966   4.637   0.968  11.909 -0.3014  0.4952 -0.0924
  262TMC3    C6 3967   4.627   1.103  11.951  0.2896 -0.0939 -0.4717
  262TMC3     C 3968   4.316   0.849  12.054  0.6096 -0.3150  0.1727
  262TMC3     O 3969   4.329   0.733  12.022 -0.2881  0.1705 -0.2051
  262TMC3     H 3970   4.322   1.113  12.089 -0.4703  0.4734 -2.0206
  262TMC3    H1 3971   4.528   0.785  11.909 -3.1115  0.7153 -1.5000
  262TMC3    H2 3972   4.711   1.172  11.948  0.8035 -0.7693 -1.4578
  262TMC3    C7 3973   4.708   0.945  11.786  0.6414  1.1818 -0.4446
  262TMC3    C8 3974   4.490   1.291  11.984  0.1110 -0.2406  0.0335
  262TMC3    O1 3975   4.702   0.832  11.735 -0.1508 -0.2944  0.2604
  262TMC3    O2 3976   4.550   1.346  11.891 -0.2556  0.3757 -0.1326
  263MPD2     C 3977   0.403   4.689  11.591 -0.1729  0.4713  0.1553
  263MPD2    C1 3978   0.480   0.072  11.634  0.0409 -1.2262 -0.4754
  263MPD2    C2 3979   0.504   0.170  11.541  0.3522 -0.1370 -0.0750
  263MPD2    C3 3980   0.453   0.166  11.411  0.5738 -0.4866 -0.9365
  263MPD2    C4 3981   0.382   0.052  11.372  0.8648  0.0023 -0.7327
  263MPD2    C5 3982   0.361   4.678  11.459  1.4454  0.5745  0.6096
  263MPD2     H 3983   0.565   0.258  11.558 -1.3702  1.6693 -3.2852
  263MPD2    H1 3984   0.346   0.038  11.270 -1.4343 -1.5986  0.3043
  263MPD2    H2 3985   0.373   4.617  11.666  1.5304  0.5112  0.8742
  263MPD2    H3 3986   0.309   4.593  11.416  0.2663  1.1836  0.8381
  263MPD2     N 3987   0.499   0.270  11.325  0.4320  0.7608 -0.0893
  263MPD2    H5 3988   0.545   0.345  11.375  0.7669  0.2656  0.3430
  263MPD2    N1 3989   0.535   0.062  11.764 -0.3327 -0.0550 -0.1006
  263MPD2    H7 3990   0.518   4.701  11.816 -3.7916 -0.2581 -1.5575
  264TMC3    C1 3991   0.600   0.354  11.116  0.0261 -0.6590 -0.2341
  264TMC3    C2 3992   0.636   0.477  11.165  0.1106 -0.1427  0.1938
  264TMC3    C3 3993   0.704   0.562  11.086  0.1728  0.2001  0.4710
  264TMC3    C4 3994   0.637   0.314  10.990  0.5490 -0.4717 -1.0973
  264TMC3    C5 3995   0.718   0.398  10.912  0.3167 -0.0452 -0.4103
  264TMC3    C6 3996   0.748   0.524  10.956 -0.0745  0.5501 -0.0893
  264TMC3     C 3997   0.498   0.262  11.187 -0.1792  0.6522 -0.5081
  264TMC3     O 3998   0.458   0.169  11.119 -0.4606  0.2184  0.2111
  264TMC3     H 3999   0.612   0.508  11.266 -2.3665  0.3604 -0.5418
  264TMC3    H1 4000   0.615   0.211  10.962  2.1724 -0.4353 -2.5352
  264TMC3    H2 4001   0.806   0.592  10.895 -1.0708  0.1330 -1.5056
  264TMC3    C7 4002   0.800   0.338  10.814  0.3243  0.5020  0.5215
  264TMC3    C8 4003   0.768   0.683  11.130  0.0172 -0.9801 -0.4808
  264TMC3    O1 4004   0.807   0.216  10.815  0.5961 -0.4214 -0.1563
  264TMC3    O2 4005   0.880   0.705  11.080 -0.2264  1.3233 -0.1266
  265MPD2     C 4006   2.313   1.122  15.754 -0.0199  0.9717  0.1873
  265MPD2    C1 4007   2.365   1.243  15.711  0.4485 -0.6746 -0.0951
  265MPD2    C2 4008   2.458   1.235  15.598  0.2712 -0.2574  0.5430
  265MPD2    C3 4009   2.497   1.113  15.552 -0.1539 -1.3216 -0.2427
  265MPD2    C4 4010   2.444   0.999  15.605 -0.0882 -0.1962  0.2192
  265MPD2    C5 4011   2.355   1.001  15.701  0.3974  0.1910 -0.2275
  265MPD2     H 4012   2.507   1.323  15.559 -1.6087  0.5065 -0.1203
  265MPD2    H1 4013   2.475   0.906  15.560  0.0050  0.4990 -1.1683
  265MPD2    H2 4014   2.223   1.116  15.814  0.3625  0.1704  0.6855
  265MPD2    H3 4015   2.302   0.911  15.729 -0.0615  0.3369 -0.6298
  265MPD2     N 4016   2.598   1.098  15.449  0.2853 -0.1195 -0.3457
  265MPD2    H5 4017   2.619   0.999  15.439  3.1780  0.3374  1.0667
  265MPD2    N1 4018   2.330   1.367  15.770 -0.2590  0.1928 -1.2387
  265MPD2    H7 4019   2.362   1.452  15.725  2.1147 -0.3133 -0.4871
  266TMC3    C1 4020   2.224   1.505  15.936  0.7201  0.2114 -0.3113
  266TMC3    C2 4021   2.229   1.533  16.071 -0.0537 -0.0352  0.1947
  266TMC3    C3 4022   2.232   1.660  16.111  0.1258  0.3462 -0.8382
  266TMC3    C4 4023   2.202   1.599  15.837 -0.2158  0.1943  0.4920
  266TMC3    C5 4024   2.214   1.730  15.883 -0.2954  0.9681 -0.6393
  266TMC3    C6 4025   2.222   1.763  16.015 -0.1623 -0.0913  0.7048
  266TMC3     C 4026   2.269   1.372  15.893 -0.1917  0.4096 -0.1773
  266TMC3     O 4027   2.269   1.285  15.977  0.1479 -0.3491 -0.5497
  266TMC3     H 4028   2.236   1.459  16.150 -1.6248  1.9168  2.1425
  266TMC3    H1 4029   2.174   1.563  15.739 -0.4490  0.5055  0.4444
  266TMC3    H2 4030   2.242   1.864  16.047  1.3342 -0.4963  1.0836
  266TMC3    C7 4031   2.208   1.832  15.777 -0.2580 -0.3967  0.1072
  266TMC3    C8 4032   2.263   1.695  16.251  0.1759 -0.2895 -0.5752
  266TMC3    O1 4033   2.169   1.796  15.668  0.2678  0.5687  0.0594
  266TMC3    O2 4034   2.277   1.601  16.324 -0.4628  0.0209  0.8662
  267MPD2     C 4035   0.055   2.565   0.271 -0.3311 -0.0801  0.4648
  267MPD2    C1 4036   0.085   2.676   0.199 -0.1665  0.2366 -0.2613
  267MPD2    C2 4037   0.000   2.711   0.096  0.4425 -0.4665 -0.5201
  267MPD2    C3 4038   4.618   2.618   0.057 -0.7444 -0.2457  0.0855
  267MPD2    C4 4039   4.597   2.506   0.131 -0.0209  0.0493 -0.0635
  267MPD2    C5 4040   4.674   2.485   0.241  0.5963  0.4660  0.3932
  267MPD2     H 4041   0.015   2.797   0.032  0.3066  0.8754  1.2428
  267MPD2    H1 4042   4.522   2.436   0.096  0.7500 -0.0629 -1.5283
  267MPD2    H2 4043   0.125   2.555   0.353 -1.3569 -1.6869  1.1490
  267MPD2    H3 4044   4.666   2.395   0.302 -0.8180  0.4576  0.2103
  267MPD2     N 4045   4.528   2.643  17.647  0.6926 -0.0069 -0.8318
  267MPD2    H5 4046   4.475   2.561  17.616  0.3639 -0.6397  1.4062
  267MPD2    N1 4047   0.213   2.736   0.222 -0.5712  0.9654  0.1122
  267MPD2    H7 4048   0.277   2.699   0.291  0.0254  0.1400 -0.8707
  268TMC3    C1 4049   0.382   2.905   0.198  0.0356 -0.1727  0.1121
  268TMC3    C2 4050   0.469   2.959   0.105  0.0367  0.2358 -0.3191
  268TMC3    C3 4051   0.560   3.052   0.142  0.3342  0.8372 -0.0388
  268TMC3    C4 4052   0.388   2.932   0.328 -0.7581 -0.0892  0.3674
  268TMC3    C5 4053   0.477   3.033   0.360  0.2385  1.2677 -0.4473
  268TMC3    C6 4054   0.575   3.081   0.273 -0.0770  0.2151  0.5094
  268TMC3     C 4055   0.266   2.834   0.141 -0.5381 -0.7052  0.5275
  268TMC3     O 4056   0.238   2.876   0.034  0.0402 -0.2979 -0.3953
  268TMC3     H 4057   0.457   2.920   0.005  3.1899  0.5362 -0.8123
  268TMC3    H1 4058   0.330   2.887   0.408  1.0306 -2.2016  0.4712
  268TMC3    H2 4059   0.645   3.155   0.312  1.3410 -0.0482 -1.5316
  268TMC3    C7 4060   0.484   3.080   0.493 -0.0949  0.0817  0.0016
  268TMC3    C8 4061   0.622   3.143   0.048  0.1013 -0.1978 -0.3235
  268TMC3    O1 4062   0.461   2.995   0.578 -0.0889 -0.2917  0.4924
  268TMC3    O2 4063   0.693   3.238   0.082  0.1058 -0.4129 -0.2004
  269MPD2     C 4064   0.139   1.800  15.676  0.0287  1.3593 -0.3773
  269MPD2    C1 4065   0.007   1.819  15.671  0.4124 -0.6036  0.0436
  269MPD2    C2 4066   4.675   1.933  15.623 -0.0367  0.5696  0.2439
  269MPD2    C3 4067   0.031   2.026  15.570 -1.1055 -0.0975 -0.5294
  269MPD2    C4 4068   0.167   2.001  15.557  0.1717 -0.3071 -0.2056
  269MPD2    C5 4069   0.220   1.891  15.618  0.0149  0.3400 -0.0924
  269MPD2     H 4070   4.568   1.953  15.629  0.2035  2.7962 -2.4161
  269MPD2    H1 4071   0.234   2.063  15.499 -1.8042  1.8789 -0.1506
  269MPD2    H2 4072   0.186   1.714  15.722 -1.2977 -0.4725 -2.4335
  269MPD2    H3 4073   0.327   1.882  15.632 -0.3421  0.3715  2.7045
  269MPD2     N 4074   4.691   2.147  15.526 -0.0179 -0.4504  0.6974
  269MPD2    H5 4075   4.602   2.174  15.566 -0.1153 -0.3253  0.3997
  269MPD2    N1 4076   4.670   1.713  15.738  0.1778 -0.3447 -0.5658
  269MPD2    H7 4077   0.007   1.648  15.786  0.7945  0.7042  0.0757
  270TMC3    C1 4078   4.488   1.573  15.799 -0.6271  0.5329  0.8356
  270TMC3    C2 4079   4.355   1.557  15.817 -0.1278  0.5341  0.2681
  270TMC3    C3 4080   4.288   1.437  15.837 -0.4118 -0.3240 -0.5351
  270TMC3    C4 4081   4.562   1.463  15.817  0.0077 -0.0449  0.6682
  270TMC3    C5 4082   4.507   1.344  15.847  1.0347  0.0610  0.2666
  270TMC3    C6 4083   4.372   1.323  15.850  0.6660  0.1392  0.5183
  270TMC3     C 4084   4.536   1.691  15.725  0.0488  0.3822  0.2056
  270TMC3     O 4085   4.453   1.750  15.656  0.4029  0.1518  0.1941
  270TMC3     H 4086   4.293   1.639  15.781  0.9083  0.5859 -1.3726
  270TMC3    H1 4087   4.670   1.466  15.811 -0.0079 -2.1803 -0.4785
  270TMC3    H2 4088   4.326   1.230  15.880 -1.8442  1.2897  0.2519
  270TMC3    C7 4089   4.594   1.226  15.841 -0.9864  0.6543 -0.3676
  270TMC3    C8 4090   4.203   1.434  15.724  0.3436  0.2302 -0.2707
  270TMC3    O1 4091   4.707   1.248  15.801  0.4291 -0.4679 -0.6305
  270TMC3    O2 4092   4.109   1.514  15.711 -0.4339 -0.3575  0.1985
  271MPD2     C 4093   3.989   1.269  14.061 -0.0949  0.4658  0.6828
  271MPD2    C1 4094   3.946   1.303  14.188  0.2345  0.1659 -0.8004
  271MPD2    C2 4095   3.852   1.404  14.196 -0.7514  0.2736  0.3598
  271MPD2    C3 4096   3.780   1.446  14.086 -0.2006 -0.4105  0.2517
  271MPD2    C4 4097   3.821   1.402  13.956  0.2757  0.0176  0.3460
  271MPD2    C5 4098   3.926   1.314  13.948 -0.4116 -0.1982 -0.6210
  271MPD2     H 4099   3.836   1.447  14.294 -1.4963 -0.6060  0.6188
  271MPD2    H1 4100   3.782   1.448  13.866  2.8103  1.0373 -0.2213
  271MPD2    H2 4101   4.071   1.200  14.043  0.7058  1.0330  2.1592
  271MPD2    H3 4102   3.964   1.273  13.856 -1.1811 -3.1730  0.3988
  271MPD2     N 4103   3.675   1.538  14.093  0.2524 -0.1189  0.3025
  271MPD2    H5 4104   3.632   1.563  14.005  0.1100 -1.9616 -0.1482
  271MPD2    N1 4105   4.007   1.259  14.304 -0.0713  0.2078  0.3125
  271MPD2    H7 4106   3.962   1.280  14.393 -0.6640 -0.5735  0.2004
  272TMC3    C1 4107   4.160   1.137  14.430 -0.0597 -0.0156 -0.2625
  272TMC3    C2 4108   4.198   1.011  14.453 -0.8344  0.1117 -0.6525
  272TMC3    C3 4109   4.252   0.966  14.565 -0.1106 -0.2134  0.0994
  272TMC3    C4 4110   4.161   1.229  14.535 -0.2767 -0.2600 -0.5493
  272TMC3    C5 4111   4.192   1.176  14.652 -0.7235  0.3296  0.0526
  272TMC3    C6 4112   4.240   1.052  14.669 -0.3908  0.1424 -0.1553
  272TMC3     C 4113   4.100   1.159  14.300  0.4465  0.6680 -1.2766
  272TMC3     O 4114   4.118   1.066  14.218 -0.1377 -0.1026 -0.3168
  272TMC3     H 4115   4.210   0.943  14.369 -1.5334  0.9610 -1.4439
  272TMC3    H1 4116   4.128   1.332  14.541 -1.7138 -0.8256  1.3715
  272TMC3    H2 4117   4.270   1.012  14.765  0.3941 -1.4734 -1.0713
  272TMC3    C7 4118   4.169   1.267  14.768 -0.1971 -0.5375 -0.2069
  272TMC3    C8 4119   4.390   0.939  14.540  0.4070  0.2274 -0.5394
  272TMC3    O1 4120   4.063   1.324  14.775 -0.3627 -0.3467  0.1007
  272TMC3    O2 4121   4.423   0.985  14.431 -0.6451  0.1245 -1.0014
  273MPD2     C 4122   0.917   3.337  12.138 -0.4147 -0.7136 -0.2960
  273MPD2    C1 4123   1.044   3.388  12.168 -0.4296  0.0443  0.8169
  273MPD2    C2 4124   1.117   3.456  12.071 -0.3339  0.0489  0.3061
  273MPD2    C3 4125   1.071   3.466  11.941 -0.0640 -0.2660  0.6114
  273MPD2    C4 4126   0.949   3.407  11.909  0.5000 -0.4772  0.0992
  273MPD2    C5 4127   0.877   3.340  12.005  0.2091 -0.0111 -0.4772
  273MPD2     H 4128   1.208   3.501  12.108 -0.3727 -0.7092  1.3330
  273MPD2    H1 4129   0.907   3.431  11.812  0.8581  1.3248  0.3844
  273MPD2    H2 4130   0.862   3.282  12.213 -2.2973 -0.4221 -1.4601
  273MPD2    H3 4131   0.777   3.304  11.983  0.4017  0.4049 -1.9897
  273MPD2     N 4132   1.138   3.541  11.838  0.7000 -0.3061  0.9930
  273MPD2    H5 4133   1.086   3.568  11.756  2.1928 -0.6496 -0.0736
  273MPD2    N1 4134   1.099   3.377  12.296  0.1392 -0.2167 -0.1167
  273MPD2    H7 4135   1.041   3.330  12.366  1.2151 -0.4639  0.6101
  274TMC3    C1 4136   1.294   3.699  11.741  0.1867  0.3131 -0.1071
  274TMC3    C2 4137   1.242   3.691  11.617 -0.0094 -0.4570 -0.0399
  274TMC3    C3 4138   1.248   3.801  11.537  0.9065  0.2140  0.2056
  274TMC3    C4 4139   1.359   3.814  11.783 -0.3990 -0.5912  0.0701
  274TMC3    C5 4140   1.351   3.927  11.704 -0.2373  0.2603  0.0554
  274TMC3    C6 4141   1.296   3.924  11.580 -0.1366  0.1276 -0.4469
  274TMC3     C 4142   1.261   3.604  11.848 -0.2849 -0.6221  0.1234
  274TMC3     O 4143   1.349   3.583  11.933  0.1041 -0.1428 -0.4740
  274TMC3     H 4144   1.184   3.605  11.587  0.7268 -1.2029  0.6658
  274TMC3    H1 4145   1.377   3.821  11.890 -0.1481  0.3456 -0.0278
  274TMC3    H2 4146   1.312   4.014  11.522 -0.1399  1.7003  2.0095
  274TMC3    C7 4147   1.387   4.054  11.757  0.3569  0.5320  0.1160
  274TMC3    C8 4148   1.162   3.793  11.421 -0.1302 -0.8437 -0.2766
  274TMC3    O1 4149   1.479   4.055  11.838 -0.4075  0.1330  0.8660
  274TMC3    O2 4150   1.079   3.701  11.406  0.2440  0.5306 -0.4523
  275MPD2     C 4151   0.643   2.425  14.674 -0.4245 -0.6808  0.0807
  275MPD2    C1 4152   0.712   2.334  14.743  0.0107  0.2648  0.6400
  275MPD2    C2 4153   0.689   2.195  14.713  0.0483  0.3530  0.0836
  275MPD2    C3 4154   0.598   2.159  14.617 -0.3646  0.4029 -0.5657
  275MPD2    C4 4155   0.529   2.258  14.546 -0.1467 -0.2166  0.1373
  275MPD2    C5 4156   0.557   2.389  14.570  0.1201  0.1789 -0.1141
  275MPD2     H 4157   0.746   2.118  14.764 -2.4299 -2.4979 -1.4307
  275MPD2    H1 4158   0.474   2.232  14.455 -0.0929  0.7964 -0.1794
  275MPD2    H2 4159   0.638   2.531  14.697  2.3298 -0.3606 -0.7708
  275MPD2    H3 4160   0.504   2.453  14.501 -0.2407  0.9076  0.8561
  275MPD2     N 4161   0.571   2.024  14.605  0.3648 -0.3437 -0.2533
  275MPD2    H5 4162   0.639   1.962  14.648  0.7317 -0.0977 -0.4724
  275MPD2    N1 4163   0.803   2.356  14.844 -0.2526  0.0029 -0.1320
  275MPD2    H7 4164   0.848   2.275  14.885  0.0188  0.1699 -0.0933
  276TMC3    C1 4165   0.895   2.461  15.038 -1.0115  0.2079  0.0499
  276TMC3    C2 4166   0.910   2.332  15.088  0.2764 -0.0263 -0.2376
  276TMC3    C3 4167   0.978   2.313  15.206 -0.2562  0.2642  0.6892
  276TMC3    C4 4168   0.949   2.571  15.098  0.1816  0.0576  0.1420
  276TMC3    C5 4169   1.026   2.547  15.216 -0.4908 -0.5817  0.2022
  276TMC3    C6 4170   1.034   2.417  15.275  0.1107  0.0505 -0.7009
  276TMC3     C 4171   0.827   2.476  14.910  0.2302  0.1669 -0.8127
  276TMC3     O 4172   0.807   2.589  14.863  0.0960 -0.3517  0.3142
  276TMC3     H 4173   0.853   2.247  15.054  1.1224 -0.5098 -0.4434
  276TMC3    H1 4174   0.941   2.666  15.047 -0.2040  0.9911  1.9182
  276TMC3    H2 4175   1.093   2.394  15.363 -2.1765 -0.4690  0.6883
  276TMC3    C7 4176   1.094   2.654  15.283  0.9005  0.0384 -0.0081
  276TMC3    C8 4177   0.983   2.188  15.277 -0.0310 -0.6074 -0.3929
  276TMC3    O1 4178   1.097   2.638  15.401 -0.1287  0.2275 -0.2137
  276TMC3    O2 4179   1.018   2.180  15.392 -0.2864 -0.3376 -0.0005
  277MPD2     C 4180   2.893   0.759  13.794 -0.4717 -0.3824  0.1851
  277MPD2    C1 4181   2.787   0.685  13.737 -0.0551 -0.0634  0.2228
  277MPD2    C2 4182   2.663   0.682  13.808 -0.1526 -0.5752 -0.1938
  277MPD2    C3 4183   2.650   0.748  13.926 -0.0789  0.8201  0.3444
  277MPD2    C4 4184   2.755   0.822  13.984  0.3451  0.2823 -0.0398
  277MPD2    C5 4185   2.882   0.821  13.916  0.4941  0.3249  0.0794
  277MPD2     H 4186   2.578   0.619  13.784 -0.2208 -1.3166  2.0022
  277MPD2    H1 4187   2.748   0.879  14.076  1.1196  0.4334 -0.0759
  277MPD2    H2 4188   2.989   0.761  13.746  0.4607 -0.6374  2.0245
  277MPD2    H3 4189   2.971   0.878  13.943  0.7553  1.0223 -2.2208
  277MPD2     N 4190   2.524   0.740  13.983  0.7851  0.1793  0.0034
  277MPD2    H5 4191   2.448   0.701  13.928  2.0396 -0.4738 -1.2735
  277MPD2    N1 4192   2.801   0.637  13.605  0.1109  0.1028 -0.3944
  277MPD2    H7 4193   2.883   0.663  13.550 -0.2611  0.8806 -0.5869
  278TMC3    C1 4194   2.353   0.766  14.139 -0.0790 -0.1579 -0.9124
  278TMC3    C2 4195   2.312   0.665  14.215 -0.1638  0.2364 -0.6264
  278TMC3    C3 4196   2.185   0.624  14.190  0.2363  0.1967  0.2833
  278TMC3    C4 4197   2.284   0.810  14.029  0.3577  0.6770 -0.1367
  278TMC3    C5 4198   2.151   0.771  14.016 -0.2932  0.3740 -0.4473
  278TMC3    C6 4199   2.101   0.667  14.097  0.4843 -0.2085 -0.2790
  278TMC3     C 4200   2.497   0.768  14.115 -0.4516 -0.8724 -0.3365
  278TMC3     O 4201   2.574   0.782  14.210  0.1983  0.0225  0.4609
  278TMC3     H 4202   2.385   0.634  14.289 -0.5278  1.0263  0.0705
  278TMC3    H1 4203   2.317   0.897  13.974  2.8981 -1.8603 -2.6481
  278TMC3    H2 4204   1.997   0.636  14.094  0.6868 -0.9516  0.6448
  278TMC3    C7 4205   2.066   0.830  13.909  0.2055  0.1982 -0.3162
  278TMC3    C8 4206   2.180   0.485  14.221  0.4177  0.1250 -0.0230
  278TMC3    O1 4207   2.127   0.865  13.808 -0.0253 -0.3352 -0.1438
  278TMC3    O2 4208   2.197   0.446  14.335 -0.1188  0.3036 -0.3110
  279MPD2     C 4209   1.768   1.963   0.665 -0.5085 -0.0585  0.6892
  279MPD2    C1 4210   1.716   1.851   0.611 -0.5985 -0.1483 -0.2569
  279MPD2    C2 4211   1.747   1.814   0.481  0.1166  0.0552 -0.0261
  279MPD2    C3 4212   1.827   1.894   0.408  0.8934 -0.4650  0.2882
  279MPD2    C4 4213   1.878   2.011   0.462  0.0247 -0.4016 -0.3121
  279MPD2    C5 4214   1.849   2.047   0.590 -0.4233  0.1482 -0.4473
  279MPD2     H 4215   1.699   1.734   0.425 -0.5707  0.4853 -0.0525
  279MPD2    H1 4216   1.948   2.069   0.403  0.7811  0.8073  1.7419
  279MPD2    H2 4217   1.745   1.987   0.768  0.9791 -0.6199  1.1433
  279MPD2    H3 4218   1.889   2.141   0.627  1.6737 -0.3873 -1.3576
  279MPD2     N 4219   1.836   1.889   0.266  0.0877  1.0882  0.1786
  279MPD2    H5 4220   1.870   1.972   0.218 -0.5836  2.0644  1.4056
  279MPD2    N1 4221   1.611   1.790   0.687  0.4466  0.3199 -0.1792
  279MPD2    H7 4222   1.583   1.843   0.768 -2.6131  0.3729 -1.2584
  280TMC3    C1 4223   1.409   1.683   0.719  0.2263 -0.8777 -0.0366
  280TMC3    C2 4224   1.332   1.580   0.689 -0.0088 -0.2108 -0.8810
  280TMC3    C3 4225   1.206   1.592   0.730 -0.1071  0.4287 -0.8534
  280TMC3    C4 4226   1.363   1.799   0.784 -0.1701  0.0527 -0.7948
  280TMC3    C5 4227   1.233   1.809   0.815 -0.1650 -0.0629 -0.0103
  280TMC3    C6 4228   1.146   1.708   0.782 -0.3284 -0.3725 -0.1399
  280TMC3     C 4229   1.542   1.675   0.659  0.1076  0.2714  0.9084
  280TMC3     O 4230   1.563   1.579   0.582  0.0231  0.2369 -0.0380
  280TMC3     H 4231   1.355   1.491   0.632  0.5770 -0.7134  0.1378
  280TMC3    H1 4232   1.432   1.881   0.797  0.6489 -0.7166 -0.2194
  280TMC3    H2 4233   1.043   1.707   0.815 -1.0706 -2.9686 -2.5378
  280TMC3    C7 4234   1.194   1.941   0.819  0.2847  0.5189  0.6076
  280TMC3    C8 4235   1.116   1.492   0.676 -0.0371 -0.1554 -0.1315
  280TMC3    O1 4236   1.255   2.015   0.896 -0.2780  0.6532  0.6149
  280TMC3    O2 4237   1.009   1.533   0.628 -0.3464  0.5112 -0.6626
  281TMC3    C1 4238   0.066   1.824  13.485  0.2908 -0.6854 -0.8266
  281TMC3    C2 4239   0.033   1.885  13.370 -0.1858  0.7409  0.1717
  281TMC3    C3 4240   4.654   1.829  13.293 -0.0723  0.1030  0.1984
  281TMC3    C4 4241   0.004   1.717  13.527 -0.1424 -0.1454  0.0123
  281TMC3    C5 4242   4.614   1.677  13.459  0.5594  0.8786  1.1802
  281TMC3    C6 4243   4.573   1.730  13.342  0.3745  0.6342  0.4734
  281TMC3     C 4244   0.151   1.896  13.577 -0.1158  0.3795  0.7669
  281TMC3     O 4245   0.185   1.836  13.679  1.0122 -0.3033 -0.2501
  281TMC3     H 4246   0.099   1.963  13.333  1.1043 -0.3825  0.1299
  281TMC3    H1 4247   0.038   1.679  13.623  0.4388 -1.6512 -0.7949
  281TMC3    H2 4248   4.487   1.696  13.286  0.1361  1.4756  0.3280
  281TMC3    C7 4249   4.503   1.612  13.523  0.3972  0.9140 -0.2544
  281TMC3    C8 4250   4.638   1.865  13.151  0.6214  0.2016  0.7430
  281TMC3    O1 4251   4.394   1.671  13.522  0.0513 -0.0829  0.1553
  281TMC3    O2 4252   4.583   1.780  13.083  0.2041  0.4651  0.4861
  282MPD2     C 4253   2.495   2.982  15.492  0.6005 -0.5060  0.1989
  282MPD2    C1 4254   2.379   3.047  15.521  0.2826 -0.1298 -0.4486
  282MPD2    C2 4255   2.291   3.089  15.427 -0.6471  0.1640  0.4080
  282MPD2    C3 4256   2.321   3.071  15.292  0.3188 -0.2728  0.5552
  282MPD2    C4 4257   2.440   3.004  15.256 -0.2295 -0.3436 -0.0314
  282MPD2    C5 4258   2.525   2.966  15.356 -0.2229 -0.9138 -0.7566
  282MPD2     H 4259   2.204   3.146  15.455  0.7894  1.8959  1.3769
  282MPD2    H1 4260   2.474   2.990  15.154 -2.2580  0.9009 -0.8851
  282MPD2    H2 4261   2.571   2.955  15.565 -0.8637 -1.6267  1.3051
  282MPD2    H3 4262   2.621   2.931  15.319 -0.7277 -1.7136 -1.3059
  282MPD2     N 4263   2.230   3.126  15.198  0.1571  0.6184  0.6081
  282MPD2    H5 4264   2.152   3.184  15.228 -0.9134 -0.0173 -0.9175
  282MPD2    N1 4265   2.342   3.065  15.658 -0.3399 -0.1415 -0.3870
  282MPD2    H7 4266   2.243   3.076  15.676 -0.1774  1.2549 -0.3157
  283TMC3    C1 4267   2.352   3.059  15.899  0.0575 -0.0777 -0.0162
  283TMC3    C2 4268   2.399   3.161  15.973  0.0908  0.4454 -0.7921
  283TMC3    C3 4269   2.340   3.175  16.090  0.2649 -0.1880  0.2339
  283TMC3    C4 4270   2.253   2.979  15.933 -0.0675  0.4186  0.2375
  283TMC3    C5 4271   2.197   2.994  16.059  0.0158  0.4279  0.1735
  283TMC3    C6 4272   2.247   3.091  16.140 -0.1624  1.3136  0.7108
  283TMC3     C 4273   2.422   3.041  15.771 -0.4739  0.0814  0.1038
  283TMC3     O 4274   2.539   2.998  15.783 -0.4774 -0.1755 -0.1149
  283TMC3     H 4275   2.481   3.218  15.931  0.1716  1.9882  1.5245
  283TMC3    H1 4276   2.230   2.893  15.871  2.3862 -0.6773  0.8308
  283TMC3    H2 4277   2.197   3.117  16.232  0.7052 -1.0064  1.8371
  283TMC3    C7 4278   2.080   2.930  16.109  0.3250  0.4432  0.1991
  283TMC3    C8 4279   2.344   3.301  16.157 -0.8199  0.1268 -0.8799
  283TMC3    O1 4280   2.056   2.925  16.228  0.5997 -0.0636  0.1542
  283TMC3    O2 4281   2.329   3.295  16.279  0.3670 -0.3344  0.1792
  284MPD2     C 4282   0.763   2.080  11.866  0.6102  0.1323  0.5384
  284MPD2    C1 4283   0.903   2.058  11.863 -0.5671 -0.2496 -0.0769
  284MPD2    C2 4284   0.969   1.992  11.968 -0.0910 -0.2344 -0.7471
  284MPD2    C3 4285   0.903   1.945  12.082  0.0916  0.2009 -0.2821
  284MPD2    C4 4286   0.761   1.960  12.082 -0.6890 -0.3456 -0.4745
  284MPD2    C5 4287   0.695   2.021  11.976 -0.2290 -0.1171 -0.4706
  284MPD2     H 4288   1.076   1.978  11.954 -0.3161 -1.2476 -1.4949
  284MPD2    H1 4289   0.704   1.914  12.163  0.4097 -0.9847 -0.0632
  284MPD2    H2 4290   0.704   2.142  11.800  0.0563 -0.4651  0.4679
  284MPD2    H3 4291   0.587   2.028  11.965 -0.4834 -0.0503  1.9616
  284MPD2     N 4292   0.972   1.886  12.190 -0.1248  0.3279 -0.2044
  284MPD2    H5 4293   0.920   1.830  12.257 -0.8337  1.3677  0.1161
  284MPD2    N1 4294   0.983   2.086  11.758  0.0045  0.3135  0.2329
  284MPD2    H7 4295   1.082   2.072  11.775 -0.3009 -2.3982 -0.2449
  285TMC3    C1 4296   1.067   2.189  11.574 -0.3231  0.1042 -0.9501
  285TMC3    C2 4297   1.140   2.077  11.540 -0.0886 -0.0029  0.4316
  285TMC3    C3 4298   1.263   2.092  11.491  0.8804 -0.5297  0.2996
  285TMC3    C4 4299   1.117   2.315  11.551  0.1067  0.6249 -0.0162
  285TMC3    C5 4300   1.248   2.320  11.509  0.2049 -0.5912  0.3969
  285TMC3    C6 4301   1.325   2.211  11.473  0.1692 -0.2953 -0.4810
  285TMC3     C 4302   0.955   2.174  11.659  0.3899  0.6421  0.9647
  285TMC3     O 4303   0.865   2.260  11.650  0.0689 -0.7941  0.2201
  285TMC3     H 4304   1.095   1.979  11.547  1.8339 -0.8736  0.5427
  285TMC3    H1 4305   1.056   2.401  11.574  1.8191  1.4666  1.3893
  285TMC3    H2 4306   1.433   2.215  11.476  0.1086 -0.2883  1.9596
  285TMC3    C7 4307   1.307   2.452  11.510 -0.0787 -0.5413 -0.4612
  285TMC3    C8 4308   1.332   1.963  11.456  0.5906  0.4348  0.1957
  285TMC3    O1 4309   1.429   2.457  11.522  0.1907 -0.0511 -0.3039
  285TMC3    O2 4310   1.263   1.862  11.447  0.2803  0.4313 -0.2926
  286MPD2     C 4311   0.234   1.561   1.447  0.1368  0.1181  0.2863
  286MPD2    C1 4312   0.326   1.668   1.421  0.3989 -0.2159  1.2739
  286MPD2    C2 4313   0.461   1.635   1.418  0.2396 -0.2159  0.1558
  286MPD2    C3 4314   0.512   1.507   1.440 -0.3723  0.4366 -0.2822
  286MPD2    C4 4315   0.418   1.406   1.465  0.3498  0.5012 -0.2952
  286MPD2    C5 4316   0.283   1.438   1.469 -0.6406  0.4002 -0.4721
  286MPD2     H 4317   0.528   1.717   1.396 -0.4816  0.4634  0.4588
  286MPD2    H1 4318   0.449   1.303   1.484 -0.6947  0.5284  1.5367
  286MPD2    H2 4319   0.128   1.573   1.463  0.2098  0.5214  0.4817
  286MPD2    H3 4320   0.220   1.357   1.502 -2.2421  2.6231  1.9533
  286MPD2     N 4321   0.649   1.476   1.441 -0.3967  0.0667  0.4162
  286MPD2    H5 4322   0.670   1.377   1.450  3.9324  1.0983  1.6608
  286MPD2    N1 4323   0.277   1.790   1.384 -0.7928  0.7723  0.4995
  286MPD2    H7 4324   0.351   1.857   1.363 -1.4616  1.6697  1.0085
  287TMC3    C1 4325   0.879   1.489   1.423  0.0493  0.1248 -0.2963
  287TMC3    C2 4326   0.876   1.377   1.347 -0.1608  0.0897 -0.0171
  287TMC3    C3 4327   0.975   1.286   1.371 -0.0741 -0.7976  0.3394
  287TMC3    C4 4328   0.978   1.518   1.517  0.3228 -0.6880 -0.5639
  287TMC3    C5 4329   1.063   1.418   1.543  0.0242 -0.2312  0.9502
  287TMC3    C6 4330   1.064   1.302   1.469  0.0959 -0.1393 -0.3745
  287TMC3     C 4331   0.756   1.569   1.434 -0.1223 -0.6127  0.1439
  287TMC3     O 4332   0.763   1.693   1.451 -0.7463 -0.7766  0.1556
  287TMC3     H 4333   0.804   1.356   1.269 -3.3571  2.2804  2.3060
  287TMC3    H1 4334   0.988   1.615   1.565 -0.4564  0.7906 -3.4015
  287TMC3    H2 4335   1.146   1.233   1.483 -0.2686 -0.6681 -0.8673
  287TMC3    C7 4336   1.149   1.428   1.655  1.1593  0.4221 -0.5644
  287TMC3    C8 4337   1.003   1.180   1.281  1.0653 -0.3523 -0.0995
  287TMC3    O1 4338   1.230   1.338   1.664  0.4730 -0.3173 -0.5018
  287TMC3    O2 4339   0.915   1.129   1.213  0.6172 -0.2050  0.2095
  288TMC3    C1 4340   2.349   0.901  15.281  0.4367 -0.2581  0.4602
  288TMC3    C2 4341   2.354   0.773  15.326  0.7886 -0.6611 -0.1418
  288TMC3    C3 4342   2.262   0.735  15.417 -0.0051 -0.5840 -0.0252
  288TMC3    C4 4343   2.253   0.991  15.320  0.4648  0.2815 -0.1948
  288TMC3    C5 4344   2.165   0.951  15.415  0.4251  0.0252 -0.1857
  288TMC3    C6 4345   2.161   0.823  15.469  0.7124  0.2387 -0.0662
  288TMC3     C 4346   2.446   0.928  15.182 -0.0111 -0.3765  0.6034
  288TMC3     O 4347   2.530   0.842  15.167  0.2993 -0.5371 -0.0947
  288TMC3     H 4348   2.425   0.701  15.287  1.7667  0.4841 -0.4922
  288TMC3    H1 4349   2.253   1.090  15.277 -2.0822  0.6463  0.6272
  288TMC3    H2 4350   2.087   0.798  15.544  0.7356 -1.4888 -0.5971
  288TMC3    C7 4351   2.073   1.045  15.483 -0.5287 -0.4707  0.4515
  288TMC3    C8 4352   2.276   0.605  15.473  0.1996 -1.1418  0.5466
  288TMC3    O1 4353   2.042   1.013  15.599  0.6755  0.4586  1.0131
  288TMC3    O2 4354   2.390   0.570  15.511  0.1266 -0.2466 -0.1443
  289MPD2     C 4355   2.574   4.572  14.826 -0.6047 -0.4569 -0.4954
  289MPD2    C1 4356   2.557   4.701  14.781  0.1968 -0.2390  0.3756
  289MPD2    C2 4357   2.440   0.026  14.720  0.0550  0.0091 -0.4867
  289MPD2    C3 4358   2.338   4.659  14.693 -0.0306  0.5926 -0.2160
  289MPD2    C4 4359   2.355   4.528  14.740  0.3360  0.5377  0.0173
  289MPD2    C5 4360   2.478   4.481  14.796  0.9085  0.2428  0.0500
  289MPD2     H 4361   2.434   0.130  14.689 -1.7811  0.3903  1.1948
  289MPD2    H1 4362   2.273   4.459  14.725  2.7348 -2.6269  1.3119
  289MPD2    H2 4363   2.669   4.541  14.869 -0.6701 -1.1704 -0.8773
  289MPD2    H3 4364   2.484   4.380  14.835  2.0731  0.2189 -0.2053
  289MPD2     N 4365   2.215   4.696  14.633 -0.6616  0.4758  0.5151
  289MPD2    H5 4366   2.146   4.623  14.617 -1.5067  0.5726  3.7137
  289MPD2    N1 4367   2.667   0.058  14.821 -0.2461 -0.0787 -0.0730
  289MPD2    H7 4368   2.745   0.020  14.873 -0.3495 -1.1852 -0.7287
  290TMC3    C1 4369   2.031   0.094  14.571  0.1788  0.1626 -0.4852
  290TMC3    C2 4370   1.976   0.210  14.517  0.0198 -0.2043  0.5775
  290TMC3    C3 4371   1.846   0.235  14.523 -0.9010 -0.0100 -0.3057
  290TMC3    C4 4372   1.940   0.000  14.621 -0.3438  0.6253  0.1100
  290TMC3    C5 4373   1.805   0.028  14.612  0.1109 -0.4955 -0.7657
  290TMC3    C6 4374   1.750   0.147  14.565 -0.4822 -0.2025  0.1422
  290TMC3     C 4375   2.180   0.090  14.583 -0.1991 -0.0029  0.0457
  290TMC3     O 4376   2.255   0.183  14.554  0.3304  0.2048  0.1252
  290TMC3     H 4377   2.047   0.281  14.476  1.9892 -1.0659  2.5229
  290TMC3    H1 4378   1.975   4.639  14.677  0.0330  1.2800  0.8813
  290TMC3    H2 4379   1.643   0.164  14.564 -0.1973  1.5753  0.1498
  290TMC3    C7 4380   1.724   4.668  14.685 -0.5110 -0.0032  0.1325
  290TMC3    C8 4381   1.796   0.350  14.442  0.2793 -0.3743  0.1725
  290TMC3    O1 4382   1.619   4.718  14.722 -0.3915  0.2216  0.6161
  290TMC3    O2 4383   1.677   0.335  14.404 -0.6778  0.2431  0.0678
  291MPD2     C 4384   1.524   0.193   0.856 -0.3415  0.1659 -0.4021
  291MPD2    C1 4385   1.652   0.181   0.804  0.1615 -0.1306  0.6189
  291MPD2    C2 4386   1.721   0.288   0.766  0.5359  0.5176 -0.3219
  291MPD2    C3 4387   1.659   0.412   0.756  0.0219  0.0649  0.6378
  291MPD2    C4 4388   1.529   0.426   0.814  0.3390 -0.5663 -0.2832
  291MPD2    C5 4389   1.465   0.309   0.851  0.2317 -0.2887 -0.1462
  291MPD2     H 4390   1.821   0.282   0.724  0.7944 -2.2134  0.6938
  291MPD2    H1 4391   1.471   0.518   0.809  2.2249  0.5996 -0.4709
  291MPD2    H2 4392   1.475   0.109   0.903 -0.1522 -0.3633 -1.1575
  291MPD2    H3 4393   1.365   0.315   0.892 -0.5826 -0.4467 -2.1258
  291MPD2     N 4394   1.717   0.524   0.702  0.4399  0.2866  0.0731
  291MPD2    H5 4395   1.655   0.597   0.667 -1.2016 -1.1396 -0.0199
  291MPD2    N1 4396   1.714   0.059   0.776 -0.5841 -0.1570  0.3349
  291MPD2    H7 4397   1.811   0.064   0.746 -0.9254  0.1629 -0.6916
  292TMC3    C1 4398   1.747   4.558   0.752 -0.4666  0.4023  0.2573
  292TMC3    C2 4399   1.866   4.559   0.824  0.4068  0.5179 -0.8141
  292TMC3    C3 4400   1.959   4.466   0.784  1.1942  0.0059 -0.5625
  292TMC3    C4 4401   1.703   4.454   0.672  0.0051  0.1010 -0.2304
  292TMC3    C5 4402   1.790   4.350   0.667  0.2207 -0.2463 -0.4312
  292TMC3    C6 4403   1.924   4.355   0.712  0.0291  0.1343  0.6506
  292TMC3     C 4404   1.654   4.659   0.781 -0.0460  0.1124  0.2655
  292TMC3     O 4405   1.532   4.636   0.772 -0.0092 -0.4781  0.2713
  292TMC3     H 4406   1.886   4.645   0.888 -0.3305 -2.4573  3.4161
  292TMC3    H1 4407   1.606   4.465   0.624 -0.5160 -3.3310  0.0540
  292TMC3    H2 4408   1.983   4.264   0.723 -0.2795 -0.0585  0.6938
  292TMC3    C7 4409   1.740   4.226   0.612 -0.5586  0.1154 -0.0020
  292TMC3    C8 4410   2.038   4.444   0.905 -0.4343  0.2953 -0.0022
  292TMC3    O1 4411   1.832   4.143   0.599 -0.3071 -0.0109 -0.0316
  292TMC3    O2 4412   2.130   4.523   0.927  0.1409  0.3318 -0.2231
  293MPD2     C 4413   3.995   1.256  12.612  0.3547  0.1474 -0.3668
  293MPD2    C1 4414   3.888   1.183  12.642  0.2955  0.3988 -0.2521
  293MPD2    C2 4415   3.812   1.193  12.756  0.1256  0.0786 -0.6474
  293MPD2    C3 4416   3.842   1.294  12.841 -0.1033  0.7398  0.2564
  293MPD2    C4 4417   3.953   1.375  12.807  0.4150  0.0178 -0.4136
  293MPD2    C5 4418   4.033   1.353  12.697  0.0449  0.7267 -0.6478
  293MPD2     H 4419   3.734   1.121  12.777  1.8532 -1.0651  1.8449
  293MPD2    H1 4420   3.978   1.462  12.867 -1.4054 -0.4072  0.9906
  293MPD2    H2 4421   4.051   1.242  12.521 -0.2217 -1.0038 -0.5349
  293MPD2    H3 4422   4.125   1.407  12.678 -0.9705  2.5070 -0.4443
  293MPD2     N 4423   3.777   1.306  12.968 -0.4226  0.8039  0.1901
  293MPD2    H5 4424   3.724   1.227  13.003 -0.7849  0.3483 -1.3971
  293MPD2    N1 4425   3.850   1.102  12.530 -0.1466 -1.0408 -0.7153
  293MPD2    H7 4426   3.895   1.124  12.442 -1.6905  0.9841 -1.0115
  294TMC3    C1 4427   3.727   0.941  12.413  0.1917  0.4238  0.3925
  294TMC3    C2 4428   3.635   0.847  12.415  0.0121 -0.5293  0.0258
  294TMC3    C3 4429   3.617   0.764  12.305  0.7004 -0.1365  0.7138
  294TMC3    C4 4430   3.796   0.974  12.297  0.3657 -0.3149 -0.4611
  294TMC3    C5 4431   3.777   0.897  12.186 -0.9992  0.5144 -0.6852
  294TMC3    C6 4432   3.676   0.795  12.184 -0.6900  0.5113  0.1822
  294TMC3     C 4433   3.761   1.003  12.536  0.0643 -0.2270  0.0729
  294TMC3     O 4434   3.720   0.951  12.638  0.0940  0.3861  0.4822
  294TMC3     H 4435   3.600   0.812  12.512 -0.4178 -1.5548 -0.5051
  294TMC3    H1 4436   3.869   1.055  12.301  0.9944 -0.8215 -1.5975
  294TMC3    H2 4437   3.665   0.733  12.095  2.6676  1.2862 -0.7810
  294TMC3    C7 4438   3.872   0.905  12.073  0.0959 -0.5514 -0.1714
  294TMC3    C8 4439   3.555   0.633  12.313  0.0242  0.3500 -0.2126
  294TMC3    O1 4440   3.882   0.808  11.998 -0.3345  0.0361 -0.3535
  294TMC3    O2 4441   3.601   0.546  12.241 -0.1980  0.1238  0.1721
  295MPD2     C 4442   4.583   0.154   1.437  0.6657 -0.3686  0.7941
  295MPD2    C1 4443   4.465   0.167   1.495 -0.6279 -0.8133 -0.0686
  295MPD2    C2 4444   4.454   0.203   1.630 -1.0320  0.1183  0.7684
  295MPD2    C3 4445   4.569   0.227   1.704  0.0410 -0.6135 -0.0636
  295MPD2    C4 4446   4.690   0.214   1.642  0.2520  0.3533  0.4319
  295MPD2    C5 4447   4.694   0.180   1.507 -0.4265  0.1897 -0.2679
  295MPD2     H 4448   4.352   0.219   1.663 -1.1250 -0.0457  0.5600
  295MPD2    H1 4449   0.058   0.239   1.692  0.7207  1.0888 -0.8220
  295MPD2    H2 4450   4.602   0.153   1.330  0.1192 -0.6471  0.6989
  295MPD2    H3 4451   0.065   0.180   1.456  0.3048 -0.2169  1.1016
  295MPD2     N 4452   4.574   0.254   1.836  0.1905  0.2097  0.2035
  295MPD2    H5 4453   4.665   0.261   1.880  1.1169  1.1179 -1.8695
  295MPD2    N1 4454   4.348   0.159   1.414  0.7086 -0.0404 -0.0800
  295MPD2    H7 4455   4.266   0.204   1.454  0.8066 -0.9696  1.1790
  296TMC3    C1 4456   4.495   0.293   2.050 -0.2589  0.8159 -0.7796
  296TMC3    C2 4457   4.580   0.400   2.068  0.2218  0.5750 -0.0493
  296TMC3    C3 4458   4.632   0.417   2.194 -0.2508  0.4846 -0.2446
  296TMC3    C4 4459   4.472   0.199   2.149 -0.2917 -0.6640 -1.0191
  296TMC3    C5 4460   4.527   0.223   2.272 -0.1080 -0.4611  0.2204
  296TMC3    C6 4461   4.608   0.330   2.294  0.3385 -0.4310  0.2080
  296TMC3     C 4462   4.466   0.252   1.920  0.1626 -0.3760 -0.3465
  296TMC3     O 4463   4.352   0.209   1.903  0.4245 -0.0660  0.5352
  296TMC3     H 4464   4.593   0.475   1.991  2.3714  0.3949  0.1387
  296TMC3    H1 4465   4.399   0.122   2.130 -0.2845 -0.9299  0.0398
  296TMC3    H2 4466   4.631   0.358   2.397 -1.1464  3.3398 -0.4820
  296TMC3    C7 4467   4.486   0.138   2.384 -0.4584  0.2792  0.3518
  296TMC3    C8 4468   0.005   0.525   2.206 -0.0923  0.3863 -0.2121
  296TMC3    O1 4469   4.561   0.145   2.476 -0.1611 -0.6080 -0.1338
  296TMC3    O2 4470   0.017   0.598   2.110  0.0848 -0.3304 -0.6056
  297MPD2     C 4471   1.546   1.854  16.814  0.5842  0.2979  0.0913
  297MPD2    C1 4472   1.506   1.904  16.691 -0.9180  0.3659  0.3254
  297MPD2    C2 4473   1.574   2.022  16.648  0.3575 -0.6127 -0.1099
  297MPD2    C3 4474   1.669   2.083  16.724 -0.2943 -0.1179  0.1010
  297MPD2    C4 4475   1.712   2.020  16.840 -0.4261 -0.1781 -0.4483
  297MPD2    C5 4476   1.656   1.909  16.874 -0.7924 -0.1978 -0.4227
  297MPD2     H 4477   1.562   2.076  16.554  3.4605 -2.9147 -1.8069
  297MPD2    H1 4478   1.794   2.052  16.903  0.4431 -0.5403 -1.3963
  297MPD2    H2 4479   1.516   1.763  16.865  2.3029 -0.1862  0.2256
  297MPD2    H3 4480   1.698   1.861  16.962 -0.0965 -0.7102 -1.0340
  297MPD2     N 4481   1.729   2.200  16.676  0.1616  0.5485  0.0101
  297MPD2    H5 4482   1.698   2.233  16.585  1.3113 -0.4195 -0.7287
  297MPD2    N1 4483   1.405   1.847  16.613  0.5385  0.2680 -0.0324
  297MPD2    H7 4484   1.391   1.887  16.521 -1.0227 -1.6544 -0.6245
  298TMC3    C1 4485   1.229   1.716  16.544 -0.2321  0.0107  0.0595
  298TMC3    C2 4486   1.247   1.748  16.416  0.0908  0.6158  0.1194
  298TMC3    C3 4487   1.132   1.761  16.342 -0.4496 -0.3666 -0.3199
  298TMC3    C4 4488   1.110   1.709  16.609  0.0626 -0.1108 -0.0072
  298TMC3    C5 4489   0.997   1.722  16.534  0.3964  0.6341  0.2292
  298TMC3    C6 4490   1.011   1.741  16.399 -0.9779 -0.8230 -0.2212
  298TMC3     C 4491   1.337   1.732  16.641 -0.2064  0.4533  0.8410
  298TMC3     O 4492   1.327   1.678  16.749 -0.5049  0.1028  0.3504
  298TMC3     H 4493   1.346   1.740  16.371 -0.4302 -1.4512 -0.6527
  298TMC3    H1 4494   1.110   1.705  16.718 -1.1656 -1.6485 -0.0558
  298TMC3    H2 4495   0.925   1.767  16.339  0.6034  0.7909 -1.7942
  298TMC3    C7 4496   0.871   1.765  16.592 -0.1601  0.4419  0.6091
  298TMC3    C8 4497   1.134   1.824  16.205  0.1424  1.4597 -0.4762
  298TMC3    O1 4498   0.874   1.853  16.678  1.0434 -0.3064 -0.0313
  298TMC3    O2 4499   1.027   1.834  16.146 -0.2776  0.0096  0.1924
  299MPD2     C 4500   2.736   0.811  10.525  0.2165 -0.2228 -0.2606
  299MPD2    C1 4501   2.641   0.861  10.605 -0.5437  0.0638 -0.1700
  299MPD2    C2 4502   2.509   0.810  10.587  0.6184  0.4473 -0.4741
  299MPD2    C3 4503   2.479   0.722  10.485  0.0401 -0.0343 -0.8381
  299MPD2    C4 4504   2.578   0.685  10.405  0.2610 -0.4836  0.6157
  299MPD2    C5 4505   2.706   0.726  10.415 -0.8638 -0.5702  0.7297
  299MPD2     H 4506   2.434   0.839  10.660  0.2351 -3.0433  0.5317
  299MPD2    H1 4507   2.555   0.635  10.312 -2.7468  0.7537  0.7102
  299MPD2    H2 4508   2.842   0.826  10.541  0.0981  1.8642 -1.4044
  299MPD2    H3 4509   2.778   0.688  10.344 -1.0059  0.6432 -0.0582
  299MPD2     N 4510   2.349   0.662  10.458 -0.7495  0.5893 -0.3226
  299MPD2    H5 4511   2.338   0.601  10.378 -2.8527 -0.2716  0.6206
  299MPD2    N1 4512   2.681   0.946  10.712  0.0725  0.6851 -0.8716
  299MPD2    H7 4513   2.782   0.949  10.725  0.0287 -1.4762 -0.0359
  300TMC3    C1 4514   2.116   0.641  10.491 -0.4260 -0.1627  0.5255
  300TMC3    C2 4515   2.089   0.711  10.381 -0.6522 -0.7333  1.0716
  300TMC3    C3 4516   1.965   0.753  10.357 -0.4270  0.5503 -0.8203
  300TMC3    C4 4517   2.023   0.633  10.587  0.4753  0.3784  0.3709
  300TMC3    C5 4518   1.900   0.681  10.568 -0.6123 -0.1670 -0.2927
  300TMC3    C6 4519   1.862   0.736  10.454  0.6283  0.7931  0.5062
  300TMC3     C 4520   2.245   0.674  10.546  0.7933  0.2802 -0.4535
  300TMC3     O 4521   2.230   0.733  10.652 -0.2977 -0.0832 -0.3823
  300TMC3     H 4522   2.164   0.742  10.309 -0.2265  0.1062  1.8803
  300TMC3    H1 4523   2.044   0.578  10.678 -0.5349 -0.1327  0.2949
  300TMC3    H2 4524   1.770   0.793  10.445  0.7306  0.6230 -1.6097
  300TMC3    C7 4525   1.849   0.776  10.669  0.2636 -0.6806 -0.6064
  300TMC3    C8 4526   1.958   0.884  10.306 -0.1023 -0.6256 -0.0230
  300TMC3    O1 4527   1.726   0.797  10.679 -0.1904 -0.1842  0.2827
  300TMC3    O2 4528   2.068   0.940  10.298  0.0114 -0.0538 -0.1423
  301MPD2     C 4529   4.178   3.037   1.893  0.0025 -0.3880 -0.0560
  301MPD2    C1 4530   4.082   2.942   1.867 -0.0771  0.3321 -0.4242
  301MPD2    C2 4531   4.115   2.813   1.839 -0.3724 -0.1027  0.2697
  301MPD2    C3 4532   4.244   2.767   1.852 -0.1544 -0.1376 -0.2377
  301MPD2    C4 4533   4.338   2.856   1.880 -0.1477  0.1549  0.2187
  301MPD2    C5 4534   4.302   2.989   1.909 -0.3887  0.0046 -0.4341
  301MPD2     H 4535   4.035   2.741   1.824  0.5955 -0.8569 -1.3418
  301MPD2    H1 4536   4.441   2.826   1.891 -0.4840 -0.0084  2.7635
  301MPD2    H2 4537   4.167   3.144   1.903  0.1396 -0.2703 -1.1575
  301MPD2    H3 4538   4.383   3.056   1.934  0.3242 -0.3183 -1.8654
  301MPD2     N 4539   4.279   2.634   1.832 -0.0730  0.7038  0.7239
  301MPD2    H5 4540   4.378   2.611   1.843 -0.2077 -0.4887 -0.4959
  301MPD2    N1 4541   3.942   2.978   1.867 -0.6205 -0.2320 -0.1389
  301MPD2    H7 4542   3.877   2.906   1.836 -0.0949 -0.6314 -0.3032
  302TMC3    C1 4543   4.261   2.406   1.775  0.0500  0.0376 -0.2856
  302TMC3    C2 4544   4.393   2.385   1.804  0.7698  0.2995 -0.2024
  302TMC3    C3 4545   4.449   2.261   1.772  0.4433 -1.0325 -0.3997
  302TMC3    C4 4546   4.197   2.315   1.700 -1.0684 -0.2688 -0.3154
  302TMC3    C5 4547   4.252   2.197   1.657  0.1481  0.8169  0.6407
  302TMC3    C6 4548   4.376   2.168   1.708 -0.1255  0.6588  0.2736
  302TMC3     C 4549   4.194   2.533   1.804 -0.1746  0.3343  0.4001
  302TMC3     O 4550   4.074   2.517   1.804  0.2972  0.1277 -0.0492
  302TMC3     H 4551   4.450   2.465   1.852  0.9073  0.3656 -0.4719
  302TMC3    H1 4552   4.091   2.329   1.684 -2.0330 -1.1218  5.0345
  302TMC3    H2 4553   4.434   2.078   1.689  1.1066  1.3335  0.8403
  302TMC3    C7 4554   4.210   2.120   1.548  0.1775  0.4962 -0.7091
  302TMC3    C8 4555   4.567   2.211   1.841 -0.2672 -0.1732 -0.4805
  302TMC3    O1 4556   4.259   2.015   1.528  0.0879  0.1665 -0.4038
  302TMC3    O2 4557   4.627   2.120   1.792 -0.0201  0.1110 -0.4515
  303MPD2     C 4558   4.675   0.740  10.906 -0.3609 -0.5054 -0.0391
  303MPD2    C1 4559   4.626   0.617  10.863 -0.3122 -0.0076  0.2317
  303MPD2    C2 4560   4.617   0.594  10.730 -0.1710  0.4765  0.3958
  303MPD2    C3 4561   4.653   0.685  10.633  0.1099 -0.3991  0.0991
  303MPD2    C4 4562   4.700   0.809  10.673  0.5949 -1.0537 -0.3970
  303MPD2    C5 4563   4.706   0.833  10.812  0.2645 -0.3652 -0.0004
  303MPD2     H 4564   4.577   0.496  10.710  0.5331  0.5418 -1.3225
  303MPD2    H1 4565   0.005   0.895  10.614  1.5363  0.1348  1.7920
  303MPD2    H2 4566   4.689   0.762  11.011  0.1131 -1.6880  0.1383
  303MPD2    H3 4567   0.014   0.928  10.853  0.9061 -0.0899 -1.1272
  303MPD2     N 4568   4.661   0.661  10.493  0.5505 -0.1320 -0.0416
  303MPD2    H5 4569   4.700   0.727  10.426  1.6357 -0.6593  0.0735
  303MPD2    N1 4570   4.591   0.530  10.969  0.2608  0.3654  0.2211
  303MPD2    H7 4571   4.611   0.567  11.061  1.9651  0.6120 -0.2485
  304TMC3    C1 4572   4.489   0.342  11.076 -0.7930 -0.4863 -0.3341
  304TMC3    C2 4573   4.382   0.410  11.121  0.5370 -0.0262  0.7756
  304TMC3    C3 4574   4.290   0.335  11.185 -0.5048 -0.3044 -0.3139
  304TMC3    C4 4575   4.518   0.207  11.102  0.1586  0.5628  0.0364
  304TMC3    C5 4576   4.426   0.136  11.174 -0.3343  0.0269  0.0538
  304TMC3    C6 4577   4.316   0.204  11.225  0.3895  0.2043  0.6471
  304TMC3     C 4578   4.547   0.400  10.955 -0.0671 -0.4797  0.3459
  304TMC3     O 4579   4.561   0.320  10.863 -0.7540  0.2069  0.4914
  304TMC3     H 4580   4.357   0.506  11.078 -0.5005 -1.5401 -2.0191
  304TMC3    H1 4581   4.586   0.160  11.032 -0.9843 -1.4981  0.2988
  304TMC3    H2 4582   4.238   0.145  11.273 -3.4820  4.3222 -0.5652
  304TMC3    C7 4583   4.387   4.722  11.136  0.0467 -0.7937  0.1135
  304TMC3    C8 4584   4.160   0.354  11.145  0.5838  0.6308  0.3932
  304TMC3    O1 4585   4.263   4.701  11.130  0.3427 -0.7118 -0.4611
  304TMC3    O2 4586   4.110   0.467  11.142 -0.8776 -0.0019  0.2837
  305MPD2     C 4587   2.388   3.313  14.329  0.5218  0.5361 -0.1386
  305MPD2    C1 4588   2.418   3.183  14.308 -0.2629 -0.0835  0.8094
  305MPD2    C2 4589   2.373   3.116  14.196  0.1062 -0.0208 -0.8798
  305MPD2    C3 4590   2.292   3.189  14.105  0.8721  0.3534 -0.1440
  305MPD2    C4 4591   2.262   3.317  14.127 -0.5066  0.0512  0.4065
  305MPD2    C5 4592   2.305   3.380  14.243 -0.5274  0.1237 -0.3393
  305MPD2     H 4593   2.399   3.013  14.177 -0.3540  0.0075 -1.6857
  305MPD2    H1 4594   2.197   3.366  14.056  0.5343 -0.6269 -1.0151
  305MPD2    H2 4595   2.425   3.368  14.415  1.1301 -0.1716  0.0562
  305MPD2    H3 4596   2.276   3.482  14.264 -0.9323 -0.0213 -0.1885
  305MPD2     N 4597   2.245   3.129  13.988 -0.1855 -1.0564  0.2156
  305MPD2    H5 4598   2.179   3.181  13.931 -0.1858  0.3687  1.5208
  305MPD2    N1 4599   2.493   3.122  14.403 -0.3943  0.7022 -0.8100
  305MPD2    H7 4600   2.542   3.190  14.461 -0.3370  0.2868 -0.3808
  306TMC3    C1 4601   2.592   2.982  14.548 -0.3970 -0.4507 -0.5173
  306TMC3    C2 4602   2.641   2.862  14.592 -0.4045 -0.3640  0.5302
  306TMC3    C3 4603   2.682   2.851  14.725  0.6391  0.1579  0.4476
  306TMC3    C4 4604   2.563   3.082  14.648 -0.4289 -0.1839 -0.2342
  306TMC3    C5 4605   2.600   3.069  14.777 -0.0466 -0.0618 -0.2931
  306TMC3    C6 4606   2.659   2.952  14.817  0.6831 -0.2446  0.1461
  306TMC3     C 4607   2.519   2.989  14.427 -0.0585  0.8251  0.1510
  306TMC3     O 4608   2.491   2.884  14.374  0.0376 -0.1065 -0.0460
  306TMC3     H 4609   2.660   2.784  14.519 -0.5405  0.1935 -0.0970
  306TMC3    H1 4610   2.515   3.179  14.633  0.4448  0.2271 -0.3542
  306TMC3    H2 4611   2.695   2.945  14.919 -1.9448 -0.7315  1.0572
  306TMC3    C7 4612   2.583   3.173  14.873 -0.1271 -0.1876 -0.5660
  306TMC3    C8 4613   2.746   2.728  14.769 -0.4696 -0.8877  0.7196
  306TMC3    O1 4614   2.490   3.249  14.848 -0.0298 -0.2726 -0.0251
  306TMC3    O2 4615   2.820   2.674  14.687 -0.2516 -0.7871  0.1258
  307MPD2     C 4616   0.583   0.903   0.662  0.7216  0.3645 -0.5073
  307MPD2    C1 4617   0.455   0.915   0.624 -0.3237 -0.0813  0.0309
  307MPD2    C2 4618   0.362   0.949   0.721  0.2135  0.0206  0.0991
  307MPD2    C3 4619   0.402   0.977   0.850  0.2645  0.2432  0.1321
  307MPD2    C4 4620   0.539   0.965   0.883  0.1582  0.2013 -0.3197
  307MPD2    C5 4621   0.630   0.923   0.790 -0.1947  0.6510  0.7757
  307MPD2     H 4622   0.260   0.975   0.694  1.0332  1.1407 -1.9198
  307MPD2    H1 4623   0.575   1.009   0.975  0.4689 -0.8150  0.0504
  307MPD2    H2 4624   0.667   0.884   0.597 -0.4083 -1.7580 -1.3532
  307MPD2    H3 4625   0.735   0.916   0.814  0.4419 -0.9627 -2.4538
  307MPD2     N 4626   0.308   1.039   0.935  0.2883 -0.1260  0.4200
  307MPD2    H5 4627   0.214   1.049   0.898 -0.3463 -0.6719  1.8889
  307MPD2    N1 4628   0.418   0.921   0.488 -0.1843 -0.3609 -0.1409
  307MPD2    H7 4629   0.317   0.928   0.474 -0.2228 -0.5902  0.0359
  308TMC3    C1 4630   4.709   1.196   1.056  0.1776  0.3765  0.1689
  308TMC3    C2 4631   4.715   1.321   1.104 -0.3849 -0.3252 -0.2172
  308TMC3    C3 4632   0.109   1.378   1.152 -0.2043 -0.3869 -0.1510
  308TMC3    C4 4633   0.099   1.122   1.051 -0.4913  0.1805 -0.0353
  308TMC3    C5 4634   0.214   1.171   1.100  0.2265  0.6709 -0.2922
  308TMC3    C6 4635   0.221   1.297   1.152  0.0443  0.5398  0.5918
  308TMC3     C 4636   4.612   1.153   0.956 -0.3732 -0.3988 -0.9404
  308TMC3     O 4637   4.650   1.069   0.875 -0.2447 -0.5617  0.1100
  308TMC3     H 4638   4.625   1.379   1.121 -0.5438 -0.9480  1.0471
  308TMC3    H1 4639   0.087   1.020   1.016  2.3045 -1.1728  2.9263
  308TMC3    H2 4640   0.318   1.341   1.173  0.5145 -1.0209  1.6207
  308TMC3    C7 4641   0.340   1.109   1.052 -0.2855 -0.2910 -0.3074
  308TMC3    C8 4642   0.140   1.513   1.092 -0.3824  0.3222 -0.1338
  308TMC3    O1 4643   0.452   1.147   1.091  0.0605  0.1050 -0.5053
  308TMC3    O2 4644   0.252   1.551   1.117  0.2894  0.2426 -0.2628
  309MPD2     C 4645   4.064   1.556  17.375 -0.2888  0.6344  0.2736
  309MPD2    C1 4646   3.994   1.614  17.271 -0.6105 -0.7171  0.3639
  309MPD2    C2 4647   3.856   1.637  17.300  0.7550  0.0210 -0.2534
  309MPD2    C3 4648   3.790   1.602  17.411  0.1464 -0.2784 -0.6305
  309MPD2    C4 4649   3.869   1.545  17.513  0.0731 -0.0387 -0.2689
  309MPD2    C5 4650   4.004   1.523  17.494  0.1067  0.6290 -0.3990
  309MPD2     H 4651   3.806   1.687  17.218  0.1433  0.4451  0.3818
  309MPD2    H1 4652   3.826   1.528  17.611  2.4422 -1.1020  0.5937
  309MPD2    H2 4653   4.170   1.537  17.362 -0.4624 -0.4840  0.4582
  309MPD2    H3 4654   4.063   1.477  17.573  2.3072 -0.2098 -2.5354
  309MPD2     N 4655   3.651   1.623  17.432 -0.2673 -0.5048 -0.5244
  309MPD2    H5 4656   3.632   1.622  17.532  1.2325 -1.2552 -0.2566
  309MPD2    N1 4657   4.057   1.653  17.142  0.1432 -0.5303  0.0348
  309MPD2    H7 4658   3.990   1.689  17.076  1.3130 -1.4490 -1.6469
  310TMC3    C1 4659   4.231   1.686  16.985 -0.0504  0.1245 -0.5260
  310TMC3    C2 4660   4.171   1.794  16.933  0.2237 -0.2476  0.1693
  310TMC3    C3 4661   4.201   1.803  16.802 -0.0688  0.1841  0.0093
  310TMC3    C4 4662   4.336   1.617  16.933  0.1831 -0.0900  0.3497
  310TMC3    C5 4663   4.354   1.630  16.801 -0.4414  0.1100 -0.5636
  310TMC3    C6 4664   4.283   1.721  16.731  0.4740  0.1393 -0.0609
  310TMC3     C 4665   4.187   1.644  17.111 -0.8962  0.0941  0.0433
  310TMC3     O 4666   4.270   1.584  17.173 -0.2992  0.1319 -0.2991
  310TMC3     H 4667   4.087   1.849  16.974 -0.3435 -0.3207 -0.9063
  310TMC3    H1 4668   4.387   1.537  16.984  0.3190  0.9579  1.8495
  310TMC3    H2 4669   4.311   1.742  16.629  1.5189  0.1444  0.2201
  310TMC3    C7 4670   4.451   1.552  16.730  0.5710 -0.9276  0.2397
  310TMC3    C8 4671   4.123   1.896  16.718  0.5803 -0.2214  0.0998
  310TMC3    O1 4672   4.419   1.541  16.610  0.3333  0.0675 -0.1195
  310TMC3    O2 4673   4.097   1.874  16.599 -0.5218  0.0128 -0.1060
  311MPD2     C 4674   1.639   2.079  13.276 -0.1223 -0.1898  0.0433
  311MPD2    C1 4675   1.588   2.199  13.315  0.0108  0.4834  0.2803
  311MPD2    C2 4676   1.472   2.193  13.386 -0.2381 -0.0656 -0.1313
  311MPD2    C3 4677   1.404   2.074  13.416 -0.6458 -0.1492  0.1406
  311MPD2    C4 4678   1.464   1.954  13.385 -0.1655  0.3190 -0.0955
  311MPD2    C5 4679   1.583   1.960  13.316  0.9428  0.6451 -0.5607
  311MPD2     H 4680   1.433   2.287  13.423  0.4220 -0.2111  0.9259
  311MPD2    H1 4681   1.426   1.856  13.413  0.0481 -0.1990 -1.6273
  311MPD2    H2 4682   1.731   2.075  13.219 -0.4569  1.6882 -0.6433
  311MPD2    H3 4683   1.631   1.869  13.282 -0.2106 -0.4824  0.8330
  311MPD2     N 4684   1.284   2.078  13.484 -0.0666  0.1597  0.0436
  311MPD2    H5 4685   1.240   2.169  13.495 -0.4503 -0.4008  3.3771
  311MPD2    N1 4686   1.645   2.324  13.295  0.1072 -0.0343 -0.3560
  311MPD2    H7 4687   1.591   2.404  13.325 -0.5210 -1.4873  2.4348
  312TMC3    C1 4688   1.096   2.027  13.583  0.5142  0.8681  0.1023
  312TMC3    C2 4689   0.992   2.046  13.491 -0.4239 -1.0369  0.9085
  312TMC3    C3 4690   0.898   2.145  13.521  0.3017  0.6641 -0.4766
  312TMC3    C4 4691   1.107   2.111  13.694  0.0469  0.8283 -0.6632
  312TMC3    C5 4692   1.005   2.202  13.717  0.1744  0.5572  0.1876
  312TMC3    C6 4693   0.906   2.232  13.630 -0.7553 -0.8390 -0.6993
  312TMC3     C 4694   1.211   1.973  13.521 -0.1938  0.0031 -0.4349
  312TMC3     O 4695   1.216   1.861  13.474 -0.4428 -0.1494 -0.3239
  312TMC3     H 4696   1.017   2.002  13.395 -0.4774 -1.0990  0.9233
  312TMC3    H1 4697   1.194   2.113  13.759 -0.8674 -3.1287  0.7240
  312TMC3    H2 4698   0.821   2.291  13.661 -0.2762  0.1925 -1.3824
  312TMC3    C7 4699   1.015   2.291  13.833 -0.0835 -1.1674  0.5960
  312TMC3    C8 4700   0.806   2.173  13.413  0.1995 -0.1324 -0.4210
  312TMC3    O1 4701   0.984   2.405  13.822  0.4471  0.1505 -0.0253
  312TMC3    O2 4702   0.802   2.083  13.328 -0.5787  0.0530  0.3088
  313MPD2     C 4703   1.391   1.317  10.868 -0.2884 -0.6913 -0.5538
  313MPD2    C1 4704   1.259   1.304  10.892 -0.5997 -0.2299 -0.0758
  313MPD2    C2 4705   1.198   1.191  10.854  0.0473 -0.4219  0.2336
  313MPD2    C3 4706   1.247   1.111  10.749  0.2167  0.8667  0.4460
  313MPD2    C4 4707   1.380   1.125  10.718 -0.3532 -0.4005 -0.5430
  313MPD2    C5 4708   1.451   1.228  10.784  0.6542 -0.4235 -0.3289
  313MPD2     H 4709   1.096   1.169  10.884 -0.0189  1.7188  1.5990
  313MPD2    H1 4710   1.426   1.056  10.648  1.7473 -0.5205  0.9581
  313MPD2    H2 4711   1.448   1.401  10.906 -1.1056  0.1453 -1.2009
  313MPD2    H3 4712   1.558   1.236  10.773  0.9802 -0.7139  2.4508
  313MPD2     N 4713   1.158   1.026  10.682  0.3985 -0.2436  0.3373
  313MPD2    H5 4714   1.061   1.034  10.709  0.1965  3.1305 -1.3597
  313MPD2    N1 4715   1.183   1.393  10.967  0.3122  0.2596  0.7863
  313MPD2    H7 4716   1.091   1.367  11.000  0.4628 -1.0837  0.1459
  314TMC3    C1 4717   1.130   1.594  11.060 -0.3762  0.2174  0.4850
  314TMC3    C2 4718   1.178   1.701  11.133  0.0464  0.0256  0.2775
  314TMC3    C3 4719   1.114   1.821  11.140 -0.2009 -0.3741  0.5585
  314TMC3    C4 4720   1.014   1.613  10.992 -0.5392  0.4094  0.1166
  314TMC3    C5 4721   0.945   1.726  11.010  0.0292 -0.4576  0.8204
  314TMC3    C6 4722   0.988   1.830  11.095 -0.1218  0.0930  0.3654
  314TMC3     C 4723   1.228   1.518  10.992 -0.0829  0.2864 -0.9573
  314TMC3     O 4724   1.320   1.586  10.951  0.0469  0.3673 -0.2450
  314TMC3     H 4725   1.269   1.694  11.192 -0.5004 -1.5191  0.9503
  314TMC3    H1 4726   0.980   1.536  10.924 -2.1300 -0.8127  2.2712
  314TMC3    H2 4727   0.936   1.925  11.098 -0.0949  0.0456  2.0036
  314TMC3    C7 4728   0.861   1.759  10.897 -0.1938 -0.3235 -0.2962
  314TMC3    C8 4729   1.196   1.931  11.108 -0.4430  0.1068  0.1381
  314TMC3    O1 4730   0.762   1.687  10.884  0.6113  0.5658  0.4327
  314TMC3    O2 4731   1.150   2.045  11.119  0.1786  0.7396  0.3591
  315MPD2     C 4732   0.132   1.604   0.575 -0.6542 -0.1206 -0.3259
  315MPD2    C1 4733   0.263   1.617   0.624  0.9976 -0.7099 -0.0032
  315MPD2    C2 4734   0.343   1.712   0.561 -1.1138 -0.4070 -0.5216
  315MPD2    C3 4735   0.293   1.791   0.455 -0.1196 -0.1171  0.0580
  315MPD2    C4 4736   0.163   1.779   0.412  0.3174  0.9447  0.4163
  315MPD2    C5 4737   0.081   1.686   0.476  0.2243 -0.8104  0.1425
  315MPD2     H 4738   0.449   1.720   0.581 -1.6103 -0.6829  2.2049
  315MPD2    H1 4739   0.122   1.835   0.329 -1.9989 -1.2921  0.0401
  315MPD2    H2 4740   0.059   1.541   0.624 -2.1479  1.3302 -0.6641
  315MPD2    H3 4741   4.706   1.658   0.445 -0.2511 -1.0132  1.8560
  315MPD2     N 4742   0.384   1.887   0.408 -0.3532 -0.3710 -0.0505
  315MPD2    H5 4743   0.469   1.891   0.462 -0.6322  2.3947  0.2105
  315MPD2    N1 4744   0.321   1.525   0.713 -0.7903 -0.0192  0.1312
  315MPD2    H7 4745   0.410   1.553   0.752 -0.2833  0.2950 -1.2725
  316TMC3    C1 4746   0.476   2.070   0.273  0.5156  0.5587 -0.2713
  316TMC3    C2 4747   0.521   2.144   0.370  0.4491 -0.4816 -0.3641
  316TMC3    C3 4748   0.583   2.262   0.341  0.3421 -0.3092 -0.3947
  316TMC3    C4 4749   0.480   2.117   0.141  0.2514 -0.4726 -0.1467
  316TMC3    C5 4750   0.539   2.235   0.109  0.3003  0.6075  0.1058
  316TMC3    C6 4751   0.599   2.305   0.210 -0.1182 -0.2768 -0.9019
  316TMC3     C 4752   0.365   1.979   0.299  0.2630  0.1490 -0.5488
  316TMC3     O 4753   0.260   2.002   0.241  0.3691 -0.2693  0.3143
  316TMC3     H 4754   0.490   2.132   0.472  0.5066 -0.5318 -0.3527
  316TMC3    H1 4755   0.424   2.069   0.062 -2.2656  1.1085  0.7099
  316TMC3    H2 4756   0.640   2.404   0.193 -1.7354  0.7720  1.2761
  316TMC3    C7 4757   0.596   2.255  17.676  1.3502  0.5015 -0.1774
  316TMC3    C8 4758   0.688   2.310   0.429 -0.1087 -0.1669 -0.2236
  316TMC3    O1 4759   0.694   2.326  17.678  0.4862  0.3156 -0.4498
  316TMC3    O2 4760   0.720   2.427   0.428 -0.6871  0.1548 -0.5504
  317MPD2     C 4761   2.521   4.275  12.735  0.2802 -1.1922 -0.3449
  317MPD2    C1 4762   2.619   4.211  12.799 -0.0101  0.3813 -0.3206
  317MPD2    C2 4763   2.602   4.181  12.935  0.6586  0.4273 -0.4307
  317MPD2    C3 4764   2.488   4.224  13.002  0.1143 -1.3672  0.0785
  317MPD2    C4 4765   2.393   4.299  12.935  0.0106  0.2028  0.3734
  317MPD2    C5 4766   2.415   4.322  12.798 -0.7097 -0.1585 -0.9200
  317MPD2     H 4767   2.686   4.139  12.991  1.4278 -1.2842 -2.8642
  317MPD2    H1 4768   2.306   4.345  12.981 -0.5028  0.0170 -0.4110
  317MPD2    H2 4769   2.535   4.312  12.634  2.8089 -1.0665  0.0679
  317MPD2    H3 4770   2.346   4.386  12.745  0.5222  2.5011  0.6732
  317MPD2     N 4771   2.478   4.183  13.135 -0.2475 -0.9241  0.4604
  317MPD2    H5 4772   2.545   4.114  13.164  1.2557 -0.0286 -0.8850
  317MPD2    N1 4773   2.738   4.167  12.740  0.4189  0.1373  0.0061
  317MPD2    H7 4774   2.803   4.121  12.804  2.0770  0.7529 -1.2508
  318TMC3    C1 4775   2.471   4.227  13.359 -0.2395 -0.1806 -1.0831
  318TMC3    C2 4776   2.447   4.106  13.410  0.1266 -0.2537 -0.6590
  318TMC3    C3 4777   2.543   4.053  13.493 -0.2367  0.3261 -1.3101
  318TMC3    C4 4778   2.598   4.280  13.380  0.0037  0.5402 -0.1471
  318TMC3    C5 4779   2.689   4.212  13.466 -0.3579  0.1766  0.7486
  318TMC3    C6 4780   2.668   4.099  13.520  0.8970  0.8077  0.3007
  318TMC3     C 4781   2.417   4.264  13.230 -0.4449  0.2244  0.1287
  318TMC3     O 4782   2.382   4.381  13.211  0.1349  0.3198 -0.4702
  318TMC3     H 4783   2.353   4.062  13.379 -0.5319  0.5697  0.1583
  318TMC3    H1 4784   2.613   4.376  13.331  0.3362  0.3603 -0.3952
  318TMC3    H2 4785   2.731   4.054  13.595  0.4068  0.8261  0.7218
  318TMC3    C7 4786   2.824   4.242  13.422  0.3101 -0.6647 -0.5949
  318TMC3    C8 4787   2.507   3.930  13.563 -0.0366  0.5647  0.0109
  318TMC3    O1 4788   2.838   4.278  13.309  0.5069 -0.1505 -0.3498
  318TMC3    O2 4789   2.561   3.897  13.666  0.0985 -0.1948  0.8873
  319MPD2     C 4790   3.651   1.439  16.929  0.0701 -0.3626  0.7333
  319MPD2    C1 4791   3.575   1.348  16.995 -0.1211  0.3279  0.1850
  319MPD2    C2 4792   3.450   1.326  16.949 -0.4963 -0.7700  0.2861
  319MPD2    C3 4793   3.403   1.396  16.842 -0.4858 -0.7350 -0.6805
  319MPD2    C4 4794   3.481   1.486  16.775 -0.2993  0.1718 -0.1294
  319MPD2    C5 4795   3.613   1.504  16.816  0.5397 -0.0589  0.3772
  319MPD2     H 4796   3.390   1.262  17.014 -0.1701 -0.3549  0.9856
  319MPD2    H1 4797   3.443   1.532  16.684  0.5391 -0.1406 -0.6413
  319MPD2    H2 4798   3.750   1.466  16.965 -0.9338  2.1409  1.6358
  319MPD2    H3 4799   3.682   1.564  16.757 -1.3399  1.0485 -0.7066
  319MPD2     N 4800   3.267   1.380  16.793  0.2119  0.1464  0.5563
  319MPD2    H5 4801   3.236   1.451  16.727 -1.2131 -1.4121 -0.4321
  319MPD2    N1 4802   3.621   1.284  17.114 -0.3932  0.6533  0.0575
  319MPD2    H7 4803   3.566   1.213  17.162 -0.6039  1.1117  0.4841
  320TMC3    C1 4804   3.043   1.306  16.772  0.1433  0.3515 -0.2881
  320TMC3    C2 4805   3.022   1.389  16.661  0.3131 -0.2550  0.0622
  320TMC3    C3 4806   2.904   1.369  16.595 -0.5844  0.6191 -0.5223
  320TMC3    C4 4807   2.954   1.218  16.824 -0.5587  0.0223 -0.4307
  320TMC3    C5 4808   2.835   1.211  16.756  0.0780  0.1079 -0.8131
  320TMC3    C6 4809   2.812   1.275  16.639 -0.6426  0.1070 -0.5906
  320TMC3     C 4810   3.176   1.284  16.829  0.6906  0.7978  0.6760
  320TMC3     O 4811   3.191   1.181  16.896 -0.2705 -0.1900  0.3005
  320TMC3     H 4812   3.100   1.455  16.624 -1.1665  1.5890  0.2434
  320TMC3    H1 4813   2.975   1.148  16.904  2.1424  1.4825  0.1246
  320TMC3    H2 4814   2.710   1.271  16.600 -0.9077 -1.3657  0.2678
  320TMC3    C7 4815   2.764   1.087  16.763 -0.1734 -0.7422  0.0545
  320TMC3    C8 4816   2.870   1.453  16.482  0.0216 -0.1271 -0.4522
  320TMC3    O1 4817   2.769   1.012  16.668 -0.2255 -0.3505 -0.0855
  320TMC3    O2 4818   2.954   1.543  16.464  0.0503  0.3422 -0.3809
  321TMC3    C1 4819   3.781   1.225  17.268  0.2146  0.3377 -0.5043
  321TMC3    C2 4820   3.913   1.218  17.296  0.3336  0.5195  0.0201
  321TMC3    C3 4821   3.944   1.214  17.429 -0.6350  0.7021 -0.3318
  321TMC3    C4 4822   3.678   1.221  17.359 -1.2884  0.1492  0.7199
  321TMC3    C5 4823   3.715   1.212  17.487 -0.4312  0.4109 -0.2854
  321TMC3    C6 4824   3.844   1.228  17.527 -0.5194 -0.7078  0.2117
  321TMC3     C 4825   3.751   1.290  17.147  0.4764  0.4351 -0.2786
  321TMC3     O 4826   3.851   1.311  17.082  0.0226  0.4013 -0.7881
  321TMC3     H 4827   3.993   1.200  17.226 -0.3646 -1.7888 -0.1816
  321TMC3    H1 4828   3.573   1.232  17.332 -1.6053  1.4802  2.5261
  321TMC3    H2 4829   3.878   1.237  17.629  1.1793 -0.3254 -0.3963
  321TMC3    C7 4830   3.631   1.149  17.589  0.7740  0.1114  0.7905
  321TMC3    C8 4831   4.046   1.124  17.473  0.1998  0.3581 -0.0061
  321TMC3    O1 4832   3.510   1.173  17.586  0.2495  1.3663  0.4152
  321TMC3    O2 4833   4.012   1.069  17.577 -0.5399  0.3282  0.5117
  322MPD2     C 4834   2.342   2.477  13.586  0.4662 -0.5883 -0.4620
  322MPD2    C1 4835   2.342   2.396  13.699  0.3679 -0.3110  0.0442
  322MPD2    C2 4836   2.341   2.256  13.677  0.8303 -0.7703  0.1829
  322MPD2    C3 4837   2.316   2.215  13.543 -0.0810 -0.4038 -0.5420
  322MPD2    C4 4838   2.330   2.297  13.430  0.4527 -0.0394 -0.8549
  322MPD2    C5 4839   2.337   2.434  13.460  0.5220 -0.1172 -0.0591
  322MPD2     H 4840   2.346   2.193  13.765 -1.3633 -0.4779  0.5221
  322MPD2    H1 4841   2.330   2.259  13.329  0.6746  0.0365 -0.8834
  322MPD2    H2 4842   2.346   2.583  13.608 -0.7633 -0.4955 -0.6893
  322MPD2    H3 4843   2.360   2.505  13.381  0.0384  2.4685  2.1270
  322MPD2     N 4844   2.295   2.078  13.531 -0.6572 -0.1452 -0.5011
  322MPD2    H5 4845   2.301   2.033  13.621 -0.6603  1.1440  0.1437
  322MPD2    N1 4846   2.358   2.465  13.823 -0.1189 -0.2519 -0.0063
  322MPD2    H7 4847   2.362   2.566  13.817 -1.3275 -0.1703  0.5561
  323TMC3    C1 4848   2.371   2.488  14.072  0.6924  0.1272  0.1278
  323TMC3    C2 4849   2.432   2.609  14.055 -0.4351  0.1876 -0.2794
  323TMC3    C3 4850   2.497   2.659  14.172 -0.2902  0.1620 -0.2724
  323TMC3    C4 4851   2.368   2.415  14.190  0.0879 -0.4163  0.4717
  323TMC3    C5 4852   2.435   2.468  14.297 -0.5234 -0.3761 -0.2410
  323TMC3    C6 4853   2.494   2.590  14.290 -0.5348 -0.2609 -0.3506
  323TMC3     C 4854   2.350   2.407  13.952  0.5029 -0.6508  0.7635
  323TMC3     O 4855   2.335   2.288  13.972  0.1019  0.9889  0.2564
  323TMC3     H 4856   2.441   2.662  13.961  0.4127  0.4890 -0.0246
  323TMC3    H1 4857   2.307   2.326  14.202 -0.8474 -0.1757 -2.3538
  323TMC3    H2 4858   2.558   2.626  14.370 -0.4340 -0.8562 -0.1605
  323TMC3    C7 4859   2.495   2.367  14.383  0.6890 -0.8820 -0.3742
  323TMC3    C8 4860   2.616   2.739  14.143  0.3907 -0.3284 -0.2699
  323TMC3    O1 4861   2.483   2.251  14.351  0.1094 -0.3151 -0.2309
  323TMC3    O2 4862   2.713   2.706  14.210 -0.0074  0.8676  0.0761
  324MPD2     C 4863   3.648   3.837  14.832 -0.5052  0.5124 -0.4389
  324MPD2    C1 4864   3.668   3.753  14.942 -0.5723 -0.2292  0.1468
  324MPD2    C2 4865   3.575   3.660  14.976  0.1608 -0.3450  0.0512
  324MPD2    C3 4866   3.461   3.640  14.903 -0.2252 -0.6707  0.1218
  324MPD2    C4 4867   3.432   3.728  14.800  0.2878 -0.1970 -1.1307
  324MPD2    C5 4868   3.527   3.831  14.772 -0.7892 -0.1285  0.0247
  324MPD2     H 4869   3.602   3.594  15.058  0.2350 -1.6624 -1.0367
  324MPD2    H1 4870   3.342   3.727  14.741 -0.5628 -0.9898  0.1761
  324MPD2    H2 4871   3.726   3.901  14.794 -0.1309  0.3528  0.0630
  324MPD2    H3 4872   3.511   3.902  14.692  1.2294 -2.5236 -2.4875
  324MPD2     N 4873   3.360   3.545  14.933  0.2002  0.6265  0.0070
  324MPD2    H5 4874   3.277   3.559  14.876  1.7405  1.4096 -2.0763
  324MPD2    N1 4875   3.789   3.749  15.012 -0.0335 -0.1460 -0.0149
  324MPD2    H7 4876   3.802   3.678  15.084 -2.3676 -2.8532 -2.2946
  325TMC3    C1 4877   3.242   3.384  15.048 -0.4429  0.0197  0.5782
  325TMC3    C2 4878   3.192   3.346  14.927 -0.3386 -0.1904 -0.0051
  325TMC3    C3 4879   3.051   3.345  14.914  0.0957  0.0811  0.0948
  325TMC3    C4 4880   3.156   3.420  15.149  0.1849  0.7183  0.5388
  325TMC3    C5 4881   3.026   3.438  15.129  0.0745  0.2260 -0.7311
  325TMC3    C6 4882   2.977   3.407  15.006 -0.1174 -0.1116  0.1332
  325TMC3     C 4883   3.358   3.462  15.046 -1.3862  0.7042 -0.3210
  325TMC3     O 4884   3.420   3.481  15.152  0.0043 -0.9292  0.2206
  325TMC3     H 4885   3.258   3.304  14.852  0.7206 -1.4707  1.6208
  325TMC3    H1 4886   3.195   3.463  15.241 -2.0809 -1.4618  2.5024
  325TMC3    H2 4887   2.870   3.410  14.987 -0.2261  0.0680  0.7827
  325TMC3    C7 4888   2.968   3.555  15.185  0.5529  0.2825 -0.4833
  325TMC3    C8 4889   2.998   3.284  14.787  0.6300  0.3631  0.2254
  325TMC3    O1 4890   2.988   3.569  15.302 -0.0968 -0.0411 -0.0173
  325TMC3    O2 4891   3.061   3.189  14.741  0.1868 -0.2291  0.4869
  326MPD2     C 4892   0.389   4.216  11.497  0.7961  0.3796  0.2079
  326MPD2    C1 4893   0.483   4.142  11.433 -0.1681  0.1486  0.9706
  326MPD2    C2 4894   0.622   4.174  11.448 -0.1846  0.5365  0.5394
  326MPD2    C3 4895   0.654   4.280  11.531 -0.0072  0.1403 -0.2061
  326MPD2    C4 4896   0.557   4.361  11.582 -0.3308 -0.3108 -0.0721
  326MPD2    C5 4897   0.424   4.331  11.570  0.4641 -0.2481  0.9946
  326MPD2     H 4898   0.692   4.117  11.389 -0.2725 -0.1812  1.1318
  326MPD2    H1 4899   0.585   4.445  11.645  0.3200  1.7405 -3.0683
  326MPD2    H2 4900   0.284   4.189  11.497  0.2911  2.3734  0.8713
  326MPD2    H3 4901   0.344   4.384  11.620 -0.9063 -0.5507 -0.8825
  326MPD2     N 4902   0.788   4.321  11.543  0.2322 -0.4206 -0.5246
  326MPD2    H5 4903   0.811   4.420  11.551 -0.6920 -0.1356 -1.4169
  326MPD2    N1 4904   0.454   4.036  11.344  1.0105  0.4413  0.6148
  326MPD2    H7 4905   0.536   3.980  11.321  0.7584  0.7375 -1.0249
  327TMC3    C1 4906   0.342   3.901  11.195 -0.0445  0.0696 -0.0028
  327TMC3    C2 4907   0.299   3.946  11.075  0.7021  0.3426  0.0864
  327TMC3    C3 4908   0.391   3.967  10.973  0.0953 -0.0149  0.6084
  327TMC3    C4 4909   0.465   3.837  11.203  0.3043  0.3117  0.5283
  327TMC3    C5 4910   0.556   3.860  11.107 -0.1590  0.8817  0.5996
  327TMC3    C6 4911   0.526   3.929  10.992  0.0934  0.8513 -0.8179
  327TMC3     C 4912   0.336   4.014  11.283  0.3608 -0.3440  1.0042
  327TMC3     O 4913   0.227   4.079  11.285 -0.6766  0.3009  0.0481
  327TMC3     H 4914   0.202   3.992  11.066  0.0023 -1.3123 -0.8593
  327TMC3    H1 4915   0.497   3.787  11.293  0.0282  0.0291  0.4684
  327TMC3    H2 4916   0.603   3.957  10.921  1.5239 -0.0814  0.3810
  327TMC3    C7 4917   0.696   3.865  11.157 -0.1499 -0.0470 -0.2760
  327TMC3    C8 4918   0.389   4.100  10.912 -0.3596  0.0243 -0.0519
  327TMC3    O1 4919   0.708   3.887  11.277  0.1667  0.3398 -0.0270
  327TMC3    O2 4920   0.439   4.117  10.805 -0.0489 -0.5695  0.4418
  328MPD2     C 4921   2.864   4.662   0.031  0.4828  0.0251  0.2683
  328MPD2    C1 4922   2.747   4.638  17.657 -0.3003  0.7616  0.2099
  328MPD2    C2 4923   2.705   0.001  17.561  0.6894 -0.1540  0.9511
  328MPD2    C3 4924   2.764   0.125  17.547  0.3347  1.3855 -0.6099
  328MPD2    C4 4925   2.880   0.148  17.613 -0.6711  0.0098 -0.1467
  328MPD2    C5 4926   2.938   0.051   0.001  0.1753  0.4488 -0.0958
  328MPD2     H 4927   2.612   4.714  17.506  0.9410  0.2388  0.4451
  328MPD2    H1 4928   2.944   0.228  17.576 -1.1801 -0.9321 -3.0367
  328MPD2    H2 4929   2.917   4.599   0.102 -2.5690  0.6485  3.0944
  328MPD2    H3 4930   3.034   0.060   0.050  1.3671 -0.5983 -2.2005
  328MPD2     N 4931   2.714   0.229  17.462 -0.2613  0.8713  0.2235
  328MPD2    H5 4932   2.764   0.317  17.476  0.1408  0.7327 -0.3355
  328MPD2    N1 4933   2.672   4.525  17.694 -0.0094  0.5168  0.4686
  328MPD2    H7 4934   2.705   4.467   0.072 -2.4958 -1.5299 -0.0102
  329TMC3    C1 4935   2.458   4.413  17.695 -0.4358  0.5054 -0.2217
  329TMC3    C2 4936   2.332   4.449  17.663 -0.1537  0.3545  0.3319
  329TMC3    C3 4937   2.255   4.480   0.072 -0.1948 -0.0224  0.6739
  329TMC3    C4 4938   2.493   4.378   0.126  0.0207  0.0660  0.4650
  329TMC3    C5 4939   2.409   4.406   0.232  0.4705  0.2995 -0.0468
  329TMC3    C6 4940   2.292   4.466   0.206 -0.0693 -0.0520 -0.3053
  329TMC3     C 4941   2.559   4.482  17.619 -0.2910  0.2233 -0.3473
  329TMC3     O 4942   2.540   4.502  17.500  0.1862 -0.0226 -0.3296
  329TMC3     H 4943   2.311   4.497  17.568  0.8930  3.9258  1.9184
  329TMC3    H1 4944   2.586   4.323   0.139  0.8426  1.4002  0.2098
  329TMC3    H2 4945   2.235   4.515   0.284 -0.7519 -1.8633  0.3546
  329TMC3    C7 4946   2.447   4.388   0.373  0.2287 -0.2140  0.1604
  329TMC3    C8 4947   2.132   4.555   0.045  0.1022  0.0932  0.1938
  329TMC3    O1 4948   2.379   4.452   0.452  0.6354  0.3665 -0.0228
  329TMC3    O2 4949   2.066   4.503  17.655 -0.1033  1.1487 -0.3299
  330TMC3    C1 4950   0.998   3.972   9.497  0.0658  1.1274  0.6964
  330TMC3    C2 4951   0.984   3.847   9.458 -0.3448  0.4441  0.4422
  330TMC3    C3 4952   1.060   3.749   9.512 -0.1492 -0.7802  0.0725
  330TMC3    C4 4953   1.111   3.995   9.576  0.5179  0.4187  0.7538
  330TMC3    C5 4954   1.179   3.888   9.627  0.0463 -0.3161 -0.2909
  330TMC3    C6 4955   1.156   3.757   9.599  0.3386  0.6232  0.8259
  330TMC3     C 4956   0.899   4.067   9.478 -0.4943  0.4312 -0.8440
  330TMC3     O 4957   0.926   4.182   9.505 -0.3395 -0.2486 -0.5128
  330TMC3     H 4958   0.912   3.812   9.385  0.4826  2.1143 -1.1540
  330TMC3    H1 4959   1.149   4.097   9.584 -0.4426  0.8458 -0.0682
  330TMC3    H2 4960   1.223   3.678   9.630 -2.6368 -1.9641  0.7151
  330TMC3    C7 4961   1.264   3.933   9.742  0.1332  0.7235  0.4338
  330TMC3    C8 4962   1.072   3.640   9.419 -0.2040  0.2719 -0.0100
  330TMC3    O1 4963   1.265   4.055   9.766 -0.9964 -0.3052 -0.2930
  330TMC3    O2 4964   1.075   3.682   9.305  0.0169  0.2441 -0.1199
  331MPD2     C 4965   4.148   3.164  12.597 -0.1022 -0.0687  0.1205
  331MPD2    C1 4966   4.196   3.209  12.478  0.0755  0.1212  0.7474
  331MPD2    C2 4967   4.243   3.111  12.387 -1.0802 -0.4238 -0.0385
  331MPD2    C3 4968   4.236   2.974  12.415 -0.2578  0.3842 -0.0382
  331MPD2    C4 4969   4.175   2.941  12.533  0.3872  0.3689  1.0084
  331MPD2    C5 4970   4.138   3.032  12.626  0.2047 -0.8010  0.1643
  331MPD2     H 4971   4.279   3.136  12.288 -1.0887  0.0087  0.0707
  331MPD2    H1 4972   4.161   2.841  12.570  0.4986 -0.2775 -0.7007
  331MPD2    H2 4973   4.127   3.238  12.674  0.1416 -0.2573  0.3708
  331MPD2    H3 4974   4.104   3.000  12.724 -0.4079  0.9544  0.5235
  331MPD2     N 4975   4.296   2.879  12.327 -0.6415 -0.0928  0.2530
  331MPD2    H5 4976   4.354   2.909  12.250 -0.8554  1.4517  0.7034
  331MPD2    N1 4977   4.182   3.343  12.454  0.1695  0.0887 -0.4241
  331MPD2    H7 4978   4.110   3.382  12.515  0.5702  2.1437 -1.2493
  332TMC3    C1 4979   4.331   2.670  12.217  0.8739  0.9259  0.0873
  332TMC3    C2 4980   4.299   2.724  12.092 -0.1476 -0.0963 -0.0156
  332TMC3    C3 4981   4.336   2.653  11.977  0.1631 -0.2250  1.0617
  332TMC3    C4 4982   4.361   2.541  12.218  0.7157  0.5350  0.1172
  332TMC3    C5 4983   4.375   2.466  12.104 -0.1103  0.4108 -0.1729
  332TMC3    C6 4984   4.379   2.521  11.981  0.3782 -0.3593 -0.4379
  332TMC3     C 4985   4.293   2.744  12.335  0.3197 -0.3945 -0.6584
  332TMC3     O 4986   4.262   2.677  12.434 -0.0506 -0.0953  0.3271
  332TMC3     H 4987   4.269   2.827  12.080  0.6605  0.0073 -1.1492
  332TMC3    H1 4988   4.358   2.490  12.314 -0.7389  1.9584  0.8426
  332TMC3    H2 4989   4.407   2.453  11.902  2.3543 -3.5485  3.0133
  332TMC3    C7 4990   4.427   2.335  12.123 -0.2597 -0.0646  0.9301
  332TMC3    C8 4991   4.277   2.696  11.854 -0.2133 -0.6206  0.2708
  332TMC3    O1 4992   4.385   2.247  12.047  0.6347  0.2919 -0.3089
  332TMC3    O2 4993   4.247   2.815  11.837  0.2295  0.3447 -0.2749
  333MPD2     C 4994   3.902   2.566  11.155  0.4024  0.0629 -0.6584
  333MPD2    C1 4995   3.963   2.511  11.044 -0.7604 -0.0685 -0.6085
  333MPD2    C2 4996   3.984   2.376  11.039  0.1254 -0.2173 -0.5190
  333MPD2    C3 4997   3.934   2.287  11.136  0.1119 -0.4023 -0.6955
  333MPD2    C4 4998   3.867   2.343  11.241  0.3169 -0.0171  0.6065
  333MPD2    C5 4999   3.849   2.479  11.250 -0.5496  0.1159  0.1957
  333MPD2     H 5000   4.045   2.325  10.965  0.5895 -1.0760  0.4484
  333MPD2    H1 5001   3.815   2.284  11.315 -1.3198 -0.3240 -0.8071
  333MPD2    H2 5002   3.890   2.673  11.166 -2.8056 -0.5419  1.6159
  333MPD2    H3 5003   3.808   2.522  11.341  1.4099  1.4222  0.4610
  333MPD2     N 5004   3.953   2.146  11.133  0.1306 -0.0120 -0.0357
  333MPD2    H5 5005   3.981   2.106  11.044  0.7003  0.6509 -0.1569
  333MPD2    N1 5006   4.022   2.591  10.946 -0.7465 -0.4221 -0.3924
  333MPD2    H7 5007   4.001   2.689  10.961 -0.9748 -0.8118  1.8597
  334TMC3    C1 5008   4.157   2.668  10.767 -0.1612  0.2166 -0.2926
  334TMC3    C2 5009   4.267   2.643  10.695 -0.0296  0.2557 -0.0628
  334TMC3    C3 5010   4.363   2.741  10.683  0.7303 -0.5313  0.0978
  334TMC3    C4 5011   4.139   2.799  10.817  0.1981 -0.3822 -0.3601
  334TMC3    C5 5012   4.232   2.899  10.787 -0.0605  1.0412 -0.0905
  334TMC3    C6 5013   4.349   2.871  10.730  0.6766 -0.0385  0.9719
  334TMC3     C 5014   4.078   2.555  10.827  0.4391 -0.1241  0.5803
  334TMC3     O 5015   4.072   2.454  10.758 -0.3333 -0.1316 -0.0801
  334TMC3     H 5016   4.284   2.542  10.661  2.0966  0.0512  1.5921
  334TMC3    H1 5017   4.055   2.825  10.880  0.2099 -0.4026 -0.3362
  334TMC3    H2 5018   4.429   2.943  10.714 -0.1890  0.3745 -1.5193
  334TMC3    C7 5019   4.218   3.031  10.829  0.3148 -0.2540  0.7874
  334TMC3    C8 5020   4.494   2.690  10.653  0.0355  0.7233 -0.1466
  334TMC3    O1 5021   4.323   3.091  10.847  0.0068 -0.0622  0.2990
  334TMC3    O2 5022   4.494   2.595  10.573  0.4017  0.1349 -0.1811
  335TMC3    C1 5023   3.263   4.508   0.133 -0.0768 -0.1861 -1.1194
  335TMC3    C2 5024   3.218   4.450   0.017 -0.7361 -0.1230 -0.1508
  335TMC3    C3 5025   3.298   4.440  17.600  0.6829  0.0862 -0.0846
  335TMC3    C4 5026   3.391   4.554   0.130 -0.3454  0.6253 -0.1566
  335TMC3    C5 5027   3.466   4.545   0.007 -0.0246  0.1093 -0.1081
  335TMC3    C6 5028   3.417   4.501  17.586  0.3277  0.1295 -0.5233
  335TMC3     C 5029   3.174   4.529   0.243 -0.9463 -0.6756  0.1034
  335TMC3     O 5030   3.085   4.446   0.255  0.2856 -0.5555  0.8174
  335TMC3     H 5031   3.113   4.422   0.023 -0.2673 -1.6337  1.0481
  335TMC3    H1 5032   3.425   4.585   0.228  0.6988 -0.4963 -0.1595
  335TMC3    H2 5033   3.478   4.480  17.498  0.9524 -3.2185  0.6906
  335TMC3    C7 5034   3.612   4.570  17.699  0.1382 -0.0654 -0.1080
  335TMC3    C8 5035   3.256   4.360  17.487 -0.7090  0.4258 -0.6935
  335TMC3    O1 5036   3.662   4.554  17.590 -0.1550  0.0645  0.1808
  335TMC3    O2 5037   3.317   4.376  17.382  0.6862  0.2932 -0.3920
  336MPD2     C 5038   3.242   2.548  16.394  0.6390  0.4348 -0.2504
  336MPD2    C1 5039   3.190   2.484  16.286 -0.4240 -0.8325  0.1684
  336MPD2    C2 5040   3.205   2.348  16.270  0.0103 -0.0037  0.3034
  336MPD2    C3 5041   3.264   2.281  16.374 -0.6882  0.8696 -1.1774
  336MPD2    C4 5042   3.298   2.342  16.487 -0.0840  0.8475 -0.3270
  336MPD2    C5 5043   3.289   2.477  16.497 -0.2240 -0.6589  0.1793
  336MPD2     H 5044   3.165   2.307  16.178 -1.2960  0.4720  0.6602
  336MPD2    H1 5045   3.326   2.282  16.573 -0.9025 -0.3609 -0.9036
  336MPD2    H2 5046   3.227   2.653  16.417 -0.7912  0.2242 -0.1825
  336MPD2    H3 5047   3.317   2.527  16.589 -1.8619  1.4152 -0.4361
  336MPD2     N 5048   3.262   2.137  16.379 -0.1026  0.6750 -0.7065
  336MPD2    H5 5049   3.269   2.099  16.473  1.7665  1.6940 -0.4409
  336MPD2    N1 5050   3.130   2.561  16.181 -0.8368 -0.0689  0.5749
  336MPD2    H7 5051   3.084   2.510  16.107 -1.5569 -0.5423  1.3347
  337TMC3    C1 5052   3.052   2.731  16.052 -0.5310 -0.7899 -0.2382
  337TMC3    C2 5053   2.938   2.653  16.021 -0.1031  0.4138  0.2208
  337TMC3    C3 5054   2.844   2.722  15.953  0.6539 -0.9928 -0.0052
  337TMC3    C4 5055   3.056   2.862  16.016 -0.1947  0.3324 -0.2551
  337TMC3    C5 5056   2.960   2.919  15.935  0.4599 -0.5654 -0.4408
  337TMC3    C6 5057   2.849   2.848  15.897 -0.2865 -0.1712 -0.2696
  337TMC3     C 5058   3.152   2.691  16.150  0.1967 -0.6731 -0.5639
  337TMC3     O 5059   3.242   2.768  16.186  0.6584  0.3437 -0.2292
  337TMC3     H 5060   2.918   2.556  16.064 -0.0506  0.5838  0.6294
  337TMC3    H1 5061   3.131   2.924  16.065 -0.5584  0.8476 -0.3624
  337TMC3    H2 5062   2.756   2.885  15.855 -1.2525  0.0274  2.0397
  337TMC3    C7 5063   2.971   3.055  15.892  0.2453  0.3149 -0.7865
  337TMC3    C8 5064   2.707   2.666  15.959  0.5562 -0.0256 -0.7425
  337TMC3    O1 5065   3.056   3.133  15.928 -0.8107  0.8358 -0.4707
  337TMC3    O2 5066   2.685   2.600  16.055 -1.0632 -0.3126 -0.3849
  338MPD2     C 5067   3.455   1.584   1.298 -0.5045 -0.6838  0.1488
  338MPD2    C1 5068   3.415   1.551   1.176 -0.1078 -0.6334 -0.3168
  338MPD2    C2 5069   3.287   1.520   1.153 -0.1897 -0.3381 -0.1237
  338MPD2    C3 5070   3.194   1.526   1.253  0.0975 -0.0737  0.7906
  338MPD2    C4 5071   3.231   1.570   1.381 -0.4856 -0.2536 -0.1627
  338MPD2    C5 5072   3.370   1.577   1.403 -0.7967  1.0326  0.2338
  338MPD2     H 5073   3.261   1.493   1.051  1.4597 -0.6796 -0.4519
  338MPD2    H1 5074   3.161   1.589   1.461  0.0221 -2.8115  0.8912
  338MPD2    H2 5075   3.559   1.611   1.312 -0.6206  0.3676 -1.1070
  338MPD2    H3 5076   3.403   1.594   1.505  0.1421 -0.9364  0.2600
  338MPD2     N 5077   3.064   1.496   1.213  0.6011 -0.2935  0.4154
  338MPD2    H5 5078   3.062   1.452   1.122 -2.2803  1.1683 -0.2243
  338MPD2    N1 5079   3.497   1.549   1.060 -0.5692  0.4881  0.1739
  338MPD2    H7 5080   3.446   1.534   0.974 -1.1653  2.5448  0.1575
  339TMC3    C1 5081   2.833   1.543   1.196 -0.4467  0.0658 -1.0880
  339TMC3    C2 5082   2.731   1.619   1.254 -0.4821 -0.3667 -0.1344
  339TMC3    C3 5083   2.642   1.679   1.167  0.2934 -0.0930  0.1086
  339TMC3    C4 5084   2.855   1.543   1.062  0.0133  0.3025 -0.0598
  339TMC3    C5 5085   2.763   1.616   0.987 -1.0928 -0.4382 -0.8300
  339TMC3    C6 5086   2.652   1.674   1.031  0.1333  0.2311  0.9167
  339TMC3     C 5087   2.952   1.536   1.282 -0.8514 -0.3570 -0.2135
  339TMC3     O 5088   2.950   1.581   1.393  0.5311 -0.0686 -0.4323
  339TMC3     H 5089   2.713   1.627   1.361  2.1315 -2.2240  0.4543
  339TMC3    H1 5090   2.939   1.493   1.016 -0.0592 -0.0420  0.1849
  339TMC3    H2 5091   2.591   1.742   0.974  1.3772  1.1455  0.6801
  339TMC3    C7 5092   2.816   1.664   0.862 -0.3024  0.5217 -0.2525
  339TMC3    C8 5093   2.509   1.714   1.222  0.5527  0.3189  0.0498
  339TMC3    O1 5094   2.921   1.602   0.830  0.0928  0.3482  0.8553
  339TMC3    O2 5095   2.413   1.699   1.145  0.2009 -0.2113  0.0934
  340MPD2     C 5096   3.902   4.011  10.228 -0.1156  0.3297  0.1361
  340MPD2    C1 5097   3.921   3.874  10.229  0.2986 -0.1254  0.5531
  340MPD2    C2 5098   3.965   3.806  10.341  0.0632 -0.1846  0.0926
  340MPD2    C3 5099   3.997   3.875  10.454  0.2206  0.8321  0.2958
  340MPD2    C4 5100   3.979   4.009  10.464  0.1398 -0.1258 -0.6056
  340MPD2    C5 5101   3.937   4.074  10.348 -0.0072  0.7573 -0.4544
  340MPD2     H 5102   3.979   3.698  10.346  1.6962  0.0601  0.8050
  340MPD2    H1 5103   4.007   4.062  10.555 -0.6124 -1.0527  0.1714
  340MPD2    H2 5104   3.874   4.068  10.140 -0.5609 -3.1677 -1.9650
  340MPD2    H3 5105   3.924   4.179  10.369 -2.8821 -0.1808  2.4847
  340MPD2     N 5106   4.063   3.828  10.568  0.7207  0.2567  0.0349
  340MPD2    H5 5107   4.092   3.892  10.640  1.4047  0.0609 -0.0708
  340MPD2    N1 5108   3.894   3.811  10.111 -0.2061  0.1153  0.4043
  340MPD2    H7 5109   3.885   3.866  10.026 -1.3790 -0.7270 -0.0222
  341TMC3    C1 5110   3.919   3.644   9.952  0.9476  0.0024  0.0898
  341TMC3    C2 5111   3.869   3.531   9.899 -0.5360  0.1322  0.5806
  341TMC3    C3 5112   3.941   3.451   9.814 -0.4422 -0.0663 -0.7860
  341TMC3    C4 5113   4.037   3.691   9.905  1.0625 -0.0510  0.4696
  341TMC3    C5 5114   4.109   3.613   9.812 -0.2635  0.2671 -0.2621
  341TMC3    C6 5115   4.061   3.492   9.766 -0.4554  0.2038 -0.6105
  341TMC3     C 5116   3.895   3.675  10.093  0.1734 -0.4408  0.1721
  341TMC3     O 5117   3.892   3.579  10.171  0.4807  0.3378 -0.5369
  341TMC3     H 5118   3.783   3.481   9.944 -1.1332  1.5117  0.9901
  341TMC3    H1 5119   4.075   3.785   9.944 -3.1052  0.7987  2.4830
  341TMC3    H2 5120   4.119   3.428   9.702  1.2734  1.2641 -0.1111
  341TMC3    C7 5121   4.250   3.643   9.785 -0.1136 -0.0622  0.1441
  341TMC3    C8 5122   3.894   3.317   9.798  0.3030  0.0240 -0.3813
  341TMC3    O1 5123   4.323   3.550   9.753  0.0790  0.7043 -0.1551
  341TMC3    O2 5124   3.778   3.296   9.763 -0.7557  0.6802  0.5112
  342MPD2     C 5125   1.297   2.834   0.277 -0.1560  0.1198  0.0027
  342MPD2    C1 5126   1.405   2.839   0.198 -0.1752  0.3265  0.1994
  342MPD2    C2 5127   1.462   2.962   0.178  0.8831 -0.2651  0.2004
  342MPD2    C3 5128   1.421   3.073   0.253  0.1920  0.2103  0.1876
  342MPD2    C4 5129   1.311   3.058   0.325 -0.3711  0.2443 -0.2719
  342MPD2    C5 5130   1.254   2.941   0.344 -0.0647 -0.3606 -0.1527
  342MPD2     H 5131   1.550   2.964   0.115 -0.8857  1.1840 -2.2056
  342MPD2    H1 5132   1.270   3.149   0.367  1.1890 -0.0442  1.8426
  342MPD2    H2 5133   1.237   2.744   0.278  1.0550 -0.7207 -2.5747
  342MPD2    H3 5134   1.168   2.927   0.408  0.5872 -2.8254  0.1746
  342MPD2     N 5135   1.489   3.198   0.241  0.0088  0.5103  0.0141
  342MPD2    H5 5136   1.450   3.274   0.297 -0.4582  0.1607  0.1641
  342MPD2    N1 5137   1.462   2.731   0.125  0.0603 -0.5453 -0.1864
  342MPD2    H7 5138   1.517   2.764   0.046  0.9091  0.4195  0.7931
  343TMC3    C1 5139   1.502   2.521   0.048 -0.4322 -0.1733 -0.3591
  343TMC3    C2 5140   1.555   2.574  17.636  0.2500 -0.7300 -0.3448
  343TMC3    C3 5141   1.596   2.494  17.537  0.1371  0.1682  0.1195
  343TMC3    C4 5142   1.491   2.382   0.071 -0.4150  0.2879 -0.5987
  343TMC3    C5 5143   1.525   2.307  17.656  0.5423 -0.1713  0.5227
  343TMC3    C6 5144   1.574   2.355  17.541 -0.1449 -0.3620 -0.7907
  343TMC3     C 5145   1.418   2.601   0.134 -0.4491  0.1032  0.2625
  343TMC3     O 5146   1.361   2.550   0.231 -0.2216 -0.2787  0.0680
  343TMC3     H 5147   1.538   2.677  17.610  0.1672  0.0637  2.7767
  343TMC3    H1 5148   1.463   2.343   0.168 -0.3405 -0.5545 -0.9142
  343TMC3    H2 5149   1.582   2.287  17.456 -2.2716 -1.7898  0.1346
  343TMC3    C7 5150   1.477   2.168  17.644  0.4145  0.2536 -0.3070
  343TMC3    C8 5151   1.665   2.555  17.431  0.0944  0.3275  0.3026
  343TMC3    O1 5152   1.439   2.116  17.538 -0.1119  0.0206  0.0995
  343TMC3    O2 5153   1.636   2.671  17.402 -0.0866 -0.0027  0.1534
  344MPD2     C 5154   3.159   1.427  11.095 -0.7072  0.1624  0.4230
  344MPD2    C1 5155   3.065   1.407  10.992 -0.2154  0.2663  0.1841
  344MPD2    C2 5156   3.058   1.497  10.889  0.1557  0.1265  0.5527
  344MPD2    C3 5157   3.151   1.598  10.877  0.2707 -0.2473 -0.7154
  344MPD2    C4 5158   3.243   1.613  10.978 -0.0973  0.4263 -0.1840
  344MPD2    C5 5159   3.243   1.535  11.083 -0.5988  0.2257  0.0308
  344MPD2     H 5160   2.981   1.483  10.814  1.0922  1.3112 -0.6236
  344MPD2    H1 5161   3.315   1.695  10.974 -1.6330  1.8251  0.6360
  344MPD2    H2 5162   3.169   1.364  11.183 -1.7703  0.5692  0.8325
  344MPD2    H3 5163   3.303   1.558  11.170 -0.5183 -0.0783  0.0551
  344MPD2     N 5164   3.157   1.690  10.765 -0.3191  0.2109 -0.3790
  344MPD2    H5 5165   3.238   1.750  10.755 -0.3727  0.1153 -1.3443
  344MPD2    N1 5166   2.972   1.304  10.991 -0.9952 -0.8443  0.2559
  344MPD2    H7 5167   2.905   1.318  10.916 -2.4882 -0.3377  1.6926
  345TMC3    C1 5168   3.110   1.808  10.573 -0.1720 -0.2787  0.4126
  345TMC3    C2 5169   3.212   1.893  10.607  0.1972  0.4311  0.3320
  345TMC3    C3 5170   3.282   1.960  10.511  0.0147  0.0656  0.9192
  345TMC3    C4 5171   3.065   1.806  10.449 -0.4803 -0.3076  0.2599
  345TMC3    C5 5172   3.139   1.860  10.348  0.4893 -0.4999 -0.1373
  345TMC3    C6 5173   3.248   1.940  10.382  0.3225  0.3641 -0.3411
  345TMC3     C 5174   3.059   1.711  10.669  0.4582  0.3308  0.0480
  345TMC3     O 5175   2.956   1.650  10.652 -0.7366 -0.1656  0.1252
  345TMC3     H 5176   3.231   1.903  10.713 -0.1688  0.1571  0.4221
  345TMC3    H1 5177   2.986   1.732  10.444  1.3187 -2.2784  1.1564
  345TMC3    H2 5178   3.308   1.990  10.307  0.2473 -0.8050 -1.1693
  345TMC3    C7 5179   3.097   1.870  10.209  0.3466  0.4136  0.2040
  345TMC3    C8 5180   3.371   2.063  10.549 -0.6155  0.7762  0.8439
  345TMC3    O1 5181   3.167   1.940  10.135  0.7010  0.1895  0.0989
  345TMC3    O2 5182   3.390   2.158  10.470  0.5441  0.0191  0.2137
  346MPD2     C 5183   1.916   3.973  14.281  0.1045  0.0202  0.1338
  346MPD2    C1 5184   2.038   3.913  14.285  0.2585 -0.1049  0.5897
  346MPD2    C2 5185   2.114   3.932  14.398  0.5918 -1.0376 -0.2780
  346MPD2    C3 5186   2.075   4.013  14.507 -0.6852 -0.0826 -0.5482
  346MPD2    C4 5187   1.952   4.068  14.495  0.3622  0.4120  0.4321
  346MPD2    C5 5188   1.874   4.043  14.383 -0.2220  0.2159 -0.1685
  346MPD2     H 5189   2.213   3.888  14.397  1.2051  0.2737  2.0656
  346MPD2    H1 5190   1.904   4.129  14.571  0.5266  1.7787 -0.5666
  346MPD2    H2 5191   1.856   3.967  14.191 -1.0982  0.6865  0.8836
  346MPD2    H3 5192   1.775   4.087  14.382 -0.0784  0.5758  1.6421
  346MPD2     N 5193   2.167   4.029  14.617  0.1075  0.1374  0.2600
  346MPD2    H5 5194   2.263   4.003  14.599 -1.3609 -3.0437 -3.0356
  346MPD2    N1 5195   2.098   3.837  14.176  0.1145  0.0819 -0.2373
  346MPD2    H7 5196   2.195   3.809  14.180 -0.2325 -1.2333 -1.0661
  347TMC3    C1 5197   2.253   4.122  14.824  0.0596 -0.5809 -0.6475
  347TMC3    C2 5198   2.383   4.090  14.796  0.1864  0.2589 -0.0022
  347TMC3    C3 5199   2.475   4.114  14.901  0.8074  0.0297 -0.2269
  347TMC3    C4 5200   2.219   4.171  14.945 -0.6884  0.4563 -0.0523
  347TMC3    C5 5201   2.315   4.191  15.044  0.1834  0.7239  0.1681
  347TMC3    C6 5202   2.449   4.161  15.021 -0.1581  0.2876  0.0771
  347TMC3     C 5203   2.144   4.102  14.727  0.6243 -0.2030 -0.3986
  347TMC3     O 5204   2.036   4.140  14.765 -0.4816  0.0985 -0.0710
  347TMC3     H 5205   2.422   4.070  14.697 -0.1077  0.6220 -0.1924
  347TMC3    H1 5206   2.117   4.196  14.969 -0.1113  0.8222  2.0280
  347TMC3    H2 5207   2.529   4.165  15.094  1.6121  0.9640 -1.8996
  347TMC3    C7 5208   2.271   4.255  15.167 -0.6711 -0.3892 -0.2462
  347TMC3    C8 5209   2.586   4.016  14.898 -0.6144  0.0603  0.5216
  347TMC3    O1 5210   2.164   4.220  15.223 -0.2348 -0.0564  0.3541
  347TMC3    O2 5211   2.572   3.908  14.837  0.0475  0.4765  0.2296
  348MPD2     C 5212   1.302   2.979  12.605 -0.1139 -1.3633 -0.5157
  348MPD2    C1 5213   1.425   2.959  12.546 -0.5829 -1.0226  0.1394
  348MPD2    C2 5214   1.446   2.993  12.409 -0.0210  0.2356 -0.5626
  348MPD2    C3 5215   1.336   3.038  12.335  0.5285 -0.0295 -0.1825
  348MPD2    C4 5216   1.213   3.046  12.396 -0.1502  1.1801  0.3470
  348MPD2    C5 5217   1.194   3.013  12.531 -0.8626 -1.0669  0.6518
  348MPD2     H 5218   1.539   2.979  12.356  1.2141 -1.2787  2.0056
  348MPD2    H1 5219   1.124   3.070  12.339 -1.2051 -2.7612  0.3231
  348MPD2    H2 5220   1.295   2.957  12.711  2.1776 -1.5166 -0.3947
  348MPD2    H3 5221   1.102   3.035  12.584 -1.0517  0.3317 -0.2621
  348MPD2     N 5222   1.356   3.082  12.202  0.2855  1.1813 -0.1805
  348MPD2    H5 5223   1.450   3.106  12.171  0.6941 -1.4680 -0.9934
  348MPD2    N1 5224   1.536   2.916  12.618 -0.7736  0.2475 -0.9029
  348MPD2    H7 5225   1.625   2.903  12.571  0.1912  0.0131  1.0214
  349TMC3    C1 5226   1.687   2.841  12.785  0.5739 -0.4109 -0.5260
  349TMC3    C2 5227   1.708   2.717  12.830  0.0118 -0.4052 -0.1259
  349TMC3    C3 5228   1.813   2.660  12.761  0.3100 -0.4509  0.5696
  349TMC3    C4 5229   1.766   2.914  12.704  0.1628  0.5294 -0.8964
  349TMC3    C5 5230   1.875   2.856  12.641  0.1740  0.0107  0.0494
  349TMC3    C6 5231   1.893   2.724  12.674  0.3385 -0.1143 -0.3245
  349TMC3     C 5232   1.543   2.865  12.747  0.1709  0.0693  0.3716
  349TMC3     O 5233   1.464   2.833  12.831 -0.3894 -0.3151 -0.2543
  349TMC3     H 5234   1.646   2.661  12.898 -1.4195  2.1102  0.6596
  349TMC3    H1 5235   1.744   3.019  12.689  0.1631  0.5915 -0.4724
  349TMC3    H2 5236   1.964   2.665  12.618  1.6130  0.4695  0.6770
  349TMC3    C7 5237   1.874   2.877  12.498 -0.3364 -0.3239 -0.1400
  349TMC3    C8 5238   1.867   2.536  12.820  0.5905 -0.3520 -0.0356
  349TMC3    O1 5239   1.778   2.919  12.440  0.0409  0.2211 -0.4316
  349TMC3    O2 5240   1.802   2.494  12.914 -0.4572  0.2470 -0.0253
  350MPD2     C 5241   0.598   1.388   9.864  0.3823 -0.1496 -1.0885
  350MPD2    C1 5242   0.532   1.275   9.917  0.2750  0.8703 -0.8069
  350MPD2    C2 5243   0.595   1.195  10.006  0.3715  0.4458 -0.0939
  350MPD2    C3 5244   0.722   1.214  10.047 -0.0582 -0.3307 -0.1212
  350MPD2    C4 5245   0.792   1.322   9.989  0.6296 -0.1222  0.4552
  350MPD2    C5 5246   0.729   1.412   9.908  0.1821  0.3017  0.4588
  350MPD2     H 5247   0.548   1.103  10.040 -0.0273  1.6193  2.5344
  350MPD2    H1 5248   0.896   1.342  10.009  0.3025  2.2603 -0.1569
  350MPD2    H2 5249   0.545   1.452   9.795  0.2558 -2.0151 -2.7432
  350MPD2    H3 5250   0.783   1.498   9.871 -1.9821  0.4206 -2.4421
  350MPD2     N 5251   0.785   1.124  10.144 -0.0342 -0.5267  0.4677
  350MPD2    H5 5252   0.731   1.039  10.160  0.8712 -0.4556  3.8951
  350MPD2    N1 5253   0.403   1.231   9.879  0.1057  0.6649 -0.7070
  350MPD2    H7 5254   0.369   1.145   9.919  3.5677  0.1827  1.1836
  351TMC3    C1 5255   0.206   1.213   9.760 -0.1245  0.4123  0.1052
  351TMC3    C2 5256   0.195   1.081   9.807 -0.4754  0.0383 -0.2574
  351TMC3    C3 5257   0.087   1.009   9.758 -0.5269  0.3736 -1.0451
  351TMC3    C4 5258   0.112   1.273   9.681 -0.0987 -0.3461 -0.5766
  351TMC3    C5 5259   0.001   1.198   9.645  0.0071 -0.5969  0.8912
  351TMC3    C6 5260   4.710   1.066   9.684  0.2496 -0.9755 -0.0806
  351TMC3     C 5261   0.314   1.300   9.794  0.4182  0.0912  0.1807
  351TMC3     O 5262   0.325   1.406   9.741  0.3736  0.3681 -0.1872
  351TMC3     H 5263   0.282   1.028   9.844 -1.8670 -2.6635 -0.8498
  351TMC3    H1 5264   0.122   1.373   9.642 -0.1257  0.7164  2.1189
  351TMC3    H2 5265   4.632   0.999   9.651  1.4515 -0.6153 -3.6162
  351TMC3    C7 5266   4.638   1.227   9.530  0.4256  0.4545  0.1462
  351TMC3    C8 5267   0.084   0.867   9.770  0.0274 -0.6763  0.7952
  351TMC3    O1 5268   4.575   1.134   9.479  0.0847 -0.0330 -0.3922
  351TMC3    O2 5269   0.017   0.810   9.681 -0.4858  0.2111  0.2287
  352MPD2     C 5270   3.447   3.861   1.849 -0.5335 -0.2887  0.0822
  352MPD2    C1 5271   3.377   3.765   1.784  0.0545 -0.5711  0.3343
  352MPD2    C2 5272   3.410   3.634   1.803 -0.2119 -0.7615  0.7926
  352MPD2    C3 5273   3.503   3.596   1.892  0.1094  0.2900  0.1521
  352MPD2    C4 5274   3.577   3.696   1.953  0.0516  0.1027 -0.0522
  352MPD2    C5 5275   3.547   3.831   1.935  0.9375 -0.0368 -0.5141
  352MPD2     H 5276   3.346   3.562   1.752 -0.4428  0.5538 -0.7803
  352MPD2    H1 5277   3.659   3.679   2.022  1.5474 -0.1184 -1.9043
  352MPD2    H2 5278   3.424   3.967   1.847  0.1401 -0.1395  0.0978
  352MPD2    H3 5279   3.596   3.906   1.994 -0.2689  0.6571 -0.3906
  352MPD2     N 5280   3.538   3.457   1.925 -0.5165  0.7083  0.0195
  352MPD2    H5 5281   3.622   3.442   1.980 -2.3183  0.1181  2.6033
  352MPD2    N1 5282   3.280   3.810   1.697  0.2333  0.7259 -0.1633
  352MPD2    H7 5283   3.268   3.910   1.684  0.2847  0.6886 -0.4923
  353TMC3    C1 5284   3.550   3.234   1.896 -0.0804 -0.1796  0.1616
  353TMC3    C2 5285   3.681   3.226   1.872  0.0236  0.7440  0.1762
  353TMC3    C3 5286   3.742   3.103   1.873 -0.5154 -0.2242 -0.2354
  353TMC3    C4 5287   3.469   3.128   1.890 -0.3582 -0.0677 -0.1450
  353TMC3    C5 5288   3.531   3.006   1.877  0.5372 -0.2644  0.4524
  353TMC3    C6 5289   3.665   2.988   1.880  0.3657 -0.1517 -0.2792
  353TMC3     C 5290   3.475   3.350   1.868  1.4742 -0.9518 -0.7394
  353TMC3     O 5291   3.385   3.341   1.789 -0.1923 -0.0275  0.1370
  353TMC3     H 5292   3.743   3.314   1.860  1.8411 -0.2282  2.5938
  353TMC3    H1 5293   3.365   3.143   1.919 -0.0495 -0.3026  1.0627
  353TMC3    H2 5294   3.704   2.887   1.876  1.2357  0.1718 -0.1008
  353TMC3    C7 5295   3.451   2.897   1.823  0.3876  0.4712  0.7728
  353TMC3    C8 5296   3.884   3.105   1.887  0.0795  1.5526  0.0067
  353TMC3    O1 5297   3.503   2.788   1.806  0.1886 -0.4496 -0.0563
  353TMC3    O2 5298   3.936   3.214   1.878  0.2133 -0.2543  0.1101
  354TMC3    C1 5299   0.875   0.310  13.998 -0.2072  0.0800 -0.1255
  354TMC3    C2 5300   0.866   0.301  13.866  0.5037  0.2804 -0.3116
  354TMC3    C3 5301   0.982   0.287  13.789  0.0143  0.4572  0.6272
  354TMC3    C4 5302   0.992   0.305  14.072  0.1137  0.4171  0.3879
  354TMC3    C5 5303   1.101   0.274  13.992  0.7109  0.0587  0.1366
  354TMC3    C6 5304   1.107   0.275  13.850  0.2685 -0.3810  0.3280
  354TMC3     C 5305   0.759   0.258  14.064 -0.4662 -0.7323 -0.6756
  354TMC3     O 5306   0.700   0.163  14.013 -0.0670 -0.7759  0.7497
  354TMC3     H 5307   0.762   0.298  13.834  0.1487  2.1753  0.6589
  354TMC3    H1 5308   0.999   0.278  14.176 -1.3543  1.3758  0.7272
  354TMC3    H2 5309   1.199   0.285  13.792  0.2209  1.1593  0.5259
  354TMC3    C7 5310   1.228   0.236  14.054 -0.4042 -0.0302 -0.6195
  354TMC3    C8 5311   0.977   0.291  13.647  0.5095  0.1625  0.6776
  354TMC3    O1 5312   1.207   0.208  14.173 -0.0698 -0.2303 -0.2319
  354TMC3    O2 5313   0.864   0.316  13.601 -0.0814 -0.7012  0.0595
  355MPD2     C 5314   0.580   0.570  11.941 -0.2005 -1.1204 -0.1423
  355MPD2    C1 5315   0.657   0.544  11.834  0.2000 -0.0804 -0.4678
  355MPD2    C2 5316   0.794   0.520  11.850 -0.8969 -0.4093 -0.0724
  355MPD2    C3 5317   0.852   0.541  11.975  0.6297  0.0232 -0.0266
  355MPD2    C4 5318   0.770   0.567  12.081  0.6361  0.9207 -0.6609
  355MPD2    C5 5319   0.638   0.572  12.064 -0.3355  0.6476 -0.6776
  355MPD2     H 5320   0.861   0.487  11.772 -2.7164 -1.9945 -0.9672
  355MPD2    H1 5321   0.820   0.574  12.177 -0.3001  2.7438 -0.3081
  355MPD2    H2 5322   0.473   0.572  11.928 -0.1355  3.9426  0.2333
  355MPD2    H3 5323   0.578   0.580  12.155 -1.3697 -1.7565 -1.1517
  355MPD2     N 5324   0.990   0.567  12.000 -0.7765 -0.3345  0.6578
  355MPD2    H5 5325   1.008   0.606  12.092  0.8398 -0.6733  0.4835
  355MPD2    N1 5326   0.596   0.548  11.707  0.6696 -0.2081 -0.3528
  355MPD2    H7 5327   0.498   0.523  11.710  0.7237 -0.7022 -2.4783
  356TMC3    C1 5328   1.212   0.633  11.952 -0.4186 -0.0715 -0.1189
  356TMC3    C2 5329   1.310   0.654  11.861  0.0505 -0.0500 -0.6447
  356TMC3    C3 5330   1.401   0.753  11.886 -0.6414 -0.1992  0.6046
  356TMC3    C4 5331   1.207   0.700  12.071  0.3013  0.2839 -0.1167
  356TMC3    C5 5332   1.296   0.801  12.092  0.3320  0.5114 -0.2858
  356TMC3    C6 5333   1.390   0.840  11.996 -1.0522 -0.3169  0.3636
  356TMC3     C 5334   1.091   0.569  11.904  0.8734  0.2864 -0.2986
  356TMC3     O 5335   1.091   0.509  11.794 -0.0618  0.3473  0.2391
  356TMC3     H 5336   1.309   0.604  11.765 -0.9238 -0.3871 -0.4669
  356TMC3    H1 5337   1.148   0.675  12.159  1.1190 -0.3359  0.2617
  356TMC3    H2 5338   1.450   0.929  12.007  0.2530 -1.3286  1.3974
  356TMC3    C7 5339   1.256   0.911  12.185  0.2937 -0.2769  0.1340
  356TMC3    C8 5340   1.485   0.790  11.772  0.5929 -0.6137  0.3854
  356TMC3    O1 5341   1.145   0.913  12.239  0.1125  1.0030 -0.1117
  356TMC3    O2 5342   1.449   0.750  11.659  0.1705  0.3881  0.2424
  357MPD2     C 5343   0.068   0.700   0.873 -0.3149 -0.1764 -0.6164
  357MPD2    C1 5344   0.082   0.738   1.005 -0.2376  0.2822 -0.5943
  357MPD2    C2 5345   4.697   0.776   1.080  0.0281  0.0104 -0.3833
  357MPD2    C3 5346   4.570   0.783   1.024  0.4107 -0.2294 -0.1407
  357MPD2    C4 5347   4.557   0.746   0.893 -0.2170  0.1376 -0.0097
  357MPD2    C5 5348   4.663   0.694   0.827 -0.1039 -0.2108 -0.7758
  357MPD2     H 5349   4.711   0.792   1.186  3.3581  1.6996 -1.0915
  357MPD2    H1 5350   4.459   0.751   0.846  0.3808 -0.2642 -1.3027
  357MPD2    H2 5351   0.141   0.652   0.810  0.5763 -1.4136  1.3651
  357MPD2    H3 5352   4.640   0.649   0.731 -0.9332 -0.2687 -0.5490
  357MPD2     N 5353   4.456   0.829   1.091 -0.3636 -0.2239 -0.5113
  357MPD2    H5 5354   4.372   0.843   1.036 -0.8720  0.4258  0.4115
  357MPD2    N1 5355   0.218   0.744   1.060 -0.3610  0.7635 -0.1002
  357MPD2    H7 5356   0.294   0.723   0.997  0.6497 -0.9947  1.7250
  358TMC3    C1 5357   0.393   0.793   1.197 -0.0986 -0.5223  0.3911
  358TMC3    C2 5358   0.481   0.729   1.118 -0.2484 -0.4994 -0.5190
  358TMC3    C3 5359   0.612   0.772   1.126  0.0276  0.3285 -0.1159
  358TMC3    C4 5360   0.429   0.881   1.295 -0.4779 -0.1045 -0.7923
  358TMC3    C5 5361   0.559   0.926   1.301 -0.6012 -1.0979  0.0752
  358TMC3    C6 5362   0.655   0.868   1.216  0.6789  0.2314 -0.6083
  358TMC3     C 5363   0.252   0.768   1.191 -0.3127 -0.0262  0.0742
  358TMC3     O 5364   0.184   0.794   1.293  0.8012  0.1604  0.8407
  358TMC3     H 5365   0.454   0.651   1.047 -1.3118  3.1038 -4.0534
  358TMC3    H1 5366   0.363   0.911   1.376  0.6074  0.8692 -0.2665
  358TMC3    H2 5367   0.750   0.919   1.206  0.1238  1.5414  0.8471
  358TMC3    C7 5368   0.600   0.998   1.430 -0.3367  0.2098  0.1026
  358TMC3    C8 5369   0.716   0.697   1.047 -0.3260  0.0420 -0.1158
  358TMC3    O1 5370   0.514   1.067   1.484 -0.1480  0.5901 -0.2606
  358TMC3    O2 5371   0.825   0.749   1.021  0.0309 -0.1213  0.5411
  359MPD2     C 5372   0.846   3.592  12.915  0.1805  0.4170 -0.8854
  359MPD2    C1 5373   0.887   3.623  12.786  0.2710  0.2738  0.5079
  359MPD2    C2 5374   0.818   3.723  12.720  0.3512  0.3546  0.1292
  359MPD2    C3 5375   0.722   3.798  12.781 -0.1090  0.2978 -0.5179
  359MPD2    C4 5376   0.681   3.770  12.912  0.8146  0.3860  0.5628
  359MPD2    C5 5377   0.736   3.660  12.968 -0.2324  0.5545  0.0040
  359MPD2     H 5378   0.842   3.748  12.617  2.9814 -0.1526  0.6343
  359MPD2    H1 5379   0.609   3.824  12.971 -0.7945 -0.5834 -0.5250
  359MPD2    H2 5380   0.889   3.513  12.975  0.7279 -0.3561 -2.2756
  359MPD2    H3 5381   0.711   3.629  13.069 -3.4017  1.5458 -0.4952
  359MPD2     N 5382   0.661   3.915  12.731 -0.3080  0.0251 -0.1919
  359MPD2    H5 5383   0.611   3.969  12.801 -1.5036  2.2489 -2.7448
  359MPD2    N1 5384   0.991   3.560  12.719 -0.5488 -0.2982  0.0075
  359MPD2    H7 5385   1.002   3.581  12.621  2.9077 -0.9822  0.2650
  360TMC3    C1 5386   1.181   3.440  12.688 -0.3335  0.7942  0.1992
  360TMC3    C2 5387   1.297   3.396  12.744  0.0215  0.1822  0.1944
  360TMC3    C3 5388   1.402   3.368  12.656 -1.1104  0.7509  0.0272
  360TMC3    C4 5389   1.150   3.414  12.558 -0.7152  0.4553 -0.2519
  360TMC3    C5 5390   1.255   3.393  12.476 -0.3411  0.4079 -0.0462
  360TMC3    C6 5391   1.382   3.368  12.520  0.3743 -0.0759 -0.5293
  360TMC3     C 5392   1.077   3.472  12.777 -0.5041  0.2043  0.4904
  360TMC3     O 5393   1.081   3.435  12.897 -0.6844  0.0281  0.2503
  360TMC3     H 5394   1.313   3.432  12.845  1.6609 -1.2056  0.4170
  360TMC3    H1 5395   1.050   3.420  12.518 -1.3311 -3.0616  0.7693
  360TMC3    H2 5396   1.456   3.318  12.459  0.2822  0.8223 -1.3909
  360TMC3    C7 5397   1.228   3.388  12.335  0.9333  0.5850  0.0514
  360TMC3    C8 5398   1.526   3.317  12.721 -0.1040 -0.1997  0.6904
  360TMC3    O1 5399   1.325   3.399  12.257 -0.6188 -0.2491  0.4370
  360TMC3    O2 5400   1.523   3.284  12.837 -0.0818 -0.1160 -0.3047
  361MPD2     C 5401   2.383   3.225  16.962  0.1209  0.0717  0.2094
  361MPD2    C1 5402   2.393   3.235  17.100  0.7629  0.1387 -0.0279
  361MPD2    C2 5403   2.491   3.172  17.170  0.5023  0.5330 -0.3820
  361MPD2    C3 5404   2.575   3.087  17.099  0.0473  0.0633 -0.0676
  361MPD2    C4 5405   2.549   3.059  16.966 -0.3577  0.1333  0.0794
  361MPD2    C5 5406   2.465   3.141  16.899  0.2239 -0.3354 -0.3890
  361MPD2     H 5407   2.503   3.179  17.278  1.2512 -2.3707 -0.2678
  361MPD2    H1 5408   2.607   2.988  16.908  0.1600 -0.0393  0.8119
  361MPD2    H2 5409   2.297   3.267  16.911  2.3503  2.6557 -1.4337
  361MPD2    H3 5410   2.459   3.139  16.791 -1.7734  0.0680 -0.2978
  361MPD2     N 5411   2.681   3.010  17.158 -0.4927 -0.6705  0.1665
  361MPD2    H5 5412   2.716   2.947  17.087 -0.4526  1.4535 -1.7182
  361MPD2    N1 5413   2.290   3.323  17.160  0.2440 -0.0220 -0.9897
  361MPD2    H7 5414   2.234   3.379  17.096 -0.5423  1.0052  0.6053
  362TMC3    C1 5415   2.154   3.424  17.319  0.1880 -0.1520  0.1635
  362TMC3    C2 5416   2.066   3.395  17.421 -0.6237 -0.3510  0.2600
  362TMC3    C3 5417   1.941   3.461  17.411 -0.9895  0.3418 -0.0134
  362TMC3    C4 5418   2.143   3.528  17.231  0.4431  0.0094 -0.0873
  362TMC3    C5 5419   2.024   3.590  17.232  0.1639 -0.8054  0.1300
  362TMC3    C6 5420   1.922   3.565  17.318 -0.5619  0.1755 -0.2342
  362TMC3     C 5421   2.258   3.326  17.293 -0.8620  0.6000  1.4231
  362TMC3     O 5422   2.313   3.265  17.387  0.0306 -0.2284 -0.3093
  362TMC3     H 5423   2.076   3.308  17.485  0.5956 -0.6613 -0.3352
  362TMC3    H1 5424   2.221   3.563  17.165 -0.9209  3.2233 -0.0150
  362TMC3    H2 5425   1.832   3.625  17.312 -2.2992 -2.3615  0.3696
  362TMC3    C7 5426   1.993   3.674  17.120  0.1034  0.1077 -0.6697
  362TMC3    C8 5427   1.841   3.440  17.507 -0.3027  0.1776 -0.8112
  362TMC3    O1 5428   2.072   3.766  17.112  0.2702  0.5579 -0.0097
  362TMC3    O2 5429   1.834   3.330  17.561  0.0366 -0.3814  0.5917
  363TMC3    C1 5430   1.274   4.554   9.772 -0.2050 -0.0159 -0.1066
  363TMC3    C2 5431   1.329   4.513   9.893  0.4711  0.3763  0.0109
  363TMC3    C3 5432   1.269   4.566  10.009  0.0320 -0.6296  0.1583
  363TMC3    C4 5433   1.176   4.656   9.766  0.3451  0.9568  0.3660
  363TMC3    C5 5434   1.133   4.709   9.883  0.3092 -0.1539  0.3570
  363TMC3    C6 5435   1.171   4.660  10.004  0.3167 -0.4613 -0.0717
  363TMC3     C 5436   1.347   4.518   9.648 -0.5710 -0.1462 -0.2797
  363TMC3     O 5437   1.439   4.436   9.657  0.2462 -0.2183 -0.2061
  363TMC3     H 5438   1.415   4.447   9.893 -1.7209 -2.4850  1.0105
  363TMC3    H1 5439   1.146   4.703   9.672  0.1349 -2.4961 -1.2989
  363TMC3    H2 5440   1.142   4.708  10.097 -2.0575  2.2432 -2.1740
  363TMC3    C7 5441   1.036   0.095   9.886  0.0722 -0.2031 -0.2985
  363TMC3    C8 5442   1.266   4.492  10.130 -0.4731 -0.2561  0.9477
  363TMC3    O1 5443   1.020   0.158   9.782  0.2748 -0.1469 -0.9549
  363TMC3    O2 5444   1.155   4.470  10.174 -0.7903 -0.0405 -0.2383
  364MPD2     C 5445   0.333   4.594  11.013 -0.1347 -0.1967  0.3692
  364MPD2    C1 5446   0.394   4.533  10.905 -0.0893 -0.4109 -0.0258
  364MPD2    C2 5447   0.380   4.397  10.891  0.2086 -0.3829  0.3909
  364MPD2    C3 5448   0.317   4.323  10.989  0.3177 -0.3900 -0.0766
  364MPD2    C4 5449   0.249   4.386  11.096 -0.2372  0.2077  0.3267
  364MPD2    C5 5450   0.261   4.518  11.101 -0.2990 -0.3604  0.6319
  364MPD2     H 5451   0.436   4.346  10.814  1.7464  1.4899  0.2695
  364MPD2    H1 5452   0.184   4.328  11.161 -1.3776 -0.3991 -1.3448
  364MPD2    H2 5453   0.345   4.701  11.013 -1.5835 -0.0246 -2.2725
  364MPD2    H3 5454   0.206   4.568  11.180 -0.6118 -0.8842  0.7464
  364MPD2     N 5455   0.323   4.182  10.992  0.3882 -0.3806 -0.0920
  364MPD2    H5 5456   0.283   4.133  11.071  2.3605 -1.8189  0.0074
  364MPD2    N1 5457   0.441   4.619  10.803 -0.3912  0.0569  0.4026
  364MPD2    H7 5458   0.421   4.718  10.816  0.1715  0.3282 -0.7799
  365TMC3    C1 5459   0.497   4.693  10.584  0.0304  0.2868  0.4228
  365TMC3    C2 5460   0.463   4.671  10.450 -0.5078 -0.0826  0.7750
  365TMC3    C3 5461   0.456   0.057  10.368  0.0570  0.5106 -0.0080
  365TMC3    C4 5462   0.522   0.100  10.635 -0.2025 -0.1101 -0.3078
  365TMC3    C5 5463   0.533   0.202  10.543 -0.6503  0.1013  0.1686
  365TMC3    C6 5464   0.496   0.183  10.412 -0.3375  0.3511  0.1770
  365TMC3     C 5465   0.492   4.583  10.679 -0.1185 -0.0481  0.0493
  365TMC3     O 5466   0.515   4.473  10.624  0.0041 -0.1852  0.1681
  365TMC3     H 5467   0.420   4.577  10.418 -1.6817  0.8707 -0.4456
  365TMC3    H1 5468   0.562   0.115  10.734  1.3394 -1.3238 -0.7521
  365TMC3    H2 5469   0.486   0.267  10.344  1.6315 -0.6266 -1.3352
  365TMC3    C7 5470   0.520   0.343  10.583 -0.0434  0.4795  0.2112
  365TMC3    C8 5471   0.344   0.067  10.278  0.2054  0.2532 -0.3365
  365TMC3    O1 5472   0.546   0.433  10.510  0.1756 -0.2693 -0.4168
  365TMC3    O2 5473   0.284   0.172  10.281  0.8902 -0.2503 -0.5918
  366MPD2     C 5474   2.669   1.570  15.777 -0.1879  0.1751  0.5867
  366MPD2    C1 5475   2.752   1.639  15.684 -0.0326 -0.8543  0.6935
  366MPD2    C2 5476   2.861   1.568  15.634 -0.1845 -0.2528 -0.2471
  366MPD2    C3 5477   2.888   1.440  15.659 -0.3710  0.5169  0.0362
  366MPD2    C4 5478   2.804   1.369  15.739 -0.1845  0.2614 -0.4153
  366MPD2    C5 5479   2.702   1.436  15.808 -0.0058  0.5401 -0.3621
  366MPD2     H 5480   2.933   1.620  15.572 -0.1480 -0.8464 -0.7004
  366MPD2    H1 5481   2.829   1.268  15.768 -3.0476  0.0098  1.2547
  366MPD2    H2 5482   2.582   1.618  15.820 -0.2166  0.3363  0.3517
  366MPD2    H3 5483   2.655   1.379  15.888  0.2634 -0.3666 -0.8569
  366MPD2     N 5484   3.007   1.380  15.607 -0.3386 -0.4829  0.1864
  366MPD2    H5 5485   3.057   1.422  15.529  0.0884 -0.2653  0.5815
  366MPD2    N1 5486   2.740   1.774  15.644  0.0277  0.2653 -0.1357
  366MPD2    H7 5487   2.820   1.822  15.603 -0.6685  0.7577 -0.9099
  367TMC3    C1 5488   2.654   1.990  15.670  0.1785  0.2682 -0.4576
  367TMC3    C2 5489   2.766   2.032  15.733 -0.0266  0.4429 -0.5508
  367TMC3    C3 5490   2.811   2.161  15.718  0.0085 -0.4647 -0.1030
  367TMC3    C4 5491   2.599   2.068  15.572  0.1802 -0.0521  0.5923
  367TMC3    C5 5492   2.632   2.202  15.571  0.5087  0.2073  0.4283
  367TMC3    C6 5493   2.729   2.254  15.660  0.4338 -0.2767  0.0516
  367TMC3     C 5494   2.631   1.847  15.668  0.3171 -0.0193  0.0196
  367TMC3     O 5495   2.519   1.806  15.682 -0.1894  0.0702  0.5861
  367TMC3     H 5496   2.827   1.955  15.779  0.6882  1.5686  0.3789
  367TMC3    H1 5497   2.518   2.028  15.512  0.2739 -1.6086  1.4971
  367TMC3    H2 5498   2.766   2.354  15.643 -1.0493 -0.1689 -2.4471
  367TMC3    C7 5499   2.600   2.285  15.457  0.3014  0.3133 -0.2958
  367TMC3    C8 5500   2.927   2.195  15.801  0.4930  0.7420 -0.1740
  367TMC3    O1 5501   2.601   2.407  15.466  0.2593 -0.0762  0.5855
  367TMC3    O2 5502   2.957   2.121  15.891 -0.3548  0.2407  0.4789
  368MPD2     C 5503   4.414   3.515  13.774 -0.0036  0.0581 -0.1249
  368MPD2    C1 5504   4.426   3.523  13.634 -1.0414  0.2882  0.2880
  368MPD2    C2 5505   4.542   3.583  13.576 -0.4796  0.4759  0.0853
  368MPD2    C3 5506   4.646   3.629  13.656 -0.7745 -0.5505 -0.1347
  368MPD2    C4 5507   4.620   3.625  13.794 -0.8987  1.2054  0.1385
  368MPD2    C5 5508   4.511   3.568  13.849  0.0820 -0.3292  0.0459
  368MPD2     H 5509   4.554   3.593  13.469 -1.4325 -0.4939 -0.1139
  368MPD2    H1 5510   4.698   3.644  13.866 -3.1707  0.6976  2.7257
  368MPD2    H2 5511   4.339   3.456  13.824  1.7387 -2.1471 -0.0845
  368MPD2    H3 5512   4.508   3.553  13.956  0.2142  0.3820  0.1515
  368MPD2     N 5513   0.051   3.669  13.605 -0.0646 -0.5549  0.0273
  368MPD2    H5 5514   0.110   3.703  13.681 -1.1331  1.1017  0.1242
  368MPD2    N1 5515   4.305   3.482  13.565  0.7189 -0.4176  0.0432
  368MPD2    H7 5516   4.237   3.426  13.615  2.0998 -1.1656  1.0792
  369TMC3    C1 5517   4.148   3.462  13.383 -0.2970  0.7169  0.3241
  369TMC3    C2 5518   4.115   3.531  13.268  0.0991  0.0118  0.0135
  369TMC3    C3 5519   3.991   3.520  13.224 -0.4837  0.9000 -0.0543
  369TMC3    C4 5520   4.065   3.379  13.456  0.4221 -0.7423 -0.1369
  369TMC3    C5 5521   3.943   3.356  13.392 -0.5454 -0.6600 -0.3871
  369TMC3    C6 5522   3.903   3.434  13.282 -0.3637  0.3566 -0.4376
  369TMC3     C 5523   4.283   3.500  13.430 -0.3746  0.1725 -0.2820
  369TMC3     O 5524   4.346   3.555  13.342 -0.0543  0.6001 -0.0673
  369TMC3     H 5525   4.191   3.580  13.210 -0.1300 -0.6083 -0.8085
  369TMC3    H1 5526   4.087   3.339  13.555 -0.3279  1.7560  1.0413
  369TMC3    H2 5527   3.802   3.433  13.242  0.0721  0.8596 -1.5711
  369TMC3    C7 5528   3.857   3.262  13.445  0.2433 -0.0198  0.5903
  369TMC3    C8 5529   3.946   3.614  13.116 -0.6574 -0.3997  0.1542
  369TMC3    O1 5530   3.888   3.221  13.555 -0.0690 -0.3629 -0.6808
  369TMC3    O2 5531   3.890   3.567  13.020  0.1309  0.0343 -0.7274
  370TMC3    C1 5532   3.670   4.019  16.691  0.6531  0.4225 -0.4116
  370TMC3    C2 5533   3.638   3.942  16.798  0.0141  0.6373 -0.0193
  370TMC3    C3 5534   3.552   3.842  16.767 -0.2073 -0.7419  0.1191
  370TMC3    C4 5535   3.638   4.005  16.561 -0.6644  0.2647  0.3262
  370TMC3    C5 5536   3.559   3.893  16.536 -0.5352 -0.5393 -0.3050
  370TMC3    C6 5537   3.514   3.816  16.640 -0.4315  0.0036 -0.1131
  370TMC3     C 5538   3.764   4.127  16.721  0.6254 -0.0202 -0.2988
  370TMC3     O 5539   3.827   4.120  16.819 -0.1884  0.4491  0.2138
  370TMC3     H 5540   3.680   3.950  16.897  1.3787 -1.4008 -0.4358
  370TMC3    H1 5541   3.685   4.063  16.483  0.6267 -1.5517 -0.2659
  370TMC3    H2 5542   3.427   3.751  16.631 -0.4161 -0.2961  1.8622
  370TMC3    C7 5543   3.579   3.843  16.404  0.4167  0.1183  0.1522
  370TMC3    C8 5544   3.502   3.765  16.879 -0.0530  0.4421  0.0832
  370TMC3    O1 5545   3.594   3.933  16.323 -0.1585  0.1643 -0.5666
  370TMC3    O2 5546   3.451   3.654  16.863 -0.0564 -0.4747 -0.2100
  371TMC3    C1 5547   4.702   2.374  15.519  0.5560  0.1293  0.9861
  371TMC3    C2 5548   4.654   2.371  15.651  0.4236 -0.5650  0.0193
  371TMC3    C3 5549   4.640   2.490  15.714 -0.3739  0.0787 -0.6835
  371TMC3    C4 5550   0.020   2.494  15.462  0.4205  0.2070 -0.1709
  371TMC3    C5 5551   4.721   2.612  15.530 -0.4640 -0.0121 -1.0474
  371TMC3    C6 5552   4.673   2.613  15.659 -0.2563 -0.1418 -0.8676
  371TMC3     C 5553   0.032   2.250  15.470 -0.2398  0.2463 -0.1436
  371TMC3     O 5554   0.127   2.248  15.398  0.2064 -0.0803  0.1190
  371TMC3     H 5555   4.607   2.286  15.699 -2.6655  1.0566 -0.1699
  371TMC3    H1 5556   0.080   2.490  15.371 -0.9109  1.6773 -1.1091
  371TMC3    H2 5557   4.653   2.706  15.711  0.5036 -0.2220 -0.4410
  371TMC3    C7 5558   0.082   2.719  15.496 -0.2687  0.0848  0.3563
  371TMC3    C8 5559   4.621   2.479  15.856 -0.0191 -0.2245 -0.2897
  371TMC3    O1 5560   0.106   2.800  15.583 -0.4782  0.1149  0.6246
  371TMC3    O2 5561   4.683   2.386  15.909 -0.5485  0.0189  0.0501
  372MPD2     C 5562   3.858   3.635  13.607 -0.8722  0.1699  0.4134
  372MPD2    C1 5563   3.976   3.636  13.668  0.6484  0.8268  0.3561
  372MPD2    C2 5564   4.002   3.554  13.782  0.1362  0.0078  0.0618
  372MPD2    C3 5565   3.898   3.470  13.826  0.4018 -0.6425  0.0542
  372MPD2    C4 5566   3.781   3.476  13.757  0.2233  0.8885 -0.5457
  372MPD2    C5 5567   3.760   3.550  13.648 -0.9520 -0.0536 -0.3528
  372MPD2     H 5568   4.094   3.562  13.839 -0.8563 -1.6046  1.9042
  372MPD2    H1 5569   3.694   3.422  13.795  0.3138  0.5849 -0.7672
  372MPD2    H2 5570   3.837   3.692  13.517 -0.1559 -0.9819 -0.4767
  372MPD2    H3 5571   3.662   3.549  13.602 -0.4907 -0.5246 -1.3136
  372MPD2     N 5572   3.925   3.385  13.935 -0.0313  0.0114  0.1141
  372MPD2    H5 5573   4.020   3.387  13.970  0.1775  0.0943 -0.4469
  372MPD2    N1 5574   4.075   3.736  13.644  0.2951 -0.5966  0.5299
  372MPD2    H7 5575   4.143   3.745  13.719  0.4216  1.1774  0.2098
  373TMC3    C1 5576   3.918   3.206  14.077  0.1110 -0.2782  0.6741
  373TMC3    C2 5577   3.887   3.183  14.206  0.1215  0.5745 -0.2685
  373TMC3    C3 5578   3.985   3.114  14.282 -0.6155  0.0134 -0.1538
  373TMC3    C4 5579   4.035   3.156  14.018  0.2766 -0.3538 -0.5786
  373TMC3    C5 5580   4.122   3.089  14.094 -0.0282  0.5046 -0.2544
  373TMC3    C6 5581   4.102   3.063  14.226  0.1108  1.0499 -0.3645
  373TMC3     C 5582   3.840   3.301  14.003 -0.4892  0.0363 -0.2679
  373TMC3     O 5583   3.720   3.308  14.014 -0.5341 -0.1098  0.0350
  373TMC3     H 5584   3.804   3.241  14.244  0.4910  0.0530  1.3276
  373TMC3    H1 5585   4.050   3.143  13.911 -3.5638 -1.3373 -1.0179
  373TMC3    H2 5586   4.177   3.024  14.293 -1.3479 -0.1392  0.5568
  373TMC3    C7 5587   4.255   3.063  14.032  0.3908  0.5154 -0.3192
  373TMC3    C8 5588   4.005   3.180  14.410 -0.3533 -0.6305  0.3924
  373TMC3    O1 5589   4.255   3.014  13.919  0.2874 -0.1706  0.0623
  373TMC3    O2 5590   4.127   3.184  14.433  0.4093 -0.3161 -0.1334
  374TMC3    C1 5591   0.584   3.468  10.013 -0.0393  0.1767  0.4019
  374TMC3    C2 5592   0.658   3.564  10.065  0.1846  0.3583 -0.2665
  374TMC3    C3 5593   0.742   3.638   9.984  1.0675 -0.2370 -0.0773
  374TMC3    C4 5594   0.583   3.439   9.875 -0.2238 -0.0311  0.0515
  374TMC3    C5 5595   0.665   3.512   9.796 -0.5693  0.2151 -0.4327
  374TMC3    C6 5596   0.739   3.616   9.849 -0.1568  0.0320 -0.2041
  374TMC3     C 5597   0.540   3.356  10.101  0.3953  0.3564  0.3557
  374TMC3     O 5598   0.522   3.251  10.041  0.1047 -0.3344 -0.5610
  374TMC3     H 5599   0.649   3.585  10.171 -0.1272 -0.2275 -0.1761
  374TMC3    H1 5600   0.509   3.369   9.837  0.7447 -0.5156 -0.9241
  374TMC3    H2 5601   0.810   3.661   9.781  0.4244 -0.4372  0.0995
  374TMC3    C7 5602   0.709   3.459   9.667  0.4657 -0.0811 -0.5382
  374TMC3    C8 5603   0.854   3.712  10.039 -0.1994  0.4450 -0.2348
  374TMC3    O1 5604   0.755   3.542   9.589  0.1820 -0.2518 -0.1918
  374TMC3    O2 5605   0.928   3.763   9.956 -0.2079 -0.1799  0.1946
  375MPD2     C 5606   0.091   4.063  17.504  0.1728 -0.5220 -0.8203
  375MPD2    C1 5607   0.049   4.145  17.404  0.2400  0.3033  0.3180
  375MPD2    C2 5608   0.116   4.127  17.283  0.0142 -0.8591 -0.2010
  375MPD2    C3 5609   0.233   4.055  17.264  0.4597 -0.6142 -0.1200
  375MPD2    C4 5610   0.285   3.992  17.371  0.4452  0.4176 -0.0519
  375MPD2    C5 5611   0.212   3.998  17.491  0.2903 -0.1573 -0.6386
  375MPD2     H 5612   0.085   4.186  17.197  0.5253  1.0968  0.9570
  375MPD2    H1 5613   0.378   3.939  17.356 -1.4301 -2.4646 -1.5546
  375MPD2    H2 5614   0.042   4.068  17.601  0.7025 -0.2631 -0.5660
  375MPD2    H3 5615   0.251   3.960  17.585 -4.6424 -0.0751  1.4569
  375MPD2     N 5616   0.309   4.040  17.143  0.1926 -0.2157  0.3246
  375MPD2    H5 5617   0.397   3.991  17.146 -0.3587 -1.2676 -0.9725
  375MPD2    N1 5618   4.663   4.227  17.408 -0.2179  0.5206  0.0430
  375MPD2    H7 5619   4.648   4.282  17.324  0.4747 -1.7255 -1.5557
  376TMC3    C1 5620   0.378   4.071  16.927  0.2669 -0.2683 -0.0172
  376TMC3    C2 5621   0.509   4.054  16.962  0.4267 -0.2734  0.4635
  376TMC3    C3 5622   0.598   4.042  16.857 -0.0196  0.0099 -0.6202
  376TMC3    C4 5623   0.346   4.075  16.795 -0.2804  0.1376 -0.2816
  376TMC3    C5 5624   0.439   4.066  16.694 -0.3255 -0.0410  0.0216
  376TMC3    C6 5625   0.568   4.043  16.719  0.0179 -1.5101 -0.7495
  376TMC3     C 5626   0.276   4.093  17.022  0.0843  0.4089  0.2874
  376TMC3     O 5627   0.169   4.142  16.987 -0.2388  0.4328  0.3934
  376TMC3     H 5628   0.544   4.075  17.062  0.4282 -0.9764  0.6107
  376TMC3    H1 5629   0.242   4.093  16.772 -0.9485  0.9351  3.4341
  376TMC3    H2 5630   0.645   4.030  16.644  0.0657 -0.2466 -0.9132
  376TMC3    C7 5631   0.390   4.078  16.563  0.5230  0.6575 -0.3688
  376TMC3    C8 5632   0.733   4.054  16.886  0.4144  0.1573 -0.0364
  376TMC3    O1 5633   0.281   4.134  16.560  0.0121 -0.3694 -0.5569
  376TMC3    O2 5634   0.804   4.091  16.795  0.5980  0.1631  0.3889
  377MPD2     C 5635   3.521   3.544  12.995 -0.5906 -0.1180 -0.3884
  377MPD2    C1 5636   3.436   3.440  13.016 -0.6603 -0.6331  0.9028
  377MPD2    C2 5637   3.312   3.462  13.075 -0.2607 -0.4602 -0.5101
  377MPD2    C3 5638   3.277   3.590  13.118 -0.8387  0.2430 -0.3572
  377MPD2    C4 5639   3.360   3.693  13.087  0.2136  0.5443  0.3845
  377MPD2    C5 5640   3.484   3.670  13.034  0.7632  0.0138  0.0505
  377MPD2     H 5641   3.244   3.382  13.099 -0.7062  0.8347  2.4636
  377MPD2    H1 5642   3.335   3.797  13.105  0.2681  0.5325  0.5215
  377MPD2    H2 5643   3.623   3.532  12.960 -0.5027  0.4475 -0.3384
  377MPD2    H3 5644   3.555   3.751  13.028  1.5229 -0.5798  1.0197
  377MPD2     N 5645   3.158   3.629  13.173 -0.8089 -0.0161 -0.2046
  377MPD2    H5 5646   3.135   3.728  13.177  0.0015  0.2078 -1.1732
  377MPD2    N1 5647   3.468   3.318  12.947 -0.4353  0.2289 -0.6299
  377MPD2    H7 5648   3.552   3.310  12.890  1.4591  0.4194  2.1792
  378TMC3    C1 5649   3.263   2.984  12.700  0.4009 -0.7036  0.1912
  378TMC3    C2 5650   3.321   3.017  12.821 -0.0643  0.1334 -0.3253
  378TMC3    C3 5651   3.412   3.122  12.833 -0.9148  0.4904  1.0886
  378TMC3    C4 5652   3.309   3.038  12.588 -0.2400 -0.6256 -0.3228
  378TMC3    C5 5653   3.406   3.139  12.598  0.9148  0.0743  0.2902
  378TMC3    C6 5654   3.454   3.182  12.716  0.6698  0.5491 -0.0744
  378TMC3     C 5655   3.116   2.979  12.717  0.0906 -0.5465 -0.6520
  378TMC3     O 5656   3.065   2.900  12.797  0.2642 -0.1723 -0.0676
  378TMC3     H 5657   3.275   2.985  12.914 -0.0031  0.0500 -0.3240
  378TMC3    H1 5658   3.275   2.991  12.496 -3.6324 -0.1045  0.6761
  378TMC3    H2 5659   3.523   3.266  12.710  1.8015 -0.3961 -0.1562
  378TMC3    C7 5660   3.401   3.246  12.501  0.4649 -0.5242  0.1816
  378TMC3    C8 5661   3.382   3.206  12.948  0.1019 -0.1299  0.1742
  378TMC3    O1 5662   3.374   3.361  12.539 -0.0945 -0.0604  0.1084
  378TMC3    O2 5663   3.279   3.180  13.013 -0.1558 -0.1343  0.3532
  379MPD2     C 5664   3.870   2.344  16.680 -0.3818  0.2822  0.1325
  379MPD2    C1 5665   3.859   2.223  16.613  0.4069 -0.4686  0.3233
  379MPD2    C2 5666   3.938   2.115  16.648  0.2275 -0.0288  0.1503
  379MPD2    C3 5667   4.034   2.127  16.748  0.9460  0.3111  0.0488
  379MPD2    C4 5668   4.045   2.250  16.814  0.2910 -0.6732  0.0710
  379MPD2    C5 5669   3.972   2.357  16.779  0.1649  0.6829 -0.1779
  379MPD2     H 5670   3.935   2.016  16.604  0.5201  0.0044  0.0624
  379MPD2    H1 5671   4.123   2.279  16.884  1.2401 -0.7073 -0.9741
  379MPD2    H2 5672   3.807   2.428  16.653 -0.1290  0.3336 -0.2916
  379MPD2    H3 5673   3.997   2.452  16.826  1.3659  0.3874 -0.2245
  379MPD2     N 5674   4.104   2.014  16.792  0.2121 -0.4034  0.2382
  379MPD2    H5 5675   4.152   2.015  16.882  0.8622  0.8872 -0.1267
  379MPD2    N1 5676   3.766   2.215  16.506 -0.7872  0.2214  0.1306
  379MPD2    H7 5677   3.724   2.303  16.477  1.1106  0.3551 -2.2106
  380TMC3    C1 5678   3.678   2.117  16.308 -0.5987  0.2717 -0.1265
  380TMC3    C2 5679   3.682   2.002  16.236  0.0137 -0.0656  0.1407
  380TMC3    C3 5680   3.653   2.012  16.100  0.3561 -0.7264  0.1062
  380TMC3    C4 5681   3.631   2.236  16.254 -0.9128  0.5025 -0.1180
  380TMC3    C5 5682   3.584   2.237  16.132 -0.2060 -0.3823 -0.0722
  380TMC3    C6 5683   3.597   2.130  16.044  0.2087  0.0608  0.1111
  380TMC3     C 5684   3.742   2.099  16.435 -0.2828 -0.0732  0.2198
  380TMC3     O 5685   3.760   1.984  16.467  0.5466 -0.3865  0.0274
  380TMC3     H 5686   3.703   1.900  16.266  0.8934  0.0428 -0.1018
  380TMC3    H1 5687   3.640   2.334  16.300  2.6110  0.3301 -0.4906
  380TMC3    H2 5688   3.600   2.145  15.937  1.2484  1.1519  0.2997
  380TMC3    C7 5689   3.498   2.343  16.083  0.3287  0.2308 -0.0305
  380TMC3    C8 5690   3.745   1.957  16.006 -0.0243  0.4470 -0.4682
  380TMC3    O1 5691   3.542   2.457  16.086  0.4566  0.1858 -0.6506
  380TMC3    O2 5692   3.728   1.954  15.886 -0.1770 -0.4469  0.2195
  381TMC3    C1 5693   3.168   2.906  16.525  0.1915 -0.0805 -0.2811
  381TMC3    C2 5694   3.287   2.980  16.495  0.0738 -0.6559 -0.2512
  381TMC3    C3 5695   3.372   2.997  16.608 -0.0491 -0.0258  0.2338
  381TMC3    C4 5696   3.139   2.850  16.644  0.3513  0.2116 -0.7615
  381TMC3    C5 5697   3.230   2.871  16.743 -0.7958 -0.0705  0.5727
  381TMC3    C6 5698   3.347   2.942  16.731  0.3697 -0.3971  0.4975
  381TMC3     C 5699   3.056   2.925  16.441 -0.5221 -0.8366  0.5219
  381TMC3     O 5700   2.965   2.842  16.441  0.5034 -0.1878 -0.4286
  381TMC3     H 5701   3.301   3.040  16.406 -0.7047  0.0218  0.0972
  381TMC3    H1 5702   3.044   2.805  16.669  1.0135 -0.8061 -0.1046
  381TMC3    H2 5703   3.424   2.951  16.807  0.9895 -0.8062 -0.0800
  381TMC3    C7 5704   3.188   2.848  16.879 -0.4740  0.9074  0.6560
  381TMC3    C8 5705   3.491   3.088  16.601  0.3119  0.1684  0.6397
  381TMC3    O1 5706   3.130   2.748  16.904 -0.1859 -0.0975  0.1650
  381TMC3    O2 5707   3.546   3.103  16.492 -0.1264 -0.1717  0.2951
  382MPD2     C 5708   3.030   0.618   0.071 -0.3330 -0.0637 -0.2742
  382MPD2    C1 5709   2.963   0.733   0.096  0.6577 -0.5896 -0.1774
  382MPD2    C2 5710   2.831   0.732   0.124  0.1740  0.6465  0.2851
  382MPD2    C3 5711   2.764   0.611   0.129 -0.0803  0.4448  0.4012
  382MPD2    C4 5712   2.829   0.492   0.106 -0.0422 -0.8349 -1.1522
  382MPD2    C5 5713   2.964   0.496   0.086 -0.0228  0.0021 -0.5577
  382MPD2     H 5714   2.771   0.822   0.126 -0.8299  0.0278 -1.1983
  382MPD2    H1 5715   2.777   0.397   0.106  0.0366 -0.8959  1.2714
  382MPD2    H2 5716   3.137   0.614   0.055  0.3414  0.5983  4.1380
  382MPD2    H3 5717   3.012   0.399   0.074 -2.7599 -1.4108 -0.1316
  382MPD2     N 5718   2.623   0.605   0.133  0.4554 -0.3207 -0.3730
  382MPD2    H5 5719   2.589   0.510   0.131  0.3369 -0.2788 -0.3759
  382MPD2    N1 5720   3.020   0.859   0.091  0.0683  0.3479 -0.5477
  382MPD2    H7 5721   2.966   0.937   0.126  1.4020  0.6909  0.7311
  383TMC3    C1 5722   2.404   0.664   0.188 -0.6402  0.0265  0.4366
  383TMC3    C2 5723   2.365   0.586   0.080  0.4399 -0.3427  0.3559
  383TMC3    C3 5724   2.236   0.599   0.047 -0.3090  0.2544 -0.6491
  383TMC3    C4 5725   2.318   0.737   0.260  0.7340  0.1657 -0.5514
  383TMC3    C5 5726   2.188   0.748   0.227  0.3817 -0.2780  0.4364
  383TMC3    C6 5727   2.149   0.686   0.113 -0.7408  0.6375  0.2816
  383TMC3     C 5728   2.542   0.707   0.186 -0.6164 -0.1784 -0.4291
  383TMC3     O 5729   2.577   0.806   0.251  0.5546  0.4868 -0.0285
  383TMC3     H 5730   2.431   0.552   0.001  1.1786  0.7799  0.4922
  383TMC3    H1 5731   2.361   0.789   0.345 -1.5185 -1.3561  1.5266
  383TMC3    H2 5732   2.045   0.691   0.080 -0.1293  3.1582 -1.2243
  383TMC3    C7 5733   2.102   0.835   0.304  0.5925  0.0228 -0.3544
  383TMC3    C8 5734   2.175   0.510  17.655 -0.7792  0.0467 -0.2067
  383TMC3    O1 5735   2.008   0.893   0.254 -0.0274 -0.3981  0.3872
  383TMC3    O2 5736   2.084   0.551  17.589  0.1685 -0.2359  0.0872
  384MPD2     C 5737   0.078   1.500  12.025 -0.2442 -0.8925  0.4436
  384MPD2    C1 5738   0.069   1.445  12.151 -0.6613  0.0094  0.0237
  384MPD2    C2 5739   0.138   1.328  12.175  0.9516 -0.6061  0.0241
  384MPD2    C3 5740   0.236   1.277  12.083  0.5555 -0.7289  0.8786
  384MPD2    C4 5741   0.236   1.332  11.954  0.1208  0.6946  0.0086
  384MPD2    C5 5742   0.162   1.445  11.931  0.2880  0.7112 -0.3407
  384MPD2     H 5743   0.119   1.279  12.269  1.0938  0.0509  0.3967
  384MPD2    H1 5744   0.318   1.297  11.892  0.2658 -1.2826  1.3034
  384MPD2    H2 5745   0.028   1.592  11.998 -1.0176 -1.2819  0.5679
  384MPD2    H3 5746   0.181   1.489  11.834 -2.3029 -3.0140 -2.5683
  384MPD2     N 5747   0.330   1.168  12.108  0.3678  0.4141 -0.2476
  384MPD2    H5 5748   0.381   1.134  12.027 -2.0115 -2.2353 -0.6317
  384MPD2    N1 5749   4.723   1.497  12.257 -0.0546 -0.1178  0.0831
  384MPD2    H7 5750   0.012   1.453  12.348 -0.0229  0.9796  0.6067
  385TMC3    C1 5751   0.417   0.987  12.245  0.4069  0.6678  0.6866
  385TMC3    C2 5752   0.365   0.887  12.162 -0.1148  0.4655  0.2660
  385TMC3    C3 5753   0.338   0.771  12.214 -0.3925 -0.6850  0.0531
  385TMC3    C4 5754   0.434   0.963  12.375 -0.1330 -0.0295  0.1526
  385TMC3    C5 5755   0.406   0.837  12.424 -0.3970  0.1725  0.2612
  385TMC3    C6 5756   0.365   0.739  12.339  0.4622  0.8072 -0.3194
  385TMC3     C 5757   0.356   1.114  12.232  0.3508 -0.0891  0.0429
  385TMC3     O 5758   0.315   1.157  12.334  0.2649  0.3187 -0.0235
  385TMC3     H 5759   0.331   0.910  12.062 -1.9236  2.1648  1.2808
  385TMC3    H1 5760   0.471   1.044  12.437  2.1097 -1.2214  0.3593
  385TMC3    H2 5761   0.324   0.647  12.379  1.7895  1.8790  3.5389
  385TMC3    C7 5762   0.311   0.845  12.536  0.0796 -0.0541 -0.4140
  385TMC3    C8 5763   0.211   0.713  12.172 -0.4338  0.6788  0.3504
  385TMC3    O1 5764   0.279   0.735  12.580  0.4227 -0.5513 -0.5036
  385TMC3    O2 5765   0.135   0.665  12.252 -0.2251  0.3715 -0.1725
  386TMC3    C1 5766   4.664   3.575  12.081  0.3742  0.8890  0.0651
  386TMC3    C2 5767   4.721   3.560  11.955  0.0754  0.3643 -0.4814
  386TMC3    C3 5768   4.639   3.602  11.851 -0.5086 -0.7980 -0.5731
  386TMC3    C4 5769   4.536   3.624  12.102 -0.1321  0.6611 -0.4084
  386TMC3    C5 5770   4.469   3.673  11.993  0.4555 -0.0217 -0.5532
  386TMC3    C6 5771   4.512   3.650  11.868  0.1402 -1.1323 -0.2452
  386TMC3     C 5772   0.011   3.538  12.197 -0.7537 -0.1627  0.0191
  386TMC3     O 5773   4.704   3.575  12.310 -0.2815 -0.0372  0.7991
  386TMC3     H 5774   0.099   3.528  11.941  0.3737  1.1883 -0.1706
  386TMC3    H1 5775   4.492   3.659  12.196 -0.3537 -2.2720  0.5635
  386TMC3    H2 5776   4.460   3.679  11.777  0.3105  0.7640  0.2637
  386TMC3    C7 5777   4.347   3.744  12.022 -0.6264  0.3635  0.1551
  386TMC3    C8 5778   4.690   3.616  11.720  0.3230  0.3807  0.8081
  386TMC3    O1 5779   4.332   3.804  12.127 -0.4197 -0.0737 -0.3107
  386TMC3    O2 5780   4.634   3.687  11.638 -0.1087 -0.5473 -0.5215
  387MPD2     C 5781   2.748   3.367  10.109  0.8963 -0.2601  0.1478
  387MPD2    C1 5782   2.877   3.328  10.093  0.1139 -0.1457  0.1978
  387MPD2    C2 5783   2.905   3.202  10.042  0.3565 -0.0029 -0.1715
  387MPD2    C3 5784   2.815   3.105  10.004 -1.0058  0.0244  0.4462
  387MPD2    C4 5785   2.681   3.145  10.022 -0.7266  0.2858 -0.0472
  387MPD2    C5 5786   2.655   3.268  10.080  0.2622 -0.3273 -0.1101
  387MPD2     H 5787   3.008   3.170  10.046  0.7832  1.5167  0.9890
  387MPD2    H1 5788   2.614   3.061  10.004 -1.1335  0.8529 -1.1519
  387MPD2    H2 5789   2.712   3.459  10.155 -0.7740 -1.9962  2.3472
  387MPD2    H3 5790   2.550   3.291  10.097  0.2601  0.0078 -0.5762
  387MPD2     N 5791   2.861   2.969   9.985 -0.3926  0.7038  0.7728
  387MPD2    H5 5792   2.961   2.955   9.985 -0.6199 -0.8153  2.1440
  387MPD2    N1 5793   2.982   3.405  10.134  0.2458 -0.0427 -0.6486
  387MPD2    H7 5794   3.076   3.369  10.121 -0.4651 -1.8549 -0.8304
  388TMC3    C1 5795   3.117   3.540  10.256  0.4130  0.2341 -0.3559
  388TMC3    C2 5796   3.119   3.571  10.389  0.4890 -0.4676 -0.0728
  388TMC3    C3 5797   3.215   3.516  10.469 -0.7005  0.1410 -0.9845
  388TMC3    C4 5798   3.204   3.454  10.198 -0.9711  0.2861  0.2363
  388TMC3    C5 5799   3.284   3.387  10.289  0.3505 -0.6998 -0.0041
  388TMC3    C6 5800   3.296   3.416  10.420  0.1458  0.0256  0.1606
  388TMC3     C 5801   2.985   3.527  10.200 -0.2996 -0.2142 -0.1009
  388TMC3     O 5802   2.903   3.613  10.230  0.3943 -0.4122  0.3093
  388TMC3     H 5803   3.045   3.629  10.443  3.0744  2.1416  0.6733
  388TMC3    H1 5804   3.209   3.437  10.091 -0.0155 -2.7596  0.7493
  388TMC3    H2 5805   3.361   3.366  10.490 -0.0559 -0.6377 -0.1235
  388TMC3    C7 5806   3.302   3.246  10.244 -0.6956 -0.2473  0.1302
  388TMC3    C8 5807   3.261   3.570  10.595 -0.8287  0.4035 -0.4274
  388TMC3    O1 5808   3.229   3.220  10.147  0.6155 -0.3221 -0.0588
  388TMC3    O2 5809   3.274   3.492  10.688  0.1391  0.2068 -0.2040
  389MPD2     C 5810   2.258   1.627  11.055 -0.1387  0.6319 -0.3136
  389MPD2    C1 5811   2.144   1.563  11.019  0.5885  0.6752  0.4792
  389MPD2    C2 5812   2.050   1.524  11.115 -0.2856  0.6309  0.0095
  389MPD2    C3 5813   2.074   1.547  11.243  0.7135  0.8668  0.0509
  389MPD2    C4 5814   2.180   1.621  11.274 -0.7125  0.4104 -0.0649
  389MPD2    C5 5815   2.276   1.657  11.184 -0.2172  0.5977 -0.6773
  389MPD2     H 5816   1.964   1.463  11.089  0.2859 -0.4294  0.5965
  389MPD2    H1 5817   2.195   1.643  11.379 -2.2679  0.9043  0.0540
  389MPD2    H2 5818   2.342   1.654  10.991 -1.1179 -0.0952 -1.9127
  389MPD2    H3 5819   2.373   1.697  11.209  0.0560  0.6113 -1.7512
  389MPD2     N 5820   1.987   1.509  11.348  0.5454 -0.0997 -0.4339
  389MPD2    H5 5821   2.016   1.528  11.443  1.1789 -0.6000 -0.5317
  389MPD2    N1 5822   2.120   1.564  10.874 -0.0649 -0.4253  0.8224
  389MPD2    H7 5823   2.201   1.589  10.820 -0.3933  0.3777  0.7012
  390TMC3    C1 5824   1.817   1.423  11.474  0.4143  0.3747  0.7664
  390TMC3    C2 5825   1.714   1.330  11.483 -0.5175  0.1171  0.1717
  390TMC3    C3 5826   1.624   1.344  11.582 -0.1384 -0.2732  0.9279
  390TMC3    C4 5827   1.830   1.525  11.565  0.0704 -0.5370 -0.4336
  390TMC3    C5 5828   1.742   1.517  11.669  0.1390 -0.0916  0.1277
  390TMC3    C6 5829   1.634   1.432  11.683  0.7319  0.5826 -0.6654
  390TMC3     C 5830   1.875   1.433  11.344 -0.3286 -0.3578 -0.2334
  390TMC3     O 5831   1.815   1.382  11.250  0.0669 -0.1009  0.4825
  390TMC3     H 5832   1.713   1.246  11.414  0.6846  1.2024 -1.1555
  390TMC3    H1 5833   1.882   1.616  11.537  1.4059 -1.3889 -0.7614
  390TMC3    H2 5834   1.560   1.454  11.758  2.1242  3.7402 -0.2183
  390TMC3    C7 5835   1.782   1.605  11.785 -0.0534  0.0218 -0.1707
  390TMC3    C8 5836   1.523   1.243  11.590 -0.5972  0.0014  1.0260
  390TMC3    O1 5837   1.889   1.661  11.779  0.4323 -0.1800 -0.0603
  390TMC3    O2 5838   1.498   1.165  11.497  0.7726 -0.5414  0.6517
  391MPD2     C 5839   0.916   3.170  11.488 -0.1208 -0.6087  0.4227
  391MPD2    C1 5840   1.022   3.253  11.516 -0.7048  0.5059  0.4949
  391MPD2    C2 5841   1.042   3.365  11.437  0.3882  0.1278  0.1307
  391MPD2    C3 5842   0.972   3.380  11.316  1.0581 -0.1218 -0.2173
  391MPD2    C4 5843   0.862   3.298  11.296 -0.9406 -0.0641  0.0693
  391MPD2    C5 5844   0.826   3.200  11.388 -0.7453  0.1736  0.7599
  391MPD2     H 5845   1.124   3.434  11.453  0.4288  0.4208 -1.3375
  391MPD2    H1 5846   0.793   3.315  11.214 -2.2837 -2.9401  0.6105
  391MPD2    H2 5847   0.902   3.078  11.543  2.4339 -1.9574 -1.1656
  391MPD2    H3 5848   0.742   3.134  11.369 -0.7649  0.4057  0.0374
  391MPD2     N 5849   1.007   3.480  11.221  0.4005 -0.2758  0.1431
  391MPD2    H5 5850   1.065   3.557  11.253  1.1853  0.1909 -2.4100
  391MPD2    N1 5851   1.107   3.212  11.624  0.8237 -0.4181  0.1023
  391MPD2    H7 5852   1.096   3.121  11.666  3.5090 -0.7692  0.0728
  392TMC3    C1 5853   1.033   3.599  11.036 -0.0793 -0.4104  0.4274
  392TMC3    C2 5854   0.987   3.628  10.910  0.7253 -0.0138 -0.2749
  392TMC3    C3 5855   1.076   3.668  10.816  0.1672  0.3927  0.2008
  392TMC3    C4 5856   1.160   3.636  11.071  0.0216 -0.3386  0.2884
  392TMC3    C5 5857   1.243   3.677  10.977  0.1360  0.2716 -0.3969
  392TMC3    C6 5858   1.211   3.692  10.848  0.8079  0.3302  0.5905
  392TMC3     C 5859   0.966   3.487  11.095  0.0824 -0.0492  0.0720
  392TMC3     O 5860   0.892   3.412  11.031 -0.2744  0.0332  0.2741
  392TMC3     H 5861   0.893   3.583  10.881  0.8462  0.0043 -0.6832
  392TMC3    H1 5862   1.197   3.632  11.173 -1.8747 -0.2979  0.9773
  392TMC3    H2 5863   1.284   3.700  10.768 -3.6683  0.6700 -3.4468
  392TMC3    C7 5864   1.381   3.683  11.008  0.0306  0.1837 -0.0088
  392TMC3    C8 5865   1.032   3.660  10.675 -0.5742 -0.1382  0.6546
  392TMC3    O1 5866   1.425   3.627  11.109 -0.0413  0.4896  0.3546
  392TMC3    O2 5867   0.946   3.572  10.653 -0.0060 -0.2431  0.4819
  393TMC3    C1 5868   0.156   1.495  10.606  0.2556 -0.0083  0.0831
  393TMC3    C2 5869   0.014   1.519  10.602  0.3837  0.0846 -0.0400
  393TMC3    C3 5870   4.666   1.447  10.695  0.2224  0.1440  0.2965
  393TMC3    C4 5871   0.205   1.385  10.671  0.5942  0.5125 -0.5687
  393TMC3    C5 5872   0.121   1.312  10.752  0.7379 -0.2731  0.7644
  393TMC3    C6 5873   4.711   1.348  10.767  0.1742 -0.3564  0.7768
  393TMC3     C 5874   0.252   1.545  10.514 -0.2140 -0.8551  0.3251
  393TMC3     O 5875   0.361   1.488  10.511  0.1787 -0.5476 -0.3713
  393TMC3     H 5876   4.688   1.587  10.535 -1.5557 -0.6286  0.6764
  393TMC3    H1 5877   0.311   1.360  10.681  0.3861  0.0320  0.4317
  393TMC3    H2 5878   4.656   1.279  10.829  1.1305 -1.1648  0.7300
  393TMC3    C7 5879   0.178   1.213  10.839  0.0827 -0.7062  0.7664
  393TMC3    C8 5880   4.524   1.452  10.679  0.5479 -0.7661  0.2526
  393TMC3    O1 5881   0.146   1.225  10.957  0.0795  0.8082  0.0655
  393TMC3    O2 5882   4.489   1.477  10.563  0.1441 -0.4924  0.5150
  394TMC3    C1 5883   2.025   1.563  10.664  1.3655  0.6878 -0.2543
  394TMC3    C2 5884   1.917   1.536  10.588 -0.4046  0.6514  0.2926
  394TMC3    C3 5885   1.898   1.600  10.468  0.6664  0.1796  0.0748
  394TMC3    C4 5886   2.122   1.653  10.616 -0.3338  0.2941  0.5626
  394TMC3    C5 5887   2.108   1.709  10.496 -0.2654 -1.0423 -0.9486
  394TMC3    C6 5888   1.994   1.687  10.423  0.7225  0.0313 -0.3501
  394TMC3     C 5889   1.999   1.549  10.805 -0.1066  0.3879  0.0732
  394TMC3     O 5890   1.892   1.499  10.840  0.6837 -0.3196 -0.3931
  394TMC3     H 5891   1.839   1.474  10.631 -0.2052  0.7219  0.7543
  394TMC3    H1 5892   2.203   1.684  10.681  0.0667  0.4815 -0.0238
  394TMC3    H2 5893   1.985   1.733  10.325 -2.5147  0.9321  0.3873
  394TMC3    C7 5894   2.213   1.779  10.426  0.4076 -0.0706  0.3911
  394TMC3    C8 5895   1.823   1.523  10.363 -0.3941  0.1499  0.9848
  394TMC3    O1 5896   2.189   1.848  10.330 -0.0881  0.2507 -0.3061
  394TMC3    O2 5897   1.755   1.587  10.283 -0.6293 -0.0823 -0.2010
  395TMC3    C1 5898   0.973   4.020  14.962 -0.7335 -0.0505 -0.3807
  395TMC3    C2 5899   0.871   3.963  15.034  0.0003 -0.6948 -0.2918
  395TMC3    C3 5900   0.830   4.016  15.153 -0.0341  0.2861 -0.8714
  395TMC3    C4 5901   1.005   4.148  14.987  0.4251 -0.4446 -0.7172
  395TMC3    C5 5902   0.964   4.208  15.104  0.1053  0.3900 -0.1276
  395TMC3    C6 5903   0.882   4.134  15.189 -0.4141 -0.4342 -0.5766
  395TMC3     C 5904   1.095   3.948  14.977 -0.3755 -0.3596 -0.0501
  395TMC3     O 5905   1.193   4.018  14.990 -0.5163 -0.0397  0.3449
  395TMC3     H 5906   0.848   3.864  14.999  1.3055 -0.6648 -1.2331
  395TMC3    H1 5907   1.078   4.195  14.922  0.7977 -0.3556 -0.2363
  395TMC3    H2 5908   0.857   4.177  15.286 -0.3025  1.7589 -1.5268
  395TMC3    C7 5909   1.056   4.288  15.179 -0.1706 -0.2129  0.0952
  395TMC3    C8 5910   0.807   3.919  15.260  0.0147 -0.4096  0.3149
  395TMC3    O1 5911   1.004   4.368  15.257 -0.3378  1.0261 -0.4011
  395TMC3    O2 5912   0.831   3.961  15.370  0.1574  0.6983  0.4067
  396MPD2     C 5913   1.006   0.660  17.231 -0.1616 -0.3929  0.8096
  396MPD2    C1 5914   1.108   0.714  17.300 -0.8072 -0.0685 -0.0686
  396MPD2    C2 5915   1.172   0.826  17.236  0.0934  0.2812 -0.5926
  396MPD2    C3 5916   1.126   0.879  17.122 -0.1857 -0.2526 -0.1400
  396MPD2    C4 5917   1.018   0.825  17.054 -0.2675 -0.7995 -0.3384
  396MPD2    C5 5918   0.959   0.710  17.109 -0.7738 -0.4296  0.5266
  396MPD2     H 5919   1.251   0.875  17.292 -1.7088  2.3532  0.1235
  396MPD2    H1 5920   0.982   0.864  16.959  2.6516  1.7998 -0.3752
  396MPD2    H2 5921   0.964   0.568  17.272  0.1424 -0.2556  1.4251
  396MPD2    H3 5922   0.875   0.665  17.058  0.4384 -1.9235 -0.1492
  396MPD2     N 5923   1.196   0.991  17.062  0.2988  0.4706  0.2460
  396MPD2    H5 5924   1.284   1.021  17.101  0.3368 -0.8913  1.2083
  396MPD2    N1 5925   1.144   0.660  17.430 -0.0581 -0.2883 -0.1538
  396MPD2    H7 5926   1.084   0.585  17.462  3.0096 -1.0521  3.8325
  397TMC3    C1 5927   1.298   0.603  17.597  0.2369 -0.3512 -0.5379
  397TMC3    C2 5928   1.411   0.545  17.557  0.7669 -0.2310  0.3949
  397TMC3    C3 5929   1.414   0.415  17.513 -0.5988  0.0652  0.1385
  397TMC3    C4 5930   1.197   0.526  17.648 -0.3885  0.3152  0.6629
  397TMC3    C5 5931   1.203   0.393  17.609 -0.1590  0.5938 -0.7841
  397TMC3    C6 5932   1.312   0.332  17.548 -0.0797 -0.2684  0.7330
  397TMC3     C 5933   1.255   0.700  17.506  0.0433  0.3159  1.1810
  397TMC3     O 5934   1.328   0.793  17.485  0.0746 -0.2328 -0.0068
  397TMC3     H 5935   1.485   0.610  17.512  0.0846  0.5400  0.3911
  397TMC3    H1 5936   1.110   0.577  17.690 -2.6296 -0.6420 -2.7958
  397TMC3    H2 5937   1.300   0.228  17.522 -0.5091  0.8601 -3.5277
  397TMC3    C7 5938   1.105   0.316  17.682  0.2383 -0.0112  0.5308
  397TMC3    C8 5939   1.439   0.400  17.369  0.1774  0.9423 -0.4706
  397TMC3    O1 5940   1.059   0.216  17.628 -0.2799  0.1734 -0.6934
  397TMC3    O2 5941   1.353   0.343  17.308 -0.1556  0.0234 -0.0095
  398MPD2     C 5942   4.023   1.083   0.233  0.6984  0.0699 -0.1090
  398MPD2    C1 5943   4.158   1.093   0.244 -0.6972 -0.2441 -0.1581
  398MPD2    C2 5944   4.217   1.201   0.309 -0.0403 -0.0658  0.5441
  398MPD2    C3 5945   4.147   1.312   0.334 -1.0206 -0.0295  0.3622
  398MPD2    C4 5946   4.011   1.306   0.325  0.5689 -0.2027 -0.5600
  398MPD2    C5 5947   3.950   1.188   0.277 -0.0500 -0.5354 -0.0728
  398MPD2     H 5948   4.324   1.211   0.320 -0.1821  1.3184  0.5999
  398MPD2    H1 5949   3.942   1.384   0.354 -0.4783 -1.1897 -0.3881
  398MPD2    H2 5950   3.960   1.004   0.193  0.9651 -0.6458  0.8644
  398MPD2    H3 5951   3.842   1.186   0.270 -0.1169  3.3382 -0.3169
  398MPD2     N 5952   4.212   1.430   0.375 -0.1070  0.7394  0.1475
  398MPD2    H5 5953   4.312   1.432   0.360 -0.2069 -1.1631 -0.8590
  398MPD2    N1 5954   4.247   0.986   0.198  0.2702  1.0776  0.4306
  398MPD2    H7 5955   4.345   1.004   0.216  0.4400  0.7375 -0.1389
  399TMC3    C1 5956   4.330   0.787   0.146  0.0129  1.4259 -0.1026
  399TMC3    C2 5957   4.452   0.835   0.096  0.4319  0.1427 -0.3181
  399TMC3    C3 5958   4.562   0.756   0.117  0.2962  0.1126 -0.1742
  399TMC3    C4 5959   4.311   0.660   0.195  0.1159 -0.4224 -0.4478
  399TMC3    C5 5960   4.425   0.587   0.212  0.7137 -0.2414  0.3941
  399TMC3    C6 5961   4.553   0.629   0.166 -0.4388  0.1915 -0.3145
  399TMC3     C 5962   4.213   0.873   0.135  0.2387  0.0941  0.4924
  399TMC3     O 5963   4.105   0.817   0.128 -0.5942 -0.0149  0.4622
  399TMC3     H 5964   4.459   0.935   0.056 -3.0705 -0.3281 -2.1436
  399TMC3    H1 5965   4.211   0.635   0.228 -0.2005  0.7636 -0.5170
  399TMC3    H2 5966   4.644   0.575   0.189 -0.9717  0.3030  2.0573
  399TMC3    C7 5967   4.421   0.490   0.315  0.3100  0.1039 -0.1402
  399TMC3    C8 5968   4.669   0.790   0.022  0.4328  0.5692 -0.4700
  399TMC3    O1 5969   4.334   0.508   0.396 -0.1426  0.6144 -0.1255
  399TMC3    O2 5970   4.629   0.845  17.621 -0.4606  0.2648 -0.2244
  400TMC3    C1 5971   2.572   0.326  17.301 -0.4734  0.0866  0.1613
  400TMC3    C2 5972   2.474   0.305  17.202  0.0332  0.3931  0.0457
  400TMC3    C3 5973   2.372   0.395  17.192  0.2188 -0.3636  0.2793
  400TMC3    C4 5974   2.568   0.438  17.381 -0.0095 -0.1365  0.2779
  400TMC3    C5 5975   2.465   0.523  17.366 -1.0673 -0.3527 -0.7305
  400TMC3    C6 5976   2.369   0.504  17.273  0.8831 -0.1247  0.1323
  400TMC3     C 5977   2.621   0.206  17.361 -0.3622 -0.1743 -0.0897
  400TMC3     O 5978   2.578   0.100  17.321  0.2684 -0.2933 -0.0705
  400TMC3     H 5979   2.475   0.208  17.153  1.5301  0.1637  0.5258
  400TMC3    H1 5980   2.655   0.459  17.443 -0.6730  0.3628  1.0299
  400TMC3    H2 5981   2.290   0.577  17.265 -0.3026 -1.4341 -0.2161
  400TMC3    C7 5982   2.467   0.654  17.430 -0.7052 -0.4445 -0.7030
  400TMC3    C8 5983   2.252   0.362  17.123  1.1113  0.3302 -0.0157
  400TMC3    O1 5984   2.575   0.691  17.463  0.1197 -0.3093 -0.4135
  400TMC3    O2 5985   2.163   0.441  17.145  0.0148  0.0533 -0.4737
  401MPD2     C 5986   1.177   4.079   1.148  0.8726 -0.6535  0.0943
  401MPD2    C1 5987   1.240   3.967   1.180 -1.2113 -0.1688  0.1322
  401MPD2    C2 5988   1.198   3.857   1.109  0.4895  0.2852 -0.4347
  401MPD2    C3 5989   1.113   3.861   0.999 -0.2290 -0.2335 -1.0433
  401MPD2    C4 5990   1.056   3.979   0.960  0.3682 -0.2741 -0.2115
  401MPD2    C5 5991   1.094   4.088   1.037  0.4503  0.9522 -1.1133
  401MPD2     H 5992   1.235   3.756   1.125 -1.5115 -0.3511  0.1118
  401MPD2    H1 5993   0.980   3.979   0.883 -0.2044  0.6204  0.3573
  401MPD2    H2 5994   1.197   4.170   1.204  3.3083 -0.3652 -1.2344
  401MPD2    H3 5995   1.038   4.179   1.020 -0.6017  0.2911 -1.2665
  401MPD2     N 5996   1.056   3.730   0.971 -0.2327  0.7400 -0.3433
  401MPD2    H5 5997   1.097   3.647   1.014  1.7428  1.8753 -0.0284
  401MPD2    N1 5998   1.333   3.944   1.284 -0.8959  0.1480 -0.1366
  401MPD2    H7 5999   1.371   3.850   1.285  1.8729  1.2487 -1.1826
  402TMC3    C1 6000   0.909   3.566   0.930  0.8919 -0.6714  0.4577
  402TMC3    C2 6001   0.919   3.540   1.058 -0.1471 -0.5691  0.5211
  402TMC3    C3 6002   0.926   3.404   1.089  0.0677 -0.6283 -0.5200
  402TMC3    C4 6003   0.922   3.479   0.833 -0.0097 -0.5678 -0.2515
  402TMC3    C5 6004   0.943   3.351   0.861 -0.2330 -0.1560  0.4530
  402TMC3    C6 6005   0.943   3.306   0.995 -0.0827  0.1022 -0.1557
  402TMC3     C 6006   0.945   3.706   0.900 -0.8843  0.6400 -0.0867
  402TMC3     O 6007   0.888   3.767   0.811 -0.4490  0.4379  0.3257
  402TMC3     H 6008   0.885   3.619   1.123 -1.9294  0.7871 -2.0353
  402TMC3    H1 6009   0.913   3.511   0.730 -1.6685 -0.3497 -0.0370
  402TMC3    H2 6010   0.943   3.204   1.030 -1.0441  0.4561  0.8560
  402TMC3    C7 6011   0.938   3.247   0.750 -0.0247 -0.5995 -0.1003
  402TMC3    C8 6012   0.953   3.362   1.224  0.1968 -0.4884  0.2160
  402TMC3    O1 6013   0.904   3.288   0.636  0.0119 -0.0085 -0.1232
  402TMC3    O2 6014   1.020   3.263   1.252  0.0788 -0.6592  0.1217
  403MPD2     C 6015   3.928   1.952  13.365 -0.3343  0.3533 -0.0446
  403MPD2    C1 6016   3.966   1.847  13.441  0.2098 -0.7936  0.2535
  403MPD2    C2 6017   4.067   1.853  13.529  0.4588 -0.9097  0.6765
  403MPD2    C3 6018   4.129   1.974  13.545 -0.6328  0.0931 -0.0990
  403MPD2    C4 6019   4.095   2.076  13.464  1.4963 -0.3327 -0.2758
  403MPD2    C5 6020   3.994   2.067  13.381  0.3040 -0.4103 -0.2293
  403MPD2     H 6021   4.090   1.764  13.587 -2.0483 -1.1650  1.2804
  403MPD2    H1 6022   4.149   2.169  13.454  1.2619 -0.2443 -0.7299
  403MPD2    H2 6023   3.862   1.957  13.280  1.4673 -0.7696 -1.4985
  403MPD2    H3 6024   3.974   2.149  13.313  0.1735  1.2301  1.7811
  403MPD2     N 6025   4.237   1.971  13.628  0.6667  0.1782  0.0195
  403MPD2    H5 6026   4.248   1.885  13.680 -0.1286  0.4719  0.6733
  403MPD2    N1 6027   3.901   1.730  13.406 -0.2810  0.0364 -0.5496
  403MPD2    H7 6028   3.835   1.730  13.328  1.1801  1.4499 -1.7758
  404TMC3    C1 6029   3.822   1.509  13.395  0.0644  0.3734  1.1373
  404TMC3    C2 6030   3.771   1.406  13.470 -0.2136 -0.3168  0.0919
  404TMC3    C3 6031   3.725   1.305  13.393 -0.5298  0.0016  0.4200
  404TMC3    C4 6032   3.827   1.512  13.265 -0.9212 -0.3233  0.0821
  404TMC3    C5 6033   3.774   1.407  13.188 -0.4407 -0.9676  0.6035
  404TMC3    C6 6034   3.729   1.303  13.257  0.5781  0.7997 -0.6206
  404TMC3     C 6035   3.905   1.603  13.472 -0.7076  0.3276 -0.3649
  404TMC3     O 6036   3.938   1.581  13.587 -0.4071 -0.3705  0.6563
  404TMC3     H 6037   3.772   1.404  13.579 -1.6518 -1.2404  0.0887
  404TMC3    H1 6038   3.891   1.584  13.215 -0.4294 -0.0995  1.0461
  404TMC3    H2 6039   3.699   1.212  13.206 -0.5983  1.0822 -0.4501
  404TMC3    C7 6040   3.784   1.422  13.043  0.0019 -0.6157 -0.2905
  404TMC3    C8 6041   3.702   1.185  13.460 -0.7063  0.5834  0.3296
  404TMC3    O1 6042   3.813   1.527  12.996  0.0625 -0.1761 -0.1434
  404TMC3    O2 6043   3.720   1.082  13.395 -0.2786  0.8228 -1.0947
  405MPD2     C 6044   4.498   2.289  14.699  0.6603  0.6670  0.5463
  405MPD2    C1 6045   4.486   2.188  14.606 -0.5358 -1.0679 -0.3494
  405MPD2    C2 6046   4.431   2.218  14.488 -0.4042  0.8256 -0.3650
  405MPD2    C3 6047   4.388   2.345  14.460 -0.2719 -0.2263 -1.3479
  405MPD2    C4 6048   4.396   2.452  14.553 -0.2046  0.2209 -0.0229
  405MPD2    C5 6049   4.459   2.418  14.671 -0.0722  0.4435 -0.0780
  405MPD2     H 6050   4.397   2.135  14.427  1.6707 -0.2737 -0.0117
  405MPD2    H1 6051   4.361   2.552  14.531  0.2526  0.2160 -0.7921
  405MPD2    H2 6052   4.528   2.263  14.800  1.6830  0.1976  0.1264
  405MPD2    H3 6053   4.473   2.490  14.751 -0.0302  1.1182 -0.7049
  405MPD2     N 6054   4.302   2.356  14.347  0.0319 -0.0026  0.2145
  405MPD2    H5 6055   4.285   2.275  14.289  1.0553 -1.0966  1.4533
  405MPD2    N1 6056   4.517   2.050  14.646 -0.1044 -0.6348 -0.3619
  405MPD2    H7 6057   4.538   2.035  14.744  1.3205 -0.4133 -0.6328
  406TMC3    C1 6058   3.923   2.428  14.157  0.4096 -0.2656 -0.0953
  406TMC3    C2 6059   3.938   2.322  14.068 -0.2303 -0.2821  0.5524
  406TMC3    C3 6060   4.063   2.261  14.054 -0.2198  0.2298  0.0962
  406TMC3    C4 6061   4.019   2.472  14.237 -0.1728 -0.1256 -0.4471
  406TMC3    C5 6062   4.140   2.417  14.223  0.1181 -0.1765  0.0396
  406TMC3    C6 6063   4.175   2.312  14.132  0.0063 -0.6943 -0.0264
  406TMC3     C 6064   3.783   2.445  14.197 -0.9881 -0.1244  0.1896
  406TMC3     O 6065   3.703   2.423  14.108 -0.6976 -0.3242 -0.1262
  406TMC3     H 6066   3.853   2.277  14.018 -0.3824 -1.1358  1.5733
  406TMC3    H1 6067   4.012   2.567  14.288 -0.1215 -0.0910 -0.5039
  406TMC3    H2 6068   4.279   2.287  14.114  0.1940 -0.1607  0.3058
  406TMC3    C7 6069   4.240   2.465  14.309 -0.0817 -0.2930 -0.2153
  406TMC3    C8 6070   4.057   2.117  14.035 -0.0544  0.4670 -0.3746
  406TMC3    O1 6071   4.222   2.574  14.360  0.2239  0.1093 -0.3469
  406TMC3    O2 6072   3.948   2.078  13.988  0.0602  0.6483 -0.8550
  407MPD2     C 6073   2.195   3.059   9.948 -0.5540 -0.1268  0.3391
  407MPD2    C1 6074   2.323   3.005   9.971 -0.0381 -0.2359 -0.6415
  407MPD2    C2 6075   2.370   2.993  10.099  0.4134 -0.5313 -0.2260
  407MPD2    C3 6076   2.298   3.045  10.204  0.0189  0.3969 -0.2259
  407MPD2    C4 6077   2.171   3.086  10.181 -0.8361  0.1498  0.4880
  407MPD2    C5 6078   2.119   3.095  10.054 -0.3561 -0.2430  0.0974
  407MPD2     H 6079   2.475   2.970  10.108  0.0854 -1.8223  0.3465
  407MPD2    H1 6080   2.105   3.113  10.262  3.0611  2.4448  2.8910
  407MPD2    H2 6081   2.153   3.088   9.852 -0.0634 -0.7802 -0.0746
  407MPD2    H3 6082   2.013   3.110  10.036  0.2882  1.9353 -2.0045
  407MPD2     N 6083   2.352   3.061  10.336  0.3900  0.1766 -0.1276
  407MPD2    H5 6084   2.289   3.108  10.401  0.6641  1.0655 -0.4981
  407MPD2    N1 6085   2.411   2.975   9.864 -0.6705  0.5111 -0.3429
  407MPD2    H7 6086   2.499   2.929   9.885 -1.1231 -0.7519 -1.1705
  408TMC3    C1 6087   2.500   3.006   9.651  0.2407 -0.1220 -0.0846
  408TMC3    C2 6088   2.589   2.898   9.659  0.2399 -0.2969 -0.2073
  408TMC3    C3 6089   2.709   2.914   9.597  0.7440 -0.1819 -0.2545
  408TMC3    C4 6090   2.527   3.108   9.562  0.1638  0.9662  0.5375
  408TMC3    C5 6091   2.644   3.111   9.501  0.1071  0.2022  0.4386
  408TMC3    C6 6092   2.744   3.016   9.516  0.2404  0.1070 -0.3040
  408TMC3     C 6093   2.384   3.021   9.734 -0.0756 -0.0664  0.2476
  408TMC3     O 6094   2.297   3.098   9.692  0.5291 -0.6708 -0.4183
  408TMC3     H 6095   2.571   2.809   9.717 -2.8728  1.6557  1.8327
  408TMC3    H1 6096   2.461   3.192   9.542 -2.1191 -0.8042  0.6400
  408TMC3    H2 6097   2.848   3.016   9.485  0.6224  0.8847  0.9372
  408TMC3    C7 6098   2.682   3.218   9.418  0.2934  0.0974  0.1044
  408TMC3    C8 6099   2.802   2.803   9.598  0.5424 -0.5005  0.5920
  408TMC3    O1 6100   2.794   3.206   9.375 -0.2723  0.1026  0.0706
  408TMC3    O2 6101   2.754   2.693   9.614  0.5698  0.2670 -0.6624
  409MPD2     C 6102   1.023   4.404  17.233  0.3377 -0.0442  0.1958
  409MPD2    C1 6103   1.138   4.387  17.305  0.4712  0.2564 -0.0035
  409MPD2    C2 6104   1.242   4.473  17.283  0.5251  0.5130 -0.3469
  409MPD2    C3 6105   1.227   4.582  17.189 -0.2371  0.5358  0.2571
  409MPD2    C4 6106   1.105   4.594  17.127  0.2094 -0.1365  0.1992
  409MPD2    C5 6107   1.000   4.509  17.156  0.0220  0.0074 -0.1183
  409MPD2     H 6108   1.323   4.460  17.353  1.1782 -0.7921 -1.3394
  409MPD2    H1 6109   1.088   4.670  17.052 -1.6637 -0.4408  0.3228
  409MPD2    H2 6110   0.941   4.333  17.234 -0.1128  0.4281 -1.5143
  409MPD2    H3 6111   0.906   4.518  17.103  0.8607  1.6988 -1.3038
  409MPD2     N 6112   1.322   4.689  17.168  0.5378  0.3637  0.1156
  409MPD2    H5 6113   1.301   0.033  17.096 -1.0836 -0.8400 -0.5616
  409MPD2    N1 6114   1.160   4.285  17.396 -0.7709 -0.3163 -0.4477
  409MPD2    H7 6115   1.257   4.268  17.421 -0.3886 -1.2651 -2.5550
  410TMC3    C1 6116   1.541   0.068  17.184 -0.6537  0.2767 -0.1275
  410TMC3    C2 6117   1.653   0.090  17.258  0.1060  0.6143 -0.0756
  410TMC3    C3 6118   1.732   0.196  17.216  0.3064 -0.1600  0.9595
  410TMC3    C4 6119   1.504   0.145  17.082  0.6179 -0.6811  0.5077
  410TMC3    C5 6120   1.586   0.242  17.042 -0.6982 -0.0350 -0.1702
  410TMC3    C6 6121   1.699   0.276  17.111 -0.9450 -0.0901 -0.2746
  410TMC3     C 6122   1.448   4.690  17.229  0.1941  0.0628 -0.4577
  410TMC3     O 6123   1.492   4.614  17.316 -0.0218 -1.1688 -0.5002
  410TMC3     H 6124   1.692   0.027  17.337 -0.4236  1.5105  0.9068
  410TMC3    H1 6125   1.413   0.125  17.026 -0.7033  0.4057  2.2323
  410TMC3    H2 6126   1.755   0.366  17.090 -3.0757  1.0884 -0.9079
  410TMC3    C7 6127   1.559   0.287  16.906  0.5853 -0.0329  0.2506
  410TMC3    C8 6128   1.838   0.248  17.306  0.5451 -0.1744  0.9133
  410TMC3    O1 6129   1.492   0.206  16.844 -0.4942 -0.1796 -0.3976
  410TMC3    O2 6130   1.849   0.371  17.317  0.0267 -0.0416 -0.0476
  411MPD2     C 6131   1.956   0.373  15.243 -0.1755 -0.1391  0.8905
  411MPD2    C1 6132   1.829   0.422  15.227 -1.0106  0.1634  0.1839
  411MPD2    C2 6133   1.727   0.335  15.216  0.4610 -0.7694  0.2137
  411MPD2    C3 6134   1.742   0.197  15.233 -0.1041 -0.1229  0.0086
  411MPD2    C4 6135   1.871   0.148  15.258  0.7457 -0.4556  0.0981
  411MPD2    C5 6136   1.978   0.237  15.260 -0.5481 -0.4298 -0.7322
  411MPD2     H 6137   1.628   0.370  15.190  0.7768  0.6267  0.9114
  411MPD2    H1 6138   1.888   0.041  15.251  1.3230 -0.2746 -1.3317
  411MPD2    H2 6139   2.044   0.436  15.243 -0.3309  0.0786  0.9496
  411MPD2    H3 6140   2.081   0.206  15.272  0.7977  3.3054 -2.4535
  411MPD2     N 6141   1.630   0.103  15.242  0.2191  0.2648 -0.1760
  411MPD2    H5 6142   1.642   0.013  15.288  1.2462  1.5783  2.1618
  411MPD2    N1 6143   1.804   0.558  15.196  0.2015  0.4163 -0.2757
  411MPD2    H7 6144   1.713   0.576  15.156 -1.1774 -0.7898  2.3368
  412TMC3    C1 6145   1.419   0.024  15.222  0.1422 -0.1638  0.8025
  412TMC3    C2 6146   1.298   0.062  15.287 -0.0013  1.2084  0.1804
  412TMC3    C3 6147   1.177   0.008  15.244  0.2360 -0.7768 -0.3874
  412TMC3    C4 6148   1.411   4.659  15.117 -0.2105  0.2346 -0.2311
  412TMC3    C5 6149   1.295   4.599  15.084  0.1723 -0.4117  0.4834
  412TMC3    C6 6150   1.174   4.629  15.147 -0.4368  0.0270  0.3292
  412TMC3     C 6151   1.504   0.130  15.196  0.4663 -0.4761  0.1172
  412TMC3     O 6152   1.446   0.226  15.148  0.1171  0.8486 -0.2818
  412TMC3     H 6153   1.299   0.147  15.355 -0.0344  2.2910 -1.1760
  412TMC3    H1 6154   1.493   4.654  15.046  0.2497 -1.3207  0.4145
  412TMC3    H2 6155   1.082   4.582  15.115  0.3999  0.0312 -2.0936
  412TMC3    C7 6156   1.265   4.606  14.942  0.8945 -0.9103  0.3646
  412TMC3    C8 6157   1.085   0.110  15.194 -0.5688 -0.0332  0.2782
  412TMC3    O1 6158   1.204   4.514  14.891 -0.4771 -0.3345 -0.0481
  412TMC3    O2 6159   1.125   0.224  15.201 -0.6154  0.6042 -0.4465
  413MPD2     C 6160   3.476   3.043  16.024 -0.7532 -0.3115  0.5850
  413MPD2    C1 6161   3.475   3.049  15.881  0.4123  0.9430 -0.4304
  413MPD2    C2 6162   3.579   2.997  15.807 -0.1631 -0.7697  0.3803
  413MPD2    C3 6163   3.689   2.931  15.874  0.5313 -0.3185  0.3290
  413MPD2    C4 6164   3.684   2.939  16.008  0.6734 -0.3019  0.4133
  413MPD2    C5 6165   3.591   3.001  16.086  0.8032 -0.4197  0.0647
  413MPD2     H 6166   3.579   3.013  15.700 -2.0299  0.3606  0.5425
  413MPD2    H1 6167   3.764   2.901  16.071  0.9057  1.8791  1.4597
  413MPD2    H2 6168   3.398   3.075  16.092  0.1312  0.8675  1.0402
  413MPD2    H3 6169   3.607   3.006  16.193  1.5790 -1.7770  0.0103
  413MPD2     N 6170   3.796   2.887  15.795  0.3803  0.0793 -0.4910
  413MPD2    H5 6171   3.786   2.899  15.694 -0.2103 -0.0713 -0.4540
  413MPD2    N1 6172   3.364   3.117  15.832 -0.3641 -0.7985 -0.4591
  413MPD2    H7 6173   3.298   3.153  15.900 -0.7637 -2.0105 -0.2030
  414TMC3    C1 6174   3.995   2.813  15.735  0.2188 -0.1487 -0.4934
  414TMC3    C2 6175   4.037   2.688  15.703  0.8028  0.4049 -0.2623
  414TMC3    C3 6176   4.081   2.667  15.572 -0.2779 -0.3634 -0.1849
  414TMC3    C4 6177   4.001   2.915  15.644  0.0496  0.2418 -0.3101
  414TMC3    C5 6178   4.035   2.886  15.510 -0.9032 -0.2906 -0.1854
  414TMC3    C6 6179   4.077   2.763  15.472  0.2745  0.6588 -0.3155
  414TMC3     C 6180   3.901   2.811  15.840  0.2238  0.6680 -0.5519
  414TMC3     O 6181   3.933   2.776  15.952  0.2043  0.0578  0.3735
  414TMC3     H 6182   4.035   2.609  15.777 -1.2167 -0.8335 -1.6366
  414TMC3    H1 6183   3.980   3.017  15.672  1.2211 -0.4608  3.0810
  414TMC3    H2 6184   4.091   2.745  15.366  1.6980 -1.9559  0.3190
  414TMC3    C7 6185   3.934   2.945  15.422  0.4439  0.1100  0.0827
  414TMC3    C8 6186   4.161   2.553  15.541 -0.0232  0.1351  0.5089
  414TMC3    O1 6187   3.830   2.964  15.489 -0.5580  0.2266  0.2945
  414TMC3    O2 6188   4.160   2.461  15.623 -0.7781  0.5164  0.6156
  415TMC3    C1 6189   4.623   0.552  10.289  0.1223  0.0634  0.4943
  415TMC3    C2 6190   4.609   0.673  10.230 -0.1601 -0.0659  0.1339
  415TMC3    C3 6191   4.592   0.679  10.095 -0.5659  0.3447 -0.1535
  415TMC3    C4 6192   4.594   0.438  10.223 -0.0807  0.4365 -0.5168
  415TMC3    C5 6193   4.562   0.451  10.088 -0.1372  0.6745 -0.3041
  415TMC3    C6 6194   4.573   0.568  10.016  0.5669  0.7817 -0.9330
  415TMC3     C 6195   4.632   0.539  10.437 -0.2290  0.5450 -0.2469
  415TMC3     O 6196   4.621   0.430  10.484 -0.3670  0.2953 -0.4964
  415TMC3     H 6197   4.603   0.767  10.284 -2.3313 -0.2387  0.2112
  415TMC3    H1 6198   4.601   0.340  10.269 -1.4844  1.1748  1.2382
  415TMC3    H2 6199   4.556   0.580   9.909  0.7957  0.4714 -1.0048
  415TMC3    C7 6200   4.476   0.348  10.041 -0.3349  0.5498  0.0235
  415TMC3    C8 6201   4.557   0.806  10.027 -0.7051 -0.1456 -0.2633
  415TMC3    O1 6202   4.441   0.366   9.925  0.1694 -0.3582 -0.5032
  415TMC3    O2 6203   4.496   0.803   9.923 -0.1809 -0.1989  0.2097
  416MPD2     C 6204   1.324   4.542  11.865  0.2830 -0.3606 -0.1247
  416MPD2    C1 6205   1.194   4.486  11.844 -0.7769 -0.4942  0.1754
  416MPD2    C2 6206   1.189   4.353  11.793  0.3190 -0.5312  0.0538
  416MPD2    C3 6207   1.307   4.285  11.773  0.2796 -0.1088 -1.0314
  416MPD2    C4 6208   1.425   4.343  11.791  0.5472 -0.2907  0.2987
  416MPD2    C5 6209   1.435   4.476  11.831  0.2448  0.2237 -0.1691
  416MPD2     H 6210   1.096   4.301  11.777 -1.5684  2.7889  0.3109
  416MPD2    H1 6211   1.522   4.295  11.786  1.4741  1.4372  1.6222
  416MPD2    H2 6212   1.334   4.647  11.889  0.2425 -0.1283 -1.1209
  416MPD2    H3 6213   1.528   4.528  11.853  0.7443 -1.4210  1.6129
  416MPD2     N 6214   1.294   4.151  11.738  0.1978 -0.6213  0.1606
  416MPD2    H5 6215   1.200   4.123  11.710 -1.3427  1.0871  3.6819
  416MPD2    N1 6216   1.088   4.569  11.884  0.5135 -0.1988 -0.3481
  416MPD2    H7 6217   1.116   4.659  11.921  0.4193 -0.0140 -0.7356
  417TMC3    C1 6218   0.878   4.660  11.937  0.2835 -0.3224  0.0727
  417TMC3    C2 6219   0.946   0.020  12.022  0.4716 -0.4649  0.0085
  417TMC3    C3 6220   0.895   0.146  12.034 -0.5261  0.0528 -0.3521
  417TMC3    C4 6221   0.745   4.678  11.886  0.5868 -0.1987  0.0835
  417TMC3    C5 6222   0.695   0.077  11.927  0.8816 -0.1494  0.4268
  417TMC3    C6 6223   0.764   0.175  12.000 -0.3893 -0.5263 -0.0774
  417TMC3     C 6224   0.952   4.542  11.886 -0.4141  0.0526 -0.2409
  417TMC3     O 6225   0.886   4.442  11.863 -0.5810  0.0168 -0.4807
  417TMC3     H 6226   1.043   4.722  12.066  0.4059 -2.4517 -0.8722
  417TMC3    H1 6227   0.699   4.601  11.825  1.7515 -0.0437 -0.9814
  417TMC3    H2 6228   0.723   0.275  11.994  1.7165  0.3139 -0.4764
  417TMC3    C7 6229   0.629   0.142  11.817  0.3488 -0.2742  0.5960
  417TMC3    C8 6230   0.937   0.231  12.147 -0.3428  0.3159  0.0451
  417TMC3    O1 6231   0.688   0.235  11.762  0.6416 -0.9848  0.9509
  417TMC3    O2 6232   0.840   0.289  12.200 -0.2118  0.2065  0.0552
  418TMC3    C1 6233   4.452   1.705   0.315 -0.3593 -0.1172  0.3273
  418TMC3    C2 6234   4.337   1.637   0.307  0.3409 -0.4118 -0.0115
  418TMC3    C3 6235   4.247   1.650   0.418  0.3169 -0.5737  0.4900
  418TMC3    C4 6236   4.477   1.804   0.406 -0.3516  0.1180  0.6831
  418TMC3    C5 6237   4.389   1.808   0.521  0.2146  0.5384 -0.0770
  418TMC3    C6 6238   4.272   1.730   0.521 -0.4936 -0.2955 -0.7540
  418TMC3     C 6239   4.536   1.692   0.197  0.5324  0.3380  0.4299
  418TMC3     O 6240   4.591   1.799   0.172  0.5680  0.3716  0.8524
  418TMC3     H 6241   4.327   1.569   0.223  3.2701  0.9267 -1.4233
  418TMC3    H1 6242   4.574   1.853   0.412  0.6408 -1.6304 -0.7340
  418TMC3    H2 6243   4.205   1.717   0.605 -0.1445 -1.0926 -0.6013
  418TMC3    C7 6244   4.454   1.771   0.645 -0.0004 -0.0723  0.2851
  418TMC3    C8 6245   4.151   1.540   0.428  0.9128  0.0818  0.0574
  418TMC3    O1 6246   4.403   1.676   0.704 -0.1093 -0.3599  0.7205
  418TMC3    O2 6247   4.031   1.566   0.449 -0.2326 -0.0008  0.5435
  419MPD2     C 6248   3.566   4.482  12.936  0.2317 -0.3433  1.0618
  419MPD2    C1 6249   3.451   4.507  12.870 -0.0549  0.0977 -0.5786
  419MPD2    C2 6250   3.347   4.566  12.938  0.2799  0.9824 -0.0008
  419MPD2    C3 6251   3.341   4.576  13.075  0.0718 -0.1978  0.0902
  419MPD2    C4 6252   3.446   4.530  13.146  0.1785 -0.0746 -0.0277
  419MPD2    C5 6253   3.558   4.487  13.077 -0.8637 -1.2546 -0.2355
  419MPD2     H 6254   3.252   4.593  12.893  1.1445  1.8106 -1.3415
  419MPD2    H1 6255   3.444   4.522  13.254  0.1232  1.4507  0.0822
  419MPD2    H2 6256   3.654   4.433  12.896  0.0644  0.8008 -0.7076
  419MPD2    H3 6257   3.643   4.446  13.130  1.2185  2.2050 -0.9466
  419MPD2     N 6258   3.231   4.642  13.130 -0.2716  0.0737 -0.3896
  419MPD2    H5 6259   3.150   4.666  13.074 -0.0784  1.3861 -0.1184
  419MPD2    N1 6260   3.432   4.490  12.734 -0.5051  0.2493  0.9654
  419MPD2    H7 6261   3.343   4.524  12.696 -0.1374 -0.5231 -0.5795
  420TMC3    C1 6262   3.087   0.034  13.275 -0.1359  0.2847  0.6535
  420TMC3    C2 6263   2.994   0.042  13.178  0.5076  0.6117 -0.1882
  420TMC3    C3 6264   2.879   0.120  13.196 -0.3071  0.3558  0.6527
  420TMC3    C4 6265   3.065   0.099  13.395 -0.2921 -0.2673  0.3880
  420TMC3    C5 6266   2.949   0.176  13.405  0.8933  0.2449 -0.2498
  420TMC3    C6 6267   2.860   0.192  13.307 -0.4523  0.4658 -0.6116
  420TMC3     C 6268   3.218   4.692  13.260  0.1257 -0.2701 -0.5514
  420TMC3     O 6269   3.311   4.698  13.345  0.2737  0.2652  0.5027
  420TMC3     H 6270   3.002   4.700  13.093 -0.3409 -1.6204  1.4645
  420TMC3    H1 6271   3.131   0.077  13.479  0.6988 -1.1919 -0.6308
  420TMC3    H2 6272   2.765   0.242  13.317 -0.6901 -0.0993 -0.0613
  420TMC3    C7 6273   2.890   0.192  13.537  0.1765  0.1835  0.0318
  420TMC3    C8 6274   2.798   0.143  13.075  0.3509  0.2169 -0.5809
  420TMC3    O1 6275   2.768   0.195  13.528  0.0308  0.1662 -0.9930
  420TMC3    O2 6276   2.763   0.261  13.067  0.1850 -0.6651  0.2891
  421TMC3    C1 6277   4.424   2.049  13.747  0.1493 -0.2840  0.4415
  421TMC3    C2 6278   4.506   2.151  13.786  0.1917  0.5373  0.0812
  421TMC3    C3 6279   4.619   2.122  13.855 -0.6674  0.2373 -0.1228
  421TMC3    C4 6280   4.468   1.919  13.759 -0.4309 -0.1118 -0.1807
  421TMC3    C5 6281   4.591   1.897  13.819  0.1841  0.4374 -0.1228
  421TMC3    C6 6282   4.670   1.999  13.865 -0.6409  0.5672 -0.1544
  421TMC3     C 6283   4.323   2.074  13.644 -0.1669 -0.9070  0.0145
  421TMC3     O 6284   4.318   2.189  13.606  0.1214  0.1103  0.4706
  421TMC3     H 6285   4.463   2.251  13.784 -0.4838  0.2271 -0.9964
  421TMC3    H1 6286   4.408   1.837  13.721 -2.9457  0.4397  2.5725
  421TMC3    H2 6287   0.043   1.982  13.910 -1.4464 -0.4085  1.2234
  421TMC3    C7 6288   4.619   1.767  13.880 -0.6079 -0.0792 -0.3729
  421TMC3    C8 6289   4.654   2.221  13.955  0.0183  1.1770  0.0740
  421TMC3    O1 6290   0.009   1.753  13.925  0.4116 -0.4367 -0.7176
  421TMC3    O2 6291   4.614   2.331  13.927  0.6828  0.5715  0.0278
  422TMC3    C1 6292   1.991   2.640  13.219 -0.1027  0.4103  0.0083
  422TMC3    C2 6293   1.913   2.744  13.271 -0.0379 -0.0683  0.7865
  422TMC3    C3 6294   1.789   2.704  13.318 -0.1671  0.3608 -0.0788
  422TMC3    C4 6295   1.942   2.514  13.202  0.0168  0.5457 -0.6199
  422TMC3    C5 6296   1.817   2.485  13.252 -0.8445 -0.1516 -0.6760
  422TMC3    C6 6297   1.743   2.575  13.316 -0.7672  0.6284 -0.7342
  422TMC3     C 6298   2.135   2.658  13.205  0.3310 -0.5129  0.3108
  422TMC3     O 6299   2.206   2.561  13.188 -0.3529  0.3632 -0.6996
  422TMC3     H 6300   1.944   2.847  13.279 -2.1937  0.7630 -1.6090
  422TMC3    H1 6301   2.000   2.439  13.148  1.2080  1.3775 -0.4863
  422TMC3    H2 6302   1.673   2.547  13.394  0.0208  0.2048 -0.1785
  422TMC3    C7 6303   1.776   2.343  13.257 -0.7703  0.2472 -0.2196
  422TMC3    C8 6304   1.728   2.804  13.392 -0.0026 -0.4533 -0.1304
  422TMC3    O1 6305   1.851   2.258  13.203  0.0484 -0.1878 -0.1020
  422TMC3    O2 6306   1.804   2.875  13.459 -0.4305 -0.1776 -0.3238
  423MPD2     C 6307   2.851   3.628   1.014 -1.2918 -0.5598  0.0354
  423MPD2    C1 6308   2.983   3.652   1.041 -1.5081 -0.0422 -0.1788
  423MPD2    C2 6309   3.086   3.605   0.957  0.4472 -0.6326 -0.0222
  423MPD2    C3 6310   3.047   3.533   0.849  0.3945 -0.0159 -0.7173
  423MPD2    C4 6311   2.914   3.501   0.821  0.1951  0.9999 -0.4441
  423MPD2    C5 6312   2.820   3.554   0.902  0.5107 -0.1222 -0.5641
  423MPD2     H 6313   3.192   3.616   0.976 -0.0436  3.1423  0.5326
  423MPD2    H1 6314   2.881   3.443   0.736 -0.0623 -1.7917  1.5564
  423MPD2    H2 6315   2.770   3.681   1.061  0.5140  1.1570  1.2255
  423MPD2    H3 6316   2.716   3.537   0.876  0.1537  0.4419  0.4595
  423MPD2     N 6317   3.138   3.485   0.745 -0.0501  0.5859 -0.0500
  423MPD2    H5 6318   3.103   3.420   0.675  0.9229  1.3275 -1.2232
  423MPD2    N1 6319   3.028   3.737   1.143  0.0713 -0.3889  0.0084
  423MPD2    H7 6320   3.125   3.741   1.172  0.8827 -0.5165 -2.6665
  424TMC3    C1 6321   3.025   3.873   1.328 -0.3299  1.1212  0.1549
  424TMC3    C2 6322   3.087   3.789   1.414 -0.0209 -0.2211  0.0890
  424TMC3    C3 6323   3.115   3.826   1.542  0.3736  0.6192  0.2573
  424TMC3    C4 6324   2.997   4.002   1.363  0.2310 -0.4453  0.8680
  424TMC3    C5 6325   3.040   4.045   1.484 -0.4528  0.4815  0.3260
  424TMC3    C6 6326   3.101   3.959   1.573  0.3141  0.8560 -0.6495
  424TMC3     C 6327   2.952   3.817   1.218 -0.5307  0.4064  0.1875
  424TMC3     O 6328   2.836   3.858   1.211  0.2040  0.0096  0.2450
  424TMC3     H 6329   3.097   3.686   1.382  2.7868 -0.8306  2.9659
  424TMC3    H1 6330   2.953   4.074   1.294 -1.4645 -1.9798  0.3440
  424TMC3    H2 6331   3.110   3.989   1.677 -0.7354 -0.7911 -0.0671
  424TMC3    C7 6332   3.033   4.189   1.517  0.1703 -0.1299  0.2019
  424TMC3    C8 6333   3.200   3.734   1.614  0.0618  0.3736 -0.3062
  424TMC3    O1 6334   2.972   4.260   1.439  0.3912  0.0718  0.0734
  424TMC3    O2 6335   3.177   3.613   1.598 -0.2229  0.3512 -0.2598
  425MPD2     C 6336   2.451   3.351   0.085 -0.2688 -0.5694  0.1326
  425MPD2    C1 6337   2.361   3.255   0.057  0.1623  0.1534  0.1822
  425MPD2    C2 6338   2.224   3.278   0.082 -0.2630 -0.1294  0.7291
  425MPD2    C3 6339   2.183   3.399   0.129  0.2196  0.0203 -0.3518
  425MPD2    C4 6340   2.275   3.499   0.151  0.9777 -0.7761 -0.0716
  425MPD2    C5 6341   2.408   3.472   0.137  0.3126  0.7778 -0.6252
  425MPD2     H 6342   2.156   3.198   0.057  1.4546 -1.0764 -1.0179
  425MPD2    H1 6343   2.241   3.595   0.187 -0.0108 -1.1415 -0.0263
  425MPD2    H2 6344   2.556   3.331   0.068 -0.1861  0.1504 -0.1907
  425MPD2    H3 6345   2.469   3.555   0.169  0.0872  1.4441 -1.9237
  425MPD2     N 6346   2.043   3.412   0.144 -0.0504 -0.1028  0.0932
  425MPD2    H5 6347   1.985   3.335   0.113 -0.5501  0.0812  0.5935
  425MPD2    N1 6348   2.408   3.118   0.024  0.3798 -0.2726 -0.4330
  425MPD2    H7 6349   2.335   3.057  17.688  0.4101 -1.0357  0.8452
  426TMC3    C1 6350   2.537   2.931  17.676  0.1598  0.4844  0.9100
  426TMC3    C2 6351   2.487   2.921  17.554 -0.3623 -0.3565 -0.5363
  426TMC3    C3 6352   2.482   2.795  17.500 -0.3042 -0.3476 -0.5014
  426TMC3    C4 6353   2.593   2.819   0.045  1.1997  0.0961  0.0415
  426TMC3    C5 6354   2.591   2.696  17.685  0.3147 -0.3417  0.4044
  426TMC3    C6 6355   2.538   2.682  17.560  1.0146 -0.4392 -0.1970
  426TMC3     C 6356   2.532   3.063   0.036 -0.0424  0.1368 -0.8615
  426TMC3     O 6357   2.620   3.103   0.109  0.1184 -0.0037  0.1597
  426TMC3     H 6358   2.455   3.008  17.498 -1.3550 -1.0432 -1.0280
  426TMC3    H1 6359   2.644   2.841   0.138 -2.0624 -0.3134  1.9397
  426TMC3    H2 6360   2.538   2.589  17.504 -0.1041 -0.6957  0.2374
  426TMC3    C7 6361   2.646   2.573   0.040  0.4252  0.5463 -0.3979
  426TMC3    C8 6362   2.425   2.768  17.371  0.2180 -0.4825  0.2245
  426TMC3    O1 6363   2.667   2.474  17.668  0.0877  0.6331  0.0075
  426TMC3    O2 6364   2.473   2.671  17.311  0.3004 -0.1654 -0.0754
  427MPD2     C 6365   0.887   0.573  15.165  0.5494 -0.1172 -0.7169
  427MPD2    C1 6366   0.823   0.496  15.262 -0.3857  0.0967 -0.3744
  427MPD2    C2 6367   0.694   0.453  15.239 -0.2545 -0.0609 -0.4858
  427MPD2    C3 6368   0.627   0.497  15.123 -0.1083  0.4324  0.4772
  427MPD2    C4 6369   0.691   0.582  15.035  0.1063 -0.1223  0.3366
  427MPD2    C5 6370   0.821   0.623  15.056  0.6535  0.3975  0.1421
  427MPD2     H 6371   0.650   0.391  15.317 -0.3497 -0.4383 -0.8424
  427MPD2    H1 6372   0.644   0.602  14.939  2.7838 -1.5426 -1.2734
  427MPD2    H2 6373   0.992   0.597  15.162  0.7750 -0.6686  2.1497
  427MPD2    H3 6374   0.874   0.671  14.974  1.0525 -1.3897 -0.6444
  427MPD2     N 6375   0.488   0.470  15.096 -0.5424  0.0830 -0.2456
  427MPD2    H5 6376   0.443   0.531  15.028 -1.4688  1.0027  1.1747
  427MPD2    N1 6377   0.891   0.448  15.374  0.3264  0.0839 -0.3261
  427MPD2    H7 6378   0.853   0.368  15.423 -1.2205  0.4405 -0.9337
  428TMC3    C1 6379   1.059   0.387  15.521  0.1395  0.6015 -0.6868
  428TMC3    C2 6380   1.022   0.258  15.531  0.2446 -0.2103  0.5728
  428TMC3    C3 6381   1.103   0.182  15.618  0.6634 -1.3325 -0.3830
  428TMC3    C4 6382   1.177   0.439  15.584 -0.0363  0.5852 -0.6970
  428TMC3    C5 6383   1.261   0.354  15.644 -0.4459  0.2371  0.4974
  428TMC3    C6 6384   1.218   0.229  15.679  0.1106  0.1310 -0.3822
  428TMC3     C 6385   1.018   0.482  15.414  0.1863 -0.0012  0.1059
  428TMC3     O 6386   1.083   0.584  15.390  0.0128  0.5348 -0.3111
  428TMC3     H 6387   0.960   0.206  15.459  1.5470 -1.9040  0.6769
  428TMC3    H1 6388   1.217   0.539  15.573  2.7915 -0.5939 -1.0691
  428TMC3    H2 6389   1.286   0.171  15.741  2.3172  1.7784 -1.2467
  428TMC3    C7 6390   1.373   0.414  15.713  0.7424  0.3022 -0.6035
  428TMC3    C8 6391   1.116   0.043  15.592  0.2848 -0.0069  0.2842
  428TMC3    O1 6392   1.384   0.377  15.825  0.1400 -0.2114 -0.1352
  428TMC3    O2 6393   1.226   0.001  15.582  0.2126 -0.5432  0.0076
  429MPD2     C 6394   1.309   0.678   0.415  1.0227 -0.0370  0.2961
  429MPD2    C1 6395   1.384   0.603   0.327 -0.2277  0.8943 -0.6772
  429MPD2    C2 6396   1.433   0.655   0.207 -0.7928  0.1946  0.4767
  429MPD2    C3 6397   1.424   0.792   0.176  0.2157 -0.2343  0.7950
  429MPD2    C4 6398   1.365   0.868   0.274  0.2215 -0.6170 -0.6078
  429MPD2    C5 6399   1.301   0.807   0.382  0.3134  0.4369  0.0806
  429MPD2     H 6400   1.492   0.595   0.138 -1.6377 -0.7129  0.5335
  429MPD2    H1 6401   1.338   0.971   0.256  1.8302 -0.4087 -1.7075
  429MPD2    H2 6402   1.263   0.635   0.503 -0.1020 -0.0586 -0.3040
  429MPD2    H3 6403   1.236   0.871   0.441  2.4454  0.9689  1.8496
  429MPD2     N 6404   1.473   0.846   0.057 -0.0085 -0.0323  0.2195
  429MPD2    H5 6405   1.546   0.786   0.018  0.9161  1.2487 -0.0186
  429MPD2    N1 6406   1.418   0.469   0.358 -0.0111 -0.3631 -0.1321
  429MPD2    H7 6407   1.476   0.423   0.288 -1.3817  2.2452 -2.9957
  430TMC3    C1 6408   1.578   1.030  17.651  0.1241  0.3714  0.2074
  430TMC3    C2 6409   1.563   1.145  17.575  0.1503 -0.4179 -0.4290
  430TMC3    C3 6410   1.674   1.205  17.515  0.1931  0.6182 -0.5751
  430TMC3    C4 6411   1.704   0.985  17.671  0.1802 -0.4564 -0.5562
  430TMC3    C5 6412   1.808   1.047  17.611 -0.5731  0.3405 -0.3394
  430TMC3    C6 6413   1.798   1.161  17.541  0.8333  0.1633  0.0574
  430TMC3     C 6414   1.461   0.977   0.022  0.2910  0.1018 -0.6687
  430TMC3     O 6415   1.372   1.056   0.045 -0.2984  0.5459  0.2906
  430TMC3     H 6416   1.463   1.173  17.544  1.1353  2.2332 -1.2122
  430TMC3    H1 6417   1.718   0.891   0.025 -0.3588 -0.2969 -0.1210
  430TMC3    H2 6418   1.881   1.211  17.493 -0.5417  0.5007 -1.9832
  430TMC3    C7 6419   1.933   0.968  17.604 -0.1115 -0.2221 -0.1316
  430TMC3    C8 6420   1.655   1.243  17.383 -0.7532 -0.6695 -0.0842
  430TMC3    O1 6421   1.923   0.850  17.621 -0.3122  0.6496  0.2855
  430TMC3    O2 6422   1.560   1.188  17.330  0.2099 -0.3364  0.4009
  431MPD2     C 6423   3.272   0.533  12.523 -0.4049 -0.0369 -0.3367
  431MPD2    C1 6424   3.389   0.509  12.445  0.2177  0.1943 -0.5369
  431MPD2    C2 6425   3.423   0.381  12.413  0.6560 -0.7007 -0.1991
  431MPD2    C3 6426   3.350   0.279  12.464  0.0480  0.1417  0.1013
  431MPD2    C4 6427   3.241   0.298  12.543  0.5861 -0.0293 -0.0510
  431MPD2    C5 6428   3.202   0.425  12.566  0.2849 -0.7802  0.3304
  431MPD2     H 6429   3.506   0.363  12.346 -0.5596 -1.9180 -1.3940
  431MPD2    H1 6430   3.169   0.223  12.574  0.4384  0.2434  0.2570
  431MPD2    H2 6431   3.246   0.635  12.546 -0.8881  0.5997 -3.7238
  431MPD2    H3 6432   3.116   0.444  12.629  1.2992  0.4708  1.3259
  431MPD2     N 6433   3.373   0.142  12.431  0.0199  0.6096  0.4673
  431MPD2    H5 6434   3.324   0.075  12.489 -0.4772  1.0345  0.5397
  431MPD2    N1 6435   3.454   0.625  12.402  0.3220  0.3718 -0.3095
  431MPD2    H7 6436   3.415   0.711  12.440  0.1285  0.3827 -0.5389
  432TMC3    C1 6437   3.487   4.675  12.362 -0.2016 -0.4932  0.4937
  432TMC3    C2 6438   3.543   4.596  12.260  0.3092  0.1289  0.1850
  432TMC3    C3 6439   3.574   4.467  12.290 -0.4044 -0.1389  0.7569
  432TMC3    C4 6440   3.464   4.623  12.486 -0.3205  0.2019 -0.0188
  432TMC3    C5 6441   3.490   4.488  12.503  0.7177  0.8524 -0.1824
  432TMC3    C6 6442   3.539   4.412  12.404 -0.1467  0.1896  0.6050
  432TMC3     C 6443   3.464   0.093  12.340 -0.4088  0.2672  0.2351
  432TMC3     O 6444   3.524   0.148  12.250  0.4800  0.5044 -0.1354
  432TMC3     H 6445   3.558   4.648  12.166 -1.8028  1.3646  0.5198
  432TMC3    H1 6446   3.430   4.681  12.571  0.7760 -0.3954  0.8303
  432TMC3    H2 6447   3.551   4.308  12.434  0.8327  0.4215  0.9969
  432TMC3    C7 6448   3.519   4.449  12.642 -0.4492  0.0661  0.4960
  432TMC3    C8 6449   3.668   4.394  12.209  0.1223  0.0581 -0.6539
  432TMC3    O1 6450   3.623   4.390  12.660  0.0243 -0.4239  0.3392
  432TMC3    O2 6451   3.674   4.275  12.233  0.2464 -0.2274  0.4008
  433MPD2     C 6452   2.427   3.400  11.435 -0.7207 -0.1713 -0.2366
  433MPD2    C1 6453   2.342   3.296  11.452  0.9873 -0.2805 -1.2483
  433MPD2    C2 6454   2.295   3.272  11.581  0.3156  0.4148 -0.4291
  433MPD2    C3 6455   2.325   3.359  11.688  0.0493  0.4935 -0.4207
  433MPD2    C4 6456   2.401   3.471  11.665 -0.3768  0.2304  0.8785
  433MPD2    C5 6457   2.456   3.485  11.538 -0.2008  0.2710 -0.5607
  433MPD2     H 6458   2.244   3.180  11.607 -2.6263  2.0025 -0.5701
  433MPD2    H1 6459   2.425   3.553  11.733 -0.6292  0.5849  0.5373
  433MPD2    H2 6460   2.478   3.424  11.342  0.6043 -1.0093  0.2595
  433MPD2    H3 6461   2.521   3.569  11.519  0.8589 -0.7805 -1.5616
  433MPD2     N 6462   2.267   3.326  11.813  0.2500 -0.4357 -0.0220
  433MPD2    H5 6463   2.212   3.241  11.818 -0.4427 -0.0506 -1.0340
  433MPD2    N1 6464   2.334   3.204  11.343 -0.6377  0.4321 -0.5031
  433MPD2    H7 6465   2.396   3.222  11.264  2.6619 -1.3817  1.6892
  434TMC3    C1 6466   2.318   3.004  11.239  0.2105 -0.2823  0.2690
  434TMC3    C2 6467   2.362   2.882  11.287 -0.5764  0.7497 -0.0491
  434TMC3    C3 6468   2.465   2.822  11.227 -0.5541 -0.2561 -0.1360
  434TMC3    C4 6469   2.351   3.059  11.118  0.1927  0.2763  0.1716
  434TMC3    C5 6470   2.451   2.989  11.057 -0.2717 -0.3679  0.1163
  434TMC3    C6 6471   2.511   2.872  11.110  0.0847  0.2998 -0.3026
  434TMC3     C 6472   2.275   3.083  11.351  0.3737  0.6000 -0.1508
  434TMC3     O 6473   2.197   3.046  11.436  0.0168 -0.1733 -0.2357
  434TMC3     H 6474   2.336   2.839  11.384  0.1425 -0.5926 -0.4601
  434TMC3    H1 6475   2.315   3.153  11.078 -2.0677  0.0569  1.6887
  434TMC3    H2 6476   2.588   2.817  11.058  0.9418  0.2872  0.9887
  434TMC3    C7 6477   2.430   2.998  10.918 -0.3512 -0.4321 -0.0907
  434TMC3    C8 6478   2.549   2.746  11.314  0.0727 -0.0002  0.3824
  434TMC3    O1 6479   2.366   3.091  10.875 -0.0515  0.3205 -0.5172
  434TMC3    O2 6480   2.508   2.714  11.429 -0.6315 -0.8540 -0.2882
  435MPD2     C 6481   3.788   4.028  15.895 -0.0725 -0.5524 -0.6531
  435MPD2    C1 6482   3.754   4.032  16.030 -0.2436  0.8658  0.1326
  435MPD2    C2 6483   3.828   3.955  16.116 -0.0651  0.4488  0.1974
  435MPD2    C3 6484   3.946   3.894  16.084 -0.0791  0.5938 -0.0252
  435MPD2    C4 6485   3.987   3.901  15.950 -0.1376 -0.0415 -0.7506
  435MPD2    C5 6486   3.904   3.963  15.860  0.4748  0.0797  0.1697
  435MPD2     H 6487   3.804   3.950  16.222 -1.9373  3.5084 -0.0727
  435MPD2    H1 6488   4.075   3.845  15.919 -0.3752 -0.3559 -0.8490
  435MPD2    H2 6489   3.732   4.079  15.817  1.8865  1.4597 -0.7462
  435MPD2    H3 6490   3.932   3.962  15.755  0.3705 -1.2963  0.1605
  435MPD2     N 6491   4.002   3.809  16.179 -0.0814  0.4313 -0.1293
  435MPD2    H5 6492   3.949   3.802  16.265 -1.6410 -1.0871 -1.2280
  435MPD2    N1 6493   3.635   4.093  16.078  0.6435 -1.0358 -0.2488
  435MPD2    H7 6494   3.613   4.079  16.176 -0.4310  2.2677 -0.0196
  436TMC3    C1 6495   3.380   4.297  16.299 -0.0281 -0.4324 -0.2905
  436TMC3    C2 6496   3.469   4.234  16.220  0.3337 -0.3021 -0.7223
  436TMC3    C3 6497   3.466   4.251  16.085  0.5780 -0.1181  0.2648
  436TMC3    C4 6498   3.291   4.393  16.246 -0.0073  0.7183 -0.2100
  436TMC3    C5 6499   3.299   4.410  16.111 -0.2525 -0.0536 -0.4217
  436TMC3    C6 6500   3.386   4.350  16.031  0.0249  0.0580 -0.2841
  436TMC3     C 6501   3.408   4.294  16.439 -0.4286 -0.2366  0.7323
  436TMC3     O 6502   3.520   4.272  16.480  0.1242 -0.0044 -0.1631
  436TMC3     H 6503   3.527   4.161  16.275  1.3409  0.3003 -0.9945
  436TMC3    H1 6504   3.211   4.442  16.300 -0.4106  0.6213 -0.7203
  436TMC3    H2 6505   3.401   4.373  15.926 -2.0202  0.5721 -0.4583
  436TMC3    C7 6506   3.218   4.514  16.048 -0.0900 -0.0872  0.5390
  436TMC3    C8 6507   3.566   4.193  16.003  0.0265  0.5535  0.5879
  436TMC3    O1 6508   3.148   4.578  16.125 -0.3679 -0.8470  0.1294
  436TMC3    O2 6509   3.566   4.217  15.885 -0.1982 -0.0069  0.0095
  437TMC3    C1 6510   2.992   0.286  12.244  0.7631 -0.4664 -0.5023
  437TMC3    C2 6511   2.889   0.346  12.313  0.3727  0.2081 -0.0848
  437TMC3    C3 6512   2.862   0.479  12.306 -0.0674 -0.2786  0.3618
  437TMC3    C4 6513   3.071   0.366  12.170 -0.9182 -0.0843  0.6003
  437TMC3    C5 6514   3.059   0.500  12.178  0.2417 -0.3412  0.3337
  437TMC3    C6 6515   2.948   0.562  12.238 -0.2899  0.4254  0.1351
  437TMC3     C 6516   3.037   0.148  12.263  0.1937  0.0741 -0.0226
  437TMC3     O 6517   3.116   0.093  12.182 -0.2554  0.5171 -0.0050
  437TMC3     H 6518   2.833   0.292  12.389  0.1777 -0.2087 -0.5265
  437TMC3    H1 6519   3.158   0.331  12.116  0.3285  2.2892  1.0603
  437TMC3    H2 6520   2.931   0.669  12.244  1.1143  0.5603  2.0730
  437TMC3    C7 6521   3.152   0.573  12.100 -0.3959  0.4171  0.0693
  437TMC3    C8 6522   2.797   0.538  12.418 -0.6160 -0.2987  0.4180
  437TMC3    O1 6523   3.194   0.528  11.993 -0.3058 -0.1471 -0.3570
  437TMC3    O2 6524   2.806   0.479  12.524  0.4004 -0.1840  0.2916
  438MPD2     C 6525   4.634   1.847  16.604 -0.6390  0.5221  0.5492
  438MPD2    C1 6526   4.708   1.797  16.709  0.2248  0.6657 -0.4150
  438MPD2    C2 6527   4.694   1.856  16.835 -0.5677  0.0380 -0.2198
  438MPD2    C3 6528   4.600   1.955  16.857 -0.2166  0.2212  0.3113
  438MPD2    C4 6529   4.521   2.002  16.752 -0.4377 -0.0430  0.0548
  438MPD2    C5 6530   4.543   1.947  16.632 -0.0667  0.4212  0.2971
  438MPD2     H 6531   0.021   1.805  16.916 -0.8187  1.7359  1.0024
  438MPD2    H1 6532   4.434   2.064  16.773  0.4476  1.1086  0.2732
  438MPD2    H2 6533   4.631   1.804  16.504  0.5643  0.9346  0.3360
  438MPD2    H3 6534   4.481   1.984  16.551 -0.1119  0.6456  0.4346
  438MPD2     N 6535   4.563   1.989  16.986  0.4154  0.2036  0.6395
  438MPD2    H5 6536   4.487   2.055  17.001 -2.3636 -2.7277 -0.6835
  438MPD2    N1 6537   0.090   1.703  16.695  0.1556  0.1305  0.4483
  438MPD2    H7 6538   0.133   1.685  16.785  0.9386 -2.3918 -0.4397
  439TMC3    C1 6539   0.240   1.544  16.617  0.1598 -0.3617 -0.0316
  439TMC3    C2 6540   0.278   1.464  16.504  0.1381  0.0040  0.1637
  439TMC3    C3 6541   0.385   1.389  16.505  0.1296 -0.7386  0.9639
  439TMC3    C4 6542   0.315   1.535  16.730 -0.2886 -0.4596  0.7451
  439TMC3    C5 6543   0.432   1.472  16.721  0.3497  0.1104  0.3655
  439TMC3    C6 6544   0.469   1.403  16.613  0.5071  0.1934 -0.1830
  439TMC3     C 6545   0.130   1.638  16.584 -0.4490  0.4776 -0.9104
  439TMC3     O 6546   0.088   1.638  16.467 -0.3136 -0.5459 -0.1184
  439TMC3     H 6547   0.221   1.469  16.412  0.0792  1.7350  0.2805
  439TMC3    H1 6548   0.298   1.605  16.811  1.5139 -0.2165  0.9228
  439TMC3    H2 6549   0.552   1.334  16.624  1.1782  1.1116  0.4964
  439TMC3    C7 6550   0.532   1.509  16.822  0.0345 -0.3972 -0.4601
  439TMC3    C8 6551   0.437   1.327  16.386 -0.1003 -0.1699  0.1750
  439TMC3    O1 6552   0.490   1.561  16.926 -0.0039  1.1088 -0.3983
  439TMC3    O2 6553   0.557   1.305  16.389 -0.1132  0.1483  0.2584
  440MPD2     C 6554   4.125   2.358  14.829  0.7138 -0.1179 -0.0557
  440MPD2    C1 6555   4.075   2.349  14.960  0.1750 -0.1294 -0.2492
  440MPD2    C2 6556   4.093   2.228  15.021 -0.5441 -0.3125  0.0228
  440MPD2    C3 6557   4.151   2.116  14.961 -0.2666 -0.2130  0.0511
  440MPD2    C4 6558   4.192   2.129  14.832 -0.1789  0.0349 -0.7665
  440MPD2    C5 6559   4.172   2.243  14.767 -0.0180 -0.2735 -0.5041
  440MPD2     H 6560   4.068   2.215  15.125 -0.6963  1.3792  0.2014
  440MPD2    H1 6561   4.230   2.041  14.781  2.6226 -1.7403  4.2568
  440MPD2    H2 6562   4.109   2.446  14.768 -0.1981 -0.3514 -0.1466
  440MPD2    H3 6563   4.202   2.250  14.663  0.7382 -0.8812 -0.3215
  440MPD2     N 6564   4.163   1.988  15.033  0.5108  0.0876 -0.8373
  440MPD2    H5 6565   4.234   1.925  14.998  0.2886  0.1435 -1.3786
  440MPD2    N1 6566   4.001   2.453  15.018  0.6243  1.0340 -1.0741
  440MPD2    H7 6567   3.960   2.435  15.109  3.8138 -0.4180  0.0659
  441TMC3    C1 6568   4.167   1.851  15.232 -0.3718 -0.1105  0.4338
  441TMC3    C2 6569   4.302   1.853  15.225  0.4572  0.3243  0.1545
  441TMC3    C3 6570   4.375   1.891  15.340  1.3730  0.1302 -0.5728
  441TMC3    C4 6571   4.103   1.848  15.354 -0.3151 -0.5192 -0.3726
  441TMC3    C5 6572   4.179   1.866  15.466 -0.1718  0.1679  1.0694
  441TMC3    C6 6573   4.311   1.894  15.461 -0.0283 -0.0311 -0.1589
  441TMC3     C 6574   4.096   1.947  15.148 -0.0185  0.2870  0.4756
  441TMC3     O 6575   3.991   1.994  15.179  0.4525 -0.1019 -0.2466
  441TMC3     H 6576   4.358   1.853  15.132  0.5814 -1.3168  0.2284
  441TMC3    H1 6577   3.995   1.838  15.355 -0.1454 -2.3468 -0.4887
  441TMC3    H2 6578   4.377   1.927  15.540  0.3868 -0.2069 -0.4298
  441TMC3    C7 6579   4.101   1.879  15.591 -0.9464 -0.3052 -0.2015
  441TMC3    C8 6580   4.440   2.014  15.311 -0.2648  0.2370 -0.0748
  441TMC3    O1 6581   3.977   1.868  15.578 -0.4393  0.2842 -1.0328
  441TMC3    O2 6582   4.515   2.026  15.216 -0.3465  0.0773 -0.0694
  442MPD2     C 6583   1.873   3.250  16.939 -0.4534 -0.4203  0.2752
  442MPD2    C1 6584   1.777   3.156  16.986 -0.0103  0.2232  0.4098
  442MPD2    C2 6585   1.765   3.034  16.915  0.3216  0.4498 -0.3155
  442MPD2    C3 6586   1.841   3.006  16.804  0.9697 -0.4005 -0.0008
  442MPD2    C4 6587   1.944   3.087  16.764  0.4068  0.1044 -0.2099
  442MPD2    C5 6588   1.952   3.212  16.828  0.2873  0.9102 -0.2319
  442MPD2     H 6589   1.694   2.961  16.952  1.7222  0.2260  1.9606
  442MPD2    H1 6590   2.016   3.066  16.686 -0.0554 -0.5696 -0.4539
  442MPD2    H2 6591   1.906   3.338  16.993 -2.2479 -0.2420  1.0544
  442MPD2    H3 6592   2.013   3.288  16.781  2.8587 -2.6014 -2.5239
  442MPD2     N 6593   1.833   2.883  16.736 -0.5155  0.2823 -1.1293
  442MPD2    H5 6594   1.908   2.866  16.669  0.6982  1.5467 -0.0803
  442MPD2    N1 6595   1.707   3.166  17.104 -0.1218  0.1545 -0.3775
  442MPD2    H7 6596   1.650   3.089  17.137  1.1661 -0.8485 -0.4740
  443TMC3    C1 6597   1.592   3.295  17.267  0.0464 -0.1567 -0.0876
  443TMC3    C2 6598   1.494   3.396  17.250  0.4649  0.3794  0.5874
  443TMC3    C3 6599   1.372   3.381  17.297  0.7760  0.2587  0.1025
  443TMC3    C4 6600   1.562   3.179  17.337 -0.3874 -0.0739  0.5500
  443TMC3    C5 6601   1.436   3.173  17.390 -0.5666  0.1389 -0.5313
  443TMC3    C6 6602   1.336   3.267  17.359 -0.2783  0.7828  0.1112
  443TMC3     C 6603   1.692   3.287  17.162  0.2486 -0.5308  0.0275
  443TMC3     O 6604   1.747   3.395  17.139 -0.3993  0.1013  0.2941
  443TMC3     H 6605   1.510   3.477  17.180  0.3314  0.5198  0.7189
  443TMC3    H1 6606   1.623   3.090  17.329  0.0206  0.2208  0.3760
  443TMC3    H2 6607   1.230   3.252  17.377 -0.5884  0.0422 -2.3733
  443TMC3    C7 6608   1.392   3.051  17.447  0.1979 -0.5187 -0.3721
  443TMC3    C8 6609   1.291   3.417  17.187  0.5769 -0.4192  0.6402
  443TMC3    O1 6610   1.456   2.950  17.427 -0.3117  0.0168  0.2832
  443TMC3    O2 6611   1.259   3.531  17.169  0.1362 -0.0908 -0.2918
  444MPD2     C 6612   1.839   2.623  17.197 -0.2138 -0.2157 -0.3121
  444MPD2    C1 6613   1.823   2.496  17.254  0.4811  0.1601 -0.2882
  444MPD2    C2 6614   1.896   2.384  17.214  0.8050  0.3552 -0.1773
  444MPD2    C3 6615   2.001   2.402  17.123  0.8765  0.5445  0.3474
  444MPD2    C4 6616   2.017   2.530  17.071  0.1883  0.8932  0.0435
  444MPD2    C5 6617   1.935   2.632  17.102 -0.2249 -0.3743  0.5427
  444MPD2     H 6618   1.882   2.289  17.265 -1.5146  1.0960  0.6035
  444MPD2    H1 6619   2.083   2.553  16.988  0.3415 -2.4090 -0.7472
  444MPD2    H2 6620   1.765   2.697  17.221 -0.4507 -0.3749 -0.5491
  444MPD2    H3 6621   1.937   2.729  17.054  0.0496 -0.4269  0.4526
  444MPD2     N 6622   2.092   2.299  17.101  0.2289 -0.1627 -0.1366
  444MPD2    H5 6623   2.059   2.207  17.131  0.4950  0.3998  1.8557
  444MPD2    N1 6624   1.748   2.465  17.365  0.1416  0.2538  0.2940
  444MPD2    H7 6625   1.757   2.370  17.399  0.4094  0.1256 -0.1303
  445TMC3    C1 6626   2.269   2.179  17.002 -0.0287  0.4106  0.1251
  445TMC3    C2 6627   2.181   2.093  16.944  0.0716  0.0808 -0.3119
  445TMC3    C3 6628   2.215   1.997  16.847 -0.4068 -0.2594 -0.1214
  445TMC3    C4 6629   2.404   2.160  16.964 -0.2599  1.0015  0.2665
  445TMC3    C5 6630   2.441   2.069  16.870 -0.0099  0.5542  0.0954
  445TMC3    C6 6631   2.346   1.987  16.807  0.3497  1.2519  0.0862
  445TMC3     C 6632   2.216   2.307  17.045 -0.2342  0.2797 -0.0155
  445TMC3     O 6633   2.288   2.401  17.010  0.6794  0.2307 -1.0002
  445TMC3     H 6634   2.075   2.095  16.966 -0.1930  1.3924 -1.7102
  445TMC3    H1 6635   2.476   2.235  16.995 -1.6325  1.4637  2.3476
  445TMC3    H2 6636   2.367   1.893  16.756  2.8359  2.5065 -1.1796
  445TMC3    C7 6637   2.580   2.045  16.838 -0.3748  0.2340  0.3920
  445TMC3    C8 6638   2.108   1.949  16.763 -0.3936 -0.1733 -0.0905
  445TMC3    O1 6639   2.664   2.125  16.803 -0.6787  0.6356  0.3068
  445TMC3    O2 6640   2.054   1.845  16.804 -0.7359 -0.1216 -0.6415
  446MPD2     C 6641   1.958   2.624  11.718  0.2220 -1.1882 -0.5185
  446MPD2    C1 6642   1.980   2.697  11.598 -0.2894 -0.4668  0.8546
  446MPD2    C2 6643   2.085   2.785  11.603  0.0243  0.0241  0.1865
  446MPD2    C3 6644   2.176   2.781  11.706 -0.9187 -0.4539  0.2907
  446MPD2    C4 6645   2.158   2.696  11.817  0.3196  1.2444  0.0288
  446MPD2    C5 6646   2.042   2.624  11.829  0.1236  0.0809 -0.6796
  446MPD2     H 6647   2.101   2.854  11.521  1.0541 -0.5151 -0.0674
  446MPD2    H1 6648   2.235   2.686  11.892 -1.8026  0.5095  2.1072
  446MPD2    H2 6649   1.861   2.576  11.727 -0.3567  0.3178  1.2118
  446MPD2    H3 6650   2.021   2.562  11.916  1.7220  0.8067  0.2285
  446MPD2     N 6651   2.284   2.873  11.684 -0.6863 -0.0423  0.2504
  446MPD2    H5 6652   2.283   2.934  11.602  0.8922 -0.2043  0.1238
  446MPD2    N1 6653   1.892   2.691  11.482 -0.2780 -0.2197  0.0931
  446MPD2    H7 6654   1.921   2.749  11.404  2.3939  2.8925  3.4117
  447TMC3    C1 6655   2.487   2.989  11.727  0.6052  1.2807  0.3581
  447TMC3    C2 6656   2.514   3.003  11.592  0.3772 -0.6874 -0.1953
  447TMC3    C3 6657   2.638   3.044  11.553 -0.2622 -0.0663 -1.5597
  447TMC3    C4 6658   2.585   3.018  11.814 -0.6017 -0.0888  0.9585
  447TMC3    C5 6659   2.708   3.064  11.778 -0.2895 -0.0945 -0.4240
  447TMC3    C6 6660   2.734   3.083  11.642 -0.4547 -0.5212  0.0266
  447TMC3     C 6661   2.386   2.895  11.776  0.2092 -0.0241  0.2921
  447TMC3     O 6662   2.407   2.850  11.888  0.6083  0.3403 -0.2669
  447TMC3     H 6663   2.445   2.985  11.509  1.0355 -1.9402 -0.4780
  447TMC3    H1 6664   2.573   3.001  11.921 -0.0837 -2.6686  0.6266
  447TMC3    H2 6665   2.836   3.097  11.611 -1.4048  0.9175 -2.3814
  447TMC3    C7 6666   2.824   2.990  11.829  0.6561 -0.2490  0.1809
  447TMC3    C8 6667   2.671   3.065  11.412  0.4062 -0.2471  0.4145
  447TMC3    O1 6668   2.889   2.914  11.757 -0.2369  0.6138 -0.4195
  447TMC3    O2 6669   2.587   3.127  11.347  0.3627 -0.0453  0.3087
  448TMC3    C1 6670   0.012   3.338  16.911 -0.3817  0.6253 -0.2724
  448TMC3    C2 6671   4.717   3.215  16.866  0.4414 -0.2267 -0.7966
  448TMC3    C3 6672   0.072   3.120  16.923  0.4909  1.0021 -0.2905
  448TMC3    C4 6673   0.115   3.371  16.988 -0.1339 -0.2587 -0.5139
  448TMC3    C5 6674   0.201   3.275  17.027 -0.0999 -0.3380  0.2125
  448TMC3    C6 6675   0.190   3.145  16.992  0.4356  0.3122  0.3770
  448TMC3     C 6676   4.669   3.444  16.845 -0.1914 -0.3481  0.9310
  448TMC3     O 6677   4.652   3.552  16.900 -0.5805 -0.1616 -0.7183
  448TMC3     H 6678   4.625   3.186  16.817 -0.9161 -0.3133  1.7837
  448TMC3    H1 6679   0.134   3.475  17.012  3.2193 -1.2465  1.0552
  448TMC3    H2 6680   0.251   3.060  17.021 -0.4675 -0.3415  0.3368
  448TMC3    C7 6681   0.324   3.324  17.089  0.1903 -0.8996 -0.3442
  448TMC3    C8 6682   0.062   2.984  16.892  0.8823  0.3012  0.4738
  448TMC3    O1 6683   0.362   3.439  17.066  0.0326  0.5933  0.1772
  448TMC3    O2 6684   0.113   2.898  16.961 -0.3452 -0.5435  0.2622
  449MPD2     C 6685   2.108   1.181  13.878  0.3926 -0.4125  0.3122
  449MPD2    C1 6686   1.995   1.217  13.805 -0.4049  0.2451 -0.2292
  449MPD2    C2 6687   1.878   1.235  13.879 -0.5737 -0.0959 -0.0473
  449MPD2    C3 6688   1.875   1.216  14.014 -0.5781  0.4565  0.0284
  449MPD2    C4 6689   1.990   1.169  14.081  0.2539  0.5377  0.4866
  449MPD2    C5 6690   2.108   1.171  14.012  0.5203  0.4199  0.0447
  449MPD2     H 6691   1.787   1.250  13.821 -0.2592  1.6522 -0.0746
  449MPD2    H1 6692   1.984   1.141  14.186  1.0544 -0.4783  0.2670
  449MPD2    H2 6693   2.198   1.172  13.819 -1.2307 -1.3162 -2.0278
  449MPD2    H3 6694   2.200   1.149  14.065 -0.9009 -1.6590  1.6878
  449MPD2     N 6695   1.746   1.223  14.075  0.1222  0.0660 -0.3299
  449MPD2    H5 6696   1.674   1.263  14.015  1.5131  0.4323 -1.7545
  449MPD2    N1 6697   1.993   1.243  13.660  0.1362 -0.1526  0.1491
  449MPD2    H7 6698   1.909   1.279  13.616 -1.7692 -1.0779  3.0529
  450TMC3    C1 6699   2.037   1.203  13.437  0.6332  0.3214 -0.8896
  450TMC3    C2 6700   2.019   1.077  13.386  0.5059 -0.0127 -0.5242
  450TMC3    C3 6701   1.905   1.058  13.316  0.0631 -0.3911  0.9048
  450TMC3    C4 6702   1.941   1.295  13.435  0.0510 -0.2814  0.6365
  450TMC3    C5 6703   1.819   1.262  13.387 -0.6689  0.5389  0.0793
  450TMC3    C6 6704   1.793   1.138  13.327 -0.6176  0.2581  0.7719
  450TMC3     C 6705   2.085   1.185  13.573  0.2485 -0.1568 -0.0924
  450TMC3     O 6706   2.195   1.125  13.586  0.1229  0.2920  0.5985
  450TMC3     H 6707   2.088   0.997  13.408  1.1396  0.2797 -1.4132
  450TMC3    H1 6708   1.963   1.395  13.472  0.8707 -1.9414  4.6503
  450TMC3    H2 6709   1.714   1.117  13.256  3.0694  0.4732 -3.3882
  450TMC3    C7 6710   1.721   1.291  13.494 -0.3385  0.0208 -0.7034
  450TMC3    C8 6711   1.905   0.946  13.225 -0.4293  0.4612  0.3660
  450TMC3    O1 6712   1.762   1.367  13.582 -0.0703  1.0070 -0.2988
  450TMC3    O2 6713   1.798   0.903  13.191 -0.2001 -0.2838 -0.2598
  451MPD2     C 6714   3.098   0.752   2.205 -0.6646 -0.6156  0.3594
  451MPD2    C1 6715   3.123   0.793   2.074 -0.3931 -0.4158  0.1729
  451MPD2    C2 6716   3.251   0.782   2.028 -0.0650  0.8752  0.2018
  451MPD2    C3 6717   3.355   0.723   2.105 -0.2272 -0.1009 -0.5632
  451MPD2    C4 6718   3.330   0.698   2.239 -0.3565 -0.2983 -0.2999
  451MPD2    C5 6719   3.202   0.707   2.278  1.1360  0.0099  0.7976
  451MPD2     H 6720   3.273   0.802   1.924 -1.4639  0.4990 -0.1514
  451MPD2    H1 6721   3.403   0.652   2.304  0.6052  0.6524 -0.6992
  451MPD2    H2 6722   3.001   0.769   2.249  0.1531  0.2964  1.8019
  451MPD2    H3 6723   3.175   0.675   2.378  0.2519  0.8816  0.8326
  451MPD2     N 6724   3.484   0.693   2.062  0.1940 -0.2905 -0.0341
  451MPD2    H5 6725   3.557   0.679   2.131 -1.9248  0.6821  2.4180
  451MPD2    N1 6726   3.009   0.841   1.996  0.3964 -0.1160 -0.3694
  451MPD2    H7 6727   2.914   0.848   2.031  0.4589 -0.6431 -0.0932
  452TMC3    C1 6728   3.673   0.666   1.933  0.4760 -0.5550  0.6221
  452TMC3    C2 6729   3.753   0.672   2.043  0.3491  0.0466  0.6026
  452TMC3    C3 6730   3.885   0.652   2.026  0.0856  0.3245  0.0860
  452TMC3    C4 6731   3.722   0.632   1.808  0.3451 -0.3291  0.2005
  452TMC3    C5 6732   3.860   0.610   1.796  1.0944 -0.4038  0.2465
  452TMC3    C6 6733   3.942   0.618   1.904  0.0119 -0.3440 -0.0815
  452TMC3     C 6734   3.534   0.706   1.937  0.4141  0.0765  0.4716
  452TMC3     O 6735   3.474   0.732   1.830  0.5431 -0.5214 -0.2973
  452TMC3     H 6736   3.723   0.721   2.135 -1.7901 -0.0223 -0.0585
  452TMC3    H1 6737   3.646   0.617   1.732  0.6507 -0.4415 -0.0833
  452TMC3    H2 6738   4.043   0.578   1.898 -1.0822 -3.0920 -0.0922
  452TMC3    C7 6739   3.923   0.608   1.664  0.1146  0.0177 -0.1473
  452TMC3    C8 6740   3.968   0.636   2.145 -0.0461  0.2978  0.4330
  452TMC3    O1 6741   4.037   0.560   1.653 -0.0619 -0.3419  0.2498
  452TMC3    O2 6742   3.909   0.617   2.250 -0.7906 -0.0594  0.2040
  453TMC3    C1 6743   4.657   2.116  11.813 -0.5676 -0.5987 -0.7928
  453TMC3    C2 6744   4.584   2.012  11.866  0.5525  0.2007 -0.0284
  453TMC3    C3 6745   4.460   1.993  11.804 -0.0226 -0.9542 -0.2212
  453TMC3    C4 6746   4.616   2.195  11.715 -0.0934 -0.1967 -0.7114
  453TMC3    C5 6747   4.498   2.175  11.657 -0.7717 -0.4500  0.3055
  453TMC3    C6 6748   4.421   2.073  11.696 -0.8489 -0.0587 -0.6030
  453TMC3     C 6749   0.063   2.142  11.879  0.0278 -0.0226 -0.4778
  453TMC3     O 6750   0.123   2.246  11.861 -0.6500 -0.7603  0.3206
  453TMC3     H 6751   4.611   1.956  11.955  1.2706  0.9768  0.2342
  453TMC3    H1 6752   4.675   2.282  11.690 -0.4265 -0.1785 -1.4379
  453TMC3    H2 6753   4.319   2.072  11.658  0.4073 -0.5322 -4.0107
  453TMC3    C7 6754   4.457   2.220  11.525  0.2500  0.3923 -0.2361
  453TMC3    C8 6755   4.364   1.905  11.852  0.2537 -0.1980  0.6678
  453TMC3    O1 6756   4.384   2.152  11.453  0.6124 -0.4004 -0.3465
  453TMC3    O2 6757   4.245   1.927  11.831  0.5373 -0.2435 -0.3635
  454MPD2     C 6758   2.974   2.258  16.613 -0.0834  0.0359  0.8996
  454MPD2    C1 6759   2.876   2.339  16.551  0.2593  0.1820 -0.4177
  454MPD2    C2 6760   2.797   2.431  16.621  0.0478  0.3547 -0.5100
  454MPD2    C3 6761   2.811   2.441  16.760 -0.0468  0.5365 -0.4307
  454MPD2    C4 6762   2.920   2.383  16.812 -0.3044 -0.0197 -0.2011
  454MPD2    C5 6763   3.001   2.294  16.743 -0.0048 -0.0369  0.0237
  454MPD2     H 6764   2.712   2.483  16.576  0.0919  3.2721  2.7838
  454MPD2    H1 6765   2.940   2.409  16.915  1.4198  2.3336 -1.1580
  454MPD2    H2 6766   3.034   2.181  16.565 -0.5251  0.3745 -0.2106
  454MPD2    H3 6767   3.077   2.240  16.797  1.8496  2.3778 -0.1849
  454MPD2     N 6768   2.738   2.516  16.856  0.5231  0.6312  0.4753
  454MPD2    H5 6769   2.767   2.505  16.953 -1.5218  0.6690  1.0866
  454MPD2    N1 6770   2.839   2.317  16.415  0.1817  0.1772  0.0595
  454MPD2    H7 6771   2.783   2.391  16.376  0.3916  0.4941  0.3648
  455TMC3    C1 6772   2.536   2.553  16.732 -0.6587  0.0669 -0.0925
  455TMC3    C2 6773   2.447   2.653  16.706  1.2774  0.1948 -0.4442
  455TMC3    C3 6774   2.319   2.615  16.674 -0.3540  0.0206 -0.1556
  455TMC3    C4 6775   2.498   2.418  16.724 -0.0742 -0.0369 -0.4597
  455TMC3    C5 6776   2.372   2.383  16.680 -0.1705 -0.2738 -0.3202
  455TMC3    C6 6777   2.278   2.484  16.667 -0.1929 -0.7283 -0.1287
  455TMC3     C 6778   2.627   2.592  16.840  0.1056 -0.1695 -0.4645
  455TMC3     O 6779   2.578   2.667  16.920 -0.3212  0.4371 -0.0132
  455TMC3     H 6780   2.475   2.755  16.732  0.6156 -0.4966  2.9280
  455TMC3    H1 6781   2.573   2.347  16.757 -0.2330  0.1837  0.3569
  455TMC3    H2 6782   2.178   2.458  16.634 -0.7968  1.1651  0.2246
  455TMC3    C7 6783   2.359   2.267  16.592  0.0564 -0.2749  0.2915
  455TMC3    C8 6784   2.233   2.698  16.756  0.1024 -0.0979 -0.6990
  455TMC3    O1 6785   2.245   2.237  16.570  0.1693 -0.2422 -0.7274
  455TMC3    O2 6786   2.138   2.749  16.702 -0.1282 -1.2275  0.2097
  456MPD2     C 6787   0.568   1.695  16.406  1.1089 -0.3366  0.4579
  456MPD2    C1 6788   0.631   1.733  16.520 -0.4932  0.1287 -0.5365
  456MPD2    C2 6789   0.577   1.826  16.609 -0.3763 -0.3738  0.0381
  456MPD2    C3 6790   0.451   1.870  16.585  0.4572  0.1400  0.3411
  456MPD2    C4 6791   0.388   1.837  16.466 -0.3212 -0.3032  1.2273
  456MPD2    C5 6792   0.447   1.747  16.380  0.6166 -1.0285 -0.2556
  456MPD2     H 6793   0.640   1.861  16.690 -0.3692 -0.2857 -0.0051
  456MPD2    H1 6794   0.291   1.874  16.435 -0.2113  0.1680  1.4576
  456MPD2    H2 6795   0.611   1.636  16.326  2.4852  0.1014  0.8785
  456MPD2    H3 6796   0.396   1.722  16.287  0.9551  0.5077 -0.8506
  456MPD2     N 6797   0.394   1.959  16.683  0.0734  0.0652  0.1444
  456MPD2    H5 6798   0.449   1.971  16.768  0.7071  1.2223 -0.4313
  456MPD2    N1 6799   0.771   1.714  16.510  0.2049 -0.2045 -0.1735
  456MPD2    H7 6800   0.807   1.652  16.438  0.1430  0.7011 -0.9936
  457TMC3    C1 6801   0.249   2.107  16.776  0.2843  0.5462 -0.5283
  457TMC3    C2 6802   0.166   2.217  16.748 -0.0951  0.2538  0.9183
  457TMC3    C3 6803   0.102   2.273  16.853 -0.3160  0.4605 -0.0162
  457TMC3    C4 6804   0.259   2.054  16.903  1.0241  0.3942 -0.4629
  457TMC3    C5 6805   0.191   2.117  17.007  0.8083 -0.6119  0.4069
  457TMC3    C6 6806   0.116   2.230  16.983  0.2894 -0.0076  0.1218
  457TMC3     C 6807   0.287   2.029  16.659 -0.0822  0.4674  0.2668
  457TMC3     O 6808   0.228   2.053  16.555 -0.1030 -0.0484  0.7277
  457TMC3     H 6809   0.164   2.255  16.646 -0.0631 -0.6586  0.5777
  457TMC3    H1 6810   0.315   1.962  16.917  0.3465  0.0450 -0.0452
  457TMC3    H2 6811   0.055   2.272  17.062  2.0098  1.6382  0.5689
  457TMC3    C7 6812   0.248   2.107  17.146  0.1895 -0.1767  0.0525
  457TMC3    C8 6813   0.077   2.426  16.851 -0.3404 -0.2200 -0.4754
  457TMC3    O1 6814   0.184   2.147  17.238 -0.4123 -0.1610 -0.1305
  457TMC3    O2 6815   0.100   2.483  16.959  0.1395 -0.1969  0.2870
  458MPD2     C 6816   3.466   0.992  12.057 -0.4352 -0.3888  0.3939
  458MPD2    C1 6817   3.386   1.008  12.171 -0.3797  0.0542 -0.1536
  458MPD2    C2 6818   3.299   0.898  12.199 -0.4152 -0.1205 -0.2882
  458MPD2    C3 6819   3.284   0.787  12.117  0.0554  0.0464  0.3920
  458MPD2    C4 6820   3.362   0.782  12.003  0.1157  0.3094  0.0299
  458MPD2    C5 6821   3.453   0.882  11.976  0.0161  0.0156 -0.0196
  458MPD2     H 6822   3.229   0.907  12.282 -0.3790 -1.5263 -0.1108
  458MPD2    H1 6823   3.347   0.704  11.929  0.3862  1.5348 -1.3276
  458MPD2    H2 6824   3.535   1.069  12.027 -0.7021 -0.6006 -0.7710
  458MPD2    H3 6825   3.521   0.876  11.891  0.4822  0.8617  0.2929
  458MPD2     N 6826   3.194   0.688  12.167 -0.1750  1.1033 -0.7385
  458MPD2    H5 6827   3.156   0.706  12.259  0.4558  1.2016 -0.4983
  458MPD2    N1 6828   3.409   1.120  12.252 -0.6168 -0.0447 -0.5218
  458MPD2    H7 6829   3.473   1.188  12.213 -1.0640 -0.9136 -2.7700
  459TMC3    C1 6830   3.424   1.227  12.466  0.0975  0.0863  0.2763
  459TMC3    C2 6831   3.542   1.295  12.433 -0.7057  0.0711  0.8989
  459TMC3    C3 6832   3.587   1.389  12.518  0.0428 -0.5168 -0.5136
  459TMC3    C4 6833   3.370   1.241  12.590 -0.0606  0.0613  0.2641
  459TMC3    C5 6834   3.433   1.334  12.674  0.8262 -0.3900 -0.1477
  459TMC3    C6 6835   3.541   1.406  12.648  0.1659 -0.0808  0.5546
  459TMC3     C 6836   3.361   1.128  12.377  0.2891 -0.4901  0.1919
  459TMC3     O 6837   3.267   1.068  12.425 -0.0612  0.8373  0.4553
  459TMC3     H 6838   3.587   1.282  12.336 -0.0625 -0.9697  1.3419
  459TMC3    H1 6839   3.285   1.182  12.622 -0.5883  1.2311  1.0205
  459TMC3    H2 6840   3.609   1.455  12.718 -0.8428  1.0962  0.7258
  459TMC3    C7 6841   3.410   1.305  12.816  0.2890  0.4248  0.4733
  459TMC3    C8 6842   3.716   1.445  12.484 -0.0521  0.1466  0.7555
  459TMC3    O1 6843   3.353   1.199  12.849  0.2358  0.6483 -0.3085
  459TMC3    O2 6844   3.783   1.399  12.390 -0.6059 -0.2371  0.4648
  460MPD2     C 6845   2.959   2.941  11.229 -0.6412 -0.6936  0.0403
  460MPD2    C1 6846   2.844   3.012  11.242  0.7514 -0.0842 -0.1685
  460MPD2    C2 6847   2.777   3.062  11.133 -0.2664  0.0231  0.5799
  460MPD2    C3 6848   2.826   3.045  11.006 -0.9378  0.7880 -0.1342
  460MPD2    C4 6849   2.942   2.975  10.990  0.8261 -0.4459  0.1853
  460MPD2    C5 6850   3.004   2.921  11.104  0.2410 -0.0943  0.2361
  460MPD2     H 6851   2.683   3.114  11.145  1.1787  2.2442  2.1730
  460MPD2    H1 6852   2.982   2.949  10.893 -0.9272  0.3477 -0.7410
  460MPD2    H2 6853   3.014   2.892  11.308  1.2917  0.9064 -0.2949
  460MPD2    H3 6854   3.093   2.860  11.092  0.1071 -0.1955 -0.2580
  460MPD2     N 6855   2.744   3.094  10.900 -0.5407  0.4804  0.3857
  460MPD2    H5 6856   2.668   3.153  10.933 -1.6593 -0.2255 -0.9199
  460MPD2    N1 6857   2.789   3.002  11.367  0.9541  0.2206 -0.1748
  460MPD2    H7 6858   2.844   2.943  11.429 -0.2794  0.2749  0.9815
  461TMC3    C1 6859   2.654   3.112  10.686  0.4399 -0.4016 -0.0534
  461TMC3    C2 6860   2.610   3.045  10.579 -0.6561  0.1061  0.4880
  461TMC3    C3 6861   2.512   3.095  10.500  0.0344  0.4686 -0.0163
  461TMC3    C4 6862   2.611   3.241  10.707  0.3072  0.2280 -1.2394
  461TMC3    C5 6863   2.505   3.286  10.633 -0.6145 -0.0502 -0.7290
  461TMC3    C6 6864   2.458   3.215  10.526 -0.2333  0.5968  0.9987
  461TMC3     C 6865   2.746   3.054  10.772  0.4722 -0.2903 -0.5410
  461TMC3     O 6866   2.812   2.951  10.739 -0.1172  0.2926  0.1544
  461TMC3     H 6867   2.649   2.944  10.567 -1.5333 -0.0263 -1.1730
  461TMC3    H1 6868   2.657   3.308  10.779 -3.4749 -0.9218  2.2507
  461TMC3    H2 6869   2.382   3.262  10.465  1.8572  0.6959 -1.5321
  461TMC3    C7 6870   2.420   3.398  10.662  0.1482 -0.3246  0.5647
  461TMC3    C8 6871   2.479   3.026  10.380  0.6436  0.2486  0.3618
  461TMC3    O1 6872   2.453   3.500  10.600 -0.1546  0.1581 -0.3459
  461TMC3    O2 6873   2.564   2.972  10.313 -0.4510  0.3315 -0.3032
  462TMC3    C1 6874   1.750   0.765   0.397 -0.0515 -0.2956 -0.0708
  462TMC3    C2 6875   1.785   0.706   0.281  0.9648  0.8509 -0.7037
  462TMC3    C3 6876   1.853   0.584   0.292  0.1636 -0.2606  0.4560
  462TMC3    C4 6877   1.774   0.714   0.523  0.5489 -0.0111  0.3770
  462TMC3    C5 6878   1.853   0.605   0.529 -0.5236  0.4075  0.0585
  462TMC3    C6 6879   1.892   0.537   0.422 -0.1019 -0.5854  0.4643
  462TMC3     C 6880   1.674   0.890   0.407  0.1335  1.2434  0.2709
  462TMC3     O 6881   1.612   0.914   0.510 -0.1460 -0.0248 -0.1827
  462TMC3     H 6882   1.753   0.744   0.184  0.2641 -0.2791 -0.9200
  462TMC3    H1 6883   1.727   0.767   0.605 -1.2091 -1.6221  0.4201
  462TMC3    H2 6884   1.907   0.431   0.437 -0.3638 -1.1072 -2.7814
  462TMC3    C7 6885   1.840   0.526   0.645 -0.7033  0.6615 -0.0761
  462TMC3    C8 6886   1.838   0.494   0.188  0.5984 -0.1223 -0.1209
  462TMC3    O1 6887   1.932   0.452   0.671  0.2992 -0.0468 -0.4917
  462TMC3    O2 6888   1.731   0.500   0.120 -0.2880 -0.6094 -0.0105
  463MPD2     C 6889   3.707   3.569   2.391 -0.0185 -0.3462  0.5221
  463MPD2    C1 6890   3.607   3.637   2.332  0.5975 -0.2077  1.1014
  463MPD2    C2 6891   3.624   3.774   2.304 -0.3361 -0.1582 -0.6079
  463MPD2    C3 6892   3.739   3.833   2.347 -0.4229  0.2398  0.1904
  463MPD2    C4 6893   3.836   3.766   2.412 -0.0645 -0.5161 -0.1923
  463MPD2    C5 6894   3.821   3.630   2.432  0.2033  0.5045 -0.0130
  463MPD2     H 6895   3.543   3.826   2.254  0.6042  1.2536 -0.6551
  463MPD2    H1 6896   3.926   3.813   2.448 -0.6289 -0.5847  1.3256
  463MPD2    H2 6897   3.697   3.462   2.406 -0.4028 -0.2893  0.6577
  463MPD2    H3 6898   3.893   3.573   2.490  0.0061  2.4353  2.1329
  463MPD2     N 6899   3.765   3.971   2.338 -0.0948 -0.1115 -0.4383
  463MPD2    H5 6900   3.848   3.998   2.390 -0.3233 -0.9459  0.3607
  463MPD2    N1 6901   3.494   3.574   2.274 -0.8002  0.7164 -0.4299
  463MPD2    H7 6902   3.439   3.640   2.220  0.1782  0.2409 -2.0133
  464TMC3    C1 6903   3.342   3.404   2.204  0.0765  0.8099  0.0541
  464TMC3    C2 6904   3.273   3.491   2.115  0.4314 -0.1177 -0.2581
  464TMC3    C3 6905   3.156   3.446   2.060 -0.4601  0.5258  0.1273
  464TMC3    C4 6906   3.288   3.279   2.225  0.6537  0.2784  0.1112
  464TMC3    C5 6907   3.176   3.235   2.156  0.0827  0.3387 -1.1932
  464TMC3    C6 6908   3.105   3.319   2.076  0.1452  0.9601 -0.3085
  464TMC3     C 6909   3.466   3.441   2.280 -0.7688  0.0449 -0.3900
  464TMC3     O 6910   3.514   3.351   2.348  0.6410 -0.3776 -0.3977
  464TMC3     H 6911   3.312   3.591   2.099 -0.3586  0.3686  0.8344
  464TMC3    H1 6912   3.333   3.206   2.292  1.7368  1.4185  0.6199
  464TMC3    H2 6913   3.021   3.282   2.018 -0.3962  2.1005 -0.2398
  464TMC3    C7 6914   3.174   3.090   2.139 -0.0994  0.1139 -0.2547
  464TMC3    C8 6915   3.069   3.546   1.991 -0.0772 -0.4780 -0.1438
  464TMC3    O1 6916   3.279   3.031   2.160  0.0989  0.7879  0.1874
  464TMC3    O2 6917   2.980   3.504   1.918  0.1840  0.0244 -0.3825
  465MPD2     C 6918   4.004   2.016  17.302  0.2689  0.1734 -0.2818
  465MPD2    C1 6919   3.880   2.001  17.360  0.4268  0.2657  0.1985
  465MPD2    C2 6920   3.761   2.000  17.287  0.2656  0.2781  0.5306
  465MPD2    C3 6921   3.765   2.010  17.151 -0.0514 -0.0146 -0.1065
  465MPD2    C4 6922   3.889   2.026  17.091 -0.6074 -0.3219  0.4114
  465MPD2    C5 6923   4.008   2.039  17.164 -0.1469 -0.0282 -0.3765
  465MPD2     H 6924   3.664   1.993  17.334 -0.9638 -0.5093 -2.1126
  465MPD2    H1 6925   3.904   2.035  16.984  0.4717  0.1415  0.5960
  465MPD2    H2 6926   4.098   2.016  17.356  0.3995  0.8658 -0.5048
  465MPD2    H3 6927   4.107   2.067  17.127  0.6394  1.4363  2.8447
  465MPD2     N 6928   3.644   2.006  17.075 -0.4085  0.5169  0.1473
  465MPD2    H5 6929   3.558   2.017  17.128 -1.1248  1.9844 -1.3095
  465MPD2    N1 6930   3.875   1.971  17.500  0.2847  0.0955  0.4025
  465MPD2    H7 6931   3.780   1.951  17.531 -0.8275  1.3992 -2.2082
  466TMC3    C1 6932   3.351   2.207  17.059  0.2627  0.5691  0.5424
  466TMC3    C2 6933   3.371   2.325  16.994  0.4368  0.4803 -0.4511
  466TMC3    C3 6934   3.454   2.321  16.887 -0.2111  0.3155  0.9342
  466TMC3    C4 6935   3.413   2.084  17.023 -0.5164 -0.6062 -0.6302
  466TMC3    C5 6936   3.501   2.089  16.914  0.2416  0.4475 -0.4440
  466TMC3    C6 6937   3.516   2.203  16.850  0.3890 -0.4437 -0.1845
  466TMC3     C 6938   3.347   2.219  17.210  0.3518 -0.3843  0.1873
  466TMC3     O 6939   3.402   2.130  17.279  0.1106  0.1967 -0.1149
  466TMC3     H 6940   3.324   2.419  17.022 -0.2897 -0.1984  0.6202
  466TMC3    H1 6941   3.408   1.992  17.081  0.0003 -0.0890  0.2191
  466TMC3    H2 6942   3.594   2.216  16.776  2.1281 -1.3497  1.4715
  466TMC3    C7 6943   3.634   2.056  16.943  0.2777  0.2983  0.6628
  466TMC3    C8 6944   3.516   2.447  16.838 -0.2774  0.5623  0.5993
  466TMC3    O1 6945   3.719   2.051  16.858  0.1294  0.0304 -0.3419
  466TMC3    O2 6946   3.561   2.455  16.725 -0.5452 -0.0690 -0.2185
  467TMC3    C1 6947   0.157   0.919  13.980  0.4800 -0.2344  0.9266
  467TMC3    C2 6948   0.086   0.959  13.877 -0.3015  0.1792 -0.0324
  467TMC3    C3 6949   4.677   0.949  13.886  0.2765  0.3601  0.1017
  467TMC3    C4 6950   0.108   0.856  14.091  0.7275 -0.0092  0.6623
  467TMC3    C5 6951   4.697   0.839  14.088  0.2375 -0.7574  0.3508
  467TMC3    C6 6952   4.614   0.885  13.995 -0.2843 -0.3651 -0.1367
  467TMC3     C 6953   0.298   0.927  13.962  0.3526  0.5040 -0.3062
  467TMC3     O 6954   0.362   0.909  14.063 -0.2618  0.2227  0.6928
  467TMC3     H 6955   0.120   1.025  13.799 -1.0771 -0.2621 -0.7456
  467TMC3    H1 6956   0.167   0.833  14.179  0.4909  0.3871  0.9262
  467TMC3    H2 6957   4.507   0.873  14.001 -0.2862 -0.5345 -0.5086
  467TMC3    C7 6958   4.644   0.747  14.186  0.3297 -1.0791  0.5300
  467TMC3    C8 6959   4.601   1.038  13.800 -0.1647 -0.2685 -0.2216
  467TMC3    O1 6960   0.009   0.670  14.225 -0.5724  0.5224  0.4597
  467TMC3    O2 6961   4.645   1.063  13.686  0.4739  0.2056  0.1164
  468MPD2     C 6962   3.966   3.445  10.996  0.5510 -0.0865 -0.0460
  468MPD2    C1 6963   4.103   3.409  11.003  0.1414 -0.1257 -0.2067
  468MPD2    C2 6964   4.146   3.285  10.947  0.2611  0.4519  0.5144
  468MPD2    C3 6965   4.051   3.206  10.880 -0.0819  0.7471 -0.0516
  468MPD2    C4 6966   3.916   3.241  10.894 -0.3885 -1.0119 -0.1334
  468MPD2    C5 6967   3.875   3.357  10.956  0.6777  0.0865 -0.4202
  468MPD2     H 6968   4.253   3.268  10.942 -0.0257 -0.9943 -0.8632
  468MPD2    H1 6969   3.837   3.170  10.870 -0.0265 -1.9246  1.3517
  468MPD2    H2 6970   3.920   3.536  11.032  0.0710  0.3231 -1.6733
  468MPD2    H3 6971   3.770   3.385  10.961  0.7751  0.2091  0.9263
  468MPD2     N 6972   4.088   3.079  10.825  0.7384 -0.0416  0.2482
  468MPD2    H5 6973   4.012   3.019  10.795  0.4748  0.7820 -0.7360
  468MPD2    N1 6974   4.212   3.487  11.041 -0.3506 -0.7821  0.5833
  468MPD2    H7 6975   4.298   3.443  11.070  1.3255  2.3277  0.3542
  469TMC3    C1 6976   4.344   3.668  11.092  0.3149  0.7411 -0.2064
  469TMC3    C2 6977   4.453   3.608  11.042  0.2417 -0.6003  0.0516
  469TMC3    C3 6978   4.573   3.672  11.038 -0.1619  0.7729 -0.0740
  469TMC3    C4 6979   4.347   3.802  11.122  0.2836  0.7243 -0.0431
  469TMC3    C5 6980   4.467   3.867  11.116  0.4405  0.0356 -0.4394
  469TMC3    C6 6981   4.582   3.804  11.070  0.5766 -0.1909  0.6945
  469TMC3     C 6982   4.206   3.617  11.063 -0.0519 -0.1558  0.0999
  469TMC3     O 6983   4.116   3.699  11.061  0.3715 -0.2142 -0.0069
  469TMC3     H 6984   4.460   3.505  11.009  0.1708 -0.3551 -0.7460
  469TMC3    H1 6985   4.259   3.854  11.159  0.2630  0.9578 -0.4132
  469TMC3    H2 6986   4.671   3.860  11.044 -0.6974  1.1105 -0.8400
  469TMC3    C7 6987   4.476   4.000  11.170 -0.7987 -0.1648 -0.0042
  469TMC3    C8 6988   4.687   3.588  11.085  0.3647  0.1825  1.3836
  469TMC3    O1 6989   4.520   4.085  11.098  0.0472  0.3374 -0.3057
  469TMC3    O2 6990   4.702   3.486  11.023  0.7953  0.0427 -0.6098
  470TMC3    C1 6991   1.423   0.466   1.232  0.5837  0.3036  0.5961
  470TMC3    C2 6992   1.503   0.575   1.203  0.2980  0.0105 -0.2662
  470TMC3    C3 6993   1.447   0.698   1.244 -0.0047 -0.3964 -0.6295
  470TMC3    C4 6994   1.295   0.473   1.287 -0.4452 -0.1812  0.7338
  470TMC3    C5 6995   1.258   0.591   1.328  0.3951  0.0990  0.5723
  470TMC3    C6 6996   1.329   0.704   1.310 -0.7242  0.3186 -0.0986
  470TMC3     C 6997   1.466   0.329   1.198 -0.3818  0.0817 -0.8211
  470TMC3     O 6998   1.387   0.237   1.218 -0.3353 -0.4180 -0.9728
  470TMC3     H 6999   1.597   0.573   1.150  2.9308  1.6637  4.3630
  470TMC3    H1 7000   1.235   0.386   1.313  1.1176 -2.1527 -2.2433
  470TMC3    H2 7001   1.282   0.800   1.329 -0.2933  0.8435 -1.7443
  470TMC3    C7 7002   1.198   0.583   1.461  0.0264 -0.2947 -0.5804
  470TMC3    C8 7003   1.533   0.810   1.282  0.3362  0.3312 -0.4161
  470TMC3    O1 7004   1.134   0.485   1.487 -0.5132  0.0124  0.2268
  470TMC3    O2 7005   1.485   0.881   1.369  0.3715 -0.0569  0.6522
  471MPD2     C 7006   1.729   1.506  16.968  0.4483 -0.6544  0.5603
  471MPD2    C1 7007   1.710   1.371  16.980 -0.5147 -0.2016 -0.2728
  471MPD2    C2 7008   1.701   1.318  17.107  0.0878  0.2313 -0.0456
  471MPD2    C3 7009   1.729   1.401  17.217 -0.2313  0.3405 -0.5031
  471MPD2    C4 7010   1.765   1.535  17.197  0.5419 -0.0582 -0.9393
  471MPD2    C5 7011   1.754   1.584  17.074 -0.6633  0.3768 -0.1877
  471MPD2     H 7012   1.677   1.213  17.120  1.8020 -0.2880 -1.0979
  471MPD2    H1 7013   1.798   1.599  17.278  0.1195  0.7941 -1.4396
  471MPD2    H2 7014   1.740   1.551  16.870  2.0891 -0.8808  0.6388
  471MPD2    H3 7015   1.779   1.689  17.065 -1.0631  0.5893  1.2416
  471MPD2     N 7016   1.730   1.348  17.346  0.2571  0.1343 -0.4836
  471MPD2    H5 7017   1.780   1.388  17.424  0.8409  0.8576 -1.2302
  471MPD2    N1 7018   1.720   1.286  16.866  0.4036 -0.8298  0.6924
  471MPD2    H7 7019   1.723   1.187  16.890 -3.4255 -0.4261  2.8977
  472TMC3    C1 7020   1.771   1.205  16.657 -1.0446  0.4894  0.1050
  472TMC3    C2 7021   1.756   1.223  16.517  0.0807  0.9819  0.4718
  472TMC3    C3 7022   1.792   1.124  16.430 -0.3292 -0.3346  1.0026
  472TMC3    C4 7023   1.812   1.086  16.706  0.1224 -0.3177 -0.2150
  472TMC3    C5 7024   1.830   0.984  16.621  0.3355  0.4102  0.5377
  472TMC3    C6 7025   1.819   1.002  16.477  0.1058  0.1841 -0.0199
  472TMC3     C 7026   1.725   1.317  16.734  0.1634  0.2013  0.5491
  472TMC3     O 7027   1.695   1.422  16.684  0.3072 -0.2845 -0.4396
  472TMC3     H 7028   1.734   1.320  16.475 -1.7667 -0.1867 -1.2658
  472TMC3    H1 7029   1.818   1.068  16.813  2.5177  0.2393 -0.2444
  472TMC3    H2 7030   1.851   0.926  16.408  1.6241  0.5652  0.2695
  472TMC3    C7 7031   1.785   0.862  16.673 -0.1877  0.1628  0.2683
  472TMC3    C8 7032   1.703   1.120  16.317  0.3421 -0.6399  0.2316
  472TMC3    O1 7033   1.825   0.822  16.783 -0.1667  0.0940 -0.2673
  472TMC3    O2 7034   1.741   1.103  16.205  0.4431  0.2754  0.1619
  473MPD2     C 7035   1.987   3.150  14.274 -0.2110  0.4470  0.2604
  473MPD2    C1 7036   1.874   3.234  14.264  0.0173  0.6704  0.8130
  473MPD2    C2 7037   1.871   3.332  14.367 -0.6210 -0.5931 -0.5646
  473MPD2    C3 7038   1.965   3.342  14.463  1.1254  0.1708  0.2236
  473MPD2    C4 7039   2.070   3.256  14.468  0.5266  0.4811 -0.1693
  473MPD2    C5 7040   2.080   3.156  14.373 -0.0188 -0.0199  0.4306
  473MPD2     H 7041   1.786   3.399  14.364 -0.6097 -0.5309  0.6298
  473MPD2    H1 7042   2.156   3.278  14.530  1.1819 -0.7540 -0.6348
  473MPD2    H2 7043   2.002   3.073  14.199  0.5958  1.5387 -0.6944
  473MPD2    H3 7044   2.166   3.090  14.382 -0.6559 -0.8976  0.0697
  473MPD2     N 7045   1.967   3.445  14.560  0.1681 -0.7073  0.8822
  473MPD2    H5 7046   2.050   3.449  14.618  0.4861 -0.9134  0.4385
  473MPD2    N1 7047   1.773   3.216  14.169  0.6107  0.0843  0.8827
  473MPD2    H7 7048   1.693   3.278  14.178  0.8148  0.8356 -2.4694
  474TMC3    C1 7049   1.906   3.646  14.678 -0.3756 -0.1547 -0.2833
  474TMC3    C2 7050   1.806   3.731  14.721 -0.0442 -0.5748  0.1502
  474TMC3    C3 7051   1.834   3.832  14.800  0.5085 -0.2929  0.2723
  474TMC3    C4 7052   2.027   3.652  14.731  0.0233  0.4973  0.1682
  474TMC3    C5 7053   2.046   3.744  14.825  0.9106  0.9030  0.0426
  474TMC3    C6 7054   1.954   3.847  14.852 -0.3488  0.3609  0.4349
  474TMC3     C 7055   1.867   3.543  14.574 -0.0636 -0.7460  0.1754
  474TMC3     O 7056   1.753   3.543  14.538  0.2654  0.0546  0.6163
  474TMC3     H 7057   1.705   3.720  14.684 -0.1952 -2.0906  1.0142
  474TMC3    H1 7058   2.106   3.586  14.695 -1.4448 -0.9147 -0.4865
  474TMC3    H2 7059   1.977   3.927  14.921  0.5973  0.0786  0.4483
  474TMC3    C7 7060   2.174   3.742  14.881  0.3395 -0.5227  0.7165
  474TMC3    C8 7061   1.729   3.940  14.794 -0.1291 -0.1081 -1.1568
  474TMC3    O1 7062   2.260   3.700  14.804 -0.0552  0.1643 -0.0585
  474TMC3    O2 7063   1.612   3.907  14.777 -0.0023  0.4170 -0.0505
  475MPD2     C 7064   0.617   0.963  10.947 -0.5772 -0.9983 -0.2693
  475MPD2    C1 7065   0.602   0.971  10.814  0.2524  0.0797 -0.3758
  475MPD2    C2 7066   0.496   1.046  10.767  0.0297 -0.9018 -0.3871
  475MPD2    C3 7067   0.387   1.084  10.848 -0.0275 -1.1622 -0.7942
  475MPD2    C4 7068   0.401   1.052  10.983 -0.1940 -0.1898  0.0987
  475MPD2    C5 7069   0.513   0.998  11.032 -0.3772 -0.5375 -0.8698
  475MPD2     H 7070   0.475   1.058  10.661  0.8455 -0.1846 -0.4672
  475MPD2    H1 7071   0.333   1.072  11.065  0.8764 -0.5094  1.0732
  475MPD2    H2 7072   0.710   0.923  10.986  0.1257 -0.3639 -1.3033
  475MPD2    H3 7073   0.517   0.991  11.140  0.1862 -0.5112 -0.8893
  475MPD2     N 7074   0.286   1.151  10.778  0.4865 -0.1229  0.0646
  475MPD2    H5 7075   0.297   1.160  10.678 -1.8405  0.7526 -0.1115
  475MPD2    N1 7076   0.711   0.943  10.730  0.2601  0.4303  0.0439
  475MPD2    H7 7077   0.803   0.937  10.773  0.2269 -1.3728 -0.1439
  476TMC3    C1 7078   0.814   0.962  10.518  0.8312  0.2851 -0.4874
  476TMC3    C2 7079   0.798   1.010  10.386 -0.4491 -0.2217  0.4430
  476TMC3    C3 7080   0.914   1.040  10.314  0.8165 -0.3370  0.1189
  476TMC3    C4 7081   0.935   0.931  10.570 -0.8253  0.5386 -0.1221
  476TMC3    C5 7082   1.046   0.951  10.487  0.1100  0.3489  0.0422
  476TMC3    C6 7083   1.042   1.010  10.361 -0.1726 -0.2337 -0.5271
  476TMC3     C 7084   0.699   0.919  10.594 -0.1273  0.2753  0.7714
  476TMC3     O 7085   0.600   0.909  10.529  0.3347  0.8136 -0.1753
  476TMC3     H 7086   0.706   1.056  10.351  1.7674  2.7809 -1.3439
  476TMC3    H1 7087   0.954   0.884  10.666  0.7378 -2.0458 -1.7319
  476TMC3    H2 7088   1.131   1.011  10.299 -0.6224  0.0939 -1.1644
  476TMC3    C7 7089   1.173   0.969  10.557  0.3068 -0.1980  0.7074
  476TMC3    C8 7090   0.914   1.112  10.188 -0.4881  0.7397  0.5916
  476TMC3    O1 7091   1.277   0.954  10.498  0.2050  0.9142  0.5544
  476TMC3    O2 7092   1.013   1.182  10.163  0.5254 -0.4437 -0.1510
  477MPD2     C 7093   3.131   2.159  12.335  0.3034 -0.6338  0.8845
  477MPD2    C1 7094   3.218   2.196  12.236 -0.3353 -0.6820  0.3326
  477MPD2    C2 7095   3.337   2.122  12.215  0.3510  1.2322  0.5069
  477MPD2    C3 7096   3.361   2.014  12.294  0.6848 -0.0845  0.1492
  477MPD2    C4 7097   3.268   1.970  12.391  0.1116 -0.3978 -0.2739
  477MPD2    C5 7098   3.153   2.044  12.405  0.2765  0.4424  0.2605
  477MPD2     H 7099   3.405   2.144  12.133  0.1200  0.0758  0.0042
  477MPD2    H1 7100   3.283   1.889  12.462  0.1693  0.0418  0.2198
  477MPD2    H2 7101   3.040   2.217  12.352  0.6707  0.5033 -1.0181
  477MPD2    H3 7102   3.072   2.015  12.471  1.1836  1.9117  2.0185
  477MPD2     N 7103   3.483   1.955  12.285  0.4585 -0.2434  0.0060
  477MPD2    H5 7104   3.543   1.987  12.209 -0.0862 -2.3344 -1.3069
  477MPD2    N1 7105   3.184   2.314  12.169  0.3163  0.2020 -0.2399
  477MPD2    H7 7106   3.117   2.374  12.216  0.7800  0.6086 -0.0908
  478TMC3    C1 7107   3.204   2.475  12.024  0.3756  0.6768 -0.3665
  478TMC3    C2 7108   3.130   2.543  12.114  0.8044  0.4099  0.4151
  478TMC3    C3 7109   3.019   2.604  12.063  0.5344  0.0475 -0.0007
  478TMC3    C4 7110   3.188   2.496  11.889  0.1449 -0.0012 -0.0569
  478TMC3    C5 7111   3.079   2.558  11.840  0.2999  0.6970 -0.6035
  478TMC3    C6 7112   2.995   2.614  11.931  0.1773  0.1892 -0.5647
  478TMC3     C 7113   3.264   2.354  12.067  0.3861  0.5473  0.5902
  478TMC3     O 7114   3.309   2.287  11.976 -0.3624 -0.0199  0.4651
  478TMC3     H 7115   3.170   2.555  12.214 -1.7963  0.5275  1.4395
  478TMC3    H1 7116   3.254   2.439  11.825 -0.9636 -0.5882 -0.6873
  478TMC3    H2 7117   2.904   2.667  11.908  0.6414  1.8358  1.4198
  478TMC3    C7 7118   3.035   2.523  11.710  0.0269  1.0879  0.6363
  478TMC3    C8 7119   2.909   2.592  12.152 -0.0184  0.0889  1.3143
  478TMC3    O1 7120   3.094   2.434  11.656 -0.1192  0.1104  0.4902
  478TMC3    O2 7121   2.935   2.506  12.236  0.3215 -0.4248 -0.7661
  479MPD2     C 7122   1.670   0.557  15.568  0.5102 -0.4524 -0.2824
  479MPD2    C1 7123   1.596   0.502  15.666  0.4500 -0.3688 -0.6926
  479MPD2    C2 7124   1.660   0.481  15.789  0.1942 -0.9613 -0.2208
  479MPD2    C3 7125   1.788   0.531  15.812 -0.8286  0.4297  0.4819
  479MPD2    C4 7126   1.851   0.600  15.711 -0.0490  0.3771 -0.5452
  479MPD2    C5 7127   1.792   0.612  15.584  0.8121  0.2392  0.3429
  479MPD2     H 7128   1.606   0.413  15.853 -2.6596  0.5107 -1.0490
  479MPD2    H1 7129   1.947   0.645  15.732  0.8422 -1.1258 -1.3922
  479MPD2    H2 7130   1.631   0.548  15.467  2.7131 -0.5066 -1.1139
  479MPD2    H3 7131   1.845   0.663  15.504 -2.0854 -1.7054 -2.7767
  479MPD2     N 7132   1.866   0.516  15.925  0.2963  0.2806 -0.3396
  479MPD2    H5 7133   1.964   0.542  15.924 -0.0520  1.6487  2.1304
  479MPD2    N1 7134   1.459   0.471  15.630 -0.1377  0.4512 -0.0515
  479MPD2    H7 7135   1.429   0.500  15.537 -0.6704 -0.3643 -0.1299
  480TMC3    C1 7136   1.528   0.370  16.200  0.3305  0.2786 -0.0414
  480TMC3    C2 7137   1.436   0.473  16.181  0.3682  0.0643  0.2181
  480TMC3    C3 7138   1.494   0.578  16.114  0.0775 -0.2625  0.1022
  480TMC3    C4 7139   1.655   0.354  16.151 -0.7710 -0.0359  0.0686
  480TMC3    C5 7140   1.704   0.466  16.096 -0.1302  0.2640  0.1643
  480TMC3    C6 7141   1.627   0.579  16.072 -0.1098 -0.4013  0.0897
  480TMC3     C 7142   1.479   0.256  16.279 -0.3042  0.3222 -0.0640
  480TMC3     O 7143   1.563   0.175  16.310  0.5748  0.0372  0.8676
  480TMC3     H 7144   1.329   0.462  16.189  0.8557 -2.9580  2.4521
  480TMC3    H1 7145   1.707   0.260  16.166  0.3283  0.3692 -1.1588
  480TMC3    H2 7146   1.678   0.664  16.029  1.5202 -1.1777  0.4841
  480TMC3    C7 7147   1.835   0.457  16.048 -0.0179 -0.8437  0.4255
  480TMC3    C8 7148   1.397   0.654  16.032  0.1137  0.8242  0.2916
  480TMC3    O1 7149   1.902   0.413  16.140  0.2862 -0.5090 -0.2605
  480TMC3    O2 7150   1.274   0.641  16.056  0.1117 -0.0338  0.7059
  481MPD2     C 7151   2.908   0.332  14.447 -0.4147  0.1304 -0.2230
  481MPD2    C1 7152   2.836   0.216  14.466  0.1669  0.2904  0.5506
  481MPD2    C2 7153   2.886   0.120  14.551 -0.1013  0.0818 -0.6804
  481MPD2    C3 7154   3.016   0.133  14.597  0.1577  0.3015 -0.6776
  481MPD2    C4 7155   3.084   0.250  14.579 -0.8087  0.1898  0.2094
  481MPD2    C5 7156   3.029   0.356  14.513 -0.3723 -0.9372  0.2919
  481MPD2     H 7157   2.831   0.030  14.577  1.1397 -1.4928 -3.5775
  481MPD2    H1 7158   3.183   0.257  14.624 -0.1068 -1.6371 -1.0590
  481MPD2    H2 7159   2.864   0.412  14.389  1.1038  1.3099  0.2666
  481MPD2    H3 7160   3.078   0.451  14.494  0.4646 -1.2842  0.6924
  481MPD2     N 7161   3.091   0.042  14.686 -0.2167 -0.1285  0.6823
  481MPD2    H5 7162   3.185   0.052  14.723 -0.1035 -0.9416  0.6238
  481MPD2    N1 7163   2.712   0.207  14.407 -0.5813  0.4675 -0.8350
  481MPD2    H7 7164   2.685   0.289  14.353 -1.5846 -1.0878 -2.6838
  482TMC3    C1 7165   2.524   0.107  14.309  0.8046  0.2047 -0.0113
  482TMC3    C2 7166   2.510   4.720  14.235 -0.1266  0.0641  0.1912
  482TMC3    C3 7167   2.489   0.016  14.101  0.4633  0.3098  0.3646
  482TMC3    C4 7168   2.495   0.230  14.263  0.3337  0.1644  0.3097
  482TMC3    C5 7169   2.486   0.248  14.124  0.1016 -0.5043 -0.2543
  482TMC3    C6 7170   2.483   0.141  14.044 -0.4987 -0.5599 -0.6962
  482TMC3     C 7171   2.628   0.093  14.411  0.1249  0.2093 -0.4944
  482TMC3     O 7172   2.641   4.708  14.467  0.3911 -0.2094 -0.0575
  482TMC3     H 7173   2.546   4.625  14.273 -1.9369 -0.9371 -0.6374
  482TMC3    H1 7174   2.508   0.315  14.330  0.4434 -0.6952  1.3781
  482TMC3    H2 7175   2.454   0.154  13.940  1.1062 -0.3459 -1.1246
  482TMC3    C7 7176   2.595   0.349  14.093  0.3570  0.4405  0.8473
  482TMC3    C8 7177   2.461   4.620  14.019 -0.0958 -0.1793  0.6633
  482TMC3    O1 7178   2.639   0.411  14.191  0.0204 -0.4154  0.2720
  482TMC3    O2 7179   2.469   4.515  14.077 -0.0698  0.1712  0.1135
  483TMC3    C1 7180   1.463   4.001   1.474  0.1071 -0.6356  0.5027
  483TMC3    C2 7181   1.559   4.093   1.491 -0.4232  0.3697  0.5933
  483TMC3    C3 7182   1.684   4.045   1.534  0.3482 -0.1516  0.0842
  483TMC3    C4 7183   1.478   3.864   1.499 -0.5098 -0.4680  0.3802
  483TMC3    C5 7184   1.602   3.826   1.549 -0.5487 -0.1318 -1.0300
  483TMC3    C6 7185   1.710   3.914   1.570 -0.8075 -0.4841  0.0983
  483TMC3     C 7186   1.366   4.044   1.375 -0.4376  0.4232 -0.7640
  483TMC3     O 7187   1.321   4.157   1.388 -0.2534 -0.5825  0.2214
  483TMC3     H 7188   1.546   4.199   1.473  3.3738  0.6869 -0.2371
  483TMC3    H1 7189   1.388   3.804   1.502  0.4163 -2.0430 -3.1881
  483TMC3    H2 7190   1.798   3.886   1.626 -1.1745 -2.8967 -0.5228
  483TMC3    C7 7191   1.633   3.688   1.595  0.2605  0.1340 -0.1099
  483TMC3    C8 7192   1.798   4.127   1.510 -0.2733  1.1540  1.0680
  483TMC3    O1 7193   1.738   3.677   1.655  0.4063  0.4441 -0.4064
  483TMC3    O2 7194   1.893   4.109   1.579  0.6109  0.8314  0.2644
  484MPD2     C 7195   3.836   1.757  12.634  0.1612  0.3669  0.0005
  484MPD2    C1 7196   3.846   1.645  12.553  0.8573  0.5846  0.0377
  484MPD2    C2 7197   3.967   1.606  12.487  0.2445  0.5059  0.0817
  484MPD2    C3 7198   4.080   1.680  12.513 -0.0555 -0.0381  0.7191
  484MPD2    C4 7199   4.066   1.806  12.578  0.0419  0.6600 -0.9489
  484MPD2    C5 7200   3.952   1.836  12.644 -0.4641  0.4951  0.0379
  484MPD2     H 7201   3.980   1.514  12.431 -0.5066  1.7391 -2.1293
  484MPD2    H1 7202   4.155   1.868  12.586 -0.3059  0.9639  0.5898
  484MPD2    H2 7203   3.747   1.790  12.686 -0.6444 -1.2883 -0.3511
  484MPD2    H3 7204   3.937   1.924  12.706  4.0505  0.8025  0.6426
  484MPD2     N 7205   4.207   1.653  12.466  0.1515 -0.5255 -0.0430
  484MPD2    H5 7206   4.280   1.720  12.489  1.6005 -1.5277 -1.6808
  484MPD2    N1 7207   3.726   1.569  12.549  0.7752 -0.1496  0.0625
  484MPD2    H7 7208   3.642   1.595  12.599  0.2598 -2.0643  0.2218
  485TMC3    C1 7209   4.394   1.528  12.434 -0.5812  1.2017  0.2409
  485TMC3    C2 7210   4.443   1.481  12.554  0.3589  0.4590  0.2748
  485TMC3    C3 7211   4.581   1.505  12.575 -0.1027  0.5876  0.8961
  485TMC3    C4 7212   4.456   1.614  12.352  0.2276 -0.4505 -0.0597
  485TMC3    C5 7213   4.584   1.643  12.378  0.2426 -0.5060 -0.1103
  485TMC3    C6 7214   4.650   1.586  12.488 -0.1085 -0.0026  0.4984
  485TMC3     C 7215   4.252   1.535  12.425  0.2926 -0.1440 -0.2706
  485TMC3     O 7216   4.186   1.435  12.413 -0.1773 -0.5460 -0.0918
  485TMC3     H 7217   4.381   1.422  12.621  0.3460  0.9483  0.6933
  485TMC3    H1 7218   4.407   1.660  12.267  0.9550  0.3397 -0.0521
  485TMC3    H2 7219   0.028   1.616  12.508  0.5021 -0.4971 -1.9319
  485TMC3    C7 7220   4.671   1.627  12.256 -0.6124  0.4944 -0.2507
  485TMC3    C8 7221   4.660   1.389  12.586 -0.1589 -0.3344  0.3936
  485TMC3    O1 7222   4.645   1.698  12.162 -0.0490 -0.3370  0.3950
  485TMC3    O2 7223   0.039   1.400  12.518 -0.2246  0.5325  0.5953
  486MPD2     C 7224   1.512   0.330  13.175  0.8980  0.3283 -0.3617
  486MPD2    C1 7225   1.513   0.446  13.243 -0.1549  0.0982  0.3261
  486MPD2    C2 7226   1.423   0.547  13.199 -0.0066  0.4068 -0.3575
  486MPD2    C3 7227   1.337   0.532  13.089  0.0308 -0.4026  0.7436
  486MPD2    C4 7228   1.351   0.414  13.017  0.3108  0.2483  0.1849
  486MPD2    C5 7229   1.430   0.316  13.064  0.0944 -0.4985 -0.1011
  486MPD2     H 7230   1.407   0.634  13.263  0.3430  2.4236 -3.0216
  486MPD2    H1 7231   1.299   0.403  12.922 -1.5240 -0.5834  1.2749
  486MPD2    H2 7232   1.566   0.242  13.205 -0.2804 -0.2406  0.0805
  486MPD2    H3 7233   1.432   0.220  13.014 -2.3971 -1.0010  0.7719
  486MPD2     N 7234   1.244   0.634  13.058  0.3080  0.3485 -0.5447
  486MPD2    H5 7235   1.241   0.721  13.111 -2.0063  0.3227 -0.6561
  486MPD2    N1 7236   1.580   0.460  13.368 -0.3839 -0.3744 -0.1822
  486MPD2    H7 7237   1.629   0.376  13.396  0.8830 -0.2767 -2.1030
  487TMC3    C1 7238   1.636   0.537  13.585 -0.2903 -0.6541 -0.0938
  487TMC3    C2 7239   1.712   0.426  13.605  0.3727 -0.2423  0.5486
  487TMC3    C3 7240   1.754   0.411  13.737 -0.5050  0.4711 -0.2176
  487TMC3    C4 7241   1.597   0.623  13.689  0.5635  0.1578 -0.4359
  487TMC3    C5 7242   1.622   0.585  13.814  0.2881 -0.6311  0.1345
  487TMC3    C6 7243   1.717   0.493  13.842  0.2543  0.1294 -0.2251
  487TMC3     C 7244   1.587   0.572  13.447 -0.0817  0.8891  0.1029
  487TMC3     O 7245   1.537   0.687  13.434 -0.1414 -0.0659  0.5090
  487TMC3     H 7246   1.756   0.367  13.526 -2.5531  0.4036 -1.5725
  487TMC3    H1 7247   1.533   0.708  13.668 -0.6570 -0.5546  0.4282
  487TMC3    H2 7248   1.722   0.448  13.940 -0.0980  0.2727 -0.1421
  487TMC3    C7 7249   1.515   0.595  13.907  0.0540 -0.5899 -0.0524
  487TMC3    C8 7250   1.828   0.288  13.756  0.3615  0.0757  0.2238
  487TMC3    O1 7251   1.528   0.557  14.023  0.0623 -0.0853  0.1204
  487TMC3    O2 7252   1.936   0.295  13.693  0.4417  0.1200 -0.0942
  488MPD2     C 7253   1.162   2.289  16.709 -0.1757 -0.6412  0.1871
  488MPD2    C1 7254   1.241   2.381  16.781 -0.8237  0.2756 -0.5898
  488MPD2    C2 7255   1.241   2.367  16.917 -0.2715  0.0839  0.1928
  488MPD2    C3 7256   1.166   2.272  16.982 -0.2865  0.1011 -0.8653
  488MPD2    C4 7257   1.077   2.187  16.911 -0.1066 -0.3595 -0.5747
  488MPD2    C5 7258   1.082   2.192  16.775  0.4206  0.6068  0.1295
  488MPD2     H 7259   1.321   2.422  16.966 -0.9907 -0.2215  1.7250
  488MPD2    H1 7260   1.025   2.109  16.964 -1.6677  0.7406 -0.4970
  488MPD2    H2 7261   1.164   2.278  16.601  0.4704 -0.8214  0.2157
  488MPD2    H3 7262   1.029   2.114  16.721  1.2003 -0.0035  0.2470
  488MPD2     N 7263   1.177   2.275  17.122  0.2354  0.6785 -0.4613
  488MPD2    H5 7264   1.244   2.338  17.163 -0.2371  1.0231 -0.2250
  488MPD2    N1 7265   1.320   2.488  16.723 -0.3283 -0.0088  0.0758
  488MPD2    H7 7266   1.357   2.550  16.794 -0.6074 -0.6379  0.7668
  489TMC3    C1 7267   1.132   2.249  17.348 -0.6997 -0.4941  0.6812
  489TMC3    C2 7268   1.195   2.365  17.377 -0.6404  0.0955  0.4798
  489TMC3    C3 7269   1.187   2.413  17.506 -1.2957  0.3376  0.0946
  489TMC3    C4 7270   1.071   2.171  17.443  0.3309 -1.1515  0.0313
  489TMC3    C5 7271   1.070   2.225  17.572 -0.3861  0.5004 -0.0523
  489TMC3    C6 7272   1.146   2.334  17.604  0.4813 -0.2150  0.0567
  489TMC3     C 7273   1.102   2.209  17.213  0.5276 -0.1177 -0.2844
  489TMC3     O 7274   1.008   2.134  17.190 -0.0752  0.2986 -0.2181
  489TMC3     H 7275   1.268   2.419  17.317 -2.2188  1.2223 -0.4236
  489TMC3    H1 7276   1.027   2.076  17.413 -1.5710 -1.0288  2.4501
  489TMC3    H2 7277   1.165   2.356   0.009 -3.8479  2.3172  0.3160
  489TMC3    C7 7278   1.025   2.144  17.682 -0.0248 -0.0555 -0.3208
  489TMC3    C8 7279   1.224   2.555  17.528 -0.2566 -0.5992  0.3649
  489TMC3    O1 7280   1.074   2.170   0.092  0.5357  0.1836  0.6731
  489TMC3    O2 7281   1.295   2.604  17.441  0.0014 -0.3342  0.6847
  490MPD2     C 7282   2.061   2.330  17.509  0.0133  0.1165 -0.3740
  490MPD2    C1 7283   2.089   2.190  17.503  0.5556  0.3962 -0.8255
  490MPD2    C2 7284   2.216   2.156  17.454 -0.3054  0.1037 -0.3280
  490MPD2    C3 7285   2.301   2.255  17.385 -0.2551 -0.4588 -0.2692
  490MPD2    C4 7286   2.267   2.386  17.391 -0.7264 -0.3049 -0.1287
  490MPD2    C5 7287   2.151   2.422  17.452 -0.2484 -0.2952  0.3823
  490MPD2     H 7288   2.246   2.051  17.459  1.5678  0.7489  2.1342
  490MPD2    H1 7289   2.330   2.461  17.344  2.2573 -1.4147  2.0572
  490MPD2    H2 7290   1.962   2.355  17.544 -0.0502 -2.9478  1.7193
  490MPD2    H3 7291   2.134   2.529  17.460 -0.9377 -0.4563  1.0082
  490MPD2     N 7292   2.427   2.230  17.336 -0.3291  0.0019  0.5123
  490MPD2    H5 7293   2.485   2.304  17.297 -0.7849 -1.3608 -2.7535
  490MPD2    N1 7294   2.002   2.086  17.529  0.6211 -0.6119 -0.5450
  490MPD2    H7 7295   2.039   1.992  17.546  0.3242 -0.4548  0.9180
  491TMC3    C1 7296   1.801   1.998  17.604 -0.2755 -0.1222  0.0284
  491TMC3    C2 7297   1.851   1.938   0.013 -0.1064  0.0653  0.2598
  491TMC3    C3 7298   1.800   1.816   0.045  0.0377 -0.0440 -0.3174
  491TMC3    C4 7299   1.699   1.950  17.527  0.8355  0.8185  0.6316
  491TMC3    C5 7300   1.653   1.828  17.565 -0.1863  0.5366  0.7743
  491TMC3    C6 7301   1.696   1.763  17.673 -0.6313 -0.6156  0.3461
  491TMC3     C 7302   1.871   2.106  17.544 -0.4980 -0.2028  0.0468
  491TMC3     O 7303   1.808   2.185  17.478  0.0172  0.0224 -0.1482
  491TMC3     H 7304   1.952   1.964   0.044 -0.1713  0.6681 -0.0404
  491TMC3    H1 7305   1.666   2.012  17.443 -1.8719 -1.0691  0.3096
  491TMC3    H2 7306   1.641   1.677   0.011 -0.9005 -0.5117  0.1876
  491TMC3    C7 7307   1.565   1.760  17.483 -0.4955  0.3537  0.4156
  491TMC3    C8 7308   1.795   1.785   0.187  0.0593 -0.7636  0.6739
  491TMC3    O1 7309   1.569   1.636  17.478  0.4913 -0.0523 -0.0436
  491TMC3    O2 7310   1.768   1.673   0.216 -0.0468  0.1206  0.4965
  492MPD2     C 7311   2.627   1.105  11.611 -0.0345  0.2651  0.2852
  492MPD2    C1 7312   2.563   1.037  11.524  0.0114 -0.2028  0.1214
  492MPD2    C2 7313   2.442   0.968  11.555  0.1743 -0.1590  0.5799
  492MPD2    C3 7314   2.394   0.984  11.686  0.3266  0.1210  0.9589
  492MPD2    C4 7315   2.469   1.057  11.776 -0.3400  0.5494  0.6121
  492MPD2    C5 7316   2.584   1.114  11.741 -0.8062  0.0979  0.2861
  492MPD2     H 7317   2.397   0.904  11.481 -2.1896  2.2542 -0.0641
  492MPD2    H1 7318   2.433   1.070  11.878 -0.2689  0.2540  0.6766
  492MPD2    H2 7319   2.726   1.147  11.593 -0.5876  0.7687 -1.5195
  492MPD2    H3 7320   2.628   1.178  11.817 -1.7190 -0.1984  1.0727
  492MPD2     N 7321   2.268   0.935  11.730 -0.4508  0.9757  0.1900
  492MPD2    H5 7322   2.254   0.940  11.830  2.4098 -2.4844  0.7489
  492MPD2    N1 7323   2.623   1.042  11.405  0.6287  0.0740 -0.6266
  492MPD2    H7 7324   2.722   1.061  11.395  0.6793  0.4364  0.4918
  493TMC3    C1 7325   2.659   1.012  11.163 -0.9979  0.9167  0.3931
  493TMC3    C2 7326   2.774   1.081  11.179 -0.5977  0.1791 -0.6256
  493TMC3    C3 7327   2.831   1.140  11.065 -0.1523 -0.1859 -0.1137
  493TMC3    C4 7328   2.599   0.997  11.038  0.2992  0.0322  0.1608
  493TMC3    C5 7329   2.662   1.052  10.930  0.7267 -0.0166  0.1443
  493TMC3    C6 7330   2.778   1.122  10.937  0.3349 -0.5175  0.5025
  493TMC3     C 7331   2.574   0.989  11.287 -0.3730 -0.0365  0.1490
  493TMC3     O 7332   2.463   0.939  11.264 -0.4114 -0.3876  0.1031
  493TMC3     H 7333   2.819   1.089  11.277 -1.6057 -2.9487  0.0749
  493TMC3    H1 7334   2.505   0.944  11.027 -0.2352  1.1504 -0.7646
  493TMC3    H2 7335   2.829   1.153  10.847  0.2434  0.5213  0.8165
  493TMC3    C7 7336   2.597   1.012  10.802 -0.6925 -0.2900  0.0463
  493TMC3    C8 7337   2.952   1.216  11.090 -0.2468  0.0861  0.5461
  493TMC3    O1 7338   2.475   1.001  10.809 -0.3997 -0.4328 -0.4255
  493TMC3    O2 7339   3.022   1.187  11.186  0.5795  0.2285  0.0384
  494TMC3    C1 7340   2.544   3.185   0.902 -0.3642 -0.0376  0.7456
  494TMC3    C2 7341   2.601   3.060   0.909  0.8593 -0.3607  0.4400
  494TMC3    C3 7342   2.667   3.015   0.807 -0.7275 -0.2162 -0.6771
  494TMC3    C4 7343   2.554   3.258   0.793  0.3465  0.1517 -0.8100
  494TMC3    C5 7344   2.636   3.220   0.685  0.9063  0.6099  0.7167
  494TMC3    C6 7345   2.694   3.092   0.698 -0.3322 -0.0867  0.2525
  494TMC3     C 7346   2.517   3.264   1.027  0.0076 -0.1782 -0.8419
  494TMC3     O 7347   2.458   3.372   1.015  0.6704  0.1192  0.0691
  494TMC3     H 7348   2.582   2.994   0.993  0.1138 -0.8695 -0.1288
  494TMC3    H1 7349   2.509   3.357   0.794 -0.3406 -0.2110  1.3196
  494TMC3    H2 7350   2.772   3.063   0.629  0.5988  1.1446  0.7959
  494TMC3    C7 7351   2.696   3.309   0.580  0.6766 -0.5802 -0.4612
  494TMC3    C8 7352   2.751   2.902   0.834  0.3923 -0.5762 -0.3332
  494TMC3    O1 7353   2.793   3.267   0.518 -0.8847  1.1534 -0.5159
  494TMC3    O2 7354   2.768   2.866   0.949  0.2316  0.2840  0.3212
  495TMC3    C1 7355   1.819   0.795  15.193 -0.2729  0.5703 -0.2391
  495TMC3    C2 7356   1.723   0.794  15.093 -0.2708 -0.1322 -0.1898
  495TMC3    C3 7357   1.604   0.854  15.116  0.1098  0.5482 -0.8924
  495TMC3    C4 7358   1.795   0.873  15.309  0.9576  0.9679 -0.1828
  495TMC3    C5 7359   1.670   0.928  15.325 -0.7222 -0.6043 -0.9306
  495TMC3    C6 7360   1.566   0.911  15.234  0.4115 -0.0278 -0.4435
  495TMC3     C 7361   1.881   0.665  15.226  0.6235 -0.3646 -0.7605
  495TMC3     O 7362   1.982   0.667  15.295  0.1584  0.0093 -0.3641
  495TMC3     H 7363   1.734   0.729  15.008  0.5396 -0.5208  0.2110
  495TMC3    H1 7364   1.863   0.872  15.394 -0.9908 -1.6359  1.3596
  495TMC3    H2 7365   1.478   0.974  15.230  1.4801  1.7596  3.8511
  495TMC3    C7 7366   1.625   0.902  15.462  0.3148 -0.3372 -0.0529
  495TMC3    C8 7367   1.519   0.870  15.005  0.1467 -0.3813  0.3523
  495TMC3    O1 7368   1.706   0.903  15.554  0.0515  0.1130  0.0101
  495TMC3    O2 7369   1.407   0.915  15.034  0.1084  0.4616  0.1695
  496MPD2     C 7370   2.995   0.820  15.527 -0.7580  0.4634  0.0191
  496MPD2    C1 7371   2.983   0.706  15.600  0.6476  0.5763 -0.2715
  496MPD2    C2 7372   2.905   0.714  15.713  0.3480 -0.0452  0.1041
  496MPD2    C3 7373   2.852   0.835  15.751  1.1966  0.3886 -0.2314
  496MPD2    C4 7374   2.856   0.944  15.671 -0.5715 -0.4459 -0.1045
  496MPD2    C5 7375   2.930   0.940  15.554  0.2587 -0.6695 -0.1312
  496MPD2     H 7376   2.893   0.628  15.778 -2.5162 -1.1642 -1.9465
  496MPD2    H1 7377   2.820   1.040  15.705  0.3644 -0.0245 -0.3009
  496MPD2    H2 7378   3.057   0.811  15.438 -1.3270 -2.3658 -0.1061
  496MPD2    H3 7379   2.956   1.027  15.496 -2.1138  0.1106  0.0004
  496MPD2     N 7380   2.785   0.859  15.869 -0.2616  0.9297 -0.3227
  496MPD2    H5 7381   2.744   0.952  15.873 -1.8237  0.1884  0.9890
  496MPD2    N1 7382   3.058   0.597  15.554 -0.0955 -0.5655  0.4950
  496MPD2    H7 7383   3.123   0.620  15.480 -1.2994  0.3579 -0.2810
  497TMC3    C1 7384   2.731   0.841  16.089 -0.0337  0.0699  0.2589
  497TMC3    C2 7385   2.707   0.766  16.202 -0.1132  0.4143  0.2058
  497TMC3    C3 7386   2.733   0.815  16.324  0.6117  0.9739 -0.4832
  497TMC3    C4 7387   2.788   0.965  16.100 -0.2555 -0.7556 -0.1318
  497TMC3    C5 7388   2.818   1.012  16.221 -0.2022 -0.7509  0.1965
  497TMC3    C6 7389   2.783   0.944  16.337 -0.0137  0.6559 -0.2917
  497TMC3     C 7390   2.787   0.770  15.976 -0.6771  0.4248 -0.2997
  497TMC3     O 7391   2.813   0.651  15.979  0.2627  0.4469  0.2218
  497TMC3     H 7392   2.650   0.674  16.188 -1.7063  1.3275  0.7976
  497TMC3    H1 7393   2.812   1.034  16.021  1.4218  0.8050  1.7370
  497TMC3    H2 7394   2.796   0.991  16.434  2.3783 -1.6015  0.4806
  497TMC3    C7 7395   2.903   1.126  16.240 -0.2500  0.1751 -0.1642
  497TMC3    C8 7396   2.787   0.706  16.412 -0.1095 -0.4094 -0.5378
  497TMC3    O1 7397   2.901   1.215  16.156  0.1166 -0.1329  0.7559
  497TMC3    O2 7398   2.793   0.594  16.365  0.3909  0.0292  0.1103
  498MPD2     C 7399   4.634   1.306   9.953  0.5354 -0.5636  0.1377
  498MPD2    C1 7400   4.721   1.267  10.051 -0.7341 -0.4266  0.3423
  498MPD2    C2 7401   4.714   1.135  10.101  0.0759  0.3414  0.4854
  498MPD2    C3 7402   4.619   1.051  10.048  0.0732 -0.9088 -0.9268
  498MPD2    C4 7403   4.527   1.093   9.954  0.5955 -0.2689 -0.2485
  498MPD2    C5 7404   4.533   1.223   9.913  0.4903  0.3008 -0.5808
  498MPD2     H 7405   0.054   1.100  10.181  0.0340 -1.2792 -0.2068
  498MPD2    H1 7406   4.457   1.022   9.910 -0.5110 -0.5501  2.0080
  498MPD2    H2 7407   4.627   1.408   9.917 -1.0861 -0.1552  1.6229
  498MPD2    H3 7408   4.459   1.261   9.844 -0.2729  2.0548  1.2030
  498MPD2     N 7409   4.613   0.919  10.101 -0.6544  0.2423  0.0364
  498MPD2    H5 7410   4.675   0.900  10.178 -0.9746  0.6221  0.3900
  498MPD2    N1 7411   0.095   1.361  10.102 -0.0539 -0.7464  0.3198
  498MPD2    H7 7412   0.089   1.458  10.074  1.2923 -0.3852  1.2483
  499TMC3    C1 7413   0.305   1.432  10.161 -1.1578 -0.7937 -0.0635
  499TMC3    C2 7414   0.422   1.406  10.235 -0.2625  0.3090  0.4040
  499TMC3    C3 7415   0.532   1.482  10.212  0.3056  0.0148 -1.0249
  499TMC3    C4 7416   0.296   1.523  10.064  0.0865  0.3084 -0.3112
  499TMC3    C5 7417   0.409   1.604  10.048 -0.1379 -0.1380 -0.2970
  499TMC3    C6 7418   0.531   1.576  10.114 -0.0114  0.2590  0.0073
  499TMC3     C 7419   0.212   1.326  10.168 -0.1454 -0.0844 -0.3503
  499TMC3     O 7420   0.236   1.218  10.219  0.4976  0.1295  0.5909
  499TMC3     H 7421   0.424   1.321  10.303  0.5635  0.1960  0.2470
  499TMC3    H1 7422   0.219   1.522   9.987 -0.8354  0.0241  0.6189
  499TMC3    H2 7423   0.615   1.639  10.087  0.0508 -0.3509 -1.2105
  499TMC3    C7 7424   0.390   1.710   9.947  0.8058 -0.6974  0.3335
  499TMC3    C8 7425   0.655   1.467  10.279 -0.5142 -0.3943 -0.1981
  499TMC3    O1 7426   0.496   1.758   9.912 -0.2328  0.8749  0.6000
  499TMC3    O2 7427   0.761   1.497  10.233 -0.0418  0.2050  0.1137
  500MPD2     C 7428   1.859   1.881  10.692  0.1197 -0.2120 -0.0911
  500MPD2    C1 7429   1.906   1.971  10.598  0.0692  0.4759  1.2615
  500MPD2    C2 7430   1.816   2.012  10.498 -0.2634  0.0104  0.4253
  500MPD2    C3 7431   1.686   1.957  10.491 -0.1438 -0.0819 -0.1558
  500MPD2    C4 7432   1.638   1.880  10.591  0.5409  0.1501  0.0569
  500MPD2    C5 7433   1.727   1.843  10.694  0.0169  0.5561  0.5810
  500MPD2     H 7434   1.851   2.074  10.417  1.5738  0.1776  1.3557
  500MPD2    H1 7435   1.544   1.827  10.585  0.0302  0.8728  1.6545
  500MPD2    H2 7436   1.918   1.828  10.766  1.8888  0.6336 -0.8880
  500MPD2    H3 7437   1.689   1.771  10.766  2.2470 -0.9276  0.2682
  500MPD2     N 7438   1.587   2.009  10.408 -0.4472  0.1666  0.0923
  500MPD2    H5 7439   1.495   1.975  10.434 -0.5100  0.7986  0.6808
  500MPD2    N1 7440   2.032   2.028  10.594 -0.0564  0.6851  0.1768
  500MPD2    H7 7441   2.050   2.083  10.511 -2.2039  1.4243  0.2095
  501TMC3    C1 7442   2.248   2.091  10.645 -0.2313  0.2607  0.1126
  501TMC3    C2 7443   2.226   2.209  10.578 -0.4810  0.3942  0.0331
  501TMC3    C3 7444   2.334   2.285  10.556 -0.1640  0.3802 -0.5956
  501TMC3    C4 7445   2.369   2.057  10.691  0.1148  0.5844  0.3906
  501TMC3    C5 7446   2.478   2.128  10.657  0.4452  0.4738 -0.2105
  501TMC3    C6 7447   2.463   2.253  10.594 -0.0234  0.9663 -0.1888
  501TMC3     C 7448   2.136   2.004  10.682  0.2788  0.0761  0.1816
  501TMC3     O 7449   2.143   1.931  10.782 -0.3852 -0.8303  0.3891
  501TMC3     H 7450   2.125   2.241  10.556  0.0666  0.1355 -2.8090
  501TMC3    H1 7451   2.377   1.954  10.725  2.1814  0.5823 -0.0854
  501TMC3    H2 7452   2.545   2.314  10.559 -0.2109  1.6530  0.5857
  501TMC3    C7 7453   2.604   2.087  10.720  0.4921  0.3742  0.2264
  501TMC3    C8 7454   2.301   2.420  10.514 -0.4506 -0.8615  0.7741
  501TMC3    O1 7455   2.591   2.010  10.814  0.0942 -0.4214 -0.1376
  501TMC3    O2 7456   2.201   2.430  10.446 -0.0653 -0.6051  0.4030
  502TMC3    C1 7457   1.060   1.388  14.917 -1.1185 -0.3932 -0.7831
  502TMC3    C2 7458   0.989   1.492  14.858 -0.2448  0.3273  0.9827
  502TMC3    C3 7459   0.863   1.514  14.902 -0.8561 -0.2254 -0.2105
  502TMC3    C4 7460   0.995   1.297  14.987 -0.1093  0.6405 -0.6469
  502TMC3    C5 7461   0.864   1.316  15.019  0.3827 -0.2659  0.3661
  502TMC3    C6 7462   0.796   1.429  14.983  0.5541  0.2414  0.1880
  502TMC3     C 7463   1.169   1.440  14.993 -0.4241  0.1316 -0.0154
  502TMC3     O 7464   1.232   1.529  14.941  0.1800 -0.0675  0.2585
  502TMC3     H 7465   1.032   1.580  14.812 -0.2387 -0.5728 -0.7004
  502TMC3    H1 7466   1.034   1.199  15.013 -0.9746  0.3256 -0.5565
  502TMC3    H2 7467   0.696   1.458  15.012  0.2883  0.1838 -0.6665
  502TMC3    C7 7468   0.841   1.281  15.158 -0.0658  0.8063 -0.5322
  502TMC3    C8 7469   0.862   1.639  14.963  0.5285  0.0665  0.7531
  502TMC3    O1 7470   0.927   1.314  15.234  0.0829 -0.3312  0.0984
  502TMC3    O2 7471   0.860   1.736  14.885 -0.2955 -0.1344 -0.0306
  503MPD2     C 7472   2.863   2.262  17.125 -0.0072 -0.7056 -0.0420
  503MPD2    C1 7473   2.908   2.297  17.247  0.1602 -0.8925 -0.7499
  503MPD2    C2 7474   2.978   2.202  17.328  0.1232  0.1570  0.2164
  503MPD2    C3 7475   3.005   2.083  17.274 -0.0798  0.0183 -0.4652
  503MPD2    C4 7476   2.971   2.048  17.141  0.2964  0.0344  0.2241
  503MPD2    C5 7477   2.892   2.143  17.072 -0.5754  0.6839 -0.4156
  503MPD2     H 7478   3.005   2.231  17.429 -0.9338 -1.1375  0.8649
  503MPD2    H1 7479   2.997   1.955  17.091  0.6577 -0.1131  0.6811
  503MPD2    H2 7480   2.795   2.320  17.065  0.0564  0.0079  0.5863
  503MPD2    H3 7481   2.852   2.112  16.976 -0.9615  0.6082 -0.2310
  503MPD2     N 7482   3.078   1.995  17.356  0.0189 -0.3499 -0.4759
  503MPD2    H5 7483   3.089   2.015  17.455  0.4275 -2.3514 -0.1111
  503MPD2    N1 7484   2.876   2.422  17.308 -0.4855 -0.7078  0.2988
  503MPD2    H7 7485   2.891   2.432  17.408 -2.9789 -1.2467  0.7184
  504TMC3    C1 7486   3.259   1.844  17.394  0.0433  0.4828 -0.5044
  504TMC3    C2 7487   3.221   1.814  17.522  0.3469  0.0010  0.1546
  504TMC3    C3 7488   3.300   1.729  17.591  0.0765 -0.4072 -0.4530
  504TMC3    C4 7489   3.359   1.778  17.331  0.1236  1.0309  0.2425
  504TMC3    C5 7490   3.435   1.697  17.400  0.6931 -0.1159  0.2572
  504TMC3    C6 7491   3.413   1.666  17.533  0.4767  0.7155  0.1781
  504TMC3     C 7492   3.170   1.905  17.298 -0.4285 -0.0769 -0.5753
  504TMC3     O 7493   3.182   1.865  17.184  0.1668  0.3331  0.5920
  504TMC3     H 7494   3.135   1.855  17.574  0.1467 -0.0444 -0.1437
  504TMC3    H1 7495   3.383   1.800  17.227 -1.1817  0.3850 -0.1994
  504TMC3    H2 7496   3.461   1.579  17.578 -1.8421 -0.6722 -0.0524
  504TMC3    C7 7497   3.565   1.676  17.346 -0.1484  0.8553 -0.4621
  504TMC3    C8 7498   3.241   1.687   0.021 -0.4442 -0.0320 -0.0660
  504TMC3    O1 7499   3.574   1.673  17.224 -0.1692  0.3727  0.3000
  504TMC3    O2 7500   3.135   1.629   0.029  0.5042 -0.6297 -0.2879
  505MPD2     C 7501   3.863   0.176  10.767 -0.1845  0.3986  0.2583
  505MPD2    C1 7502   3.952   0.076  10.803 -0.2198 -0.4380  0.2450
  505MPD2    C2 7503   4.024   0.094  10.921 -0.2943 -0.1242  0.1470
  505MPD2    C3 7504   4.013   0.211  10.995 -0.2824  0.9403 -0.8399
  505MPD2    C4 7505   3.934   0.314  10.953 -0.1137  0.5306  0.0885
  505MPD2    C5 7506   3.859   0.296  10.842 -1.0200  0.3351 -1.0991
  505MPD2     H 7507   4.104   0.026  10.947 -0.7803  0.0220  1.9933
  505MPD2    H1 7508   3.935   0.407  11.008  2.4732  1.0452 -0.8152
  505MPD2    H2 7509   3.812   0.159  10.673  0.9142  1.1052 -0.4654
  505MPD2    H3 7510   3.791   0.376  10.814  0.0769  1.2746 -1.0569
  505MPD2     N 7511   4.115   0.237  11.086 -0.0270 -0.0068 -0.4087
  505MPD2    H5 7512   4.176   0.156  11.091  0.3239  0.2936  0.2446
  505MPD2    N1 7513   3.949   4.684  10.722  0.2507 -0.3630  0.1291
  505MPD2    H7 7514   3.891   4.685  10.638 -0.9843  0.3383  0.9828
  506TMC3    C1 7515   4.007   4.467  10.650 -0.4062  0.3093  0.9174
  506TMC3    C2 7516   4.016   4.518  10.527  0.3608 -0.1810  0.4740
  506TMC3    C3 7517   4.090   4.437  10.448  0.9352  0.4985  1.0948
  506TMC3    C4 7518   4.051   4.343  10.692  0.2722  0.3672  0.0148
  506TMC3    C5 7519   4.137   4.276  10.618 -0.2060 -0.2630  0.9746
  506TMC3    C6 7520   4.154   4.321  10.491  0.3025 -0.3087  1.0968
  506TMC3     C 7521   4.009   4.566  10.757 -0.2725 -0.4588 -0.1670
  506TMC3     O 7522   4.071   4.535  10.858  0.0073 -1.3749 -0.6352
  506TMC3     H 7523   3.986   4.615  10.490 -0.2466 -1.0003 -1.1779
  506TMC3    H1 7524   4.034   4.294  10.788  0.1828  0.2255 -0.0736
  506TMC3    H2 7525   4.225   4.278  10.421  1.0168  2.8345 -0.1407
  506TMC3    C7 7526   4.268   4.264  10.683 -0.0980 -0.1623 -0.1361
  506TMC3    C8 7527   4.119   4.488  10.317  0.2916 -0.0352 -0.4661
  506TMC3    O1 7528   4.348   4.204  10.612  0.1287  0.4925  0.2550
  506TMC3    O2 7529   4.083   4.413  10.225  0.1748 -0.7424  0.3601
  507TMC3    C1 7530   4.420   1.670  14.765  0.3483  0.6846  0.5117
  507TMC3    C2 7531   4.426   1.569  14.663 -0.2556 -0.4493 -0.7242
  507TMC3    C3 7532   4.470   1.602  14.538  0.5303 -0.7914 -0.1299
  507TMC3    C4 7533   4.463   1.796  14.726  0.1606 -0.2311 -0.8347
  507TMC3    C5 7534   4.541   1.813  14.612 -0.1567  0.0982  0.2538
  507TMC3    C6 7535   4.546   1.717  14.514  0.2029 -0.5540  0.6266
  507TMC3     C 7536   4.289   1.686  14.824  0.6875 -0.1459  0.1984
  507TMC3     O 7537   4.292   1.740  14.931  0.6248 -0.7679 -0.6987
  507TMC3     H 7538   4.369   1.478  14.670 -1.0386  0.2085  1.4305
  507TMC3    H1 7539   4.458   1.878  14.796  0.0634  0.0690 -1.1882
  507TMC3    H2 7540   4.582   1.741  14.415  0.6025 -1.9515  0.4238
  507TMC3    C7 7541   4.528   1.944  14.555  0.1494  0.7432 -0.1752
  507TMC3    C8 7542   4.363   1.589  14.448  0.1570 -0.5294 -0.3601
  507TMC3    O1 7543   4.517   1.938  14.433  0.0944 -0.4999 -0.3583
  507TMC3    O2 7544   4.276   1.514  14.476  0.3922 -0.4568 -0.5888
  508MPD2     C 7545   0.511   3.977  16.234 -0.4326  0.3621 -0.4048
  508MPD2    C1 7546   0.445   4.056  16.323  0.3998 -0.2640  0.2550
  508MPD2    C2 7547   0.361   4.162  16.267  0.2462  0.2042  0.1364
  508MPD2    C3 7548   0.342   4.176  16.129  0.4314  0.5724 -0.2140
  508MPD2    C4 7549   0.402   4.081  16.048  0.4306  0.0281  0.3550
  508MPD2    C5 7550   0.489   3.991  16.100  0.2024 -0.5069 -0.0632
  508MPD2     H 7551   0.323   4.237  16.335 -1.3097  0.3455 -0.8862
  508MPD2    H1 7552   0.382   4.070  15.942  0.4562 -0.3819  0.3912
  508MPD2    H2 7553   0.582   3.900  16.261 -1.8914  0.2433  2.9893
  508MPD2    H3 7554   0.543   3.932  16.027  0.3821 -1.1468  0.5925
  508MPD2     N 7555   0.257   4.273  16.074 -0.1818  0.2520  0.4792
  508MPD2    H5 7556   0.218   4.339  16.140  0.4171  1.8216 -0.7450
  508MPD2    N1 7557   0.470   4.032  16.458 -0.8958 -0.2903  0.1798
  508MPD2    H7 7558   0.541   3.963  16.476  0.5396  0.4429 -2.5614
  509TMC3    C1 7559   4.695   4.545  15.856 -0.2338  0.1550  0.2444
  509TMC3    C2 7560   0.050   4.657  15.864 -0.1937 -0.2894  0.4755
  509TMC3    C3 7561   0.174   4.647  15.916  0.3171 -0.0981 -0.5150
  509TMC3    C4 7562   0.027   4.423  15.884  0.5320  0.6457 -0.0307
  509TMC3    C5 7563   0.153   4.421  15.932  0.2050  0.2752 -0.2605
  509TMC3    C6 7564   0.234   4.527  15.952  0.2598  0.8212 -0.2269
  509TMC3     C 7565   4.584   4.556  15.764  0.0428 -0.0690  0.2936
  509TMC3     O 7566   4.476   4.533  15.805 -0.1914 -0.5169 -0.2115
  509TMC3     H 7567   0.008   0.031  15.847  1.0622  0.8067  3.6858
  509TMC3    H1 7568   4.704   4.328  15.860 -0.5817  1.3828 -0.7146
  509TMC3    H2 7569   0.336   4.522  15.990  0.4714  1.7775 -0.6575
  509TMC3    C7 7570   0.209   4.290  15.948  0.5534 -0.1531 -0.7554
  509TMC3    C8 7571   0.264   0.020  15.880  0.1137 -0.0654  0.5350
  509TMC3    O1 7572   0.205   4.207  15.856 -0.3054 -0.4106  0.1664
  509TMC3    O2 7573   0.221   0.134  15.871 -0.4666 -0.0816 -0.3399
  510MPD2     C 7574   2.979   1.367  14.715  0.8717  0.0573 -0.8065
  510MPD2    C1 7575   3.073   1.312  14.804 -0.4660 -0.3676  0.0925
  510MPD2    C2 7576   3.190   1.258  14.750  1.0304  0.5509  0.7965
  510MPD2    C3 7577   3.226   1.286  14.618  0.0430 -0.7872 -0.5835
  510MPD2    C4 7578   3.137   1.358  14.541 -0.7291  0.4549 -0.6105
  510MPD2    C5 7579   3.015   1.395  14.588 -0.1812  0.5352  0.0996
  510MPD2     H 7580   3.254   1.194  14.810  1.6428 -0.9440 -1.4584
  510MPD2    H1 7581   3.156   1.374  14.436 -1.4838 -0.4263 -0.8846
  510MPD2    H2 7582   2.879   1.393  14.747  1.1056  1.4161 -1.1510
  510MPD2    H3 7583   2.940   1.428  14.517  0.0790 -0.3779 -0.5946
  510MPD2     N 7584   3.358   1.249  14.574 -0.0343 -0.2557 -0.2455
  510MPD2    H5 7585   3.407   1.179  14.629  1.0208  0.5950 -0.0956
  510MPD2    N1 7586   3.049   1.276  14.938 -0.3291 -0.3552  0.2928
  510MPD2    H7 7587   3.129   1.232  14.983 -0.2056  1.2045  1.6096
  511TMC3    C1 7588   2.925   1.221  15.134 -0.4327  0.2572 -0.4132
  511TMC3    C2 7589   2.839   1.256  15.226  0.6037  0.6976 -0.0582
  511TMC3    C3 7590   2.777   1.158  15.298 -0.0313 -0.2903 -0.2609
  511TMC3    C4 7591   2.937   1.089  15.092  0.3878  0.7010  0.2120
  511TMC3    C5 7592   2.880   0.994  15.169  0.4987 -0.3339 -0.7927
  511TMC3    C6 7593   2.807   1.028  15.275 -0.6911  0.3843  0.4710
  511TMC3     C 7594   2.939   1.312  15.018  0.1711 -0.2627  0.7750
  511TMC3     O 7595   2.864   1.409  15.009 -0.4296  0.2902 -0.5100
  511TMC3     H 7596   2.789   1.352  15.223  1.0805  0.9590  0.1857
  511TMC3    H1 7597   2.987   1.066  14.999 -1.6093  0.9217 -0.9270
  511TMC3    H2 7598   2.784   0.949  15.346 -0.2502 -0.7476 -0.6525
  511TMC3    C7 7599   2.904   0.854  15.146 -0.0441 -0.0106  0.2799
  511TMC3    C8 7600   2.653   1.202  15.377 -0.3967 -0.0874 -0.1178
  511TMC3    O1 7601   3.016   0.842  15.089 -0.6057 -0.4892 -0.0431
  511TMC3    O2 7602   2.612   1.316  15.370  0.2211 -0.0148  0.5157
  512TMC3    C1 7603   2.015   0.112  13.407 -0.3322 -0.1720  0.1771
  512TMC3    C2 7604   2.078   0.083  13.525  0.1627  0.3746  0.2122
  512TMC3    C3 7605   2.060   4.685  13.579 -0.1293 -0.2262  0.3545
  512TMC3    C4 7606   1.936   0.021  13.341  0.2873 -0.1056 -0.2795
  512TMC3    C5 7607   1.916   4.624  13.395  0.7263 -0.6225  0.3453
  512TMC3    C6 7608   1.974   4.593  13.515 -0.3597  0.0353 -0.2187
  512TMC3     C 7609   1.983   0.251  13.377  0.9787 -0.0161 -0.9734
  512TMC3     O 7610   1.876   0.287  13.335 -0.2419  0.8431 -0.1038
  512TMC3     H 7611   2.149   0.151  13.570 -0.8978  1.7185 -0.1466
  512TMC3    H1 7612   1.884   0.049  13.249 -0.2069 -2.4065 -0.6913
  512TMC3    H2 7613   1.948   4.505  13.574  1.6614 -0.5909 -0.2750
  512TMC3    C7 7614   1.829   4.536  13.323 -0.9109  0.1455  0.1681
  512TMC3    C8 7615   2.079   4.676  13.723  0.0983  0.2142 -0.2438
  512TMC3    O1 7616   1.790   4.568  13.210  0.1243 -0.2939 -0.3271
  512TMC3    O2 7617   2.066   4.568  13.777  0.6742 -0.7493 -0.4403
  513MPD2     C 7618   4.487   0.628  13.434  0.1283  0.4769 -0.4446
  513MPD2    C1 7619   4.562   0.537  13.362 -0.1282  0.0079  1.0306
  513MPD2    C2 7620   4.699   0.554  13.366  0.1822  0.7781 -0.0246
  513MPD2    C3 7621   0.037   0.657  13.444  0.2271 -0.0220  0.4821
  513MPD2    C4 7622   4.684   0.746  13.511 -0.1921 -0.4242  0.0046
  513MPD2    C5 7623   4.549   0.733  13.504 -0.2561 -0.3547 -0.1097
  513MPD2     H 7624   0.044   0.486  13.317  1.0872  0.3874  1.7612
  513MPD2    H1 7625   4.721   0.835  13.561 -0.0705 -1.0139  0.9649
  513MPD2    H2 7626   4.379   0.628  13.444  0.3904 -1.3742  2.4095
  513MPD2    H3 7627   4.485   0.798  13.562  1.8650  2.2866 -0.7462
  513MPD2     N 7628   0.177   0.663  13.451  0.0310  0.0659 -0.0625
  513MPD2    H5 7629   0.230   0.595  13.397 -0.8410 -0.1569 -0.6383
  513MPD2    N1 7630   4.493   0.432  13.292 -0.0591  0.4041  0.6483
  513MPD2    H7 7631   4.393   0.419  13.299 -0.3770  1.2771 -2.3922
  514TMC3    C1 7632   4.479   0.245  13.148 -0.6369  0.0572  0.1466
  514TMC3    C2 7633   4.414   0.315  13.051  0.4739 -0.0049 -0.4234
  514TMC3    C3 7634   4.423   0.264  12.923 -0.0609  0.4432 -0.6269
  514TMC3    C4 7635   4.553   0.141  13.113  0.4502  0.6723 -0.0395
  514TMC3    C5 7636   4.575   0.101  12.981  0.6383 -0.0103  0.0962
  514TMC3    C6 7637   4.500   0.159  12.880 -0.7428 -0.2280  0.0898
  514TMC3     C 7638   4.559   0.331  13.236 -0.3233  0.3385  0.1546
  514TMC3     O 7639   4.676   0.287  13.248  0.0740  0.5458 -0.3075
  514TMC3     H 7640   4.353   0.399  13.082 -0.9297 -0.9420 -0.6559
  514TMC3    H1 7641   4.594   0.074  13.187 -0.9991  2.6497  2.5397
  514TMC3    H2 7642   4.505   0.122  12.778  2.2732 -0.5560  0.3529
  514TMC3    C7 7643   4.716   0.076  12.947 -0.3158 -0.4884 -0.0883
  514TMC3    C8 7644   4.310   0.297  12.838  0.0614 -0.1576  0.2268
  514TMC3    O1 7645   0.016   0.032  12.831 -0.8054 -0.3479 -0.2421
  514TMC3    O2 7646   4.203   0.312  12.895  0.7263  0.1691  0.2206
  515MPD2     C 7647   1.427   2.473  14.939  0.0230 -0.4727 -0.2196
  515MPD2    C1 7648   1.532   2.378  14.949  0.1013 -0.1242 -0.1601
  515MPD2    C2 7649   1.640   2.417  15.032  0.2114  0.3354 -0.3750
  515MPD2    C3 7650   1.636   2.534  15.107  0.8283  0.4945 -0.1657
  515MPD2    C4 7651   1.531   2.629  15.093 -0.5443  0.8956  0.1573
  515MPD2    C5 7652   1.432   2.593  15.004  0.2937  0.4836 -0.0689
  515MPD2     H 7653   1.723   2.348  15.041 -0.7199 -1.0822 -2.6716
  515MPD2    H1 7654   1.520   2.724  15.143  2.8520  1.2196  0.2839
  515MPD2    H2 7655   1.335   2.447  14.889 -0.2888 -1.3188  0.7865
  515MPD2    H3 7656   1.336   2.644  15.004 -1.1998 -2.2739 -0.9797
  515MPD2     N 7657   1.739   2.575  15.196 -0.1690  0.3475 -0.0309
  515MPD2    H5 7658   1.725   2.661  15.248 -2.7874  0.0394 -0.2644
  515MPD2    N1 7659   1.541   2.249  14.884 -0.5145 -0.2080 -0.2266
  515MPD2    H7 7660   1.624   2.198  14.911 -1.1338 -1.5036 -0.8051
  516TMC3    C1 7661   1.503   2.072  14.729  0.6303  0.7349 -0.4398
  516TMC3    C2 7662   1.477   2.044  14.595  0.6282  0.6855  0.2688
  516TMC3    C3 7663   1.461   1.916  14.551  0.5408  0.6958  0.2589
  516TMC3    C4 7664   1.514   1.967  14.813  0.8726  0.3387 -0.5714
  516TMC3    C5 7665   1.518   1.839  14.764 -0.2379  0.3597 -0.0389
  516TMC3    C6 7666   1.490   1.805  14.633  0.8390  0.6127 -0.2755
  516TMC3     C 7667   1.460   2.203  14.782  0.4477  0.4444 -0.8443
  516TMC3     O 7668   1.372   2.258  14.719 -0.3607  0.2536  0.3722
  516TMC3     H 7669   1.455   2.129  14.532 -1.7344 -2.0609 -2.6224
  516TMC3    H1 7670   1.524   1.982  14.920 -0.3652  2.6869 -0.7826
  516TMC3    H2 7671   1.468   1.704  14.601 -0.2697  0.1067  2.1153
  516TMC3    C7 7672   1.537   1.733  14.865  0.1492 -0.4308  0.3324
  516TMC3    C8 7673   1.429   1.886  14.417 -0.0364 -0.1074  0.6265
  516TMC3    O1 7674   1.576   1.769  14.974  0.9552  0.1020 -0.3668
  516TMC3    O2 7675   1.370   1.787  14.393  0.3806  0.9650  0.0040
  517MPD2     C 7676   1.391   3.905   0.418  0.1675 -0.2879 -0.7619
  517MPD2    C1 7677   1.530   3.898   0.434 -0.0494  0.5837  0.2199
  517MPD2    C2 7678   1.603   4.002   0.497  0.7322 -0.6136 -0.4690
  517MPD2    C3 7679   1.533   4.103   0.563 -0.3743  0.1999  0.1577
  517MPD2    C4 7680   1.396   4.102   0.557 -0.3039 -0.2630 -0.5556
  517MPD2    C5 7681   1.331   4.008   0.477  0.1670  0.4738  0.1173
  517MPD2     H 7682   1.711   3.991   0.488  0.2140 -3.6826 -3.2803
  517MPD2    H1 7683   1.332   4.181   0.596 -0.4480 -0.6295 -0.0452
  517MPD2    H2 7684   1.332   3.836   0.358 -1.2181 -1.5895  2.0704
  517MPD2    H3 7685   1.223   4.015   0.466  0.0485  0.3407  1.2252
  517MPD2     N 7686   1.604   4.205   0.630 -0.8417  0.1522 -0.3340
  517MPD2    H5 7687   1.545   4.282   0.661  0.4946 -0.4996  3.8095
  517MPD2    N1 7688   1.597   3.786   0.377  0.9135  0.0370 -0.3437
  517MPD2    H7 7689   1.695   3.781   0.404  0.0280 -1.5055  2.5683
  518TMC3    C1 7690   1.636   3.561   0.297  0.2411 -0.5102  0.4319
  518TMC3    C2 7691   1.582   3.440   0.279  0.2398 -0.1897  0.1020
  518TMC3    C3 7692   1.659   3.345   0.218  0.7886  0.4357  0.9262
  518TMC3    C4 7693   1.760   3.598   0.267  0.4980  0.4445 -0.2574
  518TMC3    C5 7694   1.839   3.498   0.214  0.4551 -0.3136 -0.1927
  518TMC3    C6 7695   1.786   3.370   0.186 -0.3540  0.4891 -0.0816
  518TMC3     C 7696   1.542   3.669   0.325 -0.1093 -0.1543 -0.0049
  518TMC3     O 7697   1.422   3.641   0.320  0.0828 -0.2088  0.1956
  518TMC3     H 7698   1.474   3.434   0.274  0.2469  0.0548 -0.3035
  518TMC3    H1 7699   1.808   3.694   0.281  0.8895  0.3653 -1.0699
  518TMC3    H2 7700   1.846   3.288   0.148 -0.1872 -0.3610  1.9913
  518TMC3    C7 7701   1.983   3.525   0.191  0.0918  0.6002  0.2674
  518TMC3    C8 7702   1.606   3.220   0.182  0.6642 -0.7176  0.0916
  518TMC3    O1 7703   2.022   3.640   0.212 -0.0757  0.3523  0.0058
  518TMC3    O2 7704   1.665   3.155   0.099 -0.0606  0.1903 -0.4280
  519MPD2     C 7705   3.081   2.269  14.509  0.0240 -0.0128  0.0434
  519MPD2    C1 7706   3.089   2.274  14.372  0.4492 -0.2000 -0.1977
  519MPD2    C2 7707   3.179   2.192  14.297 -0.1334  0.0621 -0.1565
  519MPD2    C3 7708   3.255   2.099  14.366  0.6732 -0.0598  0.6356
  519MPD2    C4 7709   3.240   2.091  14.500 -0.2969 -0.4352 -0.7741
  519MPD2    C5 7710   3.146   2.167  14.569 -1.0982 -0.0262 -0.3856
  519MPD2     H 7711   3.187   2.206  14.190 -0.6928 -2.5446 -0.5349
  519MPD2    H1 7712   3.299   2.020  14.557  1.1369  2.3703  1.2520
  519MPD2    H2 7713   3.010   2.338  14.555 -2.8988 -1.4405 -2.2852
  519MPD2    H3 7714   3.157   2.154  14.677 -0.8530  0.7796 -0.3158
  519MPD2     N 7715   3.338   1.998  14.294  0.0676  0.7764  1.1757
  519MPD2    H5 7716   3.393   1.930  14.346 -1.1467 -1.8624 -0.9738
  519MPD2    N1 7717   3.007   2.362  14.310 -0.2166  0.4811  0.7930
  519MPD2    H7 7718   2.935   2.404  14.367 -0.7652  1.6536 -0.7635
  520TMC3    C1 7719   3.363   1.834  14.132  0.1535  0.4149  0.3464
  520TMC3    C2 7720   3.274   1.758  14.062 -0.1528  0.7921 -0.5992
  520TMC3    C3 7721   3.297   1.624  14.059 -0.2093 -0.3834  0.4565
  520TMC3    C4 7722   3.470   1.779  14.193  0.4318 -0.0681 -0.3282
  520TMC3    C5 7723   3.496   1.649  14.175  0.5359  0.1334 -0.6966
  520TMC3    C6 7724   3.411   1.567  14.107  0.3451  0.3544 -0.4299
  520TMC3     C 7725   3.330   1.974  14.159 -0.2888  0.4047 -0.2837
  520TMC3     O 7726   3.277   2.036  14.069  0.0586 -0.3119  0.1367
  520TMC3     H 7727   3.191   1.804  14.009  0.4225  1.5384 -0.8484
  520TMC3    H1 7728   3.547   1.843  14.235 -1.3286  1.2897  0.7810
  520TMC3    H2 7729   3.424   1.460  14.106  0.3788  0.3129  3.0511
  520TMC3    C7 7730   3.630   1.607  14.206  0.3386 -0.0398  0.3319
  520TMC3    C8 7731   3.242   1.556  13.944 -0.1617 -0.3394  0.0806
  520TMC3    O1 7732   3.692   1.647  14.305 -0.2598  0.2039  0.3918
  520TMC3    O2 7733   3.313   1.478  13.888 -0.3762 -0.7179  0.1280
  521MPD2     C 7734   3.847   4.645   0.287 -0.1050 -0.3230  0.1698
  521MPD2    C1 7735   3.811   4.631   0.150  0.2340 -0.3372 -1.0858
  521MPD2    C2 7736   3.912   4.619   0.054  0.1845  0.0271  0.4865
  521MPD2    C3 7737   4.043   4.610   0.081  0.0025  0.1133  1.1452
  521MPD2    C4 7738   4.073   4.617   0.215  0.3013  0.2603 -0.0905
  521MPD2    C5 7739   3.980   4.637   0.316 -0.0069  0.5493 -0.7446
  521MPD2     H 7740   3.887   4.609  17.648  0.5323 -1.1805  0.5161
  521MPD2    H1 7741   4.175   4.608   0.252  0.7881  0.7770 -1.3030
  521MPD2    H2 7742   3.770   4.655   0.362 -0.9690 -3.6568 -0.2639
  521MPD2    H3 7743   4.010   4.647   0.420 -0.0172  0.1876 -0.7050
  521MPD2     N 7744   4.134   4.576  17.680 -0.2145 -0.3515 -0.0885
  521MPD2    H5 7745   4.103   4.592  17.584  0.3747  1.2531 -0.0184
  521MPD2    N1 7746   3.673   4.615   0.124 -0.4621  0.2884  0.0346
  521MPD2    H7 7747   3.606   4.627   0.199 -0.9653 -0.1295 -0.3501
  522TMC3    C1 7748   4.350   4.526  17.590  0.0984 -0.5070 -0.4006
  522TMC3    C2 7749   4.445   4.428  17.607 -0.2222  0.5033 -0.1138
  522TMC3    C3 7750   4.507   4.381  17.498 -0.2033 -0.4095 -0.3346
  522TMC3    C4 7751   4.325   4.581  17.473 -0.1398  0.0593 -0.3025
  522TMC3    C5 7752   4.398   4.545  17.368 -0.8351  0.0644  0.5778
  522TMC3    C6 7753   4.489   4.442  17.373  0.2341  0.4100  0.3617
  522TMC3     C 7754   4.265   4.554   0.006 -0.7271  0.4439 -0.2280
  522TMC3     O 7755   4.320   4.525   0.114  0.2055  0.3360  0.0535
  522TMC3     H 7756   4.458   4.386   0.006 -0.4679  1.5146  0.3479
  522TMC3    H1 7757   4.261   4.669  17.470  0.3737  0.4991  1.4719
  522TMC3    H2 7758   4.536   4.397  17.286 -2.2443 -0.5239 -0.5117
  522TMC3    C7 7759   4.386   4.617  17.241  0.2467 -0.0325  0.0649
  522TMC3    C8 7760   4.600   4.268  17.522  0.3406 -0.2300 -0.5164
  522TMC3    O1 7761   4.478   4.603  17.162 -0.1798  0.2915  0.0988
  522TMC3    O2 7762   4.631   4.251  17.639  0.5199 -0.4657  0.6661
  523MPD2     C 7763   2.087   3.385  10.815  0.1374 -0.5001  0.5710
  523MPD2    C1 7764   2.196   3.442  10.748 -0.4396  0.9412  0.4712
  523MPD2    C2 7765   2.190   3.578  10.712  0.7780 -0.3774 -0.0576
  523MPD2    C3 7766   2.074   3.646  10.736  0.0786 -0.0102 -0.0779
  523MPD2    C4 7767   1.968   3.589  10.802 -0.2556 -0.7208  0.5589
  523MPD2    C5 7768   1.979   3.465  10.844  0.3704  0.2415  0.1083
  523MPD2     H 7769   2.269   3.615  10.648  1.6381 -0.1168  1.1387
  523MPD2    H1 7770   1.875   3.645  10.804  0.4460  0.5213 -1.5026
  523MPD2    H2 7771   2.082   3.280  10.840 -0.1424 -0.4939  0.5352
  523MPD2    H3 7772   1.898   3.421  10.902 -0.0101  0.8688  0.0565
  523MPD2     N 7773   2.061   3.777  10.681 -0.0958  0.2686  0.4204
  523MPD2    H5 7774   1.964   3.806  10.669 -0.0917  0.0988 -0.0007
  523MPD2    N1 7775   2.304   3.358  10.728 -0.0013 -0.0624 -0.3379
  523MPD2    H7 7776   2.303   3.262  10.759 -1.2563  0.2101  0.4369
  524TMC3    C1 7777   2.113   3.973  10.560 -0.4374 -0.1391 -0.0535
  524TMC3    C2 7778   2.184   4.085  10.560  0.2035 -1.3582 -0.0384
  524TMC3    C3 7779   2.127   4.198  10.511  0.0864 -0.4081  0.3104
  524TMC3    C4 7780   1.985   3.974  10.516  0.1629  0.3164  0.2964
  524TMC3    C5 7781   1.928   4.092  10.472 -0.0702 -0.7913 -0.3833
  524TMC3    C6 7782   1.996   4.203  10.465 -0.3439  0.4150 -0.0047
  524TMC3     C 7783   2.158   3.858  10.627 -0.6628  0.0086  0.0723
  524TMC3     O 7784   2.281   3.852  10.630  0.3688 -0.4695 -0.2532
  524TMC3     H 7785   2.289   4.089  10.585  0.2429 -1.5591 -0.1724
  524TMC3    H1 7786   1.935   3.878  10.502  1.1138 -0.6741  3.4854
  524TMC3    H2 7787   1.957   4.303  10.450 -2.3947 -0.4127 -0.2225
  524TMC3    C7 7788   1.781   4.086  10.442  0.3115 -0.5333  0.0188
  524TMC3    C8 7789   2.212   4.321  10.512  0.2461  0.0868 -0.1595
  524TMC3    O1 7790   1.719   3.981  10.466  0.0185  0.5396  0.6554
  524TMC3    O2 7791   2.321   4.303  10.561 -0.3183 -0.4089 -0.3107
  525MPD2     C 7792   4.616   1.219  14.641 -0.2053  0.7936  0.0411
  525MPD2    C1 7793   4.719   1.194  14.721 -0.2664 -0.2098  0.4799
  525MPD2    C2 7794   0.116   1.257  14.699  0.5982  0.5757 -0.4605
  525MPD2    C3 7795   0.122   1.346  14.601  0.5453 -0.1139 -0.3756
  525MPD2    C4 7796   0.017   1.372  14.516 -0.3563 -0.2870 -0.0186
  525MPD2    C5 7797   4.628   1.301  14.537  0.2479  0.4254  0.1236
  525MPD2     H 7798   0.196   1.240  14.769 -0.0576  3.3926  0.9559
  525MPD2    H1 7799   0.025   1.441  14.433 -0.8742  0.9678  0.9694
  525MPD2    H2 7800   4.519   1.171  14.647 -0.6262  1.5342 -0.7711
  525MPD2    H3 7801   4.542   1.300  14.471 -0.8056 -0.2517  1.4813
  525MPD2     N 7802   0.243   1.417  14.597 -0.5146  0.3600 -0.1489
  525MPD2    H5 7803   0.324   1.388  14.652  0.0665  0.4461 -0.9469
  525MPD2    N1 7804   4.707   1.101  14.827 -0.4070 -0.0741  0.4160
  525MPD2    H7 7805   0.069   1.072  14.870  0.1867  1.1935  0.0894
  526TMC3    C1 7806   4.613   0.968  14.988 -0.5130 -0.1652  0.4027
  526TMC3    C2 7807   4.497   0.950  15.067 -0.1903  0.2577 -0.0311
  526TMC3    C3 7808   4.506   0.895  15.190 -0.0091 -0.2330 -0.4373
  526TMC3    C4 7809   0.010   0.932  15.031  0.6784 -0.3742  0.1821
  526TMC3    C5 7810   0.012   0.867  15.154 -0.3671  0.4649  0.1717
  526TMC3    C6 7811   4.627   0.852  15.239 -0.4269 -0.6220 -0.5339
  526TMC3     C 7812   4.593   1.045  14.870 -0.3606  0.0238 -0.2685
  526TMC3     O 7813   4.476   1.074  14.843  0.1852 -0.3692  0.2771
  526TMC3     H 7814   4.398   0.971  15.029 -0.0121 -2.7605 -2.1855
  526TMC3    H1 7815   0.090   0.920  14.958  0.6638  0.2349  0.0679
  526TMC3    H2 7816   4.629   0.790  15.328  0.7391 -0.4050 -0.4126
  526TMC3    C7 7817   0.143   0.831  15.217 -0.2713 -0.3925  0.3390
  526TMC3    C8 7818   4.442   0.983  15.292  0.3107 -0.9413  0.2345
  526TMC3    O1 7819   0.142   0.750  15.314 -0.4969 -0.4602  0.7401
  526TMC3    O2 7820   4.494   0.987  15.405  0.0783  0.1892  0.2308
  527MPD2     C 7821   3.153   4.590   1.844 -0.1008 -0.1027  0.0213
  527MPD2    C1 7822   3.196   4.472   1.903  0.1861  0.1255 -0.2178
  527MPD2    C2 7823   3.167   4.351   1.834 -0.5371 -0.0142  0.4950
  527MPD2    C3 7824   3.099   4.344   1.712  0.7586  0.2123  0.1780
  527MPD2    C4 7825   3.063   4.466   1.656  0.1454  0.2765  0.0622
  527MPD2    C5 7826   3.095   4.585   1.720 -0.1453 -0.0901  0.2987
  527MPD2     H 7827   3.199   4.260   1.884 -1.4073 -0.7129 -0.2236
  527MPD2    H1 7828   3.028   4.472   1.553  1.0543  1.0126 -0.2036
  527MPD2    H2 7829   3.164   4.689   1.887  0.7618 -0.2107  0.0483
  527MPD2    H3 7830   3.071   4.685   1.685 -1.9463 -0.7109 -0.2623
  527MPD2     N 7831   3.097   4.219   1.645 -0.2904  0.0852 -0.4028
  527MPD2    H5 7832   3.142   4.146   1.700 -2.0720 -0.5827  0.1437
  527MPD2    N1 7833   3.253   4.466   2.029  0.0920 -0.5911 -0.0744
  527MPD2    H7 7834   3.269   4.373   2.066 -0.2182 -1.3361 -1.8060
  528TMC3    C1 7835   3.354   4.501   2.242 -0.3327 -0.2814  0.6566
  528TMC3    C2 7836   3.420   4.584   2.327  0.0884  0.0112  0.0796
  528TMC3    C3 7837   3.462   4.530   2.445 -0.4686  0.0628  0.0137
  528TMC3    C4 7838   3.328   4.368   2.273 -0.3247  0.7614  0.3204
  528TMC3    C5 7839   3.380   4.317   2.391  0.3550 -0.0746  0.0917
  528TMC3    C6 7840   3.440   4.397   2.481 -0.5740 -0.9420 -0.1433
  528TMC3     C 7841   3.288   4.567   2.120  0.0676 -0.1034 -0.0355
  528TMC3     O 7842   3.275   4.685   2.116 -0.2349 -0.7790 -0.4262
  528TMC3     H 7843   3.422   4.690   2.302 -0.5292 -0.5535 -2.3485
  528TMC3    H1 7844   3.272   4.303   2.206 -1.1971  2.5330 -0.6517
  528TMC3    H2 7845   3.479   4.364   2.577 -0.8449  1.0640  0.6663
  528TMC3    C7 7846   3.346   4.173   2.422 -0.5733  0.5474 -0.0393
  528TMC3    C8 7847   3.553   4.609   2.524 -0.0759  0.0461 -0.3888
  528TMC3    O1 7848   3.265   4.116   2.350 -0.4328  0.2285  0.6217
  528TMC3    O2 7849   3.632   4.678   2.461  0.6103 -0.6631 -0.1904
  529MPD2     C 7850   0.596   3.387   0.880  0.5170  0.5950 -0.1231
  529MPD2    C1 7851   0.612   3.250   0.868 -0.9209 -0.1842 -0.1814
  529MPD2    C2 7852   0.594   3.194   0.744  0.0203 -0.1647  0.8900
  529MPD2    C3 7853   0.550   3.266   0.634  0.1400  0.1801  0.0163
  529MPD2    C4 7854   0.552   3.402   0.649 -0.2478 -0.4754  0.4873
  529MPD2    C5 7855   0.563   3.457   0.770  0.0383 -0.0089 -0.4545
  529MPD2     H 7856   0.600   3.086   0.734  1.1502 -0.3286  3.4672
  529MPD2    H1 7857   0.534   3.468   0.565 -0.7033  0.6114  1.4407
  529MPD2    H2 7858   0.612   3.446   0.969  0.7542 -0.1673  0.3358
  529MPD2    H3 7859   0.541   3.562   0.783 -0.6927 -0.3207  0.8505
  529MPD2     N 7860   0.519   3.207   0.508 -0.5746  0.0940  0.2001
  529MPD2    H5 7861   0.501   3.270   0.430 -2.1317 -1.3668 -0.6253
  529MPD2    N1 7862   0.639   3.156   0.968  0.5892  0.5205 -0.1458
  529MPD2    H7 7863   0.627   3.063   0.928 -0.6667  1.4334 -1.9040
  530TMC3    C1 7864   0.650   3.067   1.183 -0.8989 -0.0904  0.1749
  530TMC3    C2 7865   0.717   3.088   1.302  0.3745  1.3201 -0.5546
  530TMC3    C3 7866   0.721   2.990   1.395 -0.3396  0.7916 -0.0849
  530TMC3    C4 7867   0.584   2.950   1.163 -0.2447  0.0278  0.1999
  530TMC3    C5 7868   0.600   2.847   1.251  0.7603 -0.1456 -0.2613
  530TMC3    C6 7869   0.670   2.863   1.369 -0.5809  0.5563  0.5106
  530TMC3     C 7870   0.645   3.184   1.101 -0.8658 -0.1177 -0.0384
  530TMC3     O 7871   0.642   3.294   1.158  0.6710 -0.2313 -0.1335
  530TMC3     H 7872   0.772   3.179   1.326  3.1974 -0.3024 -0.8928
  530TMC3    H1 7873   0.518   2.934   1.079  0.6757  0.0808 -0.5335
  530TMC3    H2 7874   0.665   2.783   1.442 -0.5575 -0.1370 -0.2501
  530TMC3    C7 7875   0.522   2.724   1.230 -0.4677 -0.3659 -0.2417
  530TMC3    C8 7876   0.821   3.005   1.498  0.2431 -0.7796 -0.1598
  530TMC3    O1 7877   0.423   2.724   1.160  0.1460 -0.0059 -0.0755
  530TMC3    O2 7878   0.858   3.115   1.537  0.0923 -0.0546 -0.9429
  531MPD2     C 7879   0.477   0.128  13.108  0.0351 -0.1255  0.7631
  531MPD2    C1 7880   0.402   0.231  13.165  0.3692 -0.1629 -0.3256
  531MPD2    C2 7881   0.267   0.236  13.129 -0.7238 -0.0686  0.1342
  531MPD2    C3 7882   0.207   0.137  13.048 -0.2858 -0.8458  0.4558
  531MPD2    C4 7883   0.289   0.039  12.988 -0.3025  1.0911  0.0722
  531MPD2    C5 7884   0.414   0.040  13.022  0.0179  0.8523 -0.4208
  531MPD2     H 7885   0.201   0.306  13.178 -2.7149 -0.9572 -1.3105
  531MPD2    H1 7886   0.248   4.681  12.932 -1.2513  0.3154  1.8940
  531MPD2    H2 7887   0.584   0.118  13.121  0.6827 -0.4002 -4.9955
  531MPD2    H3 7888   0.477   4.688  12.978 -3.0705 -1.4589 -0.8188
  531MPD2     N 7889   0.067   0.137  13.035 -0.4622 -0.3530 -0.6665
  531MPD2    H5 7890   0.013   0.173  13.113 -0.0201 -0.2773 -0.3926
  531MPD2    N1 7891   0.468   0.332  13.237 -0.1048  0.0535 -0.0886
  531MPD2    H7 7892   0.564   0.314  13.265  0.0458  1.5474  0.3704
  532TMC3    C1 7893   0.473   0.511  13.393  1.3379  0.4211 -0.1021
  532TMC3    C2 7894   0.422   0.636  13.410  0.3709 -0.1434  0.0205
  532TMC3    C3 7895   0.394   0.669  13.539 -0.5042 -0.1365 -0.2049
  532TMC3    C4 7896   0.510   0.425  13.494  0.2946  0.2869  0.6666
  532TMC3    C5 7897   0.482   0.469  13.619  0.4898 -0.3589 -0.0563
  532TMC3    C6 7898   0.429   0.589  13.646  0.1110 -0.3176 -0.0590
  532TMC3     C 7899   0.400   0.442  13.289  0.5766 -0.5254  0.1355
  532TMC3     O 7900   0.297   0.492  13.250 -0.1371  0.3671 -0.1530
  532TMC3     H 7901   0.386   0.690  13.324  2.6995  0.4244 -0.5945
  532TMC3    H1 7902   0.536   0.321  13.479  3.1305  1.2044 -0.8027
  532TMC3    H2 7903   0.404   0.615  13.748 -0.8661 -4.8055  0.8470
  532TMC3    C7 7904   0.480   0.372  13.727 -0.3854 -0.8642  0.6141
  532TMC3    C8 7905   0.254   0.719  13.546 -0.1124 -0.1445  0.2366
  532TMC3    O1 7906   0.545   0.395  13.832 -0.2440 -0.0915  0.1377
  532TMC3    O2 7907   0.222   0.779  13.645 -0.3150  0.1389 -0.2058
  533TMC3    C1 7908   0.386   1.605  14.555  0.5159 -0.6219 -0.0136
  533TMC3    C2 7909   0.397   1.731  14.513  0.4523  0.3562 -0.1216
  533TMC3    C3 7910   0.459   1.824  14.592  0.7070  0.1639  0.6742
  533TMC3    C4 7911   0.451   1.568  14.667 -0.5528  0.1312  0.1794
  533TMC3    C5 7912   0.499   1.663  14.756  0.0522  0.0072 -0.0422
  533TMC3    C6 7913   0.496   1.796  14.722 -0.0809 -0.1597 -0.4851
  533TMC3     C 7914   0.259   1.537  14.530  0.6031  0.1914  0.3428
  533TMC3     O 7915   0.176   1.608  14.469 -0.2872 -0.0689  0.3686
  533TMC3     H 7916   0.361   1.756  14.414  1.5573 -1.7849 -1.0608
  533TMC3    H1 7917   0.445   1.465  14.699  0.2499 -0.4315 -1.4675
  533TMC3    H2 7918   0.514   1.872  14.797  0.1924 -2.5822  1.9185
  533TMC3    C7 7919   0.483   1.625  14.895 -0.0692 -0.2793  0.1390
  533TMC3    C8 7920   0.464   1.958  14.542  0.2031  0.2225 -0.6860
  533TMC3    O1 7921   0.425   1.523  14.925 -0.2641 -0.6011  0.7188
  533TMC3    O2 7922   0.378   2.001  14.467 -0.1583  0.0880  0.0539
  534MPD2     C 7923   3.124   2.799   2.069  0.6576  0.6709 -0.4334
  534MPD2    C1 7924   3.030   2.902   2.063  0.2334 -0.3319  0.2296
  534MPD2    C2 7925   2.899   2.882   2.025 -0.1853  0.4327  0.0147
  534MPD2    C3 7926   2.864   2.766   1.972 -0.0144  0.1419 -1.1069
  534MPD2    C4 7927   2.961   2.663   1.964  0.4246 -0.3123 -0.4114
  534MPD2    C5 7928   3.087   2.683   2.011 -0.2078  0.5262 -0.0192
  534MPD2     H 7929   2.838   2.971   2.035 -1.9213 -0.8039  0.5078
  534MPD2    H1 7930   2.931   2.563   1.934  1.5320 -0.8935  0.4592
  534MPD2    H2 7931   3.228   2.812   2.096 -0.0178  2.1432  1.4124
  534MPD2    H3 7932   3.151   2.597   1.994 -0.6654  0.1809  0.0016
  534MPD2     N 7933   2.742   2.743   1.912  0.6797  0.9135  0.8145
  534MPD2    H5 7934   2.734   2.653   1.865 -0.5792  2.6772 -2.3826
  534MPD2    N1 7935   3.049   3.037   2.111 -0.1212 -0.1033  0.2023
  534MPD2    H7 7936   2.971   3.102   2.106 -1.3309 -1.5997 -0.3525
  535TMC3    C1 7937   2.506   2.778   1.864 -0.8483 -0.0023 -0.3659
  535TMC3    C2 7938   2.390   2.810   1.937  0.3063  0.4434 -0.4127
  535TMC3    C3 7939   2.271   2.756   1.895  0.0981  0.4961  0.5435
  535TMC3    C4 7940   2.496   2.680   1.770  0.3191  0.1943 -0.0334
  535TMC3    C5 7941   2.376   2.629   1.731  0.5397  0.4530  0.2975
  535TMC3    C6 7942   2.258   2.675   1.784 -0.2981 -0.4550  0.1255
  535TMC3     C 7943   2.633   2.831   1.921  0.6194  0.2248  0.0148
  535TMC3     O 7944   2.617   2.938   1.980  0.5014 -0.7543  0.0887
  535TMC3     H 7945   2.380   2.899   1.998  0.2897 -0.0158  0.2536
  535TMC3    H1 7946   2.579   2.650   1.708 -0.6201 -1.5234 -0.4588
  535TMC3    H2 7947   2.165   2.622   1.766 -2.3495  3.0811  0.1591
  535TMC3    C7 7948   2.371   2.570   1.599  0.0734 -0.3434 -0.3213
  535TMC3    C8 7949   2.142   2.809   1.952  0.1391 -0.0991 -0.3105
  535TMC3    O1 7950   2.469   2.509   1.550 -0.1746  0.1454 -0.5024
  535TMC3    O2 7951   2.037   2.780   1.892  0.4130  0.1376 -0.4769
  536MPD2     C 7952   1.565   1.500  16.393  0.8551  0.6835 -1.1292
  536MPD2    C1 7953   1.450   1.439  16.427  0.5288 -0.3726 -0.5490
  536MPD2    C2 7954   1.348   1.437  16.332  0.1728 -0.4623 -0.5112
  536MPD2    C3 7955   1.368   1.502  16.210  0.1631 -0.2520  0.3282
  536MPD2    C4 7956   1.491   1.561  16.182 -0.5937  0.7567 -0.1492
  536MPD2    C5 7957   1.591   1.553  16.269 -0.2739  0.7580 -0.2701
  536MPD2     H 7958   1.253   1.385  16.343  0.7982 -0.8759  3.0174
  536MPD2    H1 7959   1.507   1.616  16.090  0.2782  0.2748 -0.2809
  536MPD2    H2 7960   1.650   1.492  16.459 -0.9200  0.5577  1.1462
  536MPD2    H3 7961   1.692   1.585  16.243  0.3595 -0.7506  0.3258
  536MPD2     N 7962   1.282   1.510  16.099 -0.1482  0.0808  0.1357
  536MPD2    H5 7963   1.308   1.560  16.014  1.1459 -1.9502 -0.6701
  536MPD2    N1 7964   1.437   1.398  16.559 -0.1669 -0.0814  0.0160
  536MPD2    H7 7965   1.517   1.400  16.621 -0.4532  0.6234  0.3660
  537TMC3    C1 7966   1.333   1.306  16.744  1.3271 -0.7340  0.1149
  537TMC3    C2 7967   1.398   1.385  16.839  0.4152 -0.2705 -0.0849
  537TMC3    C3 7968   1.382   1.353  16.976 -0.5288  0.3704 -0.1549
  537TMC3    C4 7969   1.243   1.206  16.785  0.0106  0.1710  0.3701
  537TMC3    C5 7970   1.248   1.169  16.918  0.0239 -0.3081 -0.2059
  537TMC3    C6 7971   1.305   1.249  17.015  0.3967  0.1365  0.6210
  537TMC3     C 7972   1.315   1.359  16.612 -0.0141 -0.7428 -0.0945
  537TMC3     O 7973   1.199   1.361  16.572  0.0373 -0.3372  0.0693
  537TMC3     H 7974   1.463   1.468  16.815 -1.2452  0.9861 -0.2101
  537TMC3    H1 7975   1.189   1.149  16.710 -0.1335  0.5128  0.2137
  537TMC3    H2 7976   1.298   1.228  17.121 -0.7727  0.4290  0.5987
  537TMC3    C7 7977   1.149   1.076  16.964  0.1042  0.1585 -0.1531
  537TMC3    C8 7978   1.385   1.456  17.079  0.3499 -0.2020 -0.1180
  537TMC3    O1 7979   1.051   1.081  16.889 -0.2274 -0.0455 -0.3499
  537TMC3    O2 7980   1.373   1.424  17.197 -0.6231 -0.3928 -0.1247
  538TMC3    C1 7981   3.053   3.294  11.329  0.1234  0.5995  0.3375
  538TMC3    C2 7982   3.164   3.309  11.259  0.4327 -0.5091  0.4222
  538TMC3    C3 7983   3.160   3.371  11.139 -0.4883  0.4298 -0.6437
  538TMC3    C4 7984   2.936   3.342  11.289  0.1571 -0.2548 -0.3715
  538TMC3    C5 7985   2.927   3.401  11.164 -0.0260  0.5690 -0.1605
  538TMC3    C6 7986   3.037   3.411  11.088 -0.2154  0.0795 -0.6313
  538TMC3     C 7987   3.078   3.262  11.466  0.4426 -0.1298  0.4170
  538TMC3     O 7988   3.177   3.189  11.488 -0.1820 -0.1778  0.2183
  538TMC3     H 7989   3.256   3.268  11.301 -0.3046 -0.6522  1.9129
  538TMC3    H1 7990   2.845   3.322  11.345  0.3223  2.7305  1.0122
  538TMC3    H2 7991   3.037   3.465  10.994 -1.6396  2.7640  0.9392
  538TMC3    C7 7992   2.804   3.462  11.124  0.1268 -0.2509  0.5841
  538TMC3    C8 7993   3.275   3.431  11.084 -0.2830  0.2279  0.0302
  538TMC3    O1 7994   2.716   3.452  11.208  0.1652  0.0853 -0.1023
  538TMC3    O2 7995   3.274   3.466  10.966 -0.1417 -0.5662  1.0611
  539MPD2     C 7996   2.696   2.641  12.344  0.0169 -0.7790 -0.0414
  539MPD2    C1 7997   2.731   2.720  12.238  0.5436  0.8178 -0.2777
  539MPD2    C2 7998   2.664   2.841  12.213  0.4624 -0.1846 -0.0934
  539MPD2    C3 7999   2.567   2.880  12.304  0.1326 -0.4610  0.1431
  539MPD2    C4 8000   2.531   2.800  12.413 -0.0133  0.0023 -0.4312
  539MPD2    C5 8001   2.594   2.678  12.423 -0.2044 -0.1807 -0.0305
  539MPD2     H 8002   2.688   2.895  12.122 -0.2320 -0.9097 -0.7106
  539MPD2    H1 8003   2.456   2.826  12.487  2.2205  0.1008  1.8116
  539MPD2    H2 8004   2.736   2.543  12.366  1.7211  0.2322  1.3141
  539MPD2    H3 8005   2.574   2.604  12.499 -0.3759  0.6263  0.7180
  539MPD2     N 8006   2.485   2.996  12.294 -0.3667  1.2039  0.1610
  539MPD2    H5 8007   2.404   3.000  12.355  0.0477  2.2616  0.6468
  539MPD2    N1 8008   2.823   2.692  12.138 -0.4717 -0.3234 -0.3520
  539MPD2    H7 8009   2.829   2.748  12.053  4.3030  0.5179  0.5391
  540TMC3    C1 8010   2.393   3.194  12.202 -0.4009 -0.1089 -0.3938
  540TMC3    C2 8011   2.392   3.264  12.087  0.0226 -0.1397 -0.0021
  540TMC3    C3 8012   2.271   3.318  12.046 -0.1958 -0.6621  0.0964
  540TMC3    C4 8013   2.281   3.172  12.274  0.3203  0.0815  0.1536
  540TMC3    C5 8014   2.160   3.234  12.234 -1.0068 -0.5007  0.0456
  540TMC3    C6 8015   2.158   3.309  12.118  0.4374  0.3889 -0.0642
  540TMC3     C 8016   2.502   3.099  12.201 -0.4729  0.1472 -0.1847
  540TMC3     O 8017   2.597   3.109  12.123 -0.0648 -0.0077 -0.2284
  540TMC3     H 8018   2.477   3.279  12.020  0.6799 -1.8131  0.4780
  540TMC3    H1 8019   2.290   3.107  12.361 -0.9309  1.7162  1.4953
  540TMC3    H2 8020   2.062   3.338  12.077  0.8573  0.7580 -0.7870
  540TMC3    C7 8021   2.045   3.248  12.328 -0.8869 -0.3715 -0.2503
  540TMC3    C8 8022   2.270   3.405  11.928 -0.0565  0.0588 -0.1574
  540TMC3    O1 8023   1.951   3.321  12.283 -0.2031  0.2276 -0.2250
  540TMC3    O2 8024   2.323   3.517  11.944 -0.4704  0.5564  0.3976
  541MPD2     C 8025   1.220   0.175  13.392 -0.3813  0.1413 -0.1835
  541MPD2    C1 8026   1.101   0.235  13.433 -0.2408  0.0735  0.1425
  541MPD2    C2 8027   1.013   0.281  13.338  0.1357  0.0986 -0.3497
  541MPD2    C3 8028   1.043   0.263  13.204  0.6632  0.1230 -0.1634
  541MPD2    C4 8029   1.155   0.192  13.166 -0.3727  0.6878 -0.1556
  541MPD2    C5 8030   1.250   0.150  13.257 -0.1586  0.1873  0.2194
  541MPD2     H 8031   0.924   0.333  13.372  1.4579  2.4937 -0.5421
  541MPD2    H1 8032   1.167   0.166  13.061 -0.0730 -1.5406  0.4304
  541MPD2    H2 8033   1.295   0.148  13.467  0.3710 -1.2649 -1.4253
  541MPD2    H3 8034   1.343   0.105  13.225 -0.7272 -0.8140 -0.0164
  541MPD2     N 8035   0.963   0.309  13.098  1.0103 -0.3929  0.2263
  541MPD2    H5 8036   1.001   0.292  13.005 -0.2461 -1.9871 -0.0114
  541MPD2    N1 8037   1.079   0.240  13.578 -0.4528 -0.0182 -0.5464
  541MPD2    H7 8038   1.151   0.196  13.634  0.6930  0.8536 -1.3250
  542TMC3    C1 8039   0.796   0.436  12.984  0.1007  0.2999  0.0640
  542TMC3    C2 8040   0.864   0.413  12.864 -0.0142  0.6497 -0.3214
  542TMC3    C3 8041   0.820   0.477  12.749  0.0702 -0.8279 -0.3179
  542TMC3    C4 8042   0.698   0.533  12.990 -0.5718  0.3914  0.3129
  542TMC3    C5 8043   0.661   0.594  12.871  0.3489  0.5352  0.3671
  542TMC3    C6 8044   0.729   0.577  12.757  0.0418  0.2786 -0.8250
  542TMC3     C 8045   0.847   0.382  13.110  0.8351 -0.2181  0.1452
  542TMC3     O 8046   0.801   0.440  13.204  0.4405 -0.3450  0.3877
  542TMC3     H 8047   0.934   0.331  12.854  1.6804  2.0474  0.0973
  542TMC3    H1 8048   0.646   0.562  13.080  0.2900  0.6418  0.7327
  542TMC3    H2 8049   0.690   0.621  12.666 -1.9466  0.4064  0.0963
  542TMC3    C7 8050   0.545   0.680  12.870  0.0004  0.1147 -0.6110
  542TMC3    C8 8051   0.891   0.446  12.625 -0.9934 -0.7547  0.2953
  542TMC3    O1 8052   0.466   0.678  12.961 -0.4623  0.1767 -0.3867
  542TMC3    O2 8053   0.831   0.485  12.529  0.4585  0.0345 -0.1403
  543TMC3    C1 8054   4.542   1.986  17.214  0.4162 -0.3560  0.6522
  543TMC3    C2 8055   4.483   1.877  17.260 -0.6703 -0.5432  0.2560
  543TMC3    C3 8056   4.488   1.842  17.389  0.0653 -0.3713 -0.0216
  543TMC3    C4 8057   4.596   2.068  17.304  0.4829  0.3727  0.2442
  543TMC3    C5 8058   4.614   2.026  17.430 -0.1036 -0.0803 -0.1339
  543TMC3    C6 8059   4.548   1.917  17.476 -0.3189 -0.7063  0.3344
  543TMC3     C 8060   4.621   1.953  17.101 -0.2360  0.3184  0.0915
  543TMC3     O 8061   0.001   1.886  17.116  0.2803 -0.4485  0.9341
  543TMC3     H 8062   4.451   1.801  17.190 -3.8771  0.7793  0.2855
  543TMC3    H1 8063   4.652   2.153  17.268 -0.2580  0.1882 -1.3243
  543TMC3    H2 8064   4.552   1.885  17.580  0.1219  2.4500  1.2881
  543TMC3    C7 8065   4.669   2.113  17.542 -0.2195 -0.2648 -0.4242
  543TMC3    C8 8066   4.517   1.704  17.398  0.2237 -0.1997  0.9064
  543TMC3    O1 8067   4.603   2.114  17.644 -0.8235  0.4376 -0.0763
  543TMC3    O2 8068   4.606   1.665  17.328  0.1126 -0.0055  0.0596
  544MPD2     C 8069   4.426   1.228  17.580 -0.4328  0.0442  0.4821
  544MPD2    C1 8070   4.501   1.268  17.471 -0.0916  0.0202  0.4218
  544MPD2    C2 8071   4.509   1.404  17.431  0.2939  0.2398 -0.7164
  544MPD2    C3 8072   4.443   1.496  17.515 -0.3868 -0.2142 -0.1320
  544MPD2    C4 8073   4.363   1.455  17.615  0.1035  0.6649  0.3763
  544MPD2    C5 8074   4.355   1.323  17.648  0.4938 -0.1045 -0.0845
  544MPD2     H 8075   4.562   1.428  17.340 -0.0660  1.4008 -0.6220
  544MPD2    H1 8076   4.296   1.520  17.670 -0.3640  0.8085 -0.3606
  544MPD2    H2 8077   4.412   1.125  17.613  0.3138 -0.9930 -2.4557
  544MPD2    H3 8078   4.296   1.284   0.031 -2.9788 -0.4344 -2.7964
  544MPD2     N 8079   4.438   1.635  17.487 -0.3952  0.8141  0.4700
  544MPD2    H5 8080   4.379   1.685  17.553 -2.1626 -0.0830 -0.4328
  544MPD2    N1 8081   4.561   1.158  17.388  0.2380 -0.2183 -0.2095
  544MPD2    H7 8082   4.561   1.068  17.434 -1.4544 -0.2380 -0.2445
  545TMC3    C1 8083   4.695   1.049  17.222  0.3643 -0.1581  0.1856
  545TMC3    C2 8084   0.025   1.058  17.096 -0.5481 -0.1974  0.9059
  545TMC3    C3 8085   0.108   0.956  17.056  0.8676  0.4308 -0.1151
  545TMC3    C4 8086   4.713   0.931  17.299 -0.5568 -0.1311 -0.6202
  545TMC3    C5 8087   0.072   0.836  17.258  0.0123  0.0087 -0.1251
  545TMC3    C6 8088   0.123   0.841  17.131 -0.0361 -0.4856 -0.3801
  545TMC3     C 8089   4.627   1.165  17.266 -0.1119 -1.2898 -0.2252
  545TMC3     O 8090   4.620   1.262  17.189 -0.3767  0.0364  0.5363
  545TMC3     H 8091   0.026   1.147  17.033  0.5280  0.2377  1.5390
  545TMC3    H1 8092   4.668   0.911  17.396 -0.3470 -0.6998 -0.6378
  545TMC3    H2 8093   0.195   0.770  17.092  2.2807  1.7391 -0.1612
  545TMC3    C7 8094   0.085   0.719  17.344  0.0083 -0.7696 -0.3292
  545TMC3    C8 8095   0.195   0.973  16.948  0.4972  0.4492 -0.0962
  545TMC3    O1 8096   4.721   0.644  17.367 -0.0438 -0.1430  0.2343
  545TMC3    O2 8097   0.225   0.871  16.880  0.3511  0.1832 -0.0979
  546MPD2     C 8098   1.338   1.762   0.223 -0.3469  0.2087 -0.2843
  546MPD2    C1 8099   1.293   1.806   0.102 -0.3799 -0.3779 -0.6458
  546MPD2    C2 8100   1.348   1.918   0.046  0.2303 -0.4146 -0.1413
  546MPD2    C3 8101   1.438   1.992   0.116 -0.1626 -0.7507 -0.8610
  546MPD2    C4 8102   1.478   1.951   0.241 -0.1856 -0.5623 -0.0619
  546MPD2    C5 8103   1.434   1.830   0.290 -0.4166  0.2483  0.3921
  546MPD2     H 8104   1.296   1.967  17.664  2.1223 -0.6706 -1.5164
  546MPD2    H1 8105   1.548   2.011   0.299 -3.0123  1.4871  1.1968
  546MPD2    H2 8106   1.292   1.679   0.275  0.5146 -1.1946 -1.7607
  546MPD2    H3 8107   1.478   1.796   0.384 -1.9419 -2.3888  0.1525
  546MPD2     N 8108   1.477   2.117   0.078  0.1142  0.0329 -0.8828
  546MPD2    H5 8109   1.540   2.172   0.135 -0.5878  0.0336 -0.1083
  546MPD2    N1 8110   1.194   1.725   0.035  0.3483  0.4835  0.2582
  546MPD2    H7 8111   1.149   1.644   0.076  1.7241 -0.5521 -0.2553
  547TMC3    C1 8112   1.025   1.657  17.585 -0.2058  0.6167  0.0111
  547TMC3    C2 8113   0.985   1.658  17.455 -0.3512 -0.2009 -0.2169
  547TMC3    C3 8114   0.864   1.599  17.428  0.1067 -0.0852  0.5349
  547TMC3    C4 8115   0.957   1.598  17.688  0.3419  0.4047 -0.5258
  547TMC3    C5 8116   0.854   1.515  17.648  0.3863 -0.2373  0.2122
  547TMC3    C6 8117   0.807   1.525  17.520 -0.2726 -0.4475 -0.3526
  547TMC3     C 8118   1.136   1.751  17.614  0.0203 -0.7010 -0.3989
  547TMC3     O 8119   1.158   1.828  17.526 -0.0796  0.2651 -0.0136
  547TMC3     H 8120   1.043   1.710  17.380  0.5066 -0.6562  0.1283
  547TMC3    H1 8121   0.977   1.625   0.091  1.0149  1.7019 -1.0100
  547TMC3    H2 8122   0.722   1.462  17.493 -1.4001  0.5427  0.8916
  547TMC3    C7 8123   0.772   1.477   0.060 -0.9661 -0.1732 -0.0439
  547TMC3    C8 8124   0.823   1.590  17.287  0.2047  0.2103 -0.4886
  547TMC3    O1 8125   0.821   1.450   0.171  0.0795  0.4014  0.0909
  547TMC3    O2 8126   0.705   1.566  17.280  0.1669  0.0323  0.1897
  548MPD2     C 8127   1.687   1.982  12.960 -0.1298  0.0684  0.1286
  548MPD2    C1 8128   1.602   1.879  12.930  0.2266  0.4007 -0.0035
  548MPD2    C2 8129   1.651   1.772  12.851  0.0491 -0.8087 -0.7562
  548MPD2    C3 8130   1.773   1.777  12.789  0.0881 -0.9995  0.4568
  548MPD2    C4 8131   1.855   1.884  12.821  0.2189  0.0519  0.6294
  548MPD2    C5 8132   1.811   1.984  12.898  0.1436  0.1713 -0.4302
  548MPD2     H 8133   1.583   1.691  12.826 -1.0680  0.7805 -2.9583
  548MPD2    H1 8134   1.955   1.888  12.779 -1.7009  1.4947 -3.6894
  548MPD2    H2 8135   1.650   2.067  13.016  0.1269  1.2676 -1.4892
  548MPD2    H3 8136   1.875   2.071  12.907 -0.6681  0.5815  1.3299
  548MPD2     N 8137   1.811   1.666  12.713 -0.0076  0.1265  0.7008
  548MPD2    H5 8138   1.738   1.596  12.704  0.2717 -0.6579  4.3116
  548MPD2    N1 8139   1.474   1.872  12.994 -0.2085  0.3681 -0.6930
  548MPD2    H7 8140   1.457   1.955  13.050 -1.8816 -1.5937  1.7075
  549TMC3    C1 8141   1.256   1.827  13.059  0.6828  0.6977  0.4032
  549TMC3    C2 8142   1.236   1.964  13.080 -0.5416 -0.2397 -0.0320
  549TMC3    C3 8143   1.110   1.999  13.122 -0.1550 -0.2768 -0.0433
  549TMC3    C4 8144   1.158   1.736  13.076 -0.4207 -0.2455 -0.2179
  549TMC3    C5 8145   1.036   1.781  13.125  0.0687 -0.4074  0.3599
  549TMC3    C6 8146   1.013   1.912  13.145  0.2175  0.4222  0.2315
  549TMC3     C 8147   1.380   1.772  12.998  0.1899 -0.6678 -0.3449
  549TMC3     O 8148   1.396   1.653  12.971 -0.0401  0.1110 -0.3843
  549TMC3     H 8149   1.302   2.044  13.051 -0.9412  0.2233  0.3318
  549TMC3    H1 8150   1.180   1.631  13.059  0.9065  0.1464 -0.9680
  549TMC3    H2 8151   0.919   1.947  13.187  0.1968  0.3730  0.2269
  549TMC3    C7 8152   0.924   1.694  13.143 -0.6491 -0.0708  0.6567
  549TMC3    C8 8153   1.073   2.135  13.126  0.4597 -0.9145  0.2293
  549TMC3    O1 8154   0.814   1.755  13.140 -0.1234 -0.2566 -0.4720
  549TMC3    O2 8155   1.139   2.220  13.182 -0.3957  0.3111  0.4626
  550TMC3    C1 8156   0.460   0.326  12.720 -0.1670 -0.4270 -0.4487
  550TMC3    C2 8157   0.379   0.376  12.822  0.2177  0.2822  0.1119
  550TMC3    C3 8158   0.262   0.437  12.773  0.1704  0.0805 -0.3348
  550TMC3    C4 8159   0.421   0.331  12.589 -0.2894 -0.7761  0.2782
  550TMC3    C5 8160   0.309   0.394  12.545 -0.0858 -0.6279  0.2413
  550TMC3    C6 8161   0.226   0.435  12.642 -0.2531  0.1804  0.5597
  550TMC3     C 8162   0.541   0.207  12.745  0.0020  0.3548  0.4443
  550TMC3     O 8163   0.655   0.225  12.782 -0.4479  0.1156 -0.1074
  550TMC3     H 8164   0.409   0.352  12.923  0.7531 -1.5096 -0.4582
  550TMC3    H1 8165   0.479   0.277  12.515 -0.7171 -1.0364  0.1375
  550TMC3    H2 8166   0.137   0.483  12.603  0.4001 -0.2486 -1.4411
  550TMC3    C7 8167   0.253   0.368  12.413  0.5398 -0.1081 -0.5395
  550TMC3    C8 8168   0.149   0.463  12.861 -0.4814  0.6803 -0.2237
  550TMC3    O1 8169   0.130   0.376  12.408 -0.1395 -0.3244  0.4997
  550TMC3    O2 8170   0.040   0.429  12.818 -0.3369 -0.2045 -0.3567
  551TMC3    C1 8171   2.112   2.807  13.672 -0.0309  0.3888 -0.0959
  551TMC3    C2 8172   2.095   2.894  13.570 -0.0895  0.6346  0.1881
  551TMC3    C3 8173   2.145   3.019  13.593  0.4048 -0.0496 -0.1584
  551TMC3    C4 8174   2.162   2.841  13.794  0.3647 -0.8379 -0.8595
  551TMC3    C5 8175   2.198   2.970  13.820 -0.5069  0.3413  1.0723
  551TMC3    C6 8176   2.181   3.068  13.721  0.3431 -0.1785  0.2323
  551TMC3     C 8177   2.063   2.673  13.646 -0.2321 -0.3548  0.9132
  551TMC3     O 8178   2.035   2.644  13.531  0.2778 -0.2652 -0.3276
  551TMC3     H 8179   2.062   2.858  13.473 -2.1355  0.6356  0.9033
  551TMC3    H1 8180   2.182   2.769  13.873  0.4530 -1.6276 -1.6066
  551TMC3    H2 8181   2.198   3.173  13.742  1.4149 -0.1798 -0.6294
  551TMC3    C7 8182   2.271   2.998  13.941  0.0601 -0.4750  1.3150
  551TMC3    C8 8183   2.132   3.111  13.479 -0.4923 -0.3521  0.3991
  551TMC3    O1 8184   2.336   2.904  13.985 -0.2501  0.2422 -0.3044
  551TMC3    O2 8185   2.039   3.088  13.400 -0.2977  0.0505 -0.4267
  552MPD2     C 8186   4.341   0.440  13.846 -0.2803  0.7337  0.2860
  552MPD2    C1 8187   4.317   0.326  13.922 -0.3838  0.6594  0.4003
  552MPD2    C2 8188   4.400   0.288  14.023 -0.6641  0.5173  0.3508
  552MPD2    C3 8189   4.514   0.361  14.052 -0.5799 -0.4465 -0.0328
  552MPD2    C4 8190   4.546   0.469  13.967  0.2354 -0.3762  0.9871
  552MPD2    C5 8191   4.456   0.509  13.873  0.2376  0.3235 -0.3030
  552MPD2     H 8192   4.374   0.204  14.086 -0.0755  0.2024  0.1660
  552MPD2    H1 8193   4.637   0.525  13.985 -0.6153  1.5520 -0.7080
  552MPD2    H2 8194   4.266   0.477  13.777 -1.7611 -1.4415  0.7020
  552MPD2    H3 8195   4.501   0.586  13.813  0.5239  0.1859 -0.2636
  552MPD2     N 8196   4.603   0.335  14.159  0.1057  0.7465 -0.0325
  552MPD2    H5 8197   4.686   0.395  14.161  1.6017 -1.3973  2.4556
  552MPD2    N1 8198   4.195   0.256  13.902 -0.4366 -0.4246 -0.0521
  552MPD2    H7 8199   4.190   0.174  13.962  1.3729  0.9461  2.0123
  553TMC3    C1 8200   3.991   0.177  13.817  0.5074  0.7598 -0.3464
  553TMC3    C2 8201   3.937   0.140  13.700  0.4091  0.1884  0.1624
  553TMC3    C3 8202   3.882   0.017  13.679 -0.6481  0.2015 -0.0680
  553TMC3    C4 8203   3.970   0.108  13.932 -0.0716 -0.0548 -0.3630
  553TMC3    C5 8204   3.925   4.702  13.913  0.0043  0.7863 -0.2083
  553TMC3    C6 8205   3.873   4.652  13.791  0.3834 -0.4976 -0.2187
  553TMC3     C 8206   4.091   0.284  13.817  0.4249  0.1277  0.0226
  553TMC3     O 8207   4.081   0.362  13.721 -0.3329  0.7520  0.1007
  553TMC3     H 8208   3.936   0.204  13.613  1.0604 -0.3848 -0.2673
  553TMC3    H1 8209   4.008   0.147  14.026 -2.4336  1.2544  0.0600
  553TMC3    H2 8210   3.850   4.546  13.788 -0.5947 -0.3221  1.3949
  553TMC3    C7 8211   3.949   4.610  14.018  0.2735 -0.8087  0.2859
  553TMC3    C8 8212   3.916   4.666  13.557 -0.0727 -0.2186 -0.4090
  553TMC3    O1 8213   3.859   4.585  14.098  0.6773  0.0631 -0.1738
  553TMC3    O2 8214   3.930   4.544  13.561 -0.3329  0.0657 -0.1772
  554TMC3    C1 8215   1.308   3.192  11.992 -0.1117 -0.3398 -0.6169
  554TMC3    C2 8216   1.239   3.174  11.874  0.7310 -0.6428 -0.2576
  554TMC3    C3 8217   1.303   3.197  11.754 -0.5205  0.0381  0.5072
  554TMC3    C4 8218   1.441   3.234  11.994  0.4279  0.0294 -0.3357
  554TMC3    C5 8219   1.504   3.242  11.870 -0.5052  0.0212  0.4013
  554TMC3    C6 8220   1.438   3.216  11.755  0.2064  0.5604  0.5376
  554TMC3     C 8221   1.258   3.116  12.107 -0.0207  0.1057 -0.1760
  554TMC3     O 8222   1.141   3.074  12.111  0.1814 -0.6363  0.2911
  554TMC3     H 8223   1.131   3.170  11.882  0.6769 -0.2195 -0.7725
  554TMC3    H1 8224   1.486   3.256  12.090  1.3856 -0.9638 -0.5632
  554TMC3    H2 8225   1.495   3.216  11.663  1.3693 -0.3787  1.2625
  554TMC3    C7 8226   1.615   3.336  11.848  0.7156  0.8019 -0.4382
  554TMC3    C8 8227   1.232   3.273  11.649  0.1148  0.3486  0.2107
  554TMC3    O1 8228   1.620   3.376  11.733  0.1955  0.1179  0.2616
  554TMC3    O2 8229   1.297   3.355  11.583 -0.0253  0.1591  0.3137
  555TMC3    C1 8230   0.413   3.544  15.291  0.0934 -0.4680 -0.0953
  555TMC3    C2 8231   0.495   3.594  15.389 -0.6225 -0.2220  0.6414
  555TMC3    C3 8232   0.518   3.528  15.511  0.1943 -0.3281  0.6376
  555TMC3    C4 8233   0.343   3.433  15.311  0.2175  0.2271 -0.4899
  555TMC3    C5 8234   0.364   3.366  15.433  0.2167  0.2836 -0.7382
  555TMC3    C6 8235   0.451   3.411  15.529  0.1168 -0.4197 -0.5839
  555TMC3     C 8236   0.355   3.635  15.209  0.5241 -0.5038 -0.5399
  555TMC3     O 8237   0.429   3.697  15.134 -0.0352 -0.5661  0.2784
  555TMC3     H 8238   0.525   3.698  15.383  0.0971 -0.4575  0.1124
  555TMC3    H1 8239   0.277   3.393  15.235  0.0164 -1.9323  0.8265
  555TMC3    H2 8240   0.426   3.367  15.625 -1.5206 -0.1319 -0.8660
  555TMC3    C7 8241   0.328   3.228  15.438 -0.1940  0.1880  0.4428
  555TMC3    C8 8242   0.573   3.599  15.626 -0.4548  0.4596  0.5066
  555TMC3    O1 8243   0.319   3.173  15.547 -0.0604  0.2672 -0.1329
  555TMC3    O2 8244   0.578   3.721  15.620 -0.0577  0.0186 -0.1656
  556MPD2     C 8245   3.731   4.537  10.999 -0.2743 -0.4679 -0.3034
  556MPD2    C1 8246   3.762   4.426  11.071 -0.4288  0.5751  0.0813
  556MPD2    C2 8247   3.761   4.303  11.001 -0.6445 -0.6515  0.3322
  556MPD2    C3 8248   3.741   4.302  10.863 -0.2764 -0.0500 -0.6367
  556MPD2    C4 8249   3.717   4.420  10.794  1.2798 -0.5906 -0.1648
  556MPD2    C5 8250   3.712   4.539  10.866  0.0611  0.1732 -0.1711
  556MPD2     H 8251   3.755   4.209  11.054 -0.0593 -0.6238  0.4544
  556MPD2    H1 8252   3.681   4.421  10.692 -1.5116  0.1215  0.8300
  556MPD2    H2 8253   3.717   4.631  11.051 -1.0552 -1.3659  1.0881
  556MPD2    H3 8254   3.679   4.632  10.820  1.3297 -0.9428 -3.3903
  556MPD2     N 8255   3.722   4.173  10.804  0.2388 -0.2803  0.0712
  556MPD2    H5 8256   3.705   4.098  10.871 -1.5560  0.0500 -0.0008
  556MPD2    N1 8257   3.764   4.442  11.220 -0.2212  0.6711  0.0617
  556MPD2    H7 8258   3.753   4.536  11.256  1.6077  1.1514 -0.6164
  557TMC3    C1 8259   3.666   3.998  10.648 -0.6944 -1.0224  0.4648
  557TMC3    C2 8260   3.644   3.973  10.517  1.0004 -0.1231 -0.5909
  557TMC3    C3 8261   3.627   3.836  10.487 -0.4036  0.3308  0.6186
  557TMC3    C4 8262   3.695   3.903  10.743  0.1084  0.0770  0.0544
  557TMC3    C5 8263   3.698   3.774  10.705 -0.3858 -0.3015  0.6055
  557TMC3    C6 8264   3.650   3.738  10.582  0.1094  0.2969  0.0724
  557TMC3     C 8265   3.695   4.144  10.674 -0.7344 -0.0682  0.2697
  557TMC3     O 8266   3.706   4.221  10.577 -0.6540 -0.2427 -0.5792
  557TMC3     H 8267   3.624   4.054  10.447  1.5514  0.0416 -0.5588
  557TMC3    H1 8268   3.731   3.926  10.842  2.3477  0.0240 -0.7346
  557TMC3    H2 8269   3.637   3.636  10.549  0.6888  1.4383 -3.6974
  557TMC3    C7 8270   3.681   3.668  10.806  1.1852 -0.1648  0.1823
  557TMC3    C8 8271   3.568   3.799  10.358 -0.4912  0.2428  0.2136
  557TMC3    O1 8272   3.633   3.563  10.765 -0.5152 -0.2856  0.3444
  557TMC3    O2 8273   3.507   3.886  10.300  0.6908 -0.0238  0.4648
  558TMC3    C1 8274   1.472   2.091  10.223 -0.0422 -1.2551  0.5265
  558TMC3    C2 8275   1.354   2.032  10.272 -0.5040  0.5874  0.1318
  558TMC3    C3 8276   1.234   2.070  10.214  0.8039  0.5028 -0.0629
  558TMC3    C4 8277   1.465   2.194  10.127 -0.4248  0.1712  0.4841
  558TMC3    C5 8278   1.339   2.227  10.078  0.0076 -0.1215  0.4027
  558TMC3    C6 8279   1.225   2.161  10.117  0.0458 -0.2305 -0.5269
  558TMC3     C 8280   1.601   2.082  10.291  0.9745  0.0443  0.1652
  558TMC3     O 8281   1.690   2.149  10.245  0.1919  0.5179  0.4750
  558TMC3     H 8282   1.357   1.955  10.348 -1.5624  0.0266 -0.3971
  558TMC3    H1 8283   1.554   2.242  10.089  0.4595 -1.9675 -0.1685
  558TMC3    H2 8284   1.125   2.176  10.078 -0.5919 -2.5953  0.1894
  558TMC3    C7 8285   1.339   2.316   9.961  0.0437  0.4452 -0.9559
  558TMC3    C8 8286   1.111   1.999  10.253  0.2157  0.1133 -0.4883
  558TMC3    O1 8287   1.439   2.379   9.927 -0.4182  0.3328  0.4265
  558TMC3    O2 8288   1.037   1.970  10.162 -0.3521  0.0054  0.1314
  559MPD2     C 8289   1.182   3.234  10.966  0.4929 -0.6590 -0.0542
  559MPD2    C1 8290   1.118   3.109  10.980  0.3112 -0.2816 -0.0299
  559MPD2    C2 8291   1.189   3.001  11.017  0.3014  0.2219  0.2390
  559MPD2    C3 8292   1.323   3.004  11.040 -0.2438 -0.2254 -0.0979
  559MPD2    C4 8293   1.393   3.124  11.011  0.4086  0.4930  0.0546
  559MPD2    C5 8294   1.324   3.239  10.981  0.7823 -0.1452  0.4988
  559MPD2     H 8295   1.140   2.910  11.047  0.5664  0.2137  0.6466
  559MPD2    H1 8296   1.500   3.133  11.024  0.5412  0.9409 -1.2982
  559MPD2    H2 8297   1.138   3.331  10.946 -0.5251 -1.3469 -1.1663
  559MPD2    H3 8298   1.372   3.332  10.956 -0.6543  0.6005  0.4987
  559MPD2     N 8299   1.394   2.894  11.098 -0.6707  0.3728  0.2387
  559MPD2    H5 8300   1.343   2.807  11.107 -0.9447  0.5454  0.3363
  559MPD2    N1 8301   0.979   3.113  10.970  0.1485 -0.0009 -0.3583
  559MPD2    H7 8302   0.938   3.205  10.961 -2.3096 -1.2089 -1.3841
  560TMC3    C1 8303   1.560   2.759  11.205 -0.2390 -0.2137 -0.0937
  560TMC3    C2 8304   1.486   2.648  11.168  0.1037 -0.1643 -0.2298
  560TMC3    C3 8305   1.516   2.532  11.228 -0.0345  0.6298 -0.3258
  560TMC3    C4 8306   1.663   2.749  11.306 -0.1876  0.0873 -0.4444
  560TMC3    C5 8307   1.700   2.624  11.347  0.2161 -0.4325  0.3539
  560TMC3    C6 8308   1.629   2.516  11.308  0.4505 -0.6158  0.0219
  560TMC3     C 8309   1.519   2.894  11.160 -0.3903  0.0795 -0.6811
  560TMC3     O 8310   1.587   2.996  11.181 -0.6394  0.1637 -0.3322
  560TMC3     H 8311   1.408   2.660  11.094 -0.1379  2.7471  0.4684
  560TMC3    H1 8312   1.688   2.836  11.365 -1.7244  0.2416 -0.0125
  560TMC3    H2 8313   1.642   2.416  11.350  2.3499 -0.8080 -1.0277
  560TMC3    C7 8314   1.789   2.605  11.463 -0.4844  0.3227 -0.5780
  560TMC3    C8 8315   1.460   2.409  11.182 -0.3263  0.1440  0.2834
  560TMC3    O1 8316   1.762   2.507  11.528 -0.6732 -0.0239 -0.1531
  560TMC3    O2 8317   1.342   2.405  11.153  0.2364  0.2523 -0.1352
  561TMC3    C1 8318   3.998   1.761  11.042  0.2061  0.4993  0.5204
  561TMC3    C2 8319   4.024   1.660  11.125  0.5639 -0.0666 -0.1449
  561TMC3    C3 8320   4.020   1.694  11.257 -0.0285 -0.1263 -0.3818
  561TMC3    C4 8321   3.963   1.886  11.073 -0.0669 -0.1592 -0.1383
  561TMC3    C5 8322   3.962   1.918  11.208 -0.1714 -0.2191 -0.8039
  561TMC3    C6 8323   3.988   1.823  11.303 -0.0658  0.3270 -0.4502
  561TMC3     C 8324   4.011   1.736  10.894 -0.2133  0.1004 -0.3236
  561TMC3     O 8325   3.926   1.765  10.809 -0.4114 -0.2968  0.5964
  561TMC3     H 8326   4.034   1.561  11.082 -1.4056  0.3460 -1.5220
  561TMC3    H1 8327   3.925   1.940  10.987 -0.3344 -1.8804 -1.0981
  561TMC3    H2 8328   3.960   1.842  11.406  0.2918 -1.4294 -0.0243
  561TMC3    C7 8329   3.947   2.062  11.242 -0.5678 -0.4046 -0.5262
  561TMC3    C8 8330   3.999   1.585  11.350  0.4117 -0.5011  0.2444
  561TMC3    O1 8331   3.933   2.077  11.362 -0.0771  0.0874  0.4752
  561TMC3    O2 8332   3.976   1.473  11.306  0.6841  0.3167  0.1487
  562TMC3    C1 8333   0.252   3.784  16.263 -0.3915  0.3222  0.8235
  562TMC3    C2 8334   0.161   3.877  16.223  1.1782 -0.0170  0.0694
  562TMC3    C3 8335   0.130   3.892  16.091  0.6571  0.2944  0.1875
  562TMC3    C4 8336   0.308   3.699  16.174  0.3392 -0.3258 -0.8256
  562TMC3    C5 8337   0.267   3.709  16.042  0.2218 -0.3464 -0.4794
  562TMC3    C6 8338   0.188   3.812  15.994 -0.6010 -0.0240  0.9914
  562TMC3     C 8339   0.284   3.765  16.406 -0.0727 -0.5333  0.6120
  562TMC3     O 8340   0.381   3.692  16.425  0.2461 -0.5189  0.1299
  562TMC3     H 8341   0.135   3.954  16.295  3.1720  0.5651  0.1796
  562TMC3    H1 8342   0.398   3.643  16.197 -1.1043 -1.5967  1.7748
  562TMC3    H2 8343   0.149   3.816  15.893 -1.1653  1.4326  1.2713
  562TMC3    C7 8344   0.282   3.593  15.956  0.5392  0.2953  0.6757
  562TMC3    C8 8345   4.716   3.940  16.070 -0.1585  0.5369  0.0501
  562TMC3    O1 8346   0.259   3.598  15.834 -0.0075 -0.4778  0.4376
  562TMC3    O2 8347   4.643   3.915  16.166  0.1943  0.1166  0.5004
  563MPD2     C 8348   2.225   0.411  16.146 -0.3209  0.1069  0.4355
  563MPD2    C1 8349   2.219   0.481  16.266  0.0571 -0.5343 -0.7951
  563MPD2    C2 8350   2.319   0.475  16.356 -0.5711  0.4539 -0.7919
  563MPD2    C3 8351   2.434   0.390  16.337  0.3101 -0.5074  0.4791
  563MPD2    C4 8352   2.439   0.320  16.219 -0.3553 -0.2122  0.9872
  563MPD2    C5 8353   2.333   0.324  16.133  0.2954  0.4892  0.2513
  563MPD2     H 8354   2.318   0.520  16.455  0.2830  0.9132 -0.9921
  563MPD2    H1 8355   2.515   0.245  16.204  0.0597 -0.0033  2.0535
  563MPD2    H2 8356   2.145   0.411  16.073  1.3208 -0.5522 -1.3736
  563MPD2    H3 8357   2.326   0.258  16.047  0.3548  0.5822  0.1743
  563MPD2     N 8358   2.529   0.379  16.443 -0.8950  0.2631  0.2162
  563MPD2    H5 8359   2.517   0.446  16.518  0.7908 -0.1526  0.8557
  563MPD2    N1 8360   2.098   0.548  16.296 -0.1603 -0.0519  0.4431
  563MPD2    H7 8361   2.030   0.528  16.224 -0.2633 -1.4863  0.9559
  564TMC3    C1 8362   1.981   0.580  16.501 -0.0015  0.1559 -0.7113
  564TMC3    C2 8363   1.894   0.486  16.452 -0.5656  0.4171 -0.2605
  564TMC3    C3 8364   1.866   0.372  16.522 -0.3314 -0.8368  0.3101
  564TMC3    C4 8365   2.053   0.556  16.615  0.2915  0.1703  0.5597
  564TMC3    C5 8366   2.041   0.432  16.672  0.4250  0.0053  0.9570
  564TMC3    C6 8367   1.945   0.343  16.629 -0.0234  0.2811  0.3318
  564TMC3     C 8368   2.070   0.640  16.400 -0.2033 -0.6629  0.0218
  564TMC3     O 8369   2.156   0.712  16.446 -0.1996 -0.4006  0.3604
  564TMC3     H 8370   1.838   0.506  16.361  1.2107  0.0021 -1.4291
  564TMC3    H1 8371   2.134   0.622  16.644  0.6388  0.3022 -0.7321
  564TMC3    H2 8372   1.923   0.251  16.682  0.4369 -1.7065 -2.9200
  564TMC3    C7 8373   2.177   0.370  16.670 -0.1593 -0.9441  0.2362
  564TMC3    C8 8374   1.830   0.248  16.460  0.0003  0.3315  0.0327
  564TMC3    O1 8375   2.267   0.435  16.716  0.4739  0.2420 -0.6797
  564TMC3    O2 8376   1.777   0.167  16.532 -0.5888 -0.6244  0.4286
  565TMC3    C1 8377   3.178   0.266  10.407 -0.0235  0.2427 -0.8745
  565TMC3    C2 8378   3.213   0.176  10.509  0.1204  1.1871  0.5047
  565TMC3    C3 8379   3.137   0.057  10.518 -0.0850 -0.3380  0.0751
  565TMC3    C4 8380   3.091   0.237  10.311 -0.4644 -0.5105  0.5360
  565TMC3    C5 8381   3.021   0.117  10.317  0.6101 -0.2334  0.3731
  565TMC3    C6 8382   3.054   0.020  10.415  0.2234  0.4560 -0.7855
  565TMC3     C 8383   3.277   0.367  10.382  0.2877  0.2804  0.4658
  565TMC3     O 8384   3.252   0.434  10.281  0.0344 -0.6229  0.5343
  565TMC3     H 8385   3.271   0.205  10.596 -0.5141 -0.4990  1.4858
  565TMC3    H1 8386   3.084   0.295  10.220  1.3958  0.7694  1.2110
  565TMC3    H2 8387   2.984   4.665  10.439 -0.3574  0.5586 -2.1618
  565TMC3    C7 8388   2.939   0.078  10.207  0.7972  0.6051 -0.6350
  565TMC3    C8 8389   3.200   4.688  10.604 -0.4051  0.2709  0.2096
  565TMC3    O1 8390   2.893   0.163  10.133 -0.4203 -0.1202  0.0366
  565TMC3    O2 8391   3.264   0.004  10.699 -0.4929  0.4178  0.0166
  566MPD2     C 8392   3.866   3.563  14.716  0.3469  0.4391 -0.4469
  566MPD2    C1 8393   3.985   3.526  14.669  0.6710  0.0575 -0.2626
  566MPD2    C2 8394   3.997   3.410  14.595 -0.4428 -0.4522  0.2334
  566MPD2    C3 8395   3.885   3.328  14.566  0.1380  0.1862  0.2359
  566MPD2    C4 8396   3.761   3.365  14.620  0.8097 -0.5684  0.4968
  566MPD2    C5 8397   3.759   3.485  14.695  0.1156  0.3891 -0.0997
  566MPD2     H 8398   4.094   3.392  14.552 -0.2133  0.3548  0.4158
  566MPD2    H1 8399   3.670   3.309  14.604 -1.5097  2.8327  1.8463
  566MPD2    H2 8400   3.856   3.653  14.775 -1.6760 -1.4154  2.0179
  566MPD2    H3 8401   3.663   3.498  14.744 -0.6235 -0.4584 -1.3237
  566MPD2     N 8402   3.894   3.216  14.477 -0.1842  0.0456 -0.0027
  566MPD2    H5 8403   3.809   3.165  14.455  0.7837 -1.1435 -0.9601
  566MPD2    N1 8404   4.096   3.607  14.688 -0.1986 -0.6654 -0.5382
  566MPD2    H7 8405   4.080   3.706  14.705 -1.6879 -1.0638  0.4036
  567TMC3    C1 8406   4.318   3.681  14.650 -0.1166  0.3179  0.6943
  567TMC3    C2 8407   4.322   3.731  14.521 -0.1678 -0.5434 -0.2098
  567TMC3    C3 8408   4.445   3.765  14.469 -0.7677 -0.7565  0.3587
  567TMC3    C4 8409   4.433   3.642  14.711  0.5810  0.3670 -0.3260
  567TMC3    C5 8410   4.551   3.664  14.647 -1.0457 -0.7149  0.1469
  567TMC3    C6 8411   4.565   3.733  14.529  0.2075  0.2953 -0.2830
  567TMC3     C 8412   4.225   3.569  14.658  0.7356 -0.1048 -0.4409
  567TMC3     O 8413   4.278   3.459  14.651  0.4632  0.1767  0.1181
  567TMC3     H 8414   4.232   3.743  14.462  0.8795  3.8387 -0.9214
  567TMC3    H1 8415   4.422   3.578  14.797 -0.6143  0.1947 -0.6005
  567TMC3    H2 8416   4.661   3.752  14.483 -0.0489 -0.1830 -1.0111
  567TMC3    C7 8417   4.660   3.584  14.686 -0.9099 -0.0325 -0.4726
  567TMC3    C8 8418   4.452   3.798  14.329  0.0797 -0.5160 -0.5099
  567TMC3    O1 8419   0.027   3.581  14.605  0.2188 -0.3557 -0.2117
  567TMC3    O2 8420   4.354   3.771  14.257  0.1097 -0.1955  0.1155
  568MPD2     C 8421   1.777   3.610  16.824  0.7784 -0.2565  0.0174
  568MPD2    C1 8422   1.861   3.679  16.910  0.0627  0.1149  0.8463
  568MPD2    C2 8423   1.914   3.804  16.867  0.4751  0.2029 -0.6376
  568MPD2    C3 8424   1.881   3.856  16.743  0.3685 -0.0831  0.0548
  568MPD2    C4 8425   1.813   3.774  16.657  0.0176  0.0340 -0.8757
  568MPD2    C5 8426   1.763   3.650  16.699  0.1524  0.0859  0.2425
  568MPD2     H 8427   1.986   3.860  16.927  0.4985  1.7001 -2.0399
  568MPD2    H1 8428   1.794   3.802  16.554 -0.1868 -0.9733 -1.1150
  568MPD2    H2 8429   1.739   3.513  16.854  2.8005 -1.0783 -0.0655
  568MPD2    H3 8430   1.708   3.592  16.625 -1.4303  0.8100  0.8445
  568MPD2     N 8431   1.928   3.985  16.715 -0.1641  0.3634 -0.5272
  568MPD2    H5 8432   1.953   4.038  16.798  1.3742 -0.5531 -0.4276
  568MPD2    N1 8433   1.889   3.629  17.040 -0.4176 -0.0302 -0.5031
  568MPD2    H7 8434   1.847   3.541  17.069 -1.8515  0.8659  0.1085
  569TMC3    C1 8435   1.999   4.176  16.603 -0.1294 -0.4900 -0.6319
  569TMC3    C2 8436   1.988   4.251  16.717  0.1506  0.2746  0.8823
  569TMC3    C3 8437   2.063   4.362  16.733  0.1706 -0.6490  0.4839
  569TMC3    C4 8438   2.083   4.215  16.501 -0.2305  0.6711 -1.6212
  569TMC3    C5 8439   2.157   4.328  16.523 -0.7771 -0.6026  0.2085
  569TMC3    C6 8440   2.152   4.399  16.639 -0.1857  0.4295  0.2721
  569TMC3     C 8441   1.947   4.037  16.592  0.1329 -0.1503 -0.1001
  569TMC3     O 8442   1.932   3.985  16.483  0.2379  0.0064 -0.4109
  569TMC3     H 8443   1.915   4.228  16.794 -3.5783  2.7512 -1.9365
  569TMC3    H1 8444   2.070   4.166  16.405 -1.9263 -0.3939 -0.8619
  569TMC3    H2 8445   2.215   4.486  16.654  0.4652 -0.0098  0.0777
  569TMC3    C7 8446   2.154   4.410  16.404 -0.3639  0.0828 -0.8940
  569TMC3    C8 8447   2.000   4.470  16.803  0.1215 -0.0988  0.0216
  569TMC3    O1 8448   2.192   4.364  16.301  0.0123  0.6824  0.2357
  569TMC3    O2 8449   1.878   4.462  16.828  0.0686  0.1842 -0.2140
  570TMC3    C1 8450   1.402   2.647  16.569  0.1256  0.3697 -0.2297
  570TMC3    C2 8451   1.463   2.667  16.446  0.1320 -0.3299 -0.1019
  570TMC3    C3 8452   1.503   2.795  16.425  0.3549 -0.3836  0.0121
  570TMC3    C4 8453   1.379   2.753  16.659  0.5207  0.6227  0.8133
  570TMC3    C5 8454   1.430   2.877  16.629  0.0668  0.0589 -0.6471
  570TMC3    C6 8455   1.482   2.900  16.509  0.2316 -0.1222 -0.2715
  570TMC3     C 8456   1.331   2.525  16.591  0.2804  0.3162  0.3768
  570TMC3     O 8457   1.288   2.470  16.494  0.2625 -0.5040 -0.4122
  570TMC3     H 8458   1.498   2.584  16.386  0.3620 -0.9233  0.8530
  570TMC3    H1 8459   1.342   2.736  16.759 -2.9940  3.6423  0.0363
  570TMC3    H2 8460   1.533   2.993  16.489  1.6789 -0.9498 -0.3901
  570TMC3    C7 8461   1.412   2.980  16.726  0.3796 -0.1834 -0.1601
  570TMC3    C8 8462   1.614   2.816  16.328 -0.3307  0.1606 -0.0062
  570TMC3    O1 8463   1.362   2.945  16.832  0.0404 -0.2350 -0.3108
  570TMC3    O2 8464   1.688   2.910  16.345  0.2341 -0.3416 -0.2748
  571MPD2     C 8465   3.449   0.537   1.387  0.0971  0.2159  0.5028
  571MPD2    C1 8466   3.521   0.461   1.476  0.3652  0.2490 -0.0686
  571MPD2    C2 8467   3.632   0.390   1.426 -0.5213  0.0892  0.5271
  571MPD2    C3 8468   3.665   0.400   1.292 -0.7529  0.0509  0.3788
  571MPD2    C4 8469   3.583   0.467   1.204 -0.0089 -0.0486 -0.2959
  571MPD2    C5 8470   3.474   0.535   1.248  0.0407 -0.0649 -0.2145
  571MPD2     H 8471   3.690   0.331   1.495  0.9070  0.6910 -0.1589
  571MPD2    H1 8472   3.616   0.478   1.101 -0.2153  0.8770 -0.2683
  571MPD2    H2 8473   3.364   0.584   1.434  1.4786 -0.3331  3.5265
  571MPD2    H3 8474   3.409   0.596   1.186  0.2729 -1.5545 -1.9224
  571MPD2     N 8475   3.774   0.323   1.231 -0.3751  0.3789  0.5507
  571MPD2    H5 8476   3.785   0.339   1.132  1.3504 -0.1768  0.6476
  571MPD2    N1 8477   3.470   0.461   1.609  0.5822 -0.0739 -0.1581
  571MPD2    H7 8478   3.392   0.525   1.622  0.9026  0.2491  0.1725
  572TMC3    C1 8479   3.992   0.213   1.224 -0.0358 -0.3498 -0.2674
  572TMC3    C2 8480   4.096   0.168   1.299 -0.1563 -0.5731 -0.7336
  572TMC3    C3 8481   4.204   0.121   1.232  0.5004  0.4231  0.8951
  572TMC3    C4 8482   3.994   0.224   1.089 -0.5429 -0.0101  0.1527
  572TMC3    C5 8483   4.099   0.170   1.027 -0.4851 -0.1655 -0.1010
  572TMC3    C6 8484   4.212   0.138   1.093  0.2217 -0.2180  0.8827
  572TMC3     C 8485   3.876   0.260   1.301  0.3246 -1.0503 -0.2473
  572TMC3     O 8486   3.881   0.231   1.421  0.3191 -0.6167  0.3624
  572TMC3     H 8487   4.091   0.142   1.404  0.4202  0.8393 -0.3566
  572TMC3    H1 8488   3.905   0.243   1.031  0.3621  2.7182 -0.3409
  572TMC3    H2 8489   4.306   0.130   1.040 -1.0235 -0.0677 -1.3594
  572TMC3    C7 8490   4.090   0.154   0.879 -0.0739 -0.5488  0.5900
  572TMC3    C8 8491   4.340   0.096   1.292 -0.2934  0.0064  0.1438
  572TMC3    O1 8492   4.018   0.229   0.815  0.5832 -0.2838 -0.1073
  572TMC3    O2 8493   4.423   0.037   1.223  0.2211 -0.3122  0.3487
  573MPD2     C 8494   0.604   0.381   0.894  0.1496 -0.0095  0.4569
  573MPD2    C1 8495   0.682   0.499   0.901  0.1134  0.2625 -0.4264
  573MPD2    C2 8496   0.740   0.546   0.781 -0.2009 -0.1383 -0.4433
  573MPD2    C3 8497   0.710   0.482   0.658 -0.0616  0.0648 -0.1633
  573MPD2    C4 8498   0.647   0.366   0.660  0.0511 -0.2955  0.1666
  573MPD2    C5 8499   0.593   0.318   0.771 -0.2814 -0.2951  0.2395
  573MPD2     H 8500   0.804   0.634   0.784  1.6114 -1.4672 -0.0381
  573MPD2    H1 8501   0.623   0.308   0.572 -0.7611  0.1545  0.0956
  573MPD2    H2 8502   0.554   0.350   0.985  2.5204 -2.4458  0.9439
  573MPD2    H3 8503   0.523   0.235   0.763  0.4992 -0.5963 -3.4729
  573MPD2     N 8504   0.739   0.526   0.532  0.2429  0.7751 -0.8065
  573MPD2    H5 8505   0.693   0.480   0.454  1.4337 -1.5484 -0.1361
  573MPD2    N1 8506   0.674   0.562   1.025  0.5189 -0.5859  0.1842
  573MPD2    H7 8507   0.604   0.521   1.086 -0.4981  1.9507  0.7377
  574TMC3    C1 8508   0.815   0.655   0.349 -0.4746 -0.3123  0.0817
  574TMC3    C2 8509   0.731   0.578   0.269 -0.3429 -0.2396  0.1495
  574TMC3    C3 8510   0.733   0.597   0.131 -0.7447  0.0522 -0.2242
  574TMC3    C4 8511   0.894   0.746   0.290  0.3364 -1.0481 -0.7438
  574TMC3    C5 8512   0.890   0.769   0.156 -0.7168 -0.0626 -0.1281
  574TMC3    C6 8513   0.819   0.686   0.069  0.0651  0.0696  0.2162
  574TMC3     C 8514   0.814   0.629   0.492 -0.3599 -0.2293  0.3240
  574TMC3     O 8515   0.891   0.692   0.563 -0.0841 -0.0454 -0.4161
  574TMC3     H 8516   0.658   0.509   0.310 -1.4301 -0.1018 -1.5686
  574TMC3    H1 8517   0.952   0.805   0.360 -0.2085 -1.6582  0.2234
  574TMC3    H2 8518   0.827   0.702  17.661 -1.2977  0.3762  0.1612
  574TMC3    C7 8519   0.961   0.881   0.098  0.1212 -0.4352 -0.5321
  574TMC3    C8 8520   0.640   0.516   0.061  0.4716 -0.2064 -0.1408
  574TMC3    O1 8521   1.059   0.927   0.155  0.4416  1.1750 -0.1281
  574TMC3    O2 8522   0.608   0.409   0.115 -0.0073  0.0583  0.1266
  575TMC3    C1 8523   3.433   4.464  11.410  0.1098  0.0473 -0.3957
  575TMC3    C2 8524   3.404   4.344  11.457 -0.3192 -0.4820  0.5079
  575TMC3    C3 8525   3.379   4.246  11.361  0.3238 -0.0672  0.2495
  575TMC3    C4 8526   3.442   4.495  11.273  0.3121  0.7585 -0.5932
  575TMC3    C5 8527   3.424   4.393  11.183 -0.4090  0.1993  0.0854
  575TMC3    C6 8528   3.389   4.264  11.226  0.1890 -0.2568  0.2059
  575TMC3     C 8529   3.397   4.572  11.505  0.0643  0.2775  0.1995
  575TMC3     O 8530   3.362   4.538  11.618 -0.3155 -0.0004 -0.2598
  575TMC3     H 8531   3.389   4.318  11.561 -3.4169  0.8795  0.3867
  575TMC3    H1 8532   3.461   4.596  11.238 -2.2948  1.1753 -0.8084
  575TMC3    H2 8533   3.348   4.203  11.146  0.3897 -0.7699  0.4926
  575TMC3    C7 8534   3.393   4.438  11.051 -0.0527 -0.2646  0.4804
  575TMC3    C8 8535   3.355   4.114  11.408  0.4410 -0.5400  0.3942
  575TMC3    O1 8536   3.387   4.561  11.037  0.2274  0.1203 -1.0223
  575TMC3    O2 8537   3.404   4.072  11.520 -0.3984  0.4222  0.1309
  576MPD2     C 8538   4.182   2.124  12.394 -0.4496 -0.2432 -0.0972
  576MPD2    C1 8539   4.051   2.124  12.435 -0.5212  0.2703 -0.2158
  576MPD2    C2 8540   4.019   2.202  12.544  0.1660  0.0946  0.2356
  576MPD2    C3 8541   4.113   2.276  12.613 -0.4706  0.5897 -0.1949
  576MPD2    C4 8542   4.235   2.294  12.555 -0.3795 -0.0015 -0.0610
  576MPD2    C5 8543   4.265   2.216  12.447 -0.3657  0.1752  0.2784
  576MPD2     H 8544   3.920   2.202  12.589  0.4082 -0.8972  0.7528
  576MPD2    H1 8545   4.324   2.342  12.595 -0.9510 -0.0163  1.2184
  576MPD2    H2 8546   4.225   2.051  12.326 -2.9264 -2.7042  1.0021
  576MPD2    H3 8547   4.370   2.206  12.422 -0.9949 -0.0280 -2.2977
  576MPD2     N 8548   4.075   2.336  12.733 -0.0804  0.6615  0.3873
  576MPD2    H5 8549   3.978   2.323  12.759  0.8388 -2.3402  2.3728
  576MPD2    N1 8550   3.947   2.045  12.379 -0.3396  0.4938 -0.0189
  576MPD2    H7 8551   3.863   2.029  12.434  1.3714  0.3610  2.5531
  577TMC3    C1 8552   3.836   1.912  12.219  0.1290 -0.3514 -0.7196
  577TMC3    C2 8553   3.867   1.810  12.129  0.6634  0.2325 -0.4348
  577TMC3    C3 8554   3.785   1.690  12.140  0.1036 -0.2600 -0.0342
  577TMC3    C4 8555   3.731   1.903  12.308 -0.1209  0.0191  0.0368
  577TMC3    C5 8556   3.654   1.789  12.304 -0.3818  0.1165 -0.7544
  577TMC3    C6 8557   3.681   1.680  12.225  0.1306  0.9995  0.6584
  577TMC3     C 8558   3.950   1.990  12.250  0.1981 -0.0206 -0.0478
  577TMC3     O 8559   4.037   2.012  12.168  0.0110  0.4581 -0.2041
  577TMC3     H 8560   3.948   1.819  12.058 -0.6827  0.4895 -1.9497
  577TMC3    H1 8561   3.707   1.980  12.380 -1.9476  0.4124 -1.0018
  577TMC3    H2 8562   3.625   1.589  12.243 -2.1666  2.0193 -1.2116
  577TMC3    C7 8563   3.516   1.832  12.327 -0.4472 -0.6315  1.5724
  577TMC3    C8 8564   3.798   1.583  12.044 -0.1465 -0.6285  0.8307
  577TMC3    O1 8565   3.442   1.748  12.375  0.6995 -0.0315  0.6435
  577TMC3    O2 8566   3.742   1.476  12.080  0.4705 -0.9449  0.6686
  578MPD2     C 8567   0.852   3.539   1.530  0.2717 -0.0825 -0.2447
  578MPD2    C1 8568   0.931   3.472   1.443 -0.2652 -0.4159 -0.4932
  578MPD2    C2 8569   1.053   3.424   1.497 -0.2448 -0.8481 -0.1677
  578MPD2    C3 8570   1.089   3.436   1.630  0.1364 -0.6362  0.4204
  578MPD2    C4 8571   1.007   3.513   1.711 -0.4325  0.5598 -0.2044
  578MPD2    C5 8572   0.891   3.565   1.666 -0.2039  0.5795 -0.4229
  578MPD2     H 8573   1.131   3.382   1.435 -0.3809  0.7138 -1.3926
  578MPD2    H1 8574   1.019   3.510   1.819 -1.7417 -0.1707 -0.0698
  578MPD2    H2 8575   0.760   3.581   1.490  1.2032  0.6467 -1.6010
  578MPD2    H3 8576   0.821   3.623   1.725 -1.1219  0.9886 -1.9333
  578MPD2     N 8577   1.195   3.354   1.670  0.8120  0.5307 -0.1327
  578MPD2    H5 8578   1.231   3.291   1.599 -0.7913 -0.3260 -0.1939
  578MPD2    N1 8579   0.891   3.449   1.310 -0.9226  0.1375  0.0431
  578MPD2    H7 8580   0.822   3.518   1.280 -0.4325 -0.4159 -2.3605
  579TMC3    C1 8581   1.357   3.252   1.809 -0.7996 -0.1210  0.6076
  579TMC3    C2 8582   1.444   3.257   1.910  0.0130  0.3117 -0.1622
  579TMC3    C3 8583   1.540   3.159   1.928  0.3195 -0.7329 -0.1086
  579TMC3    C4 8584   1.347   3.143   1.728  0.2437  0.0064 -0.4224
  579TMC3    C5 8585   1.426   3.040   1.757  0.0424 -0.0337 -0.2980
  579TMC3    C6 8586   1.525   3.041   1.851  0.0264  0.4730 -0.2515
  579TMC3     C 8587   1.259   3.357   1.791  0.1344  0.4451 -0.3101
  579TMC3     O 8588   1.230   3.434   1.879 -0.3943  0.1775  0.1541
  579TMC3     H 8589   1.443   3.350   1.966  0.7151  0.0863  0.2349
  579TMC3    H1 8590   1.275   3.130   1.649 -0.1442 -1.0196  0.1027
  579TMC3    H2 8591   1.578   2.953   1.886  1.8957  1.6216 -0.2137
  579TMC3    C7 8592   1.426   2.915   1.671 -0.4240  0.7590 -0.2415
  579TMC3    C8 8593   1.629   3.183   2.037 -0.2891  0.7022  0.5799
  579TMC3    O1 8594   1.512   2.835   1.705 -0.5164  0.4088 -0.1644
  579TMC3    O2 8595   1.616   3.276   2.118 -0.0153  0.3646  0.3869
  580TMC3    C1 8596   1.160   1.820  12.317  0.3407 -0.1136 -0.4829
  580TMC3    C2 8597   1.286   1.854  12.362  0.2458  0.0550 -0.0275
  580TMC3    C3 8598   1.339   1.782  12.466 -0.3666  0.3127 -0.8067
  580TMC3    C4 8599   1.081   1.729  12.383  0.7376  0.3171 -0.3108
  580TMC3    C5 8600   1.137   1.666  12.487 -0.4707  0.2682  0.2069
  580TMC3    C6 8601   1.268   1.681  12.524  0.5635  0.4025 -0.1918
  580TMC3     C 8602   1.106   1.899  12.210  0.3351  0.3545  0.0971
  580TMC3     O 8603   1.189   1.980  12.168 -0.1450 -0.4824 -0.0895
  580TMC3     H 8604   1.341   1.937  12.321 -0.6937 -0.8317 -3.0699
  580TMC3    H1 8605   0.977   1.705  12.361  0.9157  0.4838 -1.3312
  580TMC3    H2 8606   1.317   1.613  12.593  1.8382  2.3401  0.8280
  580TMC3    C7 8607   1.080   1.537  12.526 -0.9873  0.1598 -0.4774
  580TMC3    C8 8608   1.479   1.760  12.442  0.7740  0.1690  0.1494
  580TMC3    O1 8609   1.133   1.484  12.624  0.3867 -0.3318  0.3228
  580TMC3    O2 8610   1.549   1.730  12.539  0.2497  0.1759  0.4039
  581MPD2     C 8611   3.562   1.404  15.015 -0.8763  0.0980 -0.0744
  581MPD2    C1 8612   3.443   1.415  15.077 -0.2494 -0.2447  0.5174
  581MPD2    C2 8613   3.349   1.485  15.000 -0.4082  0.6551  0.3947
  581MPD2    C3 8614   3.385   1.548  14.879 -0.2290  0.0870 -0.5273
  581MPD2    C4 8615   3.507   1.526  14.829 -0.0798  1.0472 -0.8784
  581MPD2    C5 8616   3.600   1.448  14.893 -0.1909  0.5578 -0.0154
  581MPD2     H 8617   3.254   1.515  15.044 -1.8286 -2.5010 -0.5561
  581MPD2    H1 8618   3.537   1.563  14.731  2.7798 -1.9992 -1.1773
  581MPD2    H2 8619   3.636   1.338  15.058  1.0172  1.2907 -1.4655
  581MPD2    H3 8620   3.696   1.425  14.849 -0.5695 -0.9159 -0.0836
  581MPD2     N 8621   3.290   1.635  14.819  0.0680 -0.0789  0.0473
  581MPD2    H5 8622   3.198   1.634  14.862 -0.6551  0.6540 -1.4992
  581MPD2    N1 8623   3.417   1.364  15.206 -0.2320  0.0424 -0.3350
  581MPD2    H7 8624   3.492   1.323  15.260 -0.5841 -2.5298 -1.8140
  582TMC3    C1 8625   3.302   1.330  15.406  0.8976 -0.1761  0.2411
  582TMC3    C2 8626   3.423   1.351  15.473 -0.4375 -0.2138  0.2738
  582TMC3    C3 8627   3.419   1.304  15.603  0.1266 -0.0686 -0.3084
  582TMC3    C4 8628   3.185   1.286  15.464 -0.1018  0.3323 -0.4316
  582TMC3    C5 8629   3.183   1.232  15.586 -0.2509 -0.2369  0.8595
  582TMC3    C6 8630   3.304   1.250  15.651 -0.1754 -0.2620 -0.4935
  582TMC3     C 8631   3.292   1.365  15.266  0.0006  0.3297 -0.0828
  582TMC3     O 8632   3.181   1.370  15.214  0.0256  0.0766  0.2432
  582TMC3     H 8633   3.499   1.420  15.434  0.7460 -2.8029 -1.9930
  582TMC3    H1 8634   3.102   1.261  15.400  0.7181 -0.1149 -1.3184
  582TMC3    H2 8635   3.304   1.218  15.755 -1.8254  2.7519  0.4326
  582TMC3    C7 8636   3.063   1.267  15.659  0.1126  0.1745 -0.4690
  582TMC3    C8 8637   3.493   1.385  15.696 -0.2327  0.0504  0.2712
  582TMC3    O1 8638   3.039   1.207  15.758 -0.1528 -0.0753  0.0207
  582TMC3    O2 8639   3.491   1.507  15.681 -0.6098  0.1472 -0.2236
  583MPD2     C 8640   3.243   2.827  17.158 -0.0451  0.5702 -0.4761
  583MPD2    C1 8641   3.221   2.945  17.088 -0.8912 -0.1636 -0.3434
  583MPD2    C2 8642   3.191   3.063  17.152 -0.2304  0.0743 -0.1664
  583MPD2    C3 8643   3.178   3.068  17.287 -0.5156 -0.2637  0.4426
  583MPD2    C4 8644   3.219   2.955  17.357 -0.2374  0.2551 -0.5236
  583MPD2    C5 8645   3.244   2.837  17.294  0.0233  0.3447 -0.1377
  583MPD2     H 8646   3.171   3.156  17.099 -1.5662 -0.6572 -0.9365
  583MPD2    H1 8647   3.220   2.954  17.465 -1.2840  1.1443 -0.5105
  583MPD2    H2 8648   3.265   2.734  17.108 -0.9010 -0.4354  1.0019
  583MPD2    H3 8649   3.268   2.750  17.354  0.9477  0.9715  0.3848
  583MPD2     N 8650   3.135   3.190  17.347  0.1291 -0.1032 -0.3323
  583MPD2    H5 8651   3.122   3.265  17.280 -0.5656  0.4850  0.4510
  583MPD2    N1 8652   3.222   2.952  16.950  0.3204 -0.4671  0.2299
  583MPD2    H7 8653   3.240   3.042  16.907  2.6599 -1.7215 -1.4789
  584TMC3    C1 8654   3.029   3.336  17.508  0.2923 -0.3353  0.3778
  584TMC3    C2 8655   3.063   3.453  17.442  0.7509 -0.5267  0.8750
  584TMC3    C3 8656   3.015   3.575  17.494 -0.7765 -0.2819 -0.3450
  584TMC3    C4 8657   2.957   3.339  17.624 -0.2688  0.7085  1.0657
  584TMC3    C5 8658   2.901   3.454  17.660 -0.4315 -0.3290  0.3125
  584TMC3    C6 8659   2.934   3.573  17.600 -0.4458  0.1436  0.3178
  584TMC3     C 8660   3.081   3.202  17.472 -0.4360  0.4386  0.2672
  584TMC3     O 8661   3.058   3.110  17.546  0.2131 -0.0235 -0.6752
  584TMC3     H 8662   3.118   3.462  17.349 -0.7682 -1.5171 -0.1127
  584TMC3    H1 8663   2.920   3.254  17.681 -0.2319  0.5350  0.8301
  584TMC3    H2 8664   2.895   3.663  17.646  0.2550  0.2181  0.7612
  584TMC3    C7 8665   2.845   3.452   0.091  0.0597 -0.0227 -0.2582
  584TMC3    C8 8666   3.024   3.686  17.399  0.6782 -0.9471 -0.4219
  584TMC3    O1 8667   2.889   3.378   0.176  0.6202  0.6573 -0.0615
  584TMC3    O2 8668   3.045   3.667  17.282 -0.2336 -0.1479 -0.3735
  585MPD2     C 8669   2.275   2.432   0.295 -0.0349 -0.1433  0.3570
  585MPD2    C1 8670   2.345   2.326   0.339 -0.5268 -0.0413  0.1140
  585MPD2    C2 8671   2.418   2.253   0.244  0.2818 -0.0404  0.1186
  585MPD2    C3 8672   2.406   2.278   0.113  0.3400 -0.6781 -0.7847
  585MPD2    C4 8673   2.321   2.375   0.076 -0.2356 -0.1861  0.7723
  585MPD2    C5 8674   2.241   2.449   0.164 -0.4733 -0.0015 -0.7104
  585MPD2     H 8675   2.495   2.182   0.273 -0.5528 -1.4682 -1.1887
  585MPD2    H1 8676   2.299   2.396  17.671 -0.3270 -0.4711  0.7338
  585MPD2    H2 8677   2.233   2.505   0.362  1.5413  2.1206 -1.1189
  585MPD2    H3 8678   2.183   2.534   0.131 -2.6710 -0.6600  1.3966
  585MPD2     N 8679   2.493   2.217   0.016 -0.1103  0.3838  0.6730
  585MPD2    H5 8680   2.498   2.247  17.618  0.4283 -1.8496  0.0117
  585MPD2    N1 8681   2.366   2.315   0.478 -0.1008  0.5778  0.8780
  585MPD2    H7 8682   2.325   2.386   0.538  0.2723  0.3854  1.3598
  586TMC3    C1 8683   2.659   2.090  17.607 -0.0108 -0.1005 -0.2700
  586TMC3    C2 8684   2.707   1.963  17.600 -0.0752  0.1986 -0.0171
  586TMC3    C3 8685   2.698   1.900  17.473  0.2629 -0.0011  0.6416
  586TMC3    C4 8686   2.619   2.154  17.494 -0.5692  0.6959 -0.1010
  586TMC3    C5 8687   2.611   2.094  17.371  0.2271 -0.4439 -0.2168
  586TMC3    C6 8688   2.658   1.964  17.356  0.5471 -0.2986  0.3721
  586TMC3     C 8689   2.587   2.120   0.036  0.1244 -0.1161 -0.2064
  586TMC3     O 8690   2.616   2.042   0.128 -0.0049 -0.2873 -0.4382
  586TMC3     H 8691   2.742   1.908  17.687  1.9150 -0.8703 -1.4726
  586TMC3    H1 8692   2.611   2.262  17.497  0.0408  0.7137  1.2572
  586TMC3    H2 8693   2.634   1.900  17.273  1.6206  1.8794 -1.6307
  586TMC3    C7 8694   2.476   2.101  17.327  0.4981 -0.4439 -0.5015
  586TMC3    C8 8695   2.769   1.771  17.471  0.4231  0.0721  0.0530
  586TMC3    O1 8696   2.426   1.987  17.310 -0.7860  0.0936  0.5492
  586TMC3    O2 8697   2.776   1.716  17.582 -0.2212  0.6153  0.1853
  587TMC3    C1 8698   4.484   0.840  16.250  0.0572 -0.2410  0.5210
  587TMC3    C2 8699   4.542   0.958  16.295  0.1166  0.6122 -0.2106
  587TMC3    C3 8700   4.679   0.976  16.292  0.0485  0.2208 -0.1756
  587TMC3    C4 8701   4.562   0.735  16.213  0.2663  0.1521 -0.6309
  587TMC3    C5 8702   4.700   0.750  16.208  0.0695  0.3000  0.0277
  587TMC3    C6 8703   0.031   0.870  16.242  0.6677 -0.6609  0.0852
  587TMC3     C 8704   4.346   0.826  16.299  0.2034 -0.3382 -0.1112
  587TMC3     O 8705   4.283   0.934  16.300  0.2789 -0.2704  0.7724
  587TMC3     H 8706   4.475   1.036  16.331 -1.0802 -1.2538  1.6352
  587TMC3    H1 8707   4.515   0.641  16.185 -1.7548  0.5419  1.4628
  587TMC3    H2 8708   0.138   0.874  16.257  0.8439  0.6947 -1.5281
  587TMC3    C7 8709   0.051   0.641  16.150  0.0160 -0.6941 -0.2413
  587TMC3    C8 8710   0.019   1.062  16.393 -0.6534  0.2608 -0.6867
  587TMC3    O1 8711   4.717   0.541  16.130 -0.1730  0.1829  0.3498
  587TMC3    O2 8712   0.127   1.021  16.418  0.4173  0.0595 -0.4395
  588TMC3    C1 8713   2.869   2.737   9.976 -0.4198  0.1107  0.8065
  588TMC3    C2 8714   2.823   2.617   9.928 -0.2471 -0.0270  0.4853
  588TMC3    C3 8715   2.896   2.504   9.955 -0.2861 -0.8453  0.1242
  588TMC3    C4 8716   2.984   2.749  10.055 -1.1097  0.3383 -0.4439
  588TMC3    C5 8717   3.051   2.632  10.078  0.0721  0.2784  0.0905
  588TMC3    C6 8718   3.014   2.510  10.029  0.0490  1.1198  0.6388
  588TMC3     C 8719   2.781   2.855   9.970 -0.6278  0.4064 -0.3434
  588TMC3     O 8720   2.666   2.840   9.933  0.1364 -0.2541 -0.0849
  588TMC3     H 8721   2.724   2.619   9.883 -0.5831  0.2817  1.2148
  588TMC3    H1 8722   2.998   2.835  10.120 -0.5480  1.4159 -1.9821
  588TMC3    H2 8723   3.084   2.430  10.051 -1.2067 -0.4989 -1.3750
  588TMC3    C7 8724   3.182   2.644  10.145 -0.0036 -0.3212 -0.4725
  588TMC3    C8 8725   2.821   2.378   9.940  0.4289  0.4157 -0.0943
  588TMC3    O1 8726   3.243   2.540  10.166 -0.4785 -0.3652 -0.0321
  588TMC3    O2 8727   2.716   2.374   9.884  0.1483  0.1801  0.0133
  589TMC3    C1 8728   1.653   1.574   1.674  0.0020  0.2170  0.0541
  589TMC3    C2 8729   1.738   1.549   1.777  0.0305  0.1168 -0.2140
  589TMC3    C3 8730   1.838   1.459   1.766  0.5559  0.2735 -0.5947
  589TMC3    C4 8731   1.667   1.498   1.564 -0.4924 -0.6001  0.0076
  589TMC3    C5 8732   1.766   1.405   1.548  0.0930 -0.3184  0.0542
  589TMC3    C6 8733   1.856   1.378   1.651 -0.8659  0.0253  0.4349
  589TMC3     C 8734   1.541   1.664   1.685  0.3824 -0.2399 -0.6587
  589TMC3     O 8735   1.466   1.683   1.585  0.1407  0.8513  0.0468
  589TMC3     H 8736   1.736   1.601   1.872  0.0822  0.2814 -0.3038
  589TMC3    H1 8737   1.598   1.516   1.482  0.9530  1.8961 -0.6926
  589TMC3    H2 8738   1.933   1.302   1.643  0.2599  1.1848  0.1738
  589TMC3    C7 8739   1.736   1.298   1.464 -0.2588  0.2261  0.9022
  589TMC3    C8 8740   1.932   1.440   1.874 -0.1701  0.2653  0.5407
  589TMC3    O1 8741   1.616   1.263   1.467 -0.7148  0.2655  0.1189
  589TMC3    O2 8742   1.897   1.484   1.979  0.6265 -0.1837 -0.4703
  590MPD2     C 8743   0.912   3.947  17.194  0.0481  0.3976 -0.3716
  590MPD2    C1 8744   0.888   4.013  17.073 -0.0973 -0.1668 -0.4508
  590MPD2    C2 8745   0.977   4.107  17.026 -0.1536  0.2973 -1.0119
  590MPD2    C3 8746   1.102   4.108  17.077  0.8588  0.0300  0.7309
  590MPD2    C4 8747   1.140   4.030  17.186 -0.0443  0.0606 -0.5318
  590MPD2    C5 8748   1.036   3.956  17.242  0.2221 -0.2307  0.3492
  590MPD2     H 8749   0.964   4.164  16.935  0.7692 -1.3299 -2.1491
  590MPD2    H1 8750   1.235   4.031  17.238 -1.6460  0.0510  2.4351
  590MPD2    H2 8751   0.850   3.868  17.234  2.7970 -0.9396  1.2829
  590MPD2    H3 8752   1.065   3.888  17.322 -1.5892 -0.9909  0.3540
  590MPD2     N 8753   1.199   4.179  16.999 -0.2801 -0.2225  0.4928
  590MPD2    H5 8754   1.166   4.235  16.921 -0.5780 -1.1449 -0.0541
  590MPD2    N1 8755   0.763   3.994  17.007 -0.1823  0.2705 -0.1957
  590MPD2    H7 8756   0.694   3.944  17.061 -1.2644  0.2117 -1.6534
  591TMC3    C1 8757   1.382   4.279  16.912 -0.0519 -0.2705  0.1730
  591TMC3    C2 8758   1.486   4.242  16.828  0.2173 -0.1187 -0.4239
  591TMC3    C3 8759   1.531   4.340  16.737 -0.4560  0.0883  0.6376
  591TMC3    C4 8760   1.312   4.391  16.888  0.1522  0.5077  0.1329
  591TMC3    C5 8761   1.358   4.481  16.794  0.1490 -0.1815 -0.4989
  591TMC3    C6 8762   1.463   4.457  16.711 -0.0247  0.0474 -0.4018
  591TMC3     C 8763   1.334   4.181  17.009  0.0712  0.2491 -0.1263
  591TMC3     O 8764   1.411   4.111  17.077 -0.1195 -0.5978  0.8746
  591TMC3     H 8765   1.539   4.148  16.832 -0.3418 -0.4502 -0.7257
  591TMC3    H1 8766   1.231   4.424  16.952  0.6187  0.7308  0.6052
  591TMC3    H2 8767   1.477   4.520  16.624 -0.5934  2.1393  1.0138
  591TMC3    C7 8768   1.261   4.584  16.759  0.7081  0.3193 -0.6461
  591TMC3    C8 8769   1.617   4.291  16.631 -0.0003 -0.7638  0.4626
  591TMC3    O1 8770   1.146   4.567  16.796 -0.1980 -0.0167  0.1575
  591TMC3    O2 8771   1.641   4.170  16.620 -0.5699 -0.4455  0.1895
  592MPD2     C 8772   1.885   1.001  11.550 -0.2208 -1.5560 -0.1306
  592MPD2    C1 8773   1.868   1.072  11.664  0.0109 -0.6620  0.5959
  592MPD2    C2 8774   1.769   1.029  11.752 -0.5835 -0.4512  0.5450
  592MPD2    C3 8775   1.681   0.928  11.712 -0.0850 -0.2792 -0.0030
  592MPD2    C4 8776   1.699   0.861  11.596  0.1614 -0.2281  0.2551
  592MPD2    C5 8777   1.799   0.899  11.512 -0.2523  0.0774 -0.4241
  592MPD2     H 8778   1.754   1.079  11.847 -0.4146 -0.6249  0.6638
  592MPD2    H1 8779   1.646   0.772  11.564  0.5915 -0.2335 -0.4395
  592MPD2    H2 8780   1.966   1.024  11.482  0.6521 -2.0906  0.7369
  592MPD2    H3 8781   1.813   0.836  11.425 -2.6488  0.1265 -0.8585
  592MPD2     N 8782   1.585   0.878  11.804 -0.8071 -0.6281  0.3977
  592MPD2    H5 8783   1.586   0.919  11.896  0.4068  1.2034 -0.4379
  592MPD2    N1 8784   1.962   1.172  11.694  0.0610  0.0381  0.2587
  592MPD2    H7 8785   2.018   1.195  11.612 -2.2057  0.1558 -1.2662
  593TMC3    C1 8786   2.099   1.326  11.824 -0.0675 -0.7365 -0.7347
  593TMC3    C2 8787   2.103   1.418  11.923  0.3502 -0.5494  0.5793
  593TMC3    C3 8788   2.214   1.495  11.932 -0.3273  0.3089  0.5637
  593TMC3    C4 8789   2.196   1.307  11.730 -0.4311 -0.4454  0.1246
  593TMC3    C5 8790   2.308   1.384  11.750  0.8121  0.7378 -0.5201
  593TMC3    C6 8791   2.317   1.475  11.853 -0.8443  0.0943 -0.5231
  593TMC3     C 8792   1.980   1.238  11.817 -0.3551  0.2993 -0.0101
  593TMC3     O 8793   1.907   1.227  11.915  0.4179  0.5662  0.1730
  593TMC3     H 8794   2.016   1.426  11.987 -0.6604  1.8144 -1.0700
  593TMC3    H1 8795   2.199   1.219  11.667 -1.1857  0.2609 -0.9189
  593TMC3    H2 8796   2.392   1.553  11.850  0.2496 -0.9291  0.5578
  593TMC3    C7 8797   2.408   1.398  11.646  0.1251 -0.1327  0.1599
  593TMC3    C8 8798   2.240   1.549  12.065  0.3431 -0.2586  0.3071
  593TMC3    O1 8799   2.514   1.452  11.681 -0.2666 -0.3020 -1.0179
  593TMC3    O2 8800   2.140   1.589  12.127 -0.2807  0.0757  0.5972
  594MPD2     C 8801   0.460   0.533  14.145  0.2729  0.3738 -0.3166
  594MPD2    C1 8802   0.421   0.550  14.283  0.7922 -0.3330  0.2051
  594MPD2    C2 8803   0.469   0.654  14.360 -0.2592 -0.2042 -0.1090
  594MPD2    C3 8804   0.581   0.721  14.313 -0.3987 -0.7207 -0.1335
  594MPD2    C4 8805   0.630   0.695  14.183 -0.4080  0.7829 -0.0701
  594MPD2    C5 8806   0.579   0.603  14.103  0.6217  0.5053 -0.0309
  594MPD2     H 8807   0.428   0.675  14.458  0.9986 -0.6448  0.5096
  594MPD2    H1 8808   0.723   0.742  14.154 -0.5960  2.5096  2.1081
  594MPD2    H2 8809   0.434   0.451  14.079 -3.1057  1.1980  0.0172
  594MPD2    H3 8810   0.627   0.581  14.008 -0.2774  1.5715 -0.7331
  594MPD2     N 8811   0.644   0.811  14.400 -0.5813 -0.2758  0.4485
  594MPD2    H5 8812   0.599   0.819  14.491  1.4431 -0.3871  1.4416
  594MPD2    N1 8813   0.315   0.463  14.326 -0.2620  0.0928  0.5869
  594MPD2    H7 8814   0.283   0.395  14.258 -0.3544 -2.0818  2.8017
  595TMC3    C1 8815   0.972   0.980  14.660 -0.5157  0.1726  0.2422
  595TMC3    C2 8816   0.936   0.949  14.532  0.0132 -0.2565  0.1254
  595TMC3    C3 8817   0.807   0.941  14.507 -0.0939 -0.3047 -0.2476
  595TMC3    C4 8818   0.881   0.988  14.760  0.6778 -0.0018 -0.7069
  595TMC3    C5 8819   0.753   0.995  14.728 -0.1870 -1.0462 -0.1432
  595TMC3    C6 8820   0.709   0.969  14.600 -0.4332  0.0250  0.0623
  595TMC3     C 8821   1.107   0.973  14.702 -0.6145  0.2376 -0.2698
  595TMC3     O 8822   1.115   0.969  14.822 -0.2635 -0.6601 -0.0373
  595TMC3     H 8823   0.997   0.931  14.444 -1.4801 -1.4025 -0.6649
  595TMC3    H1 8824   0.895   1.013  14.865  0.3845 -2.5736 -0.0629
  595TMC3    H2 8825   0.604   0.965  14.573 -0.6452  0.0056  0.8645
  595TMC3    C7 8826   0.643   0.991  14.826  0.9555  0.0787 -0.2745
  595TMC3    C8 8827   0.766   0.877  14.385  0.5764  0.0118 -0.0898
  595TMC3    O1 8828   0.538   1.040  14.788  0.0754  0.4519 -0.3951
  595TMC3    O2 8829   0.840   0.890  14.291 -0.8857 -0.0567  0.6492
  596MPD2     C 8830   4.022   2.811  17.021  0.2636 -0.5125 -0.3073
  596MPD2    C1 8831   4.029   2.945  16.981  0.0024  0.5489  0.6742
  596MPD2    C2 8832   4.033   2.970  16.852 -0.1004  0.2214  1.2445
  596MPD2    C3 8833   4.022   2.871  16.755 -0.7990  0.1870 -0.0016
  596MPD2    C4 8834   4.023   2.748  16.791 -0.3165  0.1094 -0.4494
  596MPD2    C5 8835   4.013   2.715  16.926 -0.0312 -0.6470 -0.1780
  596MPD2     H 8836   4.033   3.072  16.816  0.9518  0.0853  0.8657
  596MPD2    H1 8837   4.009   2.677  16.709 -1.2136 -0.3950  0.1376
  596MPD2    H2 8838   4.016   2.784  17.126 -1.9701 -0.2366 -0.3690
  596MPD2    H3 8839   4.003   2.610  16.952  0.9828 -0.9776 -1.1652
  596MPD2     N 8840   4.020   2.895  16.619 -0.1046  0.4643  0.1470
  596MPD2    H5 8841   4.017   2.815  16.557 -1.6807 -0.6801  1.7151
  596MPD2    N1 8842   4.026   3.046  17.074 -0.2282 -0.0277  0.4208
  596MPD2    H7 8843   4.032   3.138  17.031  2.2671 -0.6469 -0.5518
  597TMC3    C1 8844   4.013   3.168  17.270 -0.0389 -0.5146  0.2342
  597TMC3    C2 8845   4.125   3.243  17.235  0.0028 -0.3639 -0.2852
  597TMC3    C3 8846   4.143   3.356  17.304 -0.1012 -0.3164 -0.0542
  597TMC3    C4 8847   3.920   3.204  17.365  0.2763  0.0391 -0.6396
  597TMC3    C5 8848   3.936   3.330  17.416  0.1384 -0.7089 -0.0203
  597TMC3    C6 8849   4.046   3.404  17.386  0.3349  0.3091  0.4391
  597TMC3     C 8850   3.980   3.038  17.205  1.1250  0.1550  0.2541
  597TMC3     O 8851   3.918   2.952  17.267  0.5144 -0.0212  0.4335
  597TMC3     H 8852   4.196   3.219  17.156  0.5757  0.4503 -0.0145
  597TMC3    H1 8853   3.841   3.140  17.402 -0.1828  1.4012  0.7466
  597TMC3    H2 8854   4.062   3.490  17.449 -0.5590 -0.6550  1.9876
  597TMC3    C7 8855   3.839   3.380  17.506  0.1350  0.2767 -0.7775
  597TMC3    C8 8856   4.272   3.424  17.301 -0.3931  0.0980 -0.4795
  597TMC3    O1 8857   3.813   3.298  17.592  0.1789  0.5169 -0.2921
  597TMC3    O2 8858   4.277   3.543  17.324  0.3825 -0.2626  0.4755
  598TMC3    C1 8859   2.268   0.010  15.063 -0.0018  0.6686  0.2203
  598TMC3    C2 8860   2.193   0.078  14.968 -0.4352 -0.3975  0.0498
  598TMC3    C3 8861   2.241   0.203  14.937  0.0955 -0.3274  0.8554
  598TMC3    C4 8862   2.385   0.051  15.122  0.6604 -0.5174 -0.5147
  598TMC3    C5 8863   2.427   0.177  15.085  0.2668 -0.1978 -0.7020
  598TMC3    C6 8864   2.355   0.247  14.990  0.2809  0.6777 -0.0643
  598TMC3     C 8865   2.190   4.635  15.133 -0.1404  0.0159 -0.5332
  598TMC3     O 8866   2.100   4.579  15.075  0.5008  0.5565 -0.3023
  598TMC3     H 8867   2.121   0.028  14.904  0.6536 -0.7669 -0.8910
  598TMC3    H1 8868   2.433   0.011  15.210  0.5484 -1.0046 -0.6761
  598TMC3    H2 8869   2.385   0.348  14.965 -0.4172  1.3033  1.6391
  598TMC3    C7 8870   2.557   0.220  15.143 -0.1028  0.4363  0.3804
  598TMC3    C8 8871   2.159   0.309  14.874  0.3734 -0.1517  0.5835
  598TMC3    O1 8872   2.629   0.131  15.192  0.0167 -0.0920  0.3956
  598TMC3    O2 8873   2.214   0.402  14.818 -0.2228 -0.0827 -0.3408
  599MPD2     C 8874   2.492   2.695  16.321  0.0841  1.0107 -0.3231
  599MPD2    C1 8875   2.430   2.568  16.300 -0.3646 -0.6966 -0.4237
  599MPD2    C2 8876   2.294   2.547  16.324  0.3222  0.6077 -0.3745
  599MPD2    C3 8877   2.216   2.654  16.367 -0.1806 -0.9606  0.0201
  599MPD2    C4 8878   2.280   2.776  16.396 -0.0989 -0.0585  0.6966
  599MPD2    C5 8879   2.415   2.795  16.374  0.1140  0.0497 -0.1451
  599MPD2     H 8880   2.248   2.454  16.292  1.4330  0.7238 -2.3073
  599MPD2    H1 8881   2.217   2.858  16.430  0.4458  1.5775 -2.2113
  599MPD2    H2 8882   2.596   2.719  16.301 -0.3488  4.5198  1.7759
  599MPD2    H3 8883   2.467   2.890  16.384  1.0279 -0.2774 -1.7438
  599MPD2     N 8884   2.083   2.639  16.400 -0.1170 -0.3693 -0.1523
  599MPD2    H5 8885   2.044   2.723  16.440  0.2320 -0.1078 -0.3580
  599MPD2    N1 8886   2.512   2.474  16.249  0.2751  0.2994  0.4811
  599MPD2    H7 8887   2.608   2.501  16.227  0.2577 -0.5720 -0.6880
  600TMC3    C1 8888   1.897   2.545  16.505 -0.3451 -0.2433 -0.3107
  600TMC3    C2 8889   1.847   2.419  16.550  0.0189  0.5549 -0.8172
  600TMC3    C3 8890   1.806   2.416  16.677 -0.2686 -0.6842 -0.4883
  600TMC3    C4 8891   1.877   2.658  16.585  1.0651 -0.2245  0.1173
  600TMC3    C5 8892   1.799   2.653  16.701 -0.1716  0.2446 -1.0331
  600TMC3    C6 8893   1.775   2.529  16.749 -0.2873 -0.3199 -0.4390
  600TMC3     C 8894   2.005   2.532  16.407  0.5713  0.0641  0.6873
  600TMC3     O 8895   2.018   2.419  16.362  0.5395 -0.6896 -0.2922
  600TMC3     H 8896   1.856   2.328  16.492  3.3435  1.2646 -1.4377
  600TMC3    H1 8897   1.935   2.745  16.558  1.0031  0.0835  0.9718
  600TMC3    H2 8898   1.733   2.508  16.847 -1.5749 -1.6767 -1.2885
  600TMC3    C7 8899   1.762   2.769  16.775  0.2519  0.3974  0.6890
  600TMC3    C8 8900   1.797   2.289  16.747  0.0717  0.4869  0.8520
  600TMC3    O1 8901   1.673   2.751  16.859  0.0532  0.2211 -0.1700
  600TMC3    O2 8902   1.806   2.296  16.868 -0.2675 -0.4004  0.2497
  601MPD2     C 8903   4.320   0.035   0.443  0.1543 -0.3574  0.1060
  601MPD2    C1 8904   4.223   0.125   0.470  0.0050 -0.4383 -0.4757
  601MPD2    C2 8905   4.175   0.136   0.596  0.0207 -0.0123 -0.0541
  601MPD2    C3 8906   4.225   0.056   0.693  0.3995 -0.1909 -0.1787
  601MPD2    C4 8907   4.319   4.684   0.666  0.3380  0.4950 -0.0159
  601MPD2    C5 8908   4.364   4.673   0.537 -0.2215  0.4988  0.0410
  601MPD2     H 8909   4.091   0.203   0.610  0.0928  0.0077  0.2778
  601MPD2    H1 8910   4.356   4.623   0.748  0.6944 -1.3593 -1.5461
  601MPD2    H2 8911   4.360   0.011   0.345 -0.3018  0.8644 -0.3801
  601MPD2    H3 8912   4.438   4.598   0.514 -0.5022  0.2399 -0.0272
  601MPD2     N 8913   4.183   0.068   0.832  0.7435 -0.5311 -0.4761
  601MPD2    H5 8914   4.233   0.010   0.898 -2.1172 -1.5174  0.8397
  601MPD2    N1 8915   4.176   0.213   0.369  0.2493 -0.4230  0.3231
  601MPD2    H7 8916   4.098   0.271   0.398  2.5842  2.3310  1.0839
  602TMC3    C1 8917   4.148   0.306   0.146 -0.9437 -0.3797 -0.4772
  602TMC3    C2 8918   4.032   0.358   0.186  0.6306 -0.0145  0.4484
  602TMC3    C3 8919   3.984   0.462   0.115 -0.6717 -0.3542  0.2819
  602TMC3    C4 8920   4.226   0.349   0.035  0.6507 -0.1180 -0.3113
  602TMC3    C5 8921   4.170   0.455  17.667 -0.3551 -0.2748 -0.0878
  602TMC3    C6 8922   4.049   0.513   0.004  0.7691 -0.4770 -0.4037
  602TMC3     C 8923   4.218   0.217   0.237 -0.1635 -0.3762 -0.2430
  602TMC3     O 8924   4.318   0.170   0.194  0.1295 -0.1204 -0.0509
  602TMC3     H 8925   3.976   0.296   0.256 -2.0047 -0.1539 -1.7693
  602TMC3    H1 8926   4.323   0.303   0.021  1.3134  1.3783 -0.6729
  602TMC3    H2 8927   3.995   0.576  17.634 -0.2905  4.0599  4.5242
  602TMC3    C7 8928   4.252   0.524  17.571  0.4289  0.1227 -0.6362
  602TMC3    C8 8929   3.862   0.530   0.159  0.8367  0.3002 -0.0344
  602TMC3    O1 8930   4.340   0.461  17.510  0.3370  1.0314  0.1074
  602TMC3    O2 8931   3.780   0.469   0.223  0.2516 -0.2318  0.2428
  603TMC3    C1 8932   3.070   4.617  11.067 -0.0292  0.0027 -0.4437
  603TMC3    C2 8933   3.111   4.654  11.188  0.0783  0.4651  0.3719
  603TMC3    C3 8934   3.108   0.062  11.224  0.0951 -0.0087  0.3204
  603TMC3    C4 8935   3.035   4.713  10.976 -0.4757 -0.4135  0.2009
  603TMC3    C5 8936   3.039   0.123  11.014 -0.2422  0.6552  0.0707
  603TMC3    C6 8937   3.081   0.162  11.134 -0.0546  0.0801  0.2038
  603TMC3     C 8938   3.001   4.487  11.066  0.4909 -0.0165 -1.3453
  603TMC3     O 8939   2.976   4.432  11.173 -0.5869 -0.2183  0.2949
  603TMC3     H 8940   3.135   4.575  11.258  1.4693  1.1296  0.6420
  603TMC3    H1 8941   3.024   4.677  10.874 -1.3374 -0.1906  0.2171
  603TMC3    H2 8942   3.060   0.262  11.170 -0.3396 -0.3007  1.0949
  603TMC3    C7 8943   2.995   0.220  10.919  0.2012 -0.0064  0.3611
  603TMC3    C8 8944   3.080   0.081  11.367 -0.3907  0.4159  0.8905
  603TMC3    O1 8945   3.013   0.335  10.949 -0.0369  0.0277 -0.1517
  603TMC3    O2 8946   3.116   4.709  11.433 -0.4423 -0.0210  0.1635
  604MPD2     C 8947   3.337   4.488  16.908  0.3599  0.5468 -0.4960
  604MPD2    C1 8948   3.208   4.474  16.853 -0.4766 -0.1844 -0.8546
  604MPD2    C2 8949   3.198   4.421  16.721  0.2456  0.0925  0.0614
  604MPD2    C3 8950   3.308   4.379  16.652 -0.3377 -0.6130  0.7056
  604MPD2    C4 8951   3.434   4.382  16.716 -0.0107  0.1823  0.3934
  604MPD2    C5 8952   3.448   4.440  16.843 -0.2849  0.1878  0.2115
  604MPD2     H 8953   3.096   4.411  16.686  0.1033  3.4915 -0.4558
  604MPD2    H1 8954   3.534   4.369  16.677  0.1496  1.1337  0.4753
  604MPD2    H2 8955   3.357   4.528  17.006 -0.0150 -0.2145 -0.1116
  604MPD2    H3 8956   3.540   4.469  16.891 -0.7235  0.7364  0.7188
  604MPD2     N 8957   3.300   4.347  16.514 -0.1853  0.4962 -0.0135
  604MPD2    H5 8958   3.210   4.348  16.467  0.4598 -0.1298 -1.2605
  604MPD2    N1 8959   3.099   4.531  16.924 -0.1459  0.0821 -0.5044
  604MPD2    H7 8960   3.125   4.557  17.019 -2.7569 -0.9466  0.4752
  605TMC3    C1 8961   2.887   4.620  16.961  0.1186 -0.0508  0.4885
  605TMC3    C2 8962   2.940   4.696  17.063  0.0729  0.1948 -0.1112
  605TMC3    C3 8963   2.875   0.082  17.106 -0.9025 -0.0084 -0.4781
  605TMC3    C4 8964   2.765   4.650  16.909 -0.0193 -0.3729  0.4760
  605TMC3    C5 8965   2.698   0.030  16.958  0.1373 -1.1093 -0.1444
  605TMC3    C6 8966   2.752   0.114  17.061  0.9297  0.0834  0.4687
  605TMC3     C 8967   2.970   4.531  16.883  0.4218  0.6407 -0.0811
  605TMC3     O 8968   2.912   4.473  16.788  0.5943 -0.3153  0.3872
  605TMC3     H 8969   3.038   4.671  17.100 -0.2056 -0.3682  0.2426
  605TMC3    H1 8970   2.718   4.577  16.844 -1.9379  0.8638  0.4867
  605TMC3    H2 8971   2.704   0.204  17.097 -1.2126 -0.5108 -0.8481
  605TMC3    C7 8972   2.576   0.077  16.893  0.1406 -0.3770  0.0716
  605TMC3    C8 8973   2.956   0.184  17.178 -0.6317  0.0528 -0.0741
  605TMC3    O1 8974   2.483   0.121  16.960 -0.2493  0.4774  0.1620
  605TMC3    O2 8975   3.059   0.141  17.236  0.2292  0.5642  0.2795
  606TMC3    C1 8976   4.398   2.853  17.243 -0.6234 -0.3851  0.3074
  606TMC3    C2 8977   4.441   2.866  17.375 -0.5611 -1.0289  0.5679
  606TMC3    C3 8978   4.428   2.760  17.455  0.2374 -0.0491 -0.4153
  606TMC3    C4 8979   4.332   2.742  17.209 -0.2562 -0.0127  0.6443
  606TMC3    C5 8980   4.307   2.644  17.297  0.2644  0.2212 -0.4647
  606TMC3    C6 8981   4.359   2.646  17.423  0.3778 -0.0163  0.5851
  606TMC3     C 8982   4.387   2.976  17.170 -0.3491  0.1356  0.7534
  606TMC3     O 8983   4.378   3.080  17.233  0.2050  0.0537 -0.4837
  606TMC3     H 8984   4.490   2.958  17.405  0.2798 -1.4346  0.4324
  606TMC3    H1 8985   4.268   2.742  17.121  1.0298 -0.1095 -0.2947
  606TMC3    H2 8986   4.357   2.562  17.492 -1.2387 -1.8857 -1.7557
  606TMC3    C7 8987   4.202   2.556  17.259 -0.1190  0.2265  0.4013
  606TMC3    C8 8988   4.512   2.764  17.580 -0.2895 -1.0823 -0.5321
  606TMC3    O1 8989   4.157   2.556  17.145  0.0533 -0.3649  0.1278
  606TMC3    O2 8990   4.558   2.872  17.609 -0.3051 -0.3788  0.1488
  607MPD2     C 8991   1.838   0.200  11.615  0.5598 -0.5964  0.5231
  607MPD2    C1 8992   1.814   0.277  11.729  0.6480 -0.6166 -0.4628
  607MPD2    C2 8993   1.748   0.223  11.837 -0.3306  0.2934 -0.9659
  607MPD2    C3 8994   1.720   0.086  11.842  0.0922  0.0078 -0.5290
  607MPD2    C4 8995   1.735   0.015  11.725 -0.3367 -0.1263 -0.1768
  607MPD2    C5 8996   1.798   0.070  11.620 -0.3983  0.0670  0.5636
  607MPD2     H 8997   1.729   0.283  11.926 -0.9395 -0.9143 -0.2874
  607MPD2    H1 8998   1.703   4.635  11.727 -1.3003  0.1933  1.1319
  607MPD2    H2 8999   1.892   0.234  11.528 -2.3757 -0.5231 -1.2696
  607MPD2    H3 9000   1.807   0.006  11.532 -2.2920  0.1164  0.3343
  607MPD2     N 9001   1.712   0.026  11.969 -0.2984  0.5480 -0.5576
  607MPD2    H5 9002   1.731   0.084  12.051  0.1211 -3.1738  1.9524
  607MPD2    N1 9003   1.845   0.408  11.739  0.4844  0.7416  0.1154
  607MPD2    H7 9004   1.803   0.456  11.818  0.2231  0.9037 -0.1180
  608TMC3    C1 9005   1.921   0.620  11.698  0.7560  0.1308 -0.1072
  608TMC3    C2 9006   1.892   0.643  11.830 -0.2923 -0.1997 -0.4051
  608TMC3    C3 9007   1.964   0.736  11.906  0.7710  0.1900 -0.2852
  608TMC3    C4 9008   2.013   0.698  11.641  0.2667 -0.0391 -0.3631
  608TMC3    C5 9009   2.095   0.773  11.719 -0.1545 -0.0554 -0.3765
  608TMC3    C6 9010   2.077   0.796  11.854  0.1544 -0.5237 -0.0999
  608TMC3     C 9011   1.908   0.488  11.645  0.4772  0.1094  0.7394
  608TMC3     O 9012   1.985   0.458  11.556 -0.3463 -0.0294 -0.0231
  608TMC3     H 9013   1.801   0.608  11.877  1.2949 -2.9747  0.5935
  608TMC3    H1 9014   2.031   0.680  11.535 -0.3654 -3.1025  0.0591
  608TMC3    H2 9015   2.127   0.871  11.915 -0.3377  0.8497 -1.3568
  608TMC3    C7 9016   2.190   0.858  11.648  0.1103 -0.1758  1.0122
  608TMC3    C8 9017   1.940   0.750  12.049 -0.1898 -0.0819  0.0910
  608TMC3    O1 9018   2.184   0.853  11.527 -0.0950 -0.4218 -0.0741
  608TMC3    O2 9019   1.996   0.850  12.100  0.2450  0.4831 -0.2369
  609TMC3    C1 9020   4.642   4.315   9.054 -0.6976  0.3134 -0.3997
  609TMC3    C2 9021   4.573   4.221   8.996 -0.0956 -0.1491 -0.5422
  609TMC3    C3 9022   4.624   4.155   8.885 -0.5890 -0.5471 -0.0528
  609TMC3    C4 9023   0.043   4.342   9.006  0.2244  0.2135  0.2365
  609TMC3    C5 9024   0.096   4.275   8.899 -0.6319  0.1190  0.1275
  609TMC3    C6 9025   0.022   4.179   8.842 -0.4060  0.0707 -0.4176
  609TMC3     C 9026   4.614   4.347   9.192  0.6330 -0.4305 -0.0534
  609TMC3     O 9027   4.499   4.317   9.220 -0.2658 -0.1363  0.1972
  609TMC3     H 9028   4.497   4.169   9.053 -0.3127 -0.6516 -1.2973
  609TMC3    H1 9029   0.109   4.407   9.063 -0.0504  2.0550 -1.5297
  609TMC3    H2 9030   0.047   4.132   8.747 -1.6161 -0.6492 -0.3749
  609TMC3    C7 9031   0.244   4.286   8.887 -0.6004 -0.0735  0.6758
  609TMC3    C8 9032   4.579   4.024   8.867 -0.7218  0.1340  0.3289
  609TMC3    O1 9033   0.307   4.371   8.948  0.0153  0.3198  0.4154
  609TMC3    O2 9034   4.662   3.937   8.839  0.1958  0.1100 -0.0664
  610TMC3    C1 9035   2.283   0.692  12.644 -0.2583 -0.3667  0.4890
  610TMC3    C2 9036   2.268   0.673  12.510  0.7574  0.1504  0.6273
  610TMC3    C3 9037   2.319   0.561  12.453  0.5882 -0.0485 -0.2257
  610TMC3    C4 9038   2.347   0.604  12.727  0.3717 -0.7287  0.1165
  610TMC3    C5 9039   2.391   0.491  12.660 -0.5394 -0.1471  0.2460
  610TMC3    C6 9040   2.380   0.468  12.523 -0.0619  0.3980  0.4742
  610TMC3     C 9041   2.207   0.790  12.712 -0.0422 -0.1557  0.1928
  610TMC3     O 9042   2.093   0.812  12.664 -0.1586  0.3824 -0.0436
  610TMC3     H 9043   2.226   0.750  12.447 -1.9559 -1.6900  0.1790
  610TMC3    H1 9044   2.363   0.609  12.834 -1.1378  1.5197  0.2406
  610TMC3    H2 9045   2.423   0.382  12.473  0.2426  0.7419  0.1541
  610TMC3    C7 9046   2.451   0.390  12.748 -0.0346  0.3134 -0.0807
  610TMC3    C8 9047   2.308   0.533  12.313 -0.2166  0.5558  0.6665
  610TMC3    O1 9048   2.529   0.431  12.833 -0.4451 -0.0763  0.3453
  610TMC3    O2 9049   2.305   0.628  12.231  0.7032 -0.0030 -0.3642
  611MPD2     C 9050   1.765   0.335  10.255 -0.3037  0.1472 -0.1934
  611MPD2    C1 9051   1.775   0.199  10.270 -0.1259  0.5158 -0.4061
  611MPD2    C2 9052   1.899   0.142  10.224 -0.3289 -0.1422 -0.2483
  611MPD2    C3 9053   2.003   0.219  10.179  0.4187  0.6839 -0.3827
  611MPD2    C4 9054   1.990   0.358  10.175  0.8729 -1.0098  0.0875
  611MPD2    C5 9055   1.873   0.412  10.222 -0.1589 -0.4977  0.1458
  611MPD2     H 9056   1.912   0.034  10.227  0.1385 -0.0425  1.1157
  611MPD2    H1 9057   2.073   0.420  10.145 -0.4766  0.3970 -0.7664
  611MPD2    H2 9058   1.675   0.378  10.298 -0.2092  1.5643 -1.4419
  611MPD2    H3 9059   1.858   0.520  10.219  2.6880 -0.0993  0.9104
  611MPD2     N 9060   2.136   0.167  10.139  0.1922 -0.4135 -0.1384
  611MPD2    H5 9061   2.215   0.229  10.126 -0.5595  0.8254  1.1721
  611MPD2    N1 9062   1.664   0.130  10.325 -0.3894 -0.3871  0.0687
  611MPD2    H7 9063   1.580   0.184  10.345 -1.1044 -0.5533 -2.4221
  612TMC3    C1 9064   2.310   0.008  10.159  0.1694 -0.0886  0.4563
  612TMC3    C2 9065   2.394   0.112  10.196 -0.3856  0.2056  0.6754
  612TMC3    C3 9066   2.512   0.080  10.252 -1.0006 -0.0701  0.2627
  612TMC3    C4 9067   2.347   4.600  10.204  0.1928  1.3604 -0.3140
  612TMC3    C5 9068   2.473   4.578  10.260  0.6109  0.5091  0.3383
  612TMC3    C6 9069   2.548   4.678  10.300 -0.3547 -0.6599 -0.1685
  612TMC3     C 9070   2.165   0.031  10.149 -0.5162  0.3070 -0.3046
  612TMC3     O 9071   2.092   4.659  10.128 -0.1153 -0.2173  0.0294
  612TMC3     H 9072   2.385   0.211  10.152  0.1716  0.2592  0.6828
  612TMC3    H1 9073   2.280   4.516  10.190  0.0011  1.1270  2.0747
  612TMC3    H2 9074   2.643   4.654  10.348 -0.4463 -0.5528  0.0650
  612TMC3    C7 9075   2.505   4.447  10.302 -0.4859 -0.1147 -0.2701
  612TMC3    C8 9076   2.585   0.189  10.318 -0.3459  0.4915 -0.2299
  612TMC3    O1 9077   2.584   4.440  10.393  0.0951  0.9183 -0.9711
  612TMC3    O2 9078   2.565   0.296  10.266 -0.4039  0.2511 -0.1801
  613MPD2     C 9079   0.644   3.056  17.017 -0.4115 -0.5572 -0.5534
  613MPD2    C1 9080   0.602   3.145  16.925  0.5971 -0.4988  0.2729
  613MPD2    C2 9081   0.496   3.107  16.839  0.2051 -0.4513 -0.4021
  613MPD2    C3 9082   0.456   2.974  16.846  0.5714 -0.7778  0.1345
  613MPD2    C4 9083   0.493   2.889  16.950 -0.0197  0.7320 -0.2010
  613MPD2    C5 9084   0.582   2.935  17.036  0.3743 -0.5160  0.3730
  613MPD2     H 9085   0.444   3.168  16.766  1.1023  0.1805 -0.5058
  613MPD2    H1 9086   0.443   2.794  16.966  0.9566 -0.0570 -1.8400
  613MPD2    H2 9087   0.728   3.087  17.078  0.1183 -0.6428 -1.2441
  613MPD2    H3 9088   0.620   2.875  17.119 -0.3964 -1.6238 -0.0800
  613MPD2     N 9089   0.376   2.921  16.746  0.2095 -0.1394  0.0604
  613MPD2    H5 9090   0.352   2.823  16.758 -0.2149 -0.3317 -2.3301
  613MPD2    N1 9091   0.677   3.264  16.926 -0.1726 -0.0745  0.0527
  613MPD2    H7 9092   0.749   3.273  16.997  1.0172  0.8748 -1.2831
  614TMC3    C1 9093   0.671   3.306  16.680 -1.3371 -0.5356  0.1770
  614TMC3    C2 9094   0.725   3.183  16.650 -0.2647  0.0439  0.3205
  614TMC3    C3 9095   0.742   3.154  16.518  0.2339 -0.0090  0.1147
  614TMC3    C4 9096   0.649   3.402  16.587 -0.4417  0.6760 -0.3781
  614TMC3    C5 9097   0.666   3.365  16.456  0.1582  0.0842 -0.2376
  614TMC3    C6 9098   0.719   3.243  16.421 -0.2263 -0.3117  0.1934
  614TMC3     C 9099   0.678   3.356  16.822  0.4176  0.0329 -0.2365
  614TMC3     O 9100   0.721   3.473  16.830 -0.3894  0.2813  0.6388
  614TMC3     H 9101   0.758   3.114  16.726  0.2432  0.2909  0.3233
  614TMC3    H1 9102   0.595   3.493  16.608 -0.3953  0.5325  0.3627
  614TMC3    H2 9103   0.742   3.230  16.316  0.8845  1.4023  0.2252
  614TMC3    C7 9104   0.686   3.475  16.362  0.2921 -0.1145  0.1582
  614TMC3    C8 9105   0.722   3.011  16.486  0.2756 -0.2119  0.5708
  614TMC3    O1 9106   0.686   3.586  16.420  0.8709  0.3455 -0.7421
  614TMC3    O2 9107   0.682   2.940  16.576  0.0620  0.0804 -0.2491
  615MPD2     C 9108   4.651   4.322  16.284  0.1681  0.2917 -0.8191
  615MPD2    C1 9109   4.610   4.445  16.239  0.3545 -0.1294  0.5680
  615MPD2    C2 9110   4.484   4.460  16.191  0.1170 -0.0799 -0.2109
  615MPD2    C3 9111   4.401   4.351  16.186 -0.2862 -0.0259  0.3448
  615MPD2    C4 9112   4.442   4.234  16.237  0.2250 -0.6492 -0.0322
  615MPD2    C5 9113   4.572   4.219  16.282 -0.1979 -0.2590 -0.2473
  615MPD2     H 9114   4.459   4.559  16.156 -1.0302 -0.8941 -1.6832
  615MPD2    H1 9115   4.383   4.143  16.238 -3.8294  2.0233  1.0844
  615MPD2    H2 9116   0.026   4.311  16.327 -1.3536  0.3297  2.6822
  615MPD2    H3 9117   4.611   4.120  16.300  2.7045  0.4743 -2.7140
  615MPD2     N 9118   4.272   4.365  16.126  0.0168 -0.2631 -0.4181
  615MPD2    H5 9119   4.257   4.459  16.089  0.5999  1.0039  2.5671
  615MPD2    N1 9120   4.683   4.562  16.254  0.6418 -0.0747  0.5026
  615MPD2    H7 9121   4.638   4.650  16.230  0.3911 -0.3847 -0.1773
  616TMC3    C1 9122   0.156   4.690  16.300  0.5839  0.1423 -0.1123
  616TMC3    C2 9123   0.291   4.700  16.277  0.0200  0.4769  0.5967
  616TMC3    C3 9124   0.354   0.095  16.294  0.5788 -0.1757 -0.2363
  616TMC3    C4 9125   0.084   0.073  16.340  0.2907 -0.0458 -1.4308
  616TMC3    C5 9126   0.144   0.191  16.344  0.4986  0.5472 -0.4776
  616TMC3    C6 9127   0.278   0.209  16.319  0.5016  0.3075  0.7750
  616TMC3     C 9128   0.096   4.563  16.278  1.1915  0.4714 -0.3100
  616TMC3     O 9129   0.179   4.474  16.286 -0.7410 -0.1517 -0.9083
  616TMC3     H 9130   0.346   4.625  16.221  1.1954  0.2538  2.0208
  616TMC3    H1 9131   4.709   0.063  16.380  0.0445  2.3829 -1.4130
  616TMC3    H2 9132   0.309   0.311  16.299  1.8517  0.1987  2.4017
  616TMC3    C7 9133   0.062   0.305  16.392  0.1135  0.3888  0.1339
  616TMC3    C8 9134   0.484   0.120  16.230  0.4421  0.2936 -0.8757
  616TMC3    O1 9135   4.666   0.282  16.396  0.0739 -0.7799 -0.6494
  616TMC3    O2 9136   0.522   0.050  16.140  0.1327  0.5078  0.0784
  617MPD2     C 9137   2.882   3.007  13.798  0.1321 -0.5529  0.6063
  617MPD2    C1 9138   2.924   2.939  13.912 -0.4100 -0.1989 -0.2449
  617MPD2    C2 9139   2.831   2.890  14.003  0.5615 -0.1153 -0.3167
  617MPD2    C3 9140   2.696   2.916  13.981 -0.3995 -0.5344  0.6210
  617MPD2    C4 9141   2.657   3.000  13.877  0.8159  0.0092  0.1075
  617MPD2    C5 9142   2.753   3.047  13.787  0.0596 -0.0819  0.5611
  617MPD2     H 9143   2.865   2.828  14.085 -0.9586 -0.3949  0.1148
  617MPD2    H1 9144   2.552   3.022  13.862  0.5410 -0.9687  0.6222
  617MPD2    H2 9145   2.961   3.046  13.736 -0.0379 -0.1949  0.6181
  617MPD2    H3 9146   2.723   3.099  13.696  1.1755  1.5358  1.1078
  617MPD2     N 9147   2.591   2.841  14.049 -0.3597  0.2213  0.5504
  617MPD2    H5 9148   2.501   2.855  14.004 -0.2891  1.3737  0.7558
  617MPD2    N1 9149   3.066   2.906  13.921 -0.7102 -0.0097 -1.1500
  617MPD2    H7 9150   3.124   2.904  13.837  0.8828  0.4184 -0.0487
  618TMC3    C1 9151   3.268   2.849  14.035 -0.0932 -0.0453 -0.3131
  618TMC3    C2 9152   3.298   2.766  13.929  0.0780  0.4382 -0.4781
  618TMC3    C3 9153   3.414   2.689  13.946  0.2393  0.5650  0.3992
  618TMC3    C4 9154   3.346   2.859  14.148  0.0824  0.6839 -0.4078
  618TMC3    C5 9155   3.465   2.803  14.148  0.0135 -0.0506 -0.4298
  618TMC3    C6 9156   3.497   2.714  14.057 -0.1419 -0.0155 -0.6328
  618TMC3     C 9157   3.133   2.896  14.044 -0.3849  0.3471  0.3408
  618TMC3     O 9158   3.086   2.910  14.154 -0.2507  0.2104  0.2699
  618TMC3     H 9159   3.231   2.732  13.851  0.7176 -0.7972 -0.4900
  618TMC3    H1 9160   3.331   2.945  14.212  0.3016  1.5933 -1.5833
  618TMC3    H2 9161   3.593   2.665  14.052  0.0985  0.4681 -0.7805
  618TMC3    C7 9162   3.558   2.846  14.258  0.3883 -0.0714 -0.0256
  618TMC3    C8 9163   3.468   2.628  13.821  0.4319  0.3225  0.7595
  618TMC3    O1 9164   3.500   2.893  14.357 -0.3952 -0.0286 -0.4214
  618TMC3    O2 9165   3.414   2.643  13.712  0.0263  0.3815  0.1103
  619MPD2     C 9166   4.356   4.199  14.105  0.1193  0.0369 -0.2161
  619MPD2    C1 9167   4.302   4.266  13.998  0.0818 -0.2947  0.0611
  619MPD2    C2 9168   4.163   4.279  13.985 -0.2872 -0.4097  0.4417
  619MPD2    C3 9169   4.079   4.219  14.079 -0.2159  0.3965  0.6412
  619MPD2    C4 9170   4.136   4.149  14.184  0.4212  0.4594  0.4211
  619MPD2    C5 9171   4.274   4.144  14.198  0.4882  0.0162 -0.0390
  619MPD2     H 9172   4.110   4.326  13.903 -0.2397  0.6512  1.0235
  619MPD2    H1 9173   4.077   4.112  14.267  1.1223  1.0477  1.1905
  619MPD2    H2 9174   4.462   4.194  14.126  0.4489  0.0315 -1.9361
  619MPD2    H3 9175   4.311   4.088  14.284  3.2936  3.1800  0.7755
  619MPD2     N 9176   3.936   4.219  14.074 -0.2182 -0.2133 -0.1314
  619MPD2    H5 9177   3.877   4.190  14.151 -2.2607  0.5384 -1.4110
  619MPD2    N1 9178   4.375   4.309  13.890 -0.4871 -0.4911 -0.0757
  619MPD2    H7 9179   4.317   4.334  13.810  0.5098 -0.1840 -0.6995
  620TMC3    C1 9180   4.555   4.360  13.748  0.0576  0.2547 -0.4329
  620TMC3    C2 9181   4.484   4.326  13.638  0.6067 -0.1014  0.4326
  620TMC3    C3 9182   4.497   4.399  13.524 -0.1964  0.1181 -0.2171
  620TMC3    C4 9183   4.667   4.435  13.743 -0.3653 -0.5362  0.1249
  620TMC3    C5 9184   4.697   4.491  13.618 -0.5612  0.2534 -1.0256
  620TMC3    C6 9185   4.606   4.488  13.516  0.1678 -0.3083  0.8062
  620TMC3     C 9186   4.510   4.320  13.882 -0.1888  0.7973 -0.8552
  620TMC3     O 9187   4.590   4.320  13.978 -0.0060  0.6238  0.1475
  620TMC3     H 9188   4.404   4.254  13.646  0.8592 -0.2832  1.2987
  620TMC3    H1 9189   4.724   4.460  13.832 -1.4368  1.8724  0.1320
  620TMC3    H2 9190   4.619   4.566  13.441 -0.6694 -2.3927 -1.5122
  620TMC3    C7 9191   0.089   4.575  13.611 -0.3154 -0.2889 -0.3747
  620TMC3    C8 9192   4.371   4.457  13.493  0.1800  0.1314 -0.5435
  620TMC3    O1 9193   0.099   4.654  13.518  0.5285 -0.3272  0.4227
  620TMC3    O2 9194   4.280   4.437  13.572 -0.1834 -0.6411 -0.0398
  621MPD2     C 9195   0.086   3.493  10.499  0.2663  0.2922  0.0057
  621MPD2    C1 9196   0.095   3.439  10.372 -0.5597  0.0617  0.1186
  621MPD2    C2 9197   0.088   3.523  10.261  0.3443 -0.2901 -0.2799
  621MPD2    C3 9198   0.051   3.657  10.272  0.8216 -0.7094 -1.0914
  621MPD2    C4 9199   0.034   3.708  10.401 -0.2135 -0.0100  0.3634
  621MPD2    C5 9200   0.067   3.629  10.508 -0.4404  0.1060  0.5134
  621MPD2     H 9201   0.112   3.481  10.164  3.0265  0.9100 -0.1543
  621MPD2    H1 9202   0.006   3.807  10.434 -0.6514 -0.0910  0.2404
  621MPD2    H2 9203   0.091   3.435  10.591 -0.3878 -1.2920 -0.9485
  621MPD2    H3 9204   0.065   3.679  10.605 -0.5174  0.3004  0.4106
  621MPD2     N 9205   0.043   3.734  10.148  0.5335 -0.1921 -0.0786
  621MPD2    H5 9206   0.059   3.682  10.062 -0.8837  1.5724 -1.4158
  621MPD2    N1 9207   0.121   3.298  10.343 -0.2776  0.4492  0.3307
  621MPD2    H7 9208   0.128   3.274  10.244 -2.1860 -2.9430  0.9902
  622TMC3    C1 9209   0.157   3.067  10.378  0.0065 -0.1431 -0.3589
  622TMC3    C2 9210   0.100   2.953  10.441  0.3389 -0.0436 -0.0232
  622TMC3    C3 9211   0.056   2.850  10.362  1.0856  0.4998  0.3532
  622TMC3    C4 9212   0.199   3.065  10.246  0.1513  0.3388 -0.7905
  622TMC3    C5 9213   0.171   2.953  10.179  0.1290 -0.3054 -0.0974
  622TMC3    C6 9214   0.100   2.854  10.235  0.5762  1.1609 -1.0411
  622TMC3     C 9215   0.127   3.198  10.436 -0.1622 -0.2439 -0.2951
  622TMC3     O 9216   0.086   3.202  10.551 -0.2610 -0.4545  0.7864
  622TMC3     H 9217   0.082   2.951  10.548  0.0056 -2.6349 -0.1231
  622TMC3    H1 9218   0.251   3.153  10.210  1.0685  0.5502  1.0571
  622TMC3    H2 9219   0.058   2.787  10.161 -0.7362  0.8357  0.0041
  622TMC3    C7 9220   0.230   2.933  10.046 -0.0374  0.2706 -0.2282
  622TMC3    C8 9221   4.626   2.858  10.359 -0.2355  0.2081  0.1865
  622TMC3    O1 9222   0.224   2.822   9.992  0.6144  0.2093 -0.2351
  622TMC3    O2 9223   4.557   2.782  10.291 -0.1960  0.3898  0.1814
  623MPD2     C 9224   3.233   4.700  16.543  0.1635  0.3236  0.6653
  623MPD2    C1 9225   3.202   0.087  16.627  0.2741  0.4601 -0.0252
  623MPD2    C2 9226   3.304   0.159  16.687 -0.5576 -0.6276 -0.2403
  623MPD2    C3 9227   3.435   0.132  16.666  0.7917 -0.8809 -0.5006
  623MPD2    C4 9228   3.469   0.021  16.593  0.0455  0.3105  0.0016
  623MPD2    C5 9229   3.369   4.675  16.520 -0.0386  0.0056  0.3707
  623MPD2     H 9230   3.286   0.238  16.759  2.7135 -1.6146  1.6501
  623MPD2    H1 9231   3.572   4.711  16.597 -0.2682 -0.7756 -0.9745
  623MPD2    H2 9232   3.163   4.633  16.494  2.3935 -0.6886 -1.1923
  623MPD2    H3 9233   3.398   4.589  16.461  1.1040  0.3407  0.4500
  623MPD2     N 9234   3.540   0.208  16.724 -0.4753 -0.3189  0.2627
  623MPD2    H5 9235   3.632   0.164  16.724  0.1151  0.9120  2.3394
  623MPD2    N1 9236   3.066   0.118  16.636  0.0457 -0.3082  0.0353
  623MPD2    H7 9237   3.007   0.081  16.563 -2.4180  2.9395  0.3720
  624TMC3    C1 9238   3.729   0.325  17.062  0.0236  0.0908 -0.1512
  624TMC3    C2 9239   3.653   0.399  17.145 -0.1935 -0.0388  0.4702
  624TMC3    C3 9240   3.549   0.466  17.093  0.8539  1.1182 -0.0403
  624TMC3    C4 9241   3.703   0.311  16.926 -0.5239 -0.1574 -0.0838
  624TMC3    C5 9242   3.595   0.389  16.875  0.5921  0.6578  0.3530
  624TMC3    C6 9243   3.525   0.476  16.956 -0.4797  0.0558 -0.0823
  624TMC3     C 9244   3.853   0.270  17.117  0.1330 -0.3888  0.0034
  624TMC3     O 9245   3.857   0.235  17.236 -0.5534 -0.5383 -0.3661
  624TMC3     H 9246   3.681   0.407  17.249  3.9729 -0.9476 -0.5923
  624TMC3    H1 9247   3.760   0.245  16.861 -1.1213 -0.2267 -0.5351
  624TMC3    H2 9248   3.436   0.523  16.914  0.3947  1.6104 -0.2008
  624TMC3    C7 9249   3.532   0.343  16.749 -0.4699 -0.3718 -0.3080
  624TMC3    C8 9250   3.431   0.469  17.180 -0.0180  0.1416  0.1153
  624TMC3    O1 9251   3.431   0.412  16.724 -0.0397  0.2449  0.3155
  624TMC3    O2 9252   3.423   0.381  17.266  0.0749 -0.2754  0.0366
  625MPD2     C 9253   4.151   1.152   0.722 -0.0034  0.2099 -0.4856
  625MPD2    C1 9254   4.153   1.245   0.817  0.0955 -0.4026 -0.4962
  625MPD2    C2 9255   4.265   1.257   0.892  0.6518  0.5499 -0.4391
  625MPD2    C3 9256   4.377   1.187   0.876  0.1947 -0.1621  0.5034
  625MPD2    C4 9257   4.368   1.073   0.789 -0.1061 -0.4990 -0.4570
  625MPD2    C5 9258   4.249   1.056   0.712 -0.0714  0.8482 -0.1953
  625MPD2     H 9259   4.266   1.338   0.965 -0.1396  1.0112 -0.9297
  625MPD2    H1 9260   4.451   1.008   0.765 -0.7630 -0.0979 -3.8085
  625MPD2    H2 9261   4.069   1.131   0.653  1.1438 -0.3965 -1.6656
  625MPD2    H3 9262   4.240   0.979   0.636  0.3308 -0.5941  1.2231
  625MPD2     N 9263   4.487   1.215   0.960  0.1860 -0.1921 -0.2440
  625MPD2    H5 9264   4.470   1.290   1.026 -0.4314 -0.1656 -0.4326
  625MPD2    N1 9265   4.050   1.342   0.831 -0.1273  0.0821  0.1951
  625MPD2    H7 9266   4.075   1.415   0.896  0.3508 -1.9224  2.2596
  626TMC3    C1 9267   3.860   1.475   0.788 -0.0349 -0.5476  0.2144
  626TMC3    C2 9268   3.784   1.528   0.684  0.4630  0.8507  0.5619
  626TMC3    C3 9269   3.681   1.606   0.702  0.4995  0.3177  0.5769
  626TMC3    C4 9270   3.807   1.491   0.916 -0.2740  0.5091  0.4564
  626TMC3    C5 9271   3.687   1.555   0.930  0.1869  0.8766  0.8102
  626TMC3    C6 9272   3.618   1.611   0.823 -0.1104 -0.4331 -0.0260
  626TMC3     C 9273   3.934   1.350   0.752 -0.4649  0.1835  0.5925
  626TMC3     O 9274   3.880   1.274   0.673 -0.3015 -0.3700 -0.0908
  626TMC3     H 9275   3.825   1.531   0.584  1.1688 -2.2763  0.7580
  626TMC3    H1 9276   3.850   1.433   0.997 -0.7047  1.2838  1.2372
  626TMC3    H2 9277   3.522   1.659   0.840  0.8228  0.3040  3.3557
  626TMC3    C7 9278   3.634   1.568   1.060  0.3980  0.0575 -0.4790
  626TMC3    C8 9279   3.611   1.641   0.583  0.2093  0.0400 -0.3902
  626TMC3    O1 9280   3.719   1.572   1.150  0.2468 -0.0808 -0.7053
  626TMC3    O2 9281   3.678   1.686   0.493 -0.6265 -0.6549 -0.0823
  627MPD2     C 9282   2.866   1.520  14.143  0.3637 -0.7086  0.1465
  627MPD2    C1 9283   2.825   1.558  14.268  0.0742 -0.0847 -0.0509
  627MPD2    C2 9284   2.704   1.497  14.317  0.8479 -0.3273  0.3169
  627MPD2    C3 9285   2.641   1.403  14.247 -0.8528 -0.7130  0.1117
  627MPD2    C4 9286   2.692   1.366  14.126  0.4788 -1.1728  0.4493
  627MPD2    C5 9287   2.798   1.422  14.078  0.0272 -0.3066  0.0716
  627MPD2     H 9288   2.659   1.535  14.408  3.0204  1.5736  0.6104
  627MPD2    H1 9289   2.647   1.291  14.061  0.2769 -0.0946 -0.6618
  627MPD2    H2 9290   2.954   1.569  14.103 -1.4692  0.8153 -2.0078
  627MPD2    H3 9291   2.830   1.393  13.979 -2.0471 -2.0134 -0.1047
  627MPD2     N 9292   2.518   1.348  14.296 -0.5367 -0.3622 -0.1352
  627MPD2    H5 9293   2.484   1.397  14.378 -0.6801  0.8830 -0.9504
  627MPD2    N1 9294   2.884   1.664  14.341 -0.6611  0.3562 -0.2879
  627MPD2    H7 9295   2.854   1.685  14.436 -0.3180  1.4099 -0.4121
  628TMC3    C1 9296   3.045   1.783  14.441 -0.0242  0.8058  0.5140
  628TMC3    C2 9297   3.163   1.736  14.499  0.4951  0.3169  0.5914
  628TMC3    C3 9298   3.177   1.748  14.637 -0.5767 -0.2654  0.3685
  628TMC3    C4 9299   2.942   1.847  14.507  0.3364  0.4591  0.8165
  628TMC3    C5 9300   2.964   1.856  14.642  0.5129 -0.5619 -0.7748
  628TMC3    C6 9301   3.071   1.796  14.710  0.1546  0.5929  0.0577
  628TMC3     C 9302   3.007   1.706  14.320  0.2236  0.7987  0.5629
  628TMC3     O 9303   3.100   1.646  14.265 -0.1292 -0.5647 -0.1395
  628TMC3     H 9304   3.244   1.693  14.442  0.6019 -0.4618  1.3218
  628TMC3    H1 9305   2.857   1.894  14.460  0.4475 -0.4560 -0.3193
  628TMC3    H2 9306   3.086   1.826  14.813  2.7767  2.3232 -0.8219
  628TMC3    C7 9307   2.891   1.962  14.713  0.1971  0.4532  0.8135
  628TMC3    C8 9308   3.299   1.688  14.692 -0.1388  0.7325 -0.3114
  628TMC3    O1 9309   2.912   1.980  14.828  0.0852 -0.4918 -0.8812
  628TMC3    O2 9310   3.396   1.684  14.621 -0.2793  0.9532  0.9585
  629MPD2     C 9311   0.905   0.408  16.186 -0.3020  0.3120  0.7488
  629MPD2    C1 9312   0.854   0.422  16.314 -0.3312 -0.1875  0.1188
  629MPD2    C2 9313   0.734   0.358  16.344 -0.4936  0.0590  0.0675
  629MPD2    C3 9314   0.674   0.268  16.260  0.3776 -0.8242  0.3768
  629MPD2    C4 9315   0.745   0.238  16.147  0.1377 -0.2775  0.4721
  629MPD2    C5 9316   0.856   0.308  16.110 -0.0964  0.5385  0.1024
  629MPD2     H 9317   0.705   0.358  16.448  0.0530 -1.8717  0.2103
  629MPD2    H1 9318   0.718   0.154  16.084 -0.4757  0.3550 -0.1056
  629MPD2    H2 9319   1.006   0.441  16.163 -0.6882 -0.0417 -1.3704
  629MPD2    H3 9320   0.901   0.284  16.013  0.1481 -1.1584  0.6329
  629MPD2     N 9321   0.551   0.212  16.299  0.7627  0.1015  0.2384
  629MPD2    H5 9322   0.502   0.266  16.370  0.9014  1.1203 -0.4275
  629MPD2    N1 9323   0.931   0.495  16.401 -0.4842 -0.3587 -0.2703
  629MPD2    H7 9324   0.995   0.565  16.364 -1.5417  0.1966 -1.0643
  630TMC3    C1 9325   0.990   0.577  16.612  0.1464  0.4226  0.2226
  630TMC3    C2 9326   1.018   0.704  16.559 -0.2949 -0.4554 -0.5027
  630TMC3    C3 9327   1.108   0.789  16.633  0.9963 -0.2601  0.2122
  630TMC3    C4 9328   1.031   0.540  16.735 -0.4743 -0.3188  0.0872
  630TMC3    C5 9329   1.121   0.622  16.799 -0.0274 -0.6170 -0.6770
  630TMC3    C6 9330   1.142   0.752  16.759  0.4079 -0.2630 -0.1128
  630TMC3     C 9331   0.911   0.488  16.538  0.1759  0.1196  0.2028
  630TMC3     O 9332   0.844   0.412  16.611 -0.0142 -0.3760  0.0921
  630TMC3     H 9333   0.998   0.716  16.453  1.5997 -1.5803 -0.9848
  630TMC3    H1 9334   1.038   0.435  16.761  0.3901 -0.0116  1.1065
  630TMC3    H2 9335   1.208   0.818  16.816  1.2202  0.6491 -2.0994
  630TMC3    C7 9336   1.210   0.560  16.899 -0.0375 -0.4834 -0.0473
  630TMC3    C8 9337   1.204   0.876  16.562 -0.3799  0.9709  0.4584
  630TMC3    O1 9338   1.182   0.449  16.949 -0.4436  0.3512 -0.1672
  630TMC3    O2 9339   1.309   0.900  16.626  0.1763 -0.2838  0.2171
  631MPD2     C 9340   3.381   0.116  16.054 -0.1332 -0.0554  1.2569
  631MPD2    C1 9341   3.433   0.084  15.927  0.2025  1.2134  0.1400
  631MPD2    C2 9342   3.528   4.708  15.908 -0.0071 -0.2198  0.9624
  631MPD2    C3 9343   3.587   4.650  16.014 -0.6375 -0.2877  0.7183
  631MPD2    C4 9344   3.542   4.681  16.141  0.4204 -0.2668  0.1864
  631MPD2    C5 9345   3.443   0.048  16.158 -0.2472 -0.0132 -0.3003
  631MPD2     H 9346   3.565   4.685  15.809  0.5837 -1.1258  1.3916
  631MPD2    H1 9347   3.568   4.634  16.235  0.1220 -4.6301 -1.9018
  631MPD2    H2 9348   3.304   0.190  16.074  0.8635  1.1688  0.5883
  631MPD2    H3 9349   3.412   0.087  16.254 -1.3117  0.7927 -0.9585
  631MPD2     N 9350   3.684   4.553  15.989 -0.1313  0.3451 -0.3357
  631MPD2    H5 9351   3.697   4.528  15.891  0.5168  2.0352 -0.6780
  631MPD2    N1 9352   3.374   0.156  15.824 -0.6550  0.3739 -0.3993
  631MPD2    H7 9353   3.326   0.241  15.849  1.7694  1.6948 -0.2895
  632TMC3    C1 9354   3.326   0.222  15.610 -0.5359 -0.1292 -0.1247
  632TMC3    C2 9355   3.214   0.297  15.650 -0.9921 -0.0489  0.7628
  632TMC3    C3 9356   3.162   0.387  15.560 -0.1034  0.3640  0.1124
  632TMC3    C4 9357   3.394   0.245  15.491  0.6094  0.0318 -0.2038
  632TMC3    C5 9358   3.331   0.342  15.416 -0.4257  0.0185  0.1532
  632TMC3    C6 9359   3.216   0.409  15.442 -0.5316  0.3588 -0.2103
  632TMC3     C 9360   3.388   0.124  15.692 -0.4869 -0.3007 -0.0839
  632TMC3     O 9361   3.445   0.031  15.635  0.5921  0.1482 -0.0592
  632TMC3     H 9362   3.165   0.278  15.744 -2.2606  0.3948  0.1964
  632TMC3    H1 9363   3.482   0.191  15.457  0.7087 -0.1628  0.3611
  632TMC3    H2 9364   3.174   0.473  15.365  3.7860  1.9013 -1.2846
  632TMC3    C7 9365   3.397   0.395  15.296 -0.3424 -0.1479 -0.2004
  632TMC3    C8 9366   3.058   0.474  15.606 -0.3920  0.1344 -0.3314
  632TMC3    O1 9367   3.327   0.448  15.212  0.7606 -0.2017  0.2006
  632TMC3    O2 9368   3.006   0.435  15.711 -0.1480  0.4807 -0.6854
  633MPD2     C 9369   3.628   3.081   0.269 -0.4952 -0.3243  0.1574
  633MPD2    C1 9370   3.593   2.998   0.163 -0.1765  0.3087 -0.0055
  633MPD2    C2 9371   3.626   2.868   0.183  0.2135 -0.6620  0.3033
  633MPD2    C3 9372   3.675   2.814   0.303 -0.5436  0.7733  0.2380
  633MPD2    C4 9373   3.716   2.900   0.406  0.4287  0.3443 -0.2171
  633MPD2    C5 9374   3.691   3.030   0.380 -0.6737  0.1239 -0.7461
  633MPD2     H 9375   3.624   2.801   0.098 -2.0721  0.5107 -0.5729
  633MPD2    H1 9376   3.761   2.862   0.497  0.7065 -1.4886 -1.1146
  633MPD2    H2 9377   3.606   3.187   0.262  0.3404 -0.0870  1.2204
  633MPD2    H3 9378   3.709   3.098   0.462 -1.2464  0.6961 -1.0880
  633MPD2     N 9379   3.686   2.673   0.321 -0.9538 -0.5768  0.5078
  633MPD2    H5 9380   3.743   2.636   0.397  0.2612  1.9111  0.7943
  633MPD2    N1 9381   3.551   3.036   0.039 -0.4592 -0.5902 -0.2648
  633MPD2    H7 9382   3.528   2.961  17.674 -0.8120  1.0293 -2.0579
  634TMC3    C1 9383   3.534   3.168  17.551  0.0089 -0.0680 -0.8569
  634TMC3    C2 9384   3.564   3.054  17.477 -0.3289 -0.3044  0.2153
  634TMC3    C3 9385   3.551   3.066  17.341 -0.5251  0.0402  0.9141
  634TMC3    C4 9386   3.504   3.284  17.489  0.5601  0.0666  0.4122
  634TMC3    C5 9387   3.485   3.291  17.355  0.2022 -0.0975  0.1279
  634TMC3    C6 9388   3.498   3.178  17.278 -0.1612  0.0089  0.2115
  634TMC3     C 9389   3.530   3.168  17.698 -0.2432 -0.1002 -0.0788
  634TMC3     O 9390   3.520   3.277   0.057  0.7775  0.0150 -0.0826
  634TMC3     H 9391   3.589   2.954  17.511  1.4036  0.4039  1.0116
  634TMC3    H1 9392   3.516   3.371  17.552  2.8799 -0.1500  0.2840
  634TMC3    H2 9393   3.478   3.181  17.171  1.4704 -0.3152 -0.1108
  634TMC3    C7 9394   3.499   3.408  17.285  0.5749 -0.0084 -0.1506
  634TMC3    C8 9395   3.581   2.948  17.266  0.3894 -0.1452  0.0858
  634TMC3    O1 9396   3.536   3.399  17.169 -0.3313 -0.4495 -0.4246
  634TMC3    O2 9397   3.566   2.841  17.323 -0.2088  0.3340  0.2396
  635TMC3    C1 9398   3.404   0.375   1.819  0.5418  0.8899  0.6869
  635TMC3    C2 9399   3.282   0.429   1.801 -0.1761 -0.5017 -0.2338
  635TMC3    C3 9400   3.191   0.419   1.897 -0.3535 -0.5681  0.1109
  635TMC3    C4 9401   3.443   0.304   1.934 -0.2993 -0.1995 -0.5344
  635TMC3    C5 9402   3.349   0.316   2.037 -0.8214 -0.4782 -0.6377
  635TMC3    C6 9403   3.222   0.363   2.017 -0.0004 -0.7598  0.1839
  635TMC3     C 9404   3.500   0.371   1.705 -0.1360 -0.1834 -0.9074
  635TMC3     O 9405   3.587   0.285   1.712  0.1279  0.0127  0.1512
  635TMC3     H 9406   3.255   0.448   1.697 -0.3895 -0.7270 -0.2196
  635TMC3    H1 9407   3.541   0.257   1.936  0.1340  0.7689  0.9012
  635TMC3    H2 9408   3.155   0.366   2.102  1.9041 -1.1909  1.7090
  635TMC3    C7 9409   3.399   0.283   2.165 -0.1837  0.0607  0.8078
  635TMC3    C8 9410   3.049   0.451   1.867  0.1404  0.7502 -0.0958
  635TMC3    O1 9411   3.475   0.188   2.175  0.4068  0.2021 -0.3518
  635TMC3    O2 9412   2.973   0.439   1.965 -0.0452 -0.1759  0.2259
  636MPD2     C 9413   0.206   3.322  15.867  0.6276 -0.7414  0.2944
  636MPD2    C1 9414   0.260   3.349  15.988 -0.0686 -0.8045 -0.1304
  636MPD2    C2 9415   0.273   3.244  16.075 -0.4183  0.0921  0.0050
  636MPD2    C3 9416   0.231   3.113  16.049  0.3584  0.2083 -0.3412
  636MPD2    C4 9417   0.196   3.083  15.921  0.4548 -0.6469  0.1838
  636MPD2    C5 9418   0.191   3.189  15.829  0.4975  0.0274 -0.0182
  636MPD2     H 9419   0.316   3.255  16.174 -2.1777 -2.5691  1.0625
  636MPD2    H1 9420   0.171   2.982  15.891  0.1701 -0.7440  0.7303
  636MPD2    H2 9421   0.194   3.390  15.783 -0.9221 -0.7968  0.4852
  636MPD2    H3 9422   0.154   3.174  15.728 -0.0535  0.0961  0.1746
  636MPD2     N 9423   0.241   3.028  16.157  0.4404 -0.8047 -0.1933
  636MPD2    H5 9424   0.287   3.066  16.239 -0.2293  1.8425 -1.0248
  636MPD2    N1 9425   0.286   3.484  16.033 -0.3769  0.2001  0.9444
  636MPD2    H7 9426   0.293   3.500  16.133 -2.4809  0.3028  1.0663
  637TMC3    C1 9427   0.243   2.848  16.296 -0.0642  0.4668 -0.9557
  637TMC3    C2 9428   0.245   2.932  16.401 -0.1159  0.8387  0.5389
  637TMC3    C3 9429   0.288   2.882  16.524 -0.0192 -0.0576 -0.1841
  637TMC3    C4 9430   0.286   2.718  16.302 -0.2762  0.1693  0.2326
  637TMC3    C5 9431   0.335   2.678  16.422 -0.0344 -0.1165  0.6247
  637TMC3    C6 9432   0.332   2.753  16.535  0.2447  0.3347 -0.4002
  637TMC3     C 9433   0.222   2.896  16.158  0.6490  0.3241  0.6717
  637TMC3     O 9434   0.187   2.816  16.070  0.0210 -0.3001 -0.1521
  637TMC3     H 9435   0.209   3.035  16.396 -4.8005 -0.6637  2.9595
  637TMC3    H1 9436   0.296   2.657  16.213 -0.6528 -0.6501  0.7549
  637TMC3    H2 9437   0.368   2.709  16.627  1.7448 -2.2690 -2.2300
  637TMC3    C7 9438   0.405   2.553  16.444 -0.3229  0.0152 -0.0434
  637TMC3    C8 9439   0.324   2.981  16.631  0.2828  0.8189  0.1804
  637TMC3    O1 9440   0.346   2.472  16.516 -0.3436 -0.0742 -0.0182
  637TMC3    O2 9441   0.317   3.101  16.596  0.7273 -0.6455  0.0055
  638MPD2     C 9442   0.574   1.790  15.210 -0.0180 -0.3865  0.4888
  638MPD2    C1 9443   0.504   1.711  15.129 -0.2203 -0.7957 -1.0329
  638MPD2    C2 9444   0.403   1.634  15.182 -0.0236 -0.3276 -0.3148
  638MPD2    C3 9445   0.385   1.628  15.317  0.1705 -0.3394  0.5749
  638MPD2    C4 9446   0.470   1.702  15.394  0.6029 -0.1494 -0.2160
  638MPD2    C5 9447   0.569   1.780  15.345 -0.5647 -0.0598 -0.5992
  638MPD2     H 9448   0.327   1.585  15.122 -0.6212  1.0274 -0.6624
  638MPD2    H1 9449   0.464   1.697  15.503 -0.9239 -0.3286 -0.3083
  638MPD2    H2 9450   0.653   1.851  15.168  0.0814 -0.0492  1.1688
  638MPD2    H3 9451   0.647   1.808  15.414 -1.7430 -0.3689  0.8415
  638MPD2     N 9452   0.275   1.561  15.361 -0.1576 -0.8386 -0.8649
  638MPD2    H5 9453   0.218   1.517  15.289 -1.3578 -0.5177 -0.1305
  638MPD2    N1 9454   0.527   1.720  14.985  0.2521 -0.0131 -0.2423
  638MPD2    H7 9455   0.589   1.793  14.952 -1.3480  0.9330 -1.1394
  639TMC3    C1 9456   0.141   1.430  15.496  0.4366  0.7190 -0.1573
  639TMC3    C2 9457   0.047   1.431  15.390 -0.4417 -0.6147  0.0779
  639TMC3    C3 9458   0.005   1.306  15.351 -0.2564 -0.1229 -0.4819
  639TMC3    C4 9459   0.163   1.311  15.562 -1.2215 -0.2045 -0.1248
  639TMC3    C5 9460   0.119   1.189  15.516 -0.0840  0.2381 -0.2701
  639TMC3    C6 9461   0.041   1.189  15.408 -0.6042 -0.2144  0.1653
  639TMC3     C 9462   0.255   1.521  15.493 -0.1913 -0.2278 -0.4991
  639TMC3     O 9463   0.336   1.516  15.585  0.1357 -0.3571  0.1163
  639TMC3     H 9464   0.030   1.518  15.328  3.1187 -0.3212 -0.4826
  639TMC3    H1 9465   0.239   1.317  15.640 -2.9297  1.6044  1.3829
  639TMC3    H2 9466   0.031   1.095  15.355  1.9281 -0.7790  0.7111
  639TMC3    C7 9467   0.228   1.100  15.521  0.3918  0.4002 -0.5608
  639TMC3    C8 9468   4.658   1.308  15.231 -0.5959  0.3673 -0.5572
  639TMC3    O1 9469   0.259   1.050  15.626  0.3841 -0.2772 -0.5099
  639TMC3    O2 9470   4.678   1.218  15.156 -0.4939 -0.6138  0.0480
  640MPD2     C 9471   0.197   0.418  10.007  0.3740 -0.0045  0.2513
  640MPD2    C1 9472   0.137   0.438   9.884  0.2483  0.5900 -0.3764
  640MPD2    C2 9473   0.114   0.571   9.843  0.2954 -0.7178  0.0953
  640MPD2    C3 9474   0.166   0.680   9.916  0.2689  0.2102  0.0158
  640MPD2    C4 9475   0.236   0.654  10.032 -0.0721 -0.0421  0.8694
  640MPD2    C5 9476   0.250   0.525  10.077  0.2067 -0.2003  0.3334
  640MPD2     H 9477   0.049   0.592   9.758 -0.4220 -1.1989  0.5184
  640MPD2    H1 9478   0.274   0.733  10.095 -0.9761  1.7294 -0.8034
  640MPD2    H2 9479   0.218   0.315  10.031 -0.4977 -0.3670 -0.5252
  640MPD2    H3 9480   0.285   0.506  10.177 -0.1063  2.0478  0.8774
  640MPD2     N 9481   0.161   0.814   9.871  0.0342 -0.9559 -0.6453
  640MPD2    H5 9482   0.200   0.879   9.938 -4.9277  0.0900  1.2592
  640MPD2    N1 9483   0.099   0.328   9.812  0.2338 -0.3480 -0.7757
  640MPD2    H7 9484   0.116   0.234   9.847 -0.1286  0.2064  0.8905
  641TMC3    C1 9485   0.035   0.213   9.625  0.1660  0.1572 -0.2309
  641TMC3    C2 9486   0.151   0.140   9.634  0.6373 -0.4269 -0.1626
  641TMC3    C3 9487   0.166   0.040   9.546  0.2601  0.2685 -0.0807
  641TMC3    C4 9488   4.662   0.180   9.536 -0.0541  0.0352 -0.2242
  641TMC3    C5 9489   4.677   0.071   9.457  0.7336 -0.5067 -0.5640
  641TMC3    C6 9490   0.062   0.000   9.467  0.6335 -0.4923  0.8604
  641TMC3     C 9491   0.026   0.338   9.699 -0.0955 -1.2748  0.2515
  641TMC3     O 9492   4.703   0.435   9.639 -0.1030  0.1100 -0.2214
  641TMC3     H 9493   0.235   0.185   9.684  0.0503  0.2711  0.2039
  641TMC3    H1 9494   4.568   0.234   9.544  0.1593  0.6383 -1.8392
  641TMC3    H2 9495   0.071   4.632   9.411 -0.6614 -0.7170  1.0270
  641TMC3    C7 9496   4.583   0.054   9.348  0.2930  0.5859  0.0393
  641TMC3    C8 9497   0.296   4.710   9.519 -0.3229 -0.9588 -0.3916
  641TMC3    O1 9498   4.467   0.080   9.364  0.2969  0.0987  0.0164
  641TMC3    O2 9499   0.308   4.644   9.421  0.2258 -0.0417 -0.6074
  642TMC3    C1 9500   1.935   1.529  12.563 -0.2751  0.2307 -0.3563
  642TMC3    C2 9501   2.059   1.490  12.515 -0.6758  0.3483 -0.3898
  642TMC3    C3 9502   2.060   1.427  12.390 -0.5904  0.7325 -0.5246
  642TMC3    C4 9503   1.814   1.504  12.501  0.0921  0.0584 -0.4037
  642TMC3    C5 9504   1.820   1.439  12.385 -0.1172  0.5627  0.4653
  642TMC3    C6 9505   1.941   1.403  12.325  0.9531  0.7867  0.5832
  642TMC3     C 9506   1.929   1.653  12.647 -0.0996  0.3474 -0.1315
  642TMC3     O 9507   2.030   1.723  12.645  0.4662 -0.7603  0.5623
  642TMC3     H 9508   2.150   1.531  12.558 -0.8321  0.4003 -0.1059
  642TMC3    H1 9509   1.714   1.536  12.528  1.4235  2.5616  1.5359
  642TMC3    H2 9510   1.943   1.359  12.226 -0.2803  0.8909  0.5143
  642TMC3    C7 9511   1.700   1.365  12.341 -0.1235 -0.0246 -0.3173
  642TMC3    C8 9512   2.189   1.354  12.353  0.2754 -0.5312  0.7005
  642TMC3    O1 9513   1.687   1.339  12.222 -0.2024 -0.0024  1.0876
  642TMC3    O2 9514   2.180   1.286  12.251  0.3376 -0.4113 -0.1885
  643TMC3    C1 9515   0.595   1.376   0.842  0.2317 -0.0028 -0.9904
  643TMC3    C2 9516   0.464   1.389   0.864 -0.1343 -0.2671  0.3312
  643TMC3    C3 9517   0.368   1.323   0.792 -0.1478 -0.5917 -1.0241
  643TMC3    C4 9518   0.639   1.321   0.725 -0.3135  0.6354 -0.3124
  643TMC3    C5 9519   0.543   1.270   0.643  0.4231  0.4084  0.2128
  643TMC3    C6 9520   0.410   1.260   0.679 -0.0065  0.0605 -0.3057
  643TMC3     C 9521   0.670   1.481   0.902  0.3644  0.0503 -0.7003
  643TMC3     O 9522   0.603   1.578   0.940  0.3670 -0.0669  0.0983
  643TMC3     H 9523   0.419   1.448   0.943 -0.6140 -0.9021  0.5330
  643TMC3    H1 9524   0.742   1.331   0.694  0.4400  0.0326  2.0222
  643TMC3    H2 9525   0.339   1.208   0.617 -0.1242  0.2398 -0.3226
  643TMC3    C7 9526   0.570   1.282   0.497  0.4508  0.2626  0.0539
  643TMC3    C8 9527   0.255   1.408   0.761 -1.0388  0.5889 -0.0518
  643TMC3    O1 9528   0.685   1.315   0.468 -0.7117  0.1320  0.0067
  643TMC3    O2 9529   0.148   1.357   0.732 -0.1383 -0.5188 -1.0874
  644MPD2     C 9530   0.837   0.218  10.167  0.0681  0.0301 -0.0946
  644MPD2    C1 9531   0.877   0.208  10.034 -0.0018 -0.2368  0.6779
  644MPD2    C2 9532   0.809   0.281   9.941 -0.2938 -0.0847 -0.2127
  644MPD2    C3 9533   0.720   0.379   9.982  0.2694  0.8884  0.0946
  644MPD2    C4 9534   0.699   0.396  10.113 -0.8568  0.2069  0.0944
  644MPD2    C5 9535   0.756   0.316  10.209  0.2618  0.8965 -0.2880
  644MPD2     H 9536   0.827   0.263   9.836 -0.0990  0.3905 -0.2617
  644MPD2    H1 9537   0.645   0.482  10.151 -0.8836  0.1851  0.1049
  644MPD2    H2 9538   0.877   0.145  10.237 -1.5191 -0.7596  0.0056
  644MPD2    H3 9539   0.731   0.331  10.313 -1.4353  0.2168 -0.5841
  644MPD2     N 9540   0.661   0.454   9.881 -0.0078  0.3153  0.1916
  644MPD2    H5 9541   0.674   0.415   9.788  0.4462  0.2224  0.2932
  644MPD2    N1 9542   0.972   0.110  10.010 -0.2107 -0.3970 -0.1849
  644MPD2    H7 9543   0.997   0.048  10.087 -1.0478 -0.9274 -0.3440
  645TMC3    C1 9544   0.512   0.596   9.786  0.1426  0.2473  0.5755
  645TMC3    C2 9545   0.481   0.726   9.760 -0.0222 -0.6413 -0.0218
  645TMC3    C3 9546   0.422   0.755   9.640  0.3143 -0.5980 -0.0361
  645TMC3    C4 9547   0.467   0.496   9.704 -0.4262  0.4867  0.1616
  645TMC3    C5 9548   0.394   0.534   9.592  0.1823 -0.1462  0.6362
  645TMC3    C6 9549   0.380   0.665   9.548  0.1066  0.1964  0.2881
  645TMC3     C 9550   0.579   0.564   9.904  0.6956 -0.1643 -0.1441
  645TMC3     O 9551   0.553   0.617  10.012 -0.0816 -0.3148  0.1594
  645TMC3     H 9552   0.507   0.805   9.829 -1.2720  0.0187 -0.2941
  645TMC3    H1 9553   0.460   0.393   9.738  1.7875  0.3459  0.1548
  645TMC3    H2 9554   0.337   0.682   9.450 -0.0012 -2.5064 -0.1311
  645TMC3    C7 9555   0.356   0.424   9.502 -0.2979  1.0857 -0.3318
  645TMC3    C8 9556   0.406   0.896   9.607  0.2645  0.1543  0.5022
  645TMC3    O1 9557   0.418   0.323   9.500  0.8303 -0.3338 -0.2981
  645TMC3    O2 9558   0.477   0.968   9.672 -0.2159  0.6555 -0.3363
  646MPD2     C 9559   0.128   0.728  14.640  1.1635 -0.8769  0.2553
  646MPD2    C1 9560   0.042   0.691  14.741  0.5058  0.7113 -0.3766
  646MPD2    C2 9561   4.632   0.736  14.739 -0.0236  0.0453  0.2312
  646MPD2    C3 9562   4.587   0.820  14.633 -0.3298  0.6883 -0.1112
  646MPD2    C4 9563   4.681   0.864  14.543 -0.4081  0.3117  0.1001
  646MPD2    C5 9564   0.083   0.811  14.539 -0.2655  0.0333  0.5218
  646MPD2     H 9565   4.556   0.702  14.810 -1.1278 -0.0649 -1.0095
  646MPD2    H1 9566   4.652   0.926  14.460  1.2429  0.2088 -0.5363
  646MPD2    H2 9567   0.235   0.721  14.656  1.1337  0.5851  1.1343
  646MPD2    H3 9568   0.153   0.832  14.460 -0.0635 -0.7943  0.4903
  646MPD2     N 9569   4.452   0.861  14.632 -0.1697 -0.0299  0.9128
  646MPD2    H5 9570   4.389   0.825  14.703 -2.1227 -1.3422 -1.4568
  646MPD2    N1 9571   0.092   0.605  14.848  0.2757 -0.4157  0.1736
  646MPD2    H7 9572   0.192   0.591  14.836  0.2199 -0.3472 -0.3642
  647TMC3    C1 9573   0.084   0.466  15.045 -1.0743 -0.2302  0.3959
  647TMC3    C2 9574   0.006   0.357  15.077 -0.3826  0.1607 -0.4831
  647TMC3    C3 9575   0.077   0.243  15.121 -0.5818 -0.5025  0.7495
  647TMC3    C4 9576   0.218   0.476  15.054 -0.1545 -0.2422  0.1662
  647TMC3    C5 9577   0.284   0.366  15.096 -0.6435 -0.7519  0.4029
  647TMC3    C6 9578   0.215   0.249  15.129 -0.4476 -0.6888 -0.3174
  647TMC3     C 9579   0.010   0.549  14.950 -0.2989  0.1240  0.0407
  647TMC3     O 9580   4.612   0.551  14.975  0.0309  0.2485  0.0728
  647TMC3     H 9581   4.622   0.362  15.085 -0.2304  0.8669  1.2707
  647TMC3    H1 9582   0.266   0.572  15.038 -1.4518  0.4839  0.6994
  647TMC3    H2 9583   0.268   0.159  15.158 -1.6431 -0.6538  1.9420
  647TMC3    C7 9584   0.418   0.376  15.158  0.2625 -0.3617  0.2556
  647TMC3    C8 9585   0.021   0.164  15.233  0.8152 -0.2405 -0.2545
  647TMC3    O1 9586   0.457   0.283  15.230 -0.4575  0.2867 -0.3940
  647TMC3    O2 9587   0.104   0.111  15.305 -0.0931 -0.2412 -0.5013
  648TMC3    C1 9588   3.991   3.011  16.416 -0.0980 -0.4048 -0.0579
  648TMC3    C2 9589   4.083   2.941  16.349 -0.2179 -0.3448 -0.3504
  648TMC3    C3 9590   4.078   2.949  16.214  0.9622 -0.0295  0.3584
  648TMC3    C4 9591   3.897   3.094  16.363  0.0712 -0.2414  0.3811
  648TMC3    C5 9592   3.897   3.102  16.227 -0.0987 -0.2707  0.1467
  648TMC3    C6 9593   3.987   3.026  16.155  1.4694 -0.1890  0.1423
  648TMC3     C 9594   3.997   3.019  16.560  1.0349 -0.4368  1.1278
  648TMC3     O 9595   3.999   3.130  16.609  0.4546  0.4408 -0.2635
  648TMC3     H 9596   4.173   2.903  16.397 -0.5737 -0.2827  0.3585
  648TMC3    H1 9597   3.830   3.151  16.426  0.5469  0.7794 -0.0364
  648TMC3    H2 9598   3.983   3.033  16.047  0.1257 -0.7700  0.1439
  648TMC3    C7 9599   3.862   3.225  16.164  0.3459 -0.6248  0.2403
  648TMC3    C8 9600   4.187   2.895  16.140  1.2366 -0.0109 -0.3937
  648TMC3    O1 9601   3.922   3.262  16.065  0.2922 -0.1063 -0.6796
  648TMC3    O2 9602   4.207   2.938  16.025 -0.8198 -0.4900 -1.1314
  649TMC3    C1 9603   3.268   3.959  13.444 -1.0346  0.9892 -0.9827
  649TMC3    C2 9604   3.388   3.933  13.507 -0.4015  0.4065 -0.3544
  649TMC3    C3 9605   3.386   3.872  13.630  0.3119 -0.1657  0.9660
  649TMC3    C4 9606   3.145   3.916  13.490  0.7327 -0.2391 -0.4564
  649TMC3    C5 9607   3.150   3.843  13.614  0.9499  0.0142 -0.5617
  649TMC3    C6 9608   3.268   3.828  13.686 -1.1606 -0.0400  0.1032
  649TMC3     C 9609   3.262   3.983  13.303 -0.4091  0.0447 -0.1011
  649TMC3     O 9610   3.181   3.906  13.248 -0.9308  0.0960 -0.4237
  649TMC3     H 9611   3.481   3.960  13.459 -0.0103 -0.1322  0.0923
  649TMC3    H1 9612   3.052   3.944  13.442 -0.7291 -3.2297  0.6487
  649TMC3    H2 9613   3.276   3.788  13.787  0.3793 -1.1975 -0.4795
  649TMC3    C7 9614   3.021   3.816  13.674 -0.1558  0.0365 -0.0041
  649TMC3    C8 9615   3.507   3.826  13.694  0.2671  0.1905  0.4437
  649TMC3    O1 9616   2.926   3.888  13.634  0.0102  0.1166 -0.4219
  649TMC3    O2 9617   3.493   3.732  13.773 -0.2333 -0.3714 -0.0494
  650TMC3    C1 9618   1.067   0.744  12.957  0.4713 -0.1829 -0.2461
  650TMC3    C2 9619   1.057   0.832  13.057 -0.4864  0.2021  0.0411
  650TMC3    C3 9620   0.971   0.935  13.032 -0.2997 -0.7071  0.4278
  650TMC3    C4 9621   1.010   0.771  12.831 -0.4515  0.1119  0.3635
  650TMC3    C5 9622   0.932   0.879  12.817 -0.1620  0.3988  0.6371
  650TMC3    C6 9623   0.905   0.965  12.919  0.1124 -0.4240  0.4030
  650TMC3     C 9624   1.156   0.627  12.957  0.0954  0.1570 -0.3427
  650TMC3     O 9625   1.154   0.550  12.859  0.3675  0.1981 -0.4477
  650TMC3     H 9626   1.083   0.804  13.159 -0.5395  0.7090  0.1927
  650TMC3    H1 9627   1.065   0.723  12.750  0.6595 -0.4377  1.4234
  650TMC3    H2 9628   0.846   1.055  12.914 -0.3598 -0.6376  1.9415
  650TMC3    C7 9629   0.920   0.923  12.685  0.4135 -0.4914 -0.3453
  650TMC3    C8 9630   0.975   1.041  13.130 -0.9065  0.2543  0.4895
  650TMC3    O1 9631   0.898   0.841  12.595  0.0725  0.3029  0.3968
  650TMC3    O2 9632   1.077   1.087  13.175  0.6346  0.2348  0.5804
  651MPD2     C 9633   0.056   2.618  10.615 -0.5671  0.4873 -0.5765
  651MPD2    C1 9634   0.014   2.722  10.708  0.7779  0.0301  0.2688
  651MPD2    C2 9635   0.101   2.783  10.789  0.0349  0.9853 -0.9556
  651MPD2    C3 9636   0.237   2.750  10.780  0.3272  0.7041  0.0398
  651MPD2    C4 9637   0.282   2.657  10.690  0.2565 -0.2947  0.1405
  651MPD2    C5 9638   0.190   2.591  10.609  0.3229  0.4995 -0.3450
  651MPD2     H 9639   0.069   2.858  10.861 -3.0920 -1.4381  0.1765
  651MPD2    H1 9640   0.385   2.627  10.684 -0.5244 -2.7464 -1.0419
  651MPD2    H2 9641   4.719   2.565  10.543 -0.5942 -2.7867  1.8472
  651MPD2    H3 9642   0.221   2.512  10.543 -0.0997  0.4702 -0.5056
  651MPD2     N 9643   0.327   2.827  10.856 -0.6673  0.1100 -0.2273
  651MPD2    H5 9644   0.295   2.910  10.905  0.5701  0.8748 -0.7187
  651MPD2    N1 9645   4.601   2.754  10.716  0.0382 -0.2054 -0.3768
  651MPD2    H7 9646   4.598   2.836  10.777 -1.4804 -0.1633 -0.5239
  652TMC3    C1 9647   0.754   3.016  10.967  0.4203  0.0326 -0.0488
  652TMC3    C2 9648   0.679   2.906  10.940 -0.2827  0.1652  0.2522
  652TMC3    C3 9649   0.538   2.908  10.944 -0.0669 -0.1726 -0.0474
  652TMC3    C4 9650   0.698   3.138  10.985 -0.1488  0.3684  0.0457
  652TMC3    C5 9651   0.563   3.141  10.978  0.5656 -0.3515 -0.0791
  652TMC3    C6 9652   0.485   3.031  10.963 -0.4966  0.3385 -0.9912
  652TMC3     C 9653   0.899   3.005  10.957  1.3196 -0.1218  0.1492
  652TMC3     O 9654   0.941   2.891  10.941 -0.2600 -0.9186  0.9606
  652TMC3     H 9655   0.729   2.812  10.920 -1.1998  0.2749 -2.4775
  652TMC3    H1 9656   0.757   3.222  11.020  0.5956 -0.1080 -0.0569
  652TMC3    H2 9657   0.377   3.043  10.965 -0.4023  1.2136 -1.0232
  652TMC3    C7 9658   0.492   3.261  10.996  0.7695  0.7243 -0.4534
  652TMC3    C8 9659   0.462   2.797  10.877 -0.1951 -0.2607 -0.4954
  652TMC3    O1 9660   0.392   3.258  11.064 -0.3612 -0.1208 -0.2229
  652TMC3    O2 9661   0.521   2.695  10.847  0.0625 -0.0217 -0.0141
  653MPD2     C 9662   3.278   2.891   0.333 -0.5939  0.2894  0.4665
  653MPD2    C1 9663   3.249   3.003   0.256 -0.5222  0.3869 -0.1199
  653MPD2    C2 9664   3.183   2.984   0.138 -0.0301 -0.3996  0.2890
  653MPD2    C3 9665   3.118   2.865   0.103 -0.2808 -0.0717  0.4869
  653MPD2    C4 9666   3.153   2.755   0.181 -0.5083  0.1876 -0.5491
  653MPD2    C5 9667   3.229   2.774   0.292  0.0802  0.1968  0.4328
  653MPD2     H 9668   3.173   3.070   0.073 -2.3490 -0.5833  0.4224
  653MPD2    H1 9669   3.125   2.652   0.160 -0.6524  0.3655 -1.2199
  653MPD2    H2 9670   3.356   2.895   0.409 -0.6874 -0.1641  0.5867
  653MPD2    H3 9671   3.266   2.688   0.348  1.6156  1.1328  0.8407
  653MPD2     N 9672   3.031   2.870  17.689  0.3530  0.2627  0.2114
  653MPD2    H5 9673   3.036   2.952  17.628  0.5925 -1.3506 -1.9489
  653MPD2    N1 9674   3.292   3.134   0.298 -0.1497  0.1210  0.3248
  653MPD2    H7 9675   3.266   3.210   0.235 -1.3968 -0.6691 -0.1009
  654TMC3    C1 9676   2.888   2.776  17.517  0.2213  0.6311  0.2112
  654TMC3    C2 9677   2.845   2.892  17.468  0.0146 -0.5528 -0.0487
  654TMC3    C3 9678   2.795   2.893  17.340 -0.6160 -0.3924 -0.5564
  654TMC3    C4 9679   2.876   2.661  17.445  0.0368  0.1314 -0.2090
  654TMC3    C5 9680   2.828   2.655  17.318  0.4089 -0.4262  0.7526
  654TMC3    C6 9681   2.781   2.772  17.268  0.4047 -0.2774  0.2566
  654TMC3     C 9682   2.949   2.766  17.651 -0.2665 -0.8204 -0.5876
  654TMC3     O 9683   2.937   2.657   0.002 -0.5206  0.2599  0.2110
  654TMC3     H 9684   2.841   2.982  17.529 -0.3005 -0.0925 -0.7490
  654TMC3    H1 9685   2.925   2.577  17.495 -0.2700 -1.5721 -2.7729
  654TMC3    H2 9686   2.725   2.768  17.176  1.1720 -2.9683 -0.0844
  654TMC3    C7 9687   2.834   2.540  17.239  0.8947 -0.0246 -0.4973
  654TMC3    C8 9688   2.712   3.006  17.295 -0.4380  0.1170 -0.2979
  654TMC3    O1 9689   2.823   2.551  17.119 -0.2945 -1.2810  0.1412
  654TMC3    O2 9690   2.686   3.089  17.381 -0.4471  0.1095  0.7454
  655MPD2     C 9691   4.440   3.083  16.196  0.3991 -0.9513 -0.7997
  655MPD2    C1 9692   4.406   3.186  16.112  0.3825 -0.2491 -0.5609
  655MPD2    C2 9693   4.448   3.179  15.976  0.2642  0.3240  0.3673
  655MPD2    C3 9694   4.527   3.074  15.927 -0.6769 -1.0002  0.0854
  655MPD2    C4 9695   4.563   2.977  16.018  1.4908  0.3612  0.1105
  655MPD2    C5 9696   4.515   2.984  16.149  0.7887  0.1244 -0.9196
  655MPD2     H 9697   4.411   3.253  15.906 -1.6843 -0.6470  0.3810
  655MPD2    H1 9698   4.614   2.887  15.988 -2.2945 -2.0735  1.0574
  655MPD2    H2 9699   4.412   3.066  16.300 -2.2267 -1.2364 -1.5424
  655MPD2    H3 9700   4.537   2.902  16.216 -1.0222  0.0732 -0.4072
  655MPD2     N 9701   4.572   3.053  15.794 -0.0910 -0.7358 -0.3996
  655MPD2    H5 9702   4.621   2.967  15.773  0.1668 -1.0990  1.7692
  655MPD2    N1 9703   4.319   3.283  16.153 -0.2015 -0.3144 -0.8204
  655MPD2    H7 9704   4.292   3.355  16.087 -0.8933  1.8903  1.8854
  656TMC3    C1 9705   4.178   3.405  16.303 -0.4835 -0.6634  0.5380
  656TMC3    C2 9706   4.114   3.415  16.423  0.1926  0.2413  0.4984
  656TMC3    C3 9707   4.048   3.528  16.463  0.4894 -0.2656  0.1413
  656TMC3    C4 9708   4.200   3.519  16.234  0.0600 -0.7066  0.1646
  656TMC3    C5 9709   4.132   3.630  16.270  0.2085  0.5923 -0.4004
  656TMC3    C6 9710   4.055   3.639  16.381 -0.6179 -0.3668 -0.4862
  656TMC3     C 9711   4.262   3.287  16.280 -0.2668 -0.0765 -0.0686
  656TMC3     O 9712   4.260   3.204  16.368  0.1403  0.1244  0.2174
  656TMC3     H 9713   4.110   3.332  16.492  0.0558  0.2998  0.5587
  656TMC3    H1 9714   4.267   3.531  16.150  0.8573  0.7375  1.0161
  656TMC3    H2 9715   4.003   3.731  16.405 -0.5498 -1.0027  2.1035
  656TMC3    C7 9716   4.116   3.731  16.165 -0.4166 -0.5024 -0.2312
  656TMC3    C8 9717   3.947   3.534  16.567 -0.0017  0.3735  0.0404
  656TMC3    O1 9718   4.196   3.736  16.076 -0.1815 -0.2142 -0.7838
  656TMC3    O2 9719   3.907   3.649  16.597  0.4480 -0.5758 -0.0273
  657TMC3    C1 9720   3.863   2.648  15.007  0.5792 -0.3465  0.9077
  657TMC3    C2 9721   3.840   2.644  15.142  0.4715 -0.3014  0.7644
  657TMC3    C3 9722   3.722   2.700  15.181  0.7628  0.0670  0.4794
  657TMC3    C4 9723   3.779   2.712  14.916 -0.0681  0.0523  0.4290
  657TMC3    C5 9724   3.655   2.756  14.961  0.3832  0.6247  0.3452
  657TMC3    C6 9725   3.628   2.758  15.091 -0.5631 -0.3041 -0.2153
  657TMC3     C 9726   3.971   2.575  14.953 -0.5794  0.6576 -0.3418
  657TMC3     O 9727   4.010   2.626  14.849 -0.2400 -0.9263 -0.8130
  657TMC3     H 9728   3.919   2.612  15.210  0.1666 -1.0186  0.7811
  657TMC3    H1 9729   3.793   2.696  14.810 -2.4540 -0.4698  0.1914
  657TMC3    H2 9730   3.532   2.794  15.129 -1.4284 -3.0874  0.2586
  657TMC3    C7 9731   3.552   2.778  14.860 -0.2328  0.7748 -0.0511
  657TMC3    C8 9732   3.682   2.696  15.320 -0.6705 -0.3098  0.4332
  657TMC3    O1 9733   3.589   2.767  14.744  0.3163  0.0701 -0.7121
  657TMC3    O2 9734   3.589   2.764  15.367 -0.0343  0.4877  0.5493
  658MPD2     C 9735   0.160   3.219  14.946 -0.0782 -0.3502 -0.3514
  658MPD2    C1 9736   0.080   3.286  15.039 -0.1064  0.1172 -0.8646
  658MPD2    C2 9737   0.018   3.401  14.999  1.2044  0.1020  0.4723
  658MPD2    C3 9738   0.018   3.436  14.866 -0.0018  0.5215  0.2427
  658MPD2    C4 9739   0.081   3.353  14.774 -1.4741  0.2086 -0.4695
  658MPD2    C5 9740   0.162   3.253  14.815 -0.1575 -0.7632 -0.3924
  658MPD2     H 9741   4.692   3.457  15.077 -1.2938  0.4731 -1.4214
  658MPD2    H1 9742   0.080   3.361  14.666 -2.6555 -1.7973 -0.6215
  658MPD2    H2 9743   0.192   3.117  14.966  0.0517 -0.8155 -2.9296
  658MPD2    H3 9744   0.207   3.182  14.746  0.6461  1.7280 -2.4561
  658MPD2     N 9745   4.659   3.541  14.819  0.0098 -0.5058 -0.3519
  658MPD2    H5 9746   4.593   3.584  14.882  2.7389  1.4183  1.1721
  658MPD2    N1 9747   0.072   3.232  15.166  0.2616  0.3657  0.5777
  658MPD2    H7 9748   0.098   3.136  15.185  2.4179  0.6763 -0.8755
  659TMC3    C1 9749   4.695   3.187  15.367  0.0517 -0.1309 -0.0285
  659TMC3    C2 9750   4.709   3.209  15.500 -0.5242  0.0275  0.1373
  659TMC3    C3 9751   4.646   3.119  15.582  0.9161 -0.0877  0.5015
  659TMC3    C4 9752   4.640   3.074  15.321 -0.1578 -0.4136  0.5432
  659TMC3    C5 9753   4.583   2.981  15.405  0.0185 -0.2408  0.5993
  659TMC3    C6 9754   4.599   2.995  15.542  0.0315  0.2232 -0.5425
  659TMC3     C 9755   0.016   3.289  15.277  0.2162 -0.6625  0.1312
  659TMC3     O 9756   0.004   3.407  15.301 -0.0753 -0.5416 -0.3643
  659TMC3     H 9757   4.724   3.309  15.539 -3.4464  0.5752 -0.1485
  659TMC3    H1 9758   4.614   3.077  15.216 -2.1357  0.3249  1.0519
  659TMC3    H2 9759   4.543   2.929  15.607  0.3031 -0.9355 -1.4646
  659TMC3    C7 9760   4.473   2.897  15.357 -0.1806 -0.7511  1.0608
  659TMC3    C8 9761   4.603   3.159  15.716 -0.3728  0.3889  0.2885
  659TMC3    O1 9762   4.410   2.830  15.439  0.0143 -0.3925 -0.6476
  659TMC3    O2 9763   4.593   3.282  15.724  0.6109  0.1648  0.0113
  660MPD2     C 9764   3.022   1.297  13.103  0.2335 -0.2711 -0.6837
  660MPD2    C1 9765   2.996   1.212  12.999 -0.1056  0.3865 -0.5817
  660MPD2    C2 9766   2.960   1.079  13.021 -0.8798  0.2787  0.6069
  660MPD2    C3 9767   2.963   1.028  13.145  0.1267 -0.0768  0.9355
  660MPD2    C4 9768   2.997   1.113  13.250  0.4418 -0.2713  0.0006
  660MPD2    C5 9769   3.026   1.241  13.227 -0.6529 -0.2736 -0.3863
  660MPD2     H 9770   2.928   1.018  12.937  1.4215  2.4261 -1.8139
  660MPD2    H1 9771   2.999   1.077  13.352  1.1444  1.0815  0.4534
  660MPD2    H2 9772   3.042   1.401  13.081  0.8674 -1.1914 -4.4387
  660MPD2    H3 9773   3.056   1.304  13.310  1.0500  1.6873 -2.4905
  660MPD2     N 9774   2.947   0.887  13.160 -0.0434  0.6693  0.3797
  660MPD2    H5 9775   2.942   0.833  13.074 -0.0887  0.1576  0.7120
  660MPD2    N1 9776   3.003   1.276  12.872 -0.3157 -0.0569 -0.2243
  660MPD2    H7 9777   3.014   1.377  12.879 -1.7333  0.0613  0.3175
  661TMC3    C1 9778   2.986   1.288  12.638  0.6829 -0.3298  0.1080
  661TMC3    C2 9779   3.025   1.235  12.518  0.4240 -0.7159  0.2105
  661TMC3    C3 9780   3.015   1.311  12.412  0.2567 -0.4237 -0.1236
  661TMC3    C4 9781   2.917   1.406  12.644  0.4094  0.4793 -0.0282
  661TMC3    C5 9782   2.900   1.473  12.529  0.0372 -0.0290  0.1793
  661TMC3    C6 9783   2.954   1.431  12.407 -0.2002  0.4291 -0.2900
  661TMC3     C 9784   3.000   1.207  12.756 -0.3603  0.2039  0.4013
  661TMC3     O 9785   2.998   1.084  12.736  0.2165 -0.5623 -0.0177
  661TMC3     H 9786   3.065   1.134  12.515 -0.4455 -1.0081 -1.5970
  661TMC3    H1 9787   2.855   1.436  12.728 -1.8149 -0.1376 -1.4646
  661TMC3    H2 9788   2.949   1.483  12.312  0.1314 -1.7017 -1.4608
  661TMC3    C7 9789   2.786   1.569  12.531 -0.3226  0.5755  0.3293
  661TMC3    C8 9790   3.036   1.257  12.282  0.0264  0.3004  0.0175
  661TMC3    O1 9791   2.755   1.614  12.640 -0.1720 -0.4224 -0.2000
  661TMC3    O2 9792   3.078   1.336  12.195  0.1844 -0.0564  0.5013
  662MPD2     C 9793   3.102   1.452  17.251 -0.3712 -0.0547  0.3045
  662MPD2    C1 9794   3.060   1.465  17.382  0.0178 -0.0077 -0.0525
  662MPD2    C2 9795   2.963   1.554  17.418  0.3516  0.2351 -0.0397
  662MPD2    C3 9796   2.922   1.646  17.327  0.0303 -0.8289  0.0263
  662MPD2    C4 9797   2.984   1.652  17.204  0.6799  0.2228  0.2465
  662MPD2    C5 9798   3.068   1.552  17.164 -0.5432 -0.0500 -0.1326
  662MPD2     H 9799   2.925   1.553  17.519  0.7099 -1.4006  0.0789
  662MPD2    H1 9800   2.970   1.738  17.141  2.8365  0.7399  0.4570
  662MPD2    H2 9801   3.165   1.371  17.215 -0.1945  0.2104  0.0167
  662MPD2    H3 9802   3.126   1.557  17.073 -1.4410 -2.2471 -0.8316
  662MPD2     N 9803   2.826   1.748  17.350 -0.1747 -0.1056 -0.9748
  662MPD2    H5 9804   2.817   1.821  17.280  1.5722  0.0150 -1.0907
  662MPD2    N1 9805   3.107   1.379  17.485  0.8297 -0.3421  0.1186
  662MPD2    H7 9806   3.060   1.394  17.573  0.5027  0.5145 -0.1968
  663TMC3    C1 9807   3.205   1.218  17.609 -0.1311  0.3091 -0.1041
  663TMC3    C2 9808   3.163   1.296   0.016  0.4535 -0.0007  0.2636
  663TMC3    C3 9809   3.151   1.238   0.140 -0.2434  0.2099 -1.1968
  663TMC3    C4 9810   3.209   1.080  17.613  0.1090  0.0630  0.5503
  663TMC3    C5 9811   3.178   1.022   0.037 -0.2568 -0.1599 -0.2042
  663TMC3    C6 9812   3.146   1.099   0.146  0.2393 -0.3194 -0.2548
  663TMC3     C 9813   3.194   1.272  17.475  0.4071 -0.5549  0.9712
  663TMC3     O 9814   3.255   1.228  17.373 -0.0085  0.0232  0.1879
  663TMC3     H 9815   3.196   1.399   0.011 -2.1509  0.9206  1.9574
  663TMC3    H1 9816   3.212   1.017  17.525  0.0352 -1.0601  1.3509
  663TMC3    H2 9817   3.157   1.054   0.244 -3.6892 -1.7354 -0.4708
  663TMC3    C7 9818   3.143   0.882   0.040  0.2481  0.1366 -1.4862
  663TMC3    C8 9819   3.051   1.293   0.229  0.4295  0.2686  0.0571
  663TMC3    O1 9820   3.204   0.820  17.654 -0.7010 -0.0342  0.7034
  663TMC3    O2 9821   3.036   1.226   0.333 -0.0594 -0.2079 -0.6921
  664MPD2     C 9822   0.939   0.196   0.183 -0.2094  0.0333  1.2112
  664MPD2    C1 9823   1.025   0.298   0.214  0.1844 -0.0452  1.0299
  664MPD2    C2 9824   1.061   0.334   0.344  0.3661  0.5342  0.0661
  664MPD2    C3 9825   0.998   0.269   0.452 -0.0078  0.1702 -0.2203
  664MPD2    C4 9826   0.913   0.165   0.424 -0.2890  0.3721  0.2158
  664MPD2    C5 9827   0.883   0.136   0.294  0.2187  0.1354 -0.1315
  664MPD2     H 9828   1.126   0.419   0.363  0.1835  0.7710 -0.3730
  664MPD2    H1 9829   0.863   0.104   0.498  3.0579 -0.4266  1.7743
  664MPD2    H2 9830   0.908   0.163   0.085 -1.9397 -1.4787  2.2817
  664MPD2    H3 9831   0.816   0.053   0.272 -1.2749  1.0461  0.9957
  664MPD2     N 9832   1.041   0.314   0.579  0.3580 -0.3450 -0.7104
  664MPD2    H5 9833   1.078   0.408   0.589 -0.8644 -0.0754  1.3018
  664MPD2    N1 9834   1.101   0.358   0.113  0.2882 -0.0352  0.1296
  664MPD2    H7 9835   1.168   0.426   0.147  0.2304  0.9171 -1.6765
  665TMC3    C1 9836   1.041   0.337   0.818  0.2373 -0.2199  0.2377
  665TMC3    C2 9837   0.981   0.299   0.937  0.6426 -0.1770  0.4638
  665TMC3    C3 9838   1.011   0.381   1.042  0.1222 -0.4959  0.2737
  665TMC3    C4 9839   1.105   0.463   0.801 -0.2812 -0.2624 -0.9588
  665TMC3    C5 9840   1.117   0.539   0.908 -0.5546 -0.2817  0.2335
  665TMC3    C6 9841   1.071   0.501   1.028  1.1316  0.0190  0.0328
  665TMC3     C 9842   1.020   0.244   0.702 -0.0555 -0.0983  0.6543
  665TMC3     O 9843   0.975   0.131   0.711  0.3899 -0.3724 -0.3917
  665TMC3     H 9844   0.945   0.197   0.941  0.7953 -0.1964  1.2631
  665TMC3    H1 9845   1.171   0.487   0.719  0.0752 -0.4077 -0.7142
  665TMC3    H2 9846   1.083   0.561   1.117 -0.9736  1.5325 -0.6940
  665TMC3    C7 9847   1.163   0.673   0.884 -0.1416  0.1962 -0.4696
  665TMC3    C8 9848   0.930   0.380   1.158  0.0950  0.4056  0.5921
  665TMC3    O1 9849   1.256   0.684   0.803  0.2463  0.0512 -0.5330
  665TMC3    O2 9850   0.952   0.457   1.249  0.7456  0.9136 -0.1967
  666TMC3    C1 9851   0.023   3.921  10.007 -0.0177 -0.3810 -0.5010
  666TMC3    C2 9852   0.124   3.865   9.924  0.0000 -0.2299 -0.1549
  666TMC3    C3 9853   0.186   3.954   9.834 -0.3329  0.4540 -0.2438
  666TMC3    C4 9854   4.712   4.057  10.001 -0.2209 -0.0868  0.6786
  666TMC3    C5 9855   0.058   4.143   9.916 -1.0056  0.2335 -0.5610
  666TMC3    C6 9856   0.151   4.093   9.833 -0.3881 -0.2573  0.8914
  666TMC3     C 9857   0.025   3.868  10.145  0.2114  0.6659 -0.2002
  666TMC3     O 9858   0.013   3.953  10.233 -0.2339 -0.1953 -0.9854
  666TMC3     H 9859   0.143   3.759   9.930 -3.0151 -0.6606  1.5832
  666TMC3    H1 9860   4.644   4.093  10.077 -0.5251  1.6238 -0.4156
  666TMC3    H2 9861   0.210   4.162   9.775 -1.5830 -0.1385 -0.1653
  666TMC3    C7 9862   0.114   4.257   9.990  0.0468  0.2558 -0.4687
  666TMC3    C8 9863   0.327   3.919   9.817  0.2215  1.3649  0.3378
  666TMC3    O1 9864   0.232   4.275   9.979  0.3128  0.3695 -0.4244
  666TMC3    O2 9865   0.375   3.821   9.865 -0.0266  0.6031  0.2077
  667MPD2     C 9866   1.542   4.380  15.301 -0.2831  0.7691  0.0439
  667MPD2    C1 9867   1.433   4.417  15.371  0.2183  0.0112  0.3074
  667MPD2    C2 9868   1.310   4.360  15.337 -0.1859  0.2517 -0.1175
  667MPD2    C3 9869   1.304   4.271  15.233 -0.4580 -0.1015 -0.0043
  667MPD2    C4 9870   1.418   4.218  15.169  0.7400 -0.1242  0.0742
  667MPD2    C5 9871   1.532   4.289  15.198  0.4423 -0.1017 -0.4071
  667MPD2     H 9872   1.219   4.378  15.395 -2.3259 -2.3459 -2.6819
  667MPD2    H1 9873   1.428   4.151  15.084 -0.7142 -0.7055  0.3598
  667MPD2    H2 9874   1.642   4.419  15.313  0.1290 -0.7435  1.4968
  667MPD2    H3 9875   1.619   4.261  15.140  0.9322  0.1775  0.1900
  667MPD2     N 9876   1.183   4.229  15.174 -0.3473 -0.3590  0.6744
  667MPD2    H5 9877   1.185   4.156  15.103 -0.6542 -0.1800  0.4769
  667MPD2    N1 9878   1.441   4.507  15.478 -0.0657 -0.3094 -0.1209
  667MPD2    H7 9879   1.360   4.509  15.539  0.7879  0.1914  0.9929
  668TMC3    C1 9880   1.549   4.671  15.619  0.0466 -0.9305 -0.7474
  668TMC3    C2 9881   1.652   0.039  15.626 -0.2199 -0.4897 -0.0112
  668TMC3    C3 9882   1.662   0.116  15.738 -0.2326  0.6683  0.1333
  668TMC3    C4 9883   1.470   4.629  15.721 -0.5401 -0.2872  0.0664
  668TMC3    C5 9884   1.486   4.708  15.832  0.9485 -0.2875  0.1440
  668TMC3    C6 9885   1.580   0.087  15.842  0.1325 -0.0525  0.5456
  668TMC3     C 9886   1.552   4.591  15.498  0.2498  0.8521 -0.8007
  668TMC3     O 9887   1.638   4.617  15.418  0.0894  0.2541 -0.3995
  668TMC3     H 9888   1.720   0.052  15.543  0.6738 -0.8154  0.6646
  668TMC3    H1 9889   1.384   4.566  15.703 -1.2789  0.4265  1.0905
  668TMC3    H2 9890   1.601   0.138  15.936  2.2624 -0.0158  0.0553
  668TMC3    C7 9891   1.394   4.706  15.942 -0.0237 -0.2398  0.1576
  668TMC3    C8 9892   1.786   0.161  15.782  0.1831  0.2079  0.1791
  668TMC3    O1 9893   1.399   0.069  16.030 -0.3503 -0.0025  0.1226
  668TMC3    O2 9894   1.828   0.124  15.889 -0.6730  0.2852  0.1736
  669TMC3    C1 9895   0.026   0.204  14.583 -0.2215  0.1766  0.3449
  669TMC3    C2 9896   4.661   0.199  14.481 -0.4619  0.0045 -0.0003
  669TMC3    C3 9897   4.681   0.270  14.365 -0.0272  0.0592  0.1866
  669TMC3    C4 9898   0.126   0.294  14.576 -0.7497  0.8375  0.9213
  669TMC3    C5 9899   0.149   0.370  14.465 -0.3561  0.1297 -0.2657
  669TMC3    C6 9900   0.060   0.360  14.358  0.0016  0.3197  0.1357
  669TMC3     C 9901   0.017   0.111  14.698  0.0016  0.0754 -0.0993
  669TMC3     O 9902   4.631   0.066  14.713 -0.1919 -0.6827 -0.2536
  669TMC3     H 9903   4.588   0.120  14.492  2.3563 -2.2324  2.6381
  669TMC3    H1 9904   0.181   0.303  14.669  1.0928 -2.1228  0.1373
  669TMC3    H2 9905   0.071   0.425  14.272  0.9541  1.2713  0.9926
  669TMC3    C7 9906   0.263   0.452  14.455  0.1542 -0.2668 -0.3926
  669TMC3    C8 9907   4.578   0.260  14.269 -0.0569 -0.1579 -0.1140
  669TMC3    O1 9908   0.307   0.495  14.560 -0.4517 -0.6509 -0.0427
  669TMC3    O2 9909   4.479   0.193  14.294  0.2555 -0.3512  0.2337
  670MPD2     C 9910   3.041   2.875  13.452 -0.3096  0.3479  0.1863
  670MPD2    C1 9911   3.140   2.797  13.517 -0.2601 -0.9891  0.0626
  670MPD2    C2 9912   3.098   2.705  13.609 -0.2869 -0.8270 -0.2855
  670MPD2    C3 9913   2.963   2.687  13.639 -0.5268 -0.0917 -0.2377
  670MPD2    C4 9914   2.871   2.775  13.581 -0.2383  0.3827 -0.3154
  670MPD2    C5 9915   2.910   2.866  13.482 -0.2038  0.5906  0.3792
  670MPD2     H 9916   3.178   2.639  13.643  0.0735 -0.7503 -0.9870
  670MPD2    H1 9917   2.770   2.779  13.620 -0.3412  1.6295 -0.6929
  670MPD2    H2 9918   3.071   2.950  13.380 -0.3987  0.5718  0.3839
  670MPD2    H3 9919   2.840   2.941  13.447 -1.2412 -1.6754 -2.3462
  670MPD2     N 9920   2.926   2.602  13.740  0.0284  0.0562 -0.2155
  670MPD2    H5 9921   2.998   2.550  13.789 -0.2230  0.6607  0.8085
  670MPD2    N1 9922   3.279   2.811  13.497  0.2509  0.6596  0.3414
  670MPD2    H7 9923   3.338   2.761  13.563  0.3618 -2.1696 -1.8961
  671TMC3    C1 9924   2.807   2.491  13.908  0.1551 -0.0301 -0.1226
  671TMC3    C2 9925   2.904   2.506  13.998 -0.6215 -0.8434  0.3646
  671TMC3    C3 9926   2.887   2.437  14.121 -0.4598 -0.3546 -0.3408
  671TMC3    C4 9927   2.707   2.400  13.933 -0.2942 -0.2447  0.6484
  671TMC3    C5 9928   2.705   2.317  14.043  1.3522 -0.1116 -0.0635
  671TMC3    C6 9929   2.794   2.338  14.145  0.4587 -0.1659 -0.4152
  671TMC3     C 9930   2.799   2.576  13.785 -0.0305  0.3255 -0.5588
  671TMC3     O 9931   2.686   2.594  13.738 -0.3589 -0.2887  0.1368
  671TMC3     H 9932   2.962   2.597  13.996  0.1236 -1.3151  0.6281
  671TMC3    H1 9933   2.635   2.395  13.851  0.4015  0.9254 -0.0202
  671TMC3    H2 9934   2.781   2.286  14.239 -1.8240 -0.7506 -1.0519
  671TMC3    C7 9935   2.629   2.195  14.022  0.0809  0.2036 -0.1747
  671TMC3    C8 9936   3.020   2.414  14.183  0.0821  0.4982  0.7016
  671TMC3    O1 9937   2.614   2.173  13.899 -0.0097 -0.7844  0.2054
  671TMC3    O2 9938   3.124   2.423  14.113 -0.1133  0.9242 -0.4401
  672MPD2     C 9939   3.053   2.729   1.537 -0.3421 -0.2787 -0.1561
  672MPD2    C1 9940   3.190   2.718   1.519  0.5116 -0.2304  0.2122
  672MPD2    C2 9941   3.281   2.779   1.605 -0.7190 -0.3561  1.2156
  672MPD2    C3 9942   3.238   2.860   1.707 -0.5357 -1.0495 -0.0839
  672MPD2    C4 9943   3.099   2.876   1.719 -0.3396 -0.4399  0.3993
  672MPD2    C5 9944   3.011   2.804   1.643  0.3925 -0.3114  0.5393
  672MPD2     H 9945   3.389   2.783   1.590 -0.7948 -0.0378  0.7615
  672MPD2    H1 9946   3.057   2.937   1.797  1.2956 -0.0302  0.9708
  672MPD2    H2 9947   2.980   2.693   1.466 -1.5498 -0.9672  1.4380
  672MPD2    H3 9948   2.905   2.820   1.654  0.4414  1.7764 -2.0622
  672MPD2     N 9949   3.317   2.931   1.792  0.2486 -0.0555 -0.2615
  672MPD2    H5 9950   3.275   3.015   1.830 -0.5281 -0.5272 -0.0775
  672MPD2    N1 9951   3.232   2.649   1.400 -0.5295 -0.1859  0.1039
  672MPD2    H7 9952   3.167   2.616   1.330 -1.0516  1.6414 -0.2802
  673TMC3    C1 9953   3.378   2.531   1.248  0.3247  0.3337 -0.4115
  673TMC3    C2 9954   3.484   2.439   1.260 -0.2051  0.6324  0.2326
  673TMC3    C3 9955   3.495   2.353   1.155 -0.3148 -0.2047  0.3446
  673TMC3    C4 9956   3.290   2.534   1.146  0.1702  0.6204 -0.4662
  673TMC3    C5 9957   3.310   2.445   1.039 -0.6537  0.2241  0.0899
  673TMC3    C6 9958   3.416   2.357   1.044  0.8800 -0.2392 -0.0943
  673TMC3     C 9959   3.365   2.618   1.368 -0.2959  0.2035  0.2301
  673TMC3     O 9960   3.460   2.629   1.442  0.2092 -0.1598  0.0107
  673TMC3     H 9961   3.541   2.424   1.351 -0.3925  1.5647  0.5107
  673TMC3    H1 9962   3.220   2.617   1.144  0.7714  1.1447  0.0793
  673TMC3    H2 9963   3.432   2.282   0.967  0.7016 -0.9639  0.5638
  673TMC3    C7 9964   3.230   2.437   0.927  0.1191  0.3336  0.3958
  673TMC3    C8 9965   3.606   2.250   1.147 -0.1880  0.1845  0.4379
  673TMC3    O1 9966   3.258   2.350   0.844  0.7366  0.2292  0.2015
  673TMC3    O2 9967   3.597   2.163   1.063 -0.5131 -0.0231  0.5042
  674MPD2     C 9968   3.120   1.909   1.037  0.8692  0.6053 -0.2381
  674MPD2    C1 9969   3.117   1.997   0.929  0.1055  0.2686  0.6331
  674MPD2    C2 9970   2.989   2.043   0.894 -0.9699  0.5174 -0.0515
  674MPD2    C3 9971   2.872   2.004   0.956  0.1278  1.6323  0.0506
  674MPD2    C4 9972   2.885   1.930   1.072  0.1236  0.0422  0.4660
  674MPD2    C5 9973   3.003   1.879   1.108  0.2746 -0.3560  0.3250
  674MPD2     H 9974   2.983   2.100   0.802  1.5469  2.7239  1.1363
  674MPD2    H1 9975   2.801   1.906   1.137 -0.8931 -1.6401 -1.4711
  674MPD2    H2 9976   3.214   1.877   1.082  0.3834  0.7205  0.8587
  674MPD2    H3 9977   3.007   1.824   1.201  0.5948 -2.2980 -0.8186
  674MPD2     N 9978   2.750   2.058   0.904 -0.4100 -0.6640  0.4672
  674MPD2    H5 9979   2.772   2.112   0.822  0.0625 -0.7461  0.5417
  674MPD2    N1 9980   3.219   2.037   0.845 -0.4366  0.1168 -0.4089
  674MPD2    H7 9981   3.210   2.106   0.772 -1.1338 -0.1016 -0.5297
  675TMC3    C1 9982   3.406   2.029   0.711  0.3567 -0.5719  0.0963
  675TMC3    C2 9983   3.364   1.954   0.609  0.3694  0.4664  0.5827
  675TMC3    C3 9984   3.321   2.017   0.497 -0.7364  0.3919  0.5118
  675TMC3    C4 9985   3.413   2.167   0.692 -0.2770  0.1726 -0.5237
  675TMC3    C5 9986   3.383   2.225   0.574 -0.3340 -0.8973  0.2961
  675TMC3    C6 9987   3.339   2.156   0.472  0.0722  0.4912  0.0792
  675TMC3     C 9988   3.347   1.989   0.830  0.1561  0.0292 -0.3857
  675TMC3     O 9989   3.396   1.898   0.895  0.4688  0.8568  0.3293
  675TMC3     H 9990   3.350   1.848   0.622 -0.8654  0.4428 -0.9375
  675TMC3    H1 9991   3.449   2.226   0.776 -1.8684  0.1915  0.1390
  675TMC3    H2 9992   3.306   2.206   0.382 -1.3317  0.7370  0.7336
  675TMC3    C7 9993   3.416   2.367   0.551  0.4065 -0.0347 -0.1141
  675TMC3    C8 9994   3.194   1.969   0.448  1.4207  0.3151 -0.1813
  675TMC3    O1 9995   3.340   2.431   0.478  0.0283 -0.1058 -0.0701
  675TMC3    O2 9996   3.162   1.989   0.330  0.6583 -0.1958  0.6053
  676MPD2     C 9997   1.324   0.361  11.411 -0.3416 -0.3569 -0.4711
  676MPD2    C1 9998   1.188   0.330  11.423 -0.0368 -0.2394  1.3044
  676MPD2    C2 9999   1.162   0.194  11.439 -0.0113 -0.1890  0.4410
  676MPD2    C310000   1.261   0.098  11.424  0.4886  0.2227 -0.3073
  676MPD2    C410001   1.391   0.136  11.418  0.5462  0.0368 -0.4969
  676MPD2    C510002   1.420   0.270  11.406  0.5465 -0.3439  0.4553
  676MPD2     H10003   1.062   0.164  11.469  0.6911 -1.5290  1.4648
  676MPD2    H110004   1.468   0.062  11.401 -0.6420 -1.2563 -0.1903
  676MPD2    H210005   1.360   0.462  11.399 -0.3767 -0.2460  0.3536
  676MPD2    H310006   1.520   0.311  11.394  0.1458  0.6098  0.4231
  676MPD2     N10007   1.241   4.685  11.434 -0.2534  0.6858  0.0826
  676MPD2    H510008   1.326   4.631  11.422 -2.0115 -1.8988 -0.6873
  676MPD2    N110009   1.082   0.423  11.419  0.6547 -0.1444  0.2911
  676MPD2    H710010   0.997   0.383  11.456  1.2373  0.9093  2.7758
  677TMC3    C110011   0.987   0.638  11.456  0.2528 -0.5325 -0.2340
  677TMC3    C210012   0.869   0.573  11.469 -0.4888  0.8730  0.2381
  677TMC3    C310013   0.783   0.624  11.564  0.1583 -0.8895 -0.2430
  677TMC3    C410014   1.012   0.757  11.517 -0.4983  0.3977  0.2144
  677TMC3    C510015   0.916   0.808  11.598  0.5207  0.8003  0.1804
  677TMC3    C610016   0.801   0.748  11.623  0.2078 -0.1584  0.2173
  677TMC3     C10017   1.102   0.558  11.416 -0.3972  0.5123 -0.2745
  677TMC3     O10018   1.202   0.628  11.403 -0.0377  0.6036 -0.6385
  677TMC3     H10019   0.859   0.476  11.421 -2.4495  1.0877  0.1878
  677TMC3    H110020   1.111   0.798  11.502 -0.5622 -0.0847 -1.6237
  677TMC3    H210021   0.741   0.779  11.708  1.3315 -2.5730  1.8982
  677TMC3    C710022   0.954   0.928  11.682  0.5986  0.8033  0.4855
  677TMC3    C810023   0.668   0.532  11.594 -0.4607  0.3438  0.5395
  677TMC3    O110024   0.870   0.983  11.750 -0.1641  0.1788 -0.0978
  677TMC3    O210025   0.625   0.475  11.496  0.7507 -0.4727 -0.3207
  678MPD2     C10026   2.363   1.254   2.096 -0.3227 -0.4990 -0.6866
  678MPD2    C110027   2.358   1.205   1.969  0.5285  0.5766 -0.0649
  678MPD2    C210028   2.254   1.244   1.893  1.2333 -0.6302 -0.0002
  678MPD2    C310029   2.149   1.327   1.941  0.1309  0.4413  0.2532
  678MPD2    C410030   2.158   1.379   2.073 -0.2497 -0.6809  0.4016
  678MPD2    C510031   2.266   1.334   2.148  0.5811  0.3866  0.2619
  678MPD2     H10032   2.243   1.221   1.788  0.9760  0.0966 -0.1296
  678MPD2    H110033   2.085   1.449   2.112  0.3486 -0.3686  0.9640
  678MPD2    H210034   2.446   1.230   2.161 -1.1240 -0.9688  0.1706
  678MPD2    H310035   2.278   1.360   2.252 -0.4748 -0.8531  0.6968
  678MPD2     N10036   2.053   1.375   1.848  0.5241 -0.0782  0.0403
  678MPD2    H510037   2.053   1.342   1.752 -2.3243 -0.0034 -0.0072
  678MPD2    N110038   2.464   1.130   1.908 -0.0449 -0.2999  0.4393
  678MPD2    H710039   2.439   1.088   1.819  1.5796  0.6344 -0.4698
  679TMC3    C110040   2.891   0.949   1.821  0.0562  0.0606  0.4221
  679TMC3    C210041   2.796   0.985   1.914  0.1827 -0.2744 -0.3538
  679TMC3    C310042   2.676   1.040   1.867 -0.2283  0.0398 -0.2441
  679TMC3    C410043   2.878   0.977   1.685  0.2115 -0.2597 -0.7343
  679TMC3    C510044   2.762   1.034   1.642  0.8064 -0.5331  0.0738
  679TMC3    C610045   2.660   1.060   1.731 -0.8521 -0.1117 -0.5874
  679TMC3     C10046   3.012   0.891   1.868 -0.2579  0.8873 -0.8859
  679TMC3     O10047   3.102   0.885   1.784 -0.2033  0.2413 -0.5854
  679TMC3     H10048   2.821   0.997   2.019  0.8217 -1.5609 -0.3670
  679TMC3    H110049   2.943   0.931   1.612  1.0008  0.9350 -0.8002
  679TMC3    H210050   2.563   1.084   1.688 -1.5119  1.1434  1.5772
  679TMC3    C710051   2.762   1.110   1.515 -0.3980 -0.5663 -0.5982
  679TMC3    C810052   2.587   1.100   1.961 -0.0437  0.2240 -0.1334
  679TMC3    O110053   2.655   1.171   1.492  0.2962 -0.4520 -0.0933
  679TMC3    O210054   2.633   1.121   2.071 -0.5675 -0.2302  0.1297
  680MPD2     C10055   2.306   4.332  13.616 -0.0234 -0.0598  0.4846
  680MPD2    C110056   2.331   4.296  13.749 -0.3387 -0.5649  0.0542
  680MPD2    C210057   2.384   4.394  13.830  0.2138  0.5663  0.2929
  680MPD2    C310058   2.409   4.525  13.793 -0.8843 -0.1034  0.0565
  680MPD2    C410059   2.379   4.552  13.662 -0.6973 -0.4955  0.6025
  680MPD2    C510060   2.331   4.457  13.575 -0.7594  0.4664  0.1869
  680MPD2     H10061   2.405   4.359  13.931 -1.8216 -1.1573  0.1121
  680MPD2    H110062   2.394   4.652  13.622 -0.7925 -0.0870  1.5931
  680MPD2    H210063   2.280   4.256  13.543  1.8914  0.5973 -0.8550
  680MPD2    H310064   2.320   4.482  13.470 -0.7605 -1.6994 -0.3255
  680MPD2     N10065   2.435   4.632  13.888 -0.6808  0.0058  1.0120
  680MPD2    H510066   2.445   4.722  13.842  0.6610 -0.2447  0.8073
  680MPD2    N110067   2.314   4.166  13.798 -0.6240 -0.1831  0.0487
  680MPD2    H710068   2.338   4.147  13.894 -0.5016 -1.7475 -0.2919
  681TMC3    C110069   2.253   3.952  13.836 -0.2861  0.4174 -0.5011
  681TMC3    C210070   2.141   3.872  13.851 -0.7856 -0.6344  0.2337
  681TMC3    C310071   2.139   3.776  13.950 -0.0071  0.2452  0.3759
  681TMC3    C410072   2.369   3.932  13.911 -0.0804  0.0083 -0.5595
  681TMC3    C510073   2.359   3.825  13.999  0.2941 -0.0272  0.1342
  681TMC3    C610074   2.258   3.742  14.007 -0.8596  0.2671 -0.2210
  681TMC3     C10075   2.243   4.063  13.749  0.1090  0.4021 -0.1656
  681TMC3     O10076   2.162   4.063  13.659  0.5085  0.0032 -0.2790
  681TMC3     H10077   2.052   3.914  13.807 -0.4029 -0.9107 -0.7940
  681TMC3    H110078   2.454   3.997  13.894  0.1349 -0.5351 -1.5841
  681TMC3    H210079   2.258   3.662  14.081 -1.9049  0.8871  0.4425
  681TMC3    C710080   2.483   3.770  14.061  0.6862  0.8350  0.9221
  681TMC3    C810081   2.040   3.813  14.051  0.0650 -0.3916  0.5904
  681TMC3    O110082   2.470   3.685  14.148  0.3347  0.0216  0.0085
  681TMC3    O210083   1.924   3.833  14.017  0.2237 -0.3253 -0.3200
  682MPD2     C10084   0.433   0.590  10.732 -0.6898 -0.6801  0.3084
  682MPD2    C110085   0.417   0.457  10.775 -0.0475 -0.2273 -0.7811
  682MPD2    C210086   0.345   0.432  10.897  0.1545 -0.0695 -0.6183
  682MPD2    C310087   0.285   0.531  10.971 -0.5295  0.0500  0.7451
  682MPD2    C410088   0.306   0.663  10.934  0.0836 -0.1023 -0.4295
  682MPD2    C510089   0.375   0.689  10.817  0.9666 -0.2337  0.4088
  682MPD2     H10090   0.351   0.330  10.933 -0.9363  0.1989  0.3135
  682MPD2    H110091   0.262   0.744  10.991  2.2028 -0.2451  1.4243
  682MPD2    H210092   0.477   0.624  10.640  1.9663 -0.4020  1.6818
  682MPD2    H310093   0.376   0.789  10.776 -0.8270 -1.3605 -2.3787
  682MPD2     N10094   0.213   0.500  11.088  0.6054 -0.0231 -0.2104
  682MPD2    H510095   0.192   0.583  11.143 -0.8698 -0.5285 -0.0278
  682MPD2    N110096   0.463   0.346  10.703  0.1425 -0.2222  0.6054
  682MPD2    H710097   0.436   0.257  10.743  1.5457 -0.2827  1.4386
  683TMC3    C110098   0.166   0.366  11.463 -0.1360 -1.3432 -0.1949
  683TMC3    C210099   0.121   0.244  11.489 -0.5785 -0.2892  0.1826
  683TMC3    C310100   0.063   0.178  11.385 -0.7532  0.6251 -0.1114
  683TMC3    C410101   0.159   0.424  11.339  0.2678  0.3709  0.1226
  683TMC3    C510102   0.100   0.354  11.239  0.3541 -0.6470  0.1077
  683TMC3    C610103   0.050   0.227  11.261 -0.4458  0.0955 -0.2745
  683TMC3     C10104   0.176   0.458  11.584 -0.7956  0.3645 -0.5514
  683TMC3     O10105   0.285   0.510  11.609 -0.4255 -0.2456  0.0647
  683TMC3     H10106   0.131   0.214  11.592  1.3015  0.1824  0.1279
  683TMC3    H110107   0.199   0.524  11.337  0.1895  0.4805  3.1801
  683TMC3    H210108   0.011   0.169  11.179  2.1707 -2.2431  0.1482
  683TMC3    C710109   0.157   0.377  11.111 -0.0483 -0.4943  0.2779
  683TMC3    C810110   0.029   0.034  11.402  0.3322  0.4291  0.0483
  683TMC3    O110111   0.152   0.281  11.030  0.3190  0.0182  0.5280
  683TMC3    O210112   4.713   4.706  11.297  0.1121  0.3641 -0.2797
  684MPD2     C10113   2.648   0.712  17.074  0.1651  0.2437 -0.7570
  684MPD2    C110114   2.645   0.712  16.937  0.2068  0.7911  0.5458
  684MPD2    C210115   2.667   0.832  16.867 -0.9442 -0.5180  0.6026
  684MPD2    C310116   2.673   0.944  16.942 -0.2970 -0.2138 -0.3796
  684MPD2    C410117   2.641   0.950  17.075 -0.6706 -0.2448 -0.1581
  684MPD2    C510118   2.633   0.827  17.142  0.1790 -0.5553  0.3517
  684MPD2     H10119   2.669   0.831  16.759 -0.4386 -2.1036  0.6210
  684MPD2    H110120   2.642   1.041  17.134  0.4677  0.2457 -0.9339
  684MPD2    H210121   2.633   0.622  17.132 -1.2237  0.8103 -0.2416
  684MPD2    H310122   2.633   0.826  17.250 -1.0520  1.4780  0.3807
  684MPD2     N10123   2.719   1.070  16.892  0.1410  0.1438 -0.1455
  684MPD2    H510124   2.728   1.155  16.947  0.2637  1.9224 -2.8888
  684MPD2    N110125   2.631   0.599  16.860  0.1930  0.2820 -0.3872
  684MPD2    H710126   2.632   0.608  16.759  1.1963  0.4000 -0.3671
  685TMC3    C110127   2.701   0.389  16.799 -0.2083 -0.7382 -0.2095
  685TMC3    C210128   2.647   0.389  16.675 -0.0466  0.4097 -0.1561
  685TMC3    C310129   2.716   0.315  16.573 -0.3926 -0.2912  0.5358
  685TMC3    C410130   2.824   0.324  16.818 -0.0275 -0.3077  0.0740
  685TMC3    C510131   2.881   0.248  16.719  0.3280 -0.1526 -0.2915
  685TMC3    C610132   2.831   0.248  16.590  0.5466 -0.0475  0.1035
  685TMC3     C10133   2.663   0.477  16.908  0.0599  0.0534  0.4488
  685TMC3     O10134   2.698   0.450  17.025 -0.1216 -0.8707  0.2950
  685TMC3     H10135   2.542   0.413  16.669 -0.2469 -0.3939  0.1721
  685TMC3    H110136   2.875   0.326  16.914  0.0121  1.2969  0.0305
  685TMC3    H210137   2.873   0.198  16.503 -0.7549 -0.8926 -0.0397
  685TMC3    C710138   3.011   0.193  16.738 -0.2419 -0.4703 -0.3449
  685TMC3    C810139   2.643   0.297  16.447  0.2718  0.3713 -0.0728
  685TMC3    O110140   3.069   0.208  16.844  0.4286  0.0005 -0.0348
  685TMC3    O210141   2.691   0.224  16.360  0.4110 -0.1915  0.4751
  686MPD2     C10142   3.756   0.141  15.670 -0.7284 -0.4887  0.2533
  686MPD2    C110143   3.835   0.094  15.770  0.3930  0.6846  0.0952
  686MPD2    C210144   3.923   4.714  15.744  0.3533 -0.7142  0.7152
  686MPD2    C310145   3.927   4.647  15.628  1.2073  0.4523 -0.0369
  686MPD2    C410146   3.838   4.687  15.531 -0.5990  0.4846 -0.3450
  686MPD2    C510147   3.753   0.073  15.551  0.0878 -0.2739  0.1259
  686MPD2     H10148   3.991   4.699  15.827 -0.8750 -3.4816  1.2246
  686MPD2    H110149   3.824   4.643  15.433 -1.3682 -1.1817  0.5095
  686MPD2    H210150   3.679   0.213  15.696  3.9796  4.5144  0.2935
  686MPD2    H310151   3.684   0.112  15.476 -1.7786  2.1909  3.1621
  686MPD2     N10152   4.002   4.525  15.608  0.2747 -0.1211 -0.0295
  686MPD2    H510153   4.013   4.492  15.513  0.3480  2.6171 -0.9710
  686MPD2    N110154   3.824   0.165  15.891  0.3807 -0.7384 -0.2115
  686MPD2    H710155   3.759   0.243  15.896 -0.3928 -1.2697 -1.9790
  687TMC3    C110156   4.015   4.428  15.839 -1.6284  0.4625  0.3777
  687TMC3    C210157   3.881   4.435  15.874  0.5140 -0.8120 -0.4327
  687TMC3    C310158   3.854   4.403  16.008  1.0819 -0.3983  0.4755
  687TMC3    C410159   4.103   4.353  15.916  0.3661 -0.4104 -0.2070
  687TMC3    C510160   4.066   4.304  16.035  0.7729 -0.6593  0.4206
  687TMC3    C610161   3.943   4.338  16.091  0.2550  0.0689  1.0421
  687TMC3     C10162   4.045   4.427  15.698 -0.5575  0.1895  0.0338
  687TMC3     O10163   4.100   4.324  15.663 -0.5061 -0.1285 -0.1147
  687TMC3     H10164   3.810   4.468  15.799 -1.0282  0.5654  1.6415
  687TMC3    H110165   4.201   4.340  15.872  0.3689  2.3447 -1.0241
  687TMC3    H210166   3.912   4.305  16.189  0.4532  0.1883  1.1448
  687TMC3    C710167   4.175   4.272  16.126  0.0027  0.3446  0.0899
  687TMC3    C810168   3.770   4.499  16.081  0.3597  0.3019 -0.0334
  687TMC3    O110169   4.160   4.184  16.209 -0.0743 -0.4933  0.1400
  687TMC3    O210170   3.773   4.510  16.201 -0.0784 -0.4418  0.3055
  688MPD2     C10171   3.601   3.755   0.058  0.1573  0.3489  0.2343
  688MPD2    C110172   3.605   3.620   0.082 -0.3428  0.0281 -0.6705
  688MPD2    C210173   3.667   3.541  17.684 -0.3044 -0.0580 -0.1834
  688MPD2    C310174   3.744   3.590  17.581 -0.1897  0.2560  0.2938
  688MPD2    C410175   3.733   3.724  17.556  0.0925  0.5589 -0.0349
  688MPD2    C510176   3.666   3.805  17.643 -0.1092 -0.0152 -0.6797
  688MPD2     H10177   3.658   3.435   0.006  0.9138  0.0902  1.0567
  688MPD2    H110178   3.790   3.771  17.476 -0.0437  1.2025  0.2471
  688MPD2    H210179   3.551   3.825   0.125 -1.8437  0.4239 -1.3273
  688MPD2    H310180   3.677   3.912  17.628 -0.2269 -0.1921 -2.0341
  688MPD2     N10181   3.820   3.515  17.493 -0.2543 -0.2452 -0.5827
  688MPD2    H510182   3.857   3.569  17.414 -0.1218  1.0762  0.3785
  688MPD2    N110183   3.530   3.560   0.188 -0.4821 -0.0424  0.5500
  688MPD2    H710184   3.521   3.459   0.186 -0.8935  0.0115 -0.1910
  689TMC3    C110185   3.407   3.526   0.388 -1.1068  0.3645  0.1007
  689TMC3    C210186   3.388   3.579   0.516  0.8238 -0.1194  0.6571
  689TMC3    C310187   3.335   3.494   0.609  0.5237 -0.1668 -0.6200
  689TMC3    C410188   3.388   3.393   0.349 -0.3773  0.3760 -0.2995
  689TMC3    C510189   3.335   3.316   0.444  0.4746  0.2402  0.1827
  689TMC3    C610190   3.302   3.372   0.571 -0.5839  0.4049 -0.4889
  689TMC3     C10191   3.467   3.620   0.295  0.4094  0.1465 -0.1590
  689TMC3     O10192   3.443   3.739   0.313 -0.0839 -0.8809 -0.2601
  689TMC3     H10193   3.393   3.685   0.541  1.5447  0.1213 -0.4911
  689TMC3    H110194   3.409   3.360   0.247 -0.7094  1.1425 -0.6181
  689TMC3    H210195   3.261   3.301   0.642  1.4016  0.1237  0.3628
  689TMC3    C710196   3.330   3.170   0.425  0.3429 -0.8186 -0.3028
  689TMC3    C810197   3.265   3.543   0.727 -0.5948 -0.4832 -0.5372
  689TMC3    O110198   3.328   3.097   0.523  0.7583 -0.0119  0.6190
  689TMC3    O210199   3.324   3.632   0.786 -0.4544 -0.4685  0.0354
  690MPD2     C10200   0.847   1.050  15.959 -0.1706  0.7902 -0.7494
  690MPD2    C110201   0.864   1.014  15.829 -0.9859 -0.1810 -0.4029
  690MPD2    C210202   0.982   1.039  15.764  0.1067  0.4233 -0.5270
  690MPD2    C310203   1.081   1.120  15.819  0.1182  0.3078  0.4785
  690MPD2    C410204   1.060   1.163  15.946 -0.1291 -0.0138 -0.2863
  690MPD2    C510205   0.950   1.131  16.016 -0.8205 -0.2910  0.4048
  690MPD2     H10206   1.004   1.014  15.661  1.0155 -3.5786  0.6474
  690MPD2    H110207   1.132   1.228  15.996 -0.6713 -1.4592  2.4170
  690MPD2    H210208   0.767   1.020  16.026 -0.1317  1.4930 -0.3949
  690MPD2    H310209   0.941   1.173  16.115 -2.0075 -0.1511  0.2428
  690MPD2     N10210   1.188   1.166  15.733  0.5534 -0.4899 -0.9114
  690MPD2    H510211   1.180   1.150  15.633 -0.6877 -0.8892 -0.7444
  690MPD2    N110212   0.768   0.938  15.760  0.6745 -0.1974  0.1592
  690MPD2    H710213   0.786   0.919  15.662  0.6265  0.7851 -0.0328
  691TMC3    C110214   0.576   0.821  15.720 -0.1031  0.1175 -0.1449
  691TMC3    C210215   0.444   0.818  15.730  0.3824 -0.2240  0.5807
  691TMC3    C310216   0.372   0.710  15.678  0.5807 -0.8006  0.1894
  691TMC3    C410217   0.647   0.715  15.668  0.2628  0.7353  0.0516
  691TMC3    C510218   0.577   0.604  15.627 -0.0222 -0.0861  0.1025
  691TMC3    C610219   0.445   0.612  15.628 -0.2305  0.0830  0.1342
  691TMC3     C10220   0.646   0.907  15.804  0.2776 -0.3407 -0.4743
  691TMC3     O10221   0.578   0.942  15.902  0.2039  0.1516  0.5374
  691TMC3     H10222   0.392   0.899  15.781  0.1049  0.3890 -0.6939
  691TMC3    H110223   0.756   0.718  15.663  0.1286  3.2524 -1.3249
  691TMC3    H210224   0.387   0.538  15.575  1.2785 -0.4586 -0.7828
  691TMC3    C710225   0.650   0.487  15.664  0.6082 -0.1583 -0.5443
  691TMC3    C810226   0.225   0.699  15.692 -0.3549  0.5520 -0.0763
  691TMC3    O110227   0.770   0.489  15.652 -0.2025  0.1972 -0.1226
  691TMC3    O210228   0.171   0.594  15.670  0.1865 -0.5627  0.0328
  692TMC3    C110229   2.586   2.266  16.157  0.4028 -0.5183 -0.3199
  692TMC3    C210230   2.707   2.304  16.210  0.1356 -0.4498  0.2048
  692TMC3    C310231   2.805   2.212  16.215 -0.2181  0.2717 -0.4904
  692TMC3    C410232   2.555   2.144  16.127  0.5036 -0.0571 -0.2429
  692TMC3    C510233   2.659   2.063  16.118  0.4412  0.4043  0.4836
  692TMC3    C610234   2.783   2.083  16.182 -0.1306 -0.3678  0.1763
  692TMC3     C10235   2.477   2.344  16.211 -0.5156 -0.4843 -0.3186
  692TMC3     O10236   2.367   2.298  16.189  0.1264  0.4041 -0.0314
  692TMC3     H10237   2.742   2.406  16.198 -2.7261  0.5753  0.5052
  692TMC3    H110238   2.460   2.116  16.081  0.9501  0.4413 -1.4623
  692TMC3    H210239   2.870   2.020  16.170  0.0572 -0.4199  1.8721
  692TMC3    C710240   2.629   1.925  16.093  0.1671  0.4250 -0.5359
  692TMC3    C810241   2.882   2.212  16.338 -0.2257  0.3001  0.4908
  692TMC3    O110242   2.533   1.909  16.015 -1.0870 -0.2483 -0.2084
  692TMC3    O210243   2.923   2.104  16.385 -0.0924  0.3972 -0.0530
  693MPD2     C10244   2.472   3.765  10.887 -0.2377  0.1547  0.3984
  693MPD2    C110245   2.479   3.726  11.020 -0.2265  0.2364  0.1998
  693MPD2    C210246   2.588   3.647  11.053  0.1215 -0.4394  0.2918
  693MPD2    C310247   2.687   3.608  10.963 -0.1725  0.3262 -0.3431
  693MPD2    C410248   2.680   3.652  10.832 -0.2919  0.7962 -0.1956
  693MPD2    C510249   2.566   3.731  10.800 -0.1268 -0.9339  0.4514
  693MPD2     H10250   2.586   3.613  11.156  1.2563  3.0503  1.4774
  693MPD2    H110251   2.750   3.616  10.758  0.0823 -0.3191  0.7042
  693MPD2    H210252   2.387   3.828  10.865 -0.4246  0.1992  1.2793
  693MPD2    H310253   2.550   3.765  10.698  0.5881 -1.2078  0.2483
  693MPD2     N10254   2.793   3.518  10.999 -0.0739 -0.1153 -0.6316
  693MPD2    H510255   2.852   3.505  10.918 -0.1110  1.1673 -0.8635
  693MPD2    N110256   2.385   3.770  11.115  0.1098 -0.1750  0.1559
  693MPD2    H710257   2.305   3.817  11.074 -0.4441 -1.2873 -0.0578
  694TMC3    C110258   2.254   3.738  11.307 -0.4193  0.2752 -0.1904
  694TMC3    C210259   2.143   3.718  11.225  0.3418  0.2605 -0.2360
  694TMC3    C310260   2.026   3.682  11.289 -0.1544  0.1456  0.7052
  694TMC3    C410261   2.257   3.715  11.449  0.6004 -0.0675 -0.1008
  694TMC3    C510262   2.139   3.665  11.502  0.2067  0.7566 -0.3885
  694TMC3    C610263   2.025   3.660  11.426 -0.1508 -0.3284  0.4014
  694TMC3     C10264   2.388   3.750  11.250  0.0663  0.4188 -0.0214
  694TMC3     O10265   2.486   3.737  11.318 -0.2171 -0.2081  0.8554
  694TMC3     H10266   2.139   3.695  11.119  0.4602  0.7993 -0.3555
  694TMC3    H110267   2.345   3.723  11.512  1.3023  0.2007 -1.1175
  694TMC3    H210268   1.924   3.649  11.466 -0.6391  1.5435 -0.3106
  694TMC3    C710269   2.107   3.672  11.643  0.5445  0.4758  0.1672
  694TMC3    C810270   1.896   3.693  11.218  0.1964  0.3711  1.0920
  694TMC3    O110271   2.185   3.737  11.710  0.5505 -0.0831 -0.0888
  694TMC3    O210272   1.801   3.627  11.264  0.1403  0.4120 -0.3951
  695MPD2     C10273   3.115   1.502  13.680 -0.3072  0.2558 -0.3109
  695MPD2    C110274   3.052   1.567  13.785  0.4778 -0.1235 -0.1295
  695MPD2    C210275   2.920   1.612  13.759 -0.0244  0.1335 -0.2317
  695MPD2    C310276   2.860   1.600  13.638  0.0230  0.6813 -0.6578
  695MPD2    C410277   2.926   1.529  13.538 -0.0333 -1.0359 -0.2978
  695MPD2    C510278   3.047   1.469  13.559 -0.2761  0.3522 -0.3102
  695MPD2     H10279   2.865   1.658  13.841 -2.7626 -0.4115 -1.7684
  695MPD2    H110280   2.879   1.496  13.446 -1.7046  1.8042 -0.4778
  695MPD2    H210281   3.215   1.462  13.696 -0.2943 -0.6321 -2.6128
  695MPD2    H310282   3.110   1.418  13.487  1.3028  2.8771 -0.7374
  695MPD2     N10283   2.727   1.651  13.626 -0.2143  0.0377 -0.2373
  695MPD2    H510284   2.690   1.693  13.710 -0.3766  0.4127 -0.4952
  695MPD2    N110285   3.113   1.598  13.909  0.3848 -0.0499  0.6724
  695MPD2    H710286   3.071   1.658  13.979 -1.0969 -0.0526 -0.2112
  696TMC3    C110287   2.527   1.720  13.536  0.3796  0.6034 -0.5572
  696TMC3    C210288   2.462   1.693  13.649  0.6245  0.0028 -0.0035
  696TMC3    C310289   2.343   1.752  13.674 -0.2362 -0.3499 -0.4497
  696TMC3    C410290   2.480   1.803  13.445  0.5068  0.4683  0.0212
  696TMC3    C510291   2.364   1.864  13.471 -0.3972 -0.0134 -0.3218
  696TMC3    C610292   2.292   1.833  13.576  1.2975 -0.2778 -0.2502
  696TMC3     C10293   2.654   1.658  13.511  0.0568  0.0881  0.6927
  696TMC3     O10294   2.697   1.647  13.392 -0.1199 -0.1693 -0.2146
  696TMC3     H10295   2.494   1.617  13.719  0.7863 -1.5254 -1.7367
  696TMC3    H110296   2.538   1.833  13.359  0.0118 -0.7709 -0.7312
  696TMC3    H210297   2.194   1.876  13.597  1.0694 -0.5804 -0.6835
  696TMC3    C710298   2.342   2.001  13.427  0.3772  0.4333  0.2844
  696TMC3    C810299   2.339   1.824  13.800  0.3515  0.2340  0.1646
  696TMC3    O110300   2.385   2.036  13.315  0.5473  0.2624  0.6053
  696TMC3    O210301   2.301   1.939  13.788  0.5286  0.1423 -0.7540
  697MPD2     C10302   2.358   3.579  16.237 -0.5578  0.1344 -0.0408
  697MPD2    C110303   2.357   3.542  16.105  0.9936 -0.0679 -0.2515
  697MPD2    C210304   2.359   3.640  16.007  0.1495  0.1441  0.0319
  697MPD2    C310305   2.359   3.769  16.039 -0.6672 -0.2510  0.3795
  697MPD2    C410306   2.350   3.809  16.169  0.4510 -0.2516 -0.2534
  697MPD2    C510307   2.354   3.713  16.261  0.3630 -0.1319  0.9227
  697MPD2     H10308   2.354   3.609  15.903  1.8599  0.4623 -0.1460
  697MPD2    H110309   2.337   3.913  16.195  0.5725 -0.6267  1.3154
  697MPD2    H210310   2.358   3.515  16.325 -0.5519 -0.7212 -0.6641
  697MPD2    H310311   2.339   3.749  16.362 -1.3339  2.5440 -0.2690
  697MPD2     N10312   2.350   3.865  15.934 -0.7196  0.1048 -0.0251
  697MPD2    H510313   2.349   3.837  15.836 -0.7054 -1.2376  0.3642
  697MPD2    N110314   2.345   3.402  16.064 -0.1535  0.2187  0.4080
  697MPD2    H710315   2.343   3.380  15.965 -0.7732  0.5459  0.3501
  698TMC3    C110316   2.372   4.071  15.811  0.3177 -0.1183 -0.7143
  698TMC3    C210317   2.475   4.159  15.807 -0.1131 -0.1267  0.4027
  698TMC3    C310318   2.537   4.182  15.688  0.0382 -0.3950 -0.0899
  698TMC3    C410319   2.333   3.992  15.711 -0.6275 -0.0535  0.2497
  698TMC3    C510320   2.390   4.033  15.592  0.2325 -0.3633 -0.5244
  698TMC3    C610321   2.485   4.131  15.578 -0.3275  0.5548  0.0153
  698TMC3     C10322   2.373   4.000  15.943 -0.8966  0.0270  0.5684
  698TMC3     O10323   2.411   4.066  16.042 -0.7055  0.1461  0.7934
  698TMC3     H10324   2.505   4.219  15.892  0.8105 -0.9117  0.6356
  698TMC3    H110325   2.246   3.928  15.723 -1.2361  0.6870 -0.1471
  698TMC3    H210326   2.523   4.154  15.478  0.1134  1.9982  0.5144
  698TMC3    C710327   2.333   3.976  15.478 -0.8745 -0.9726  0.4273
  698TMC3    C810328   2.681   4.202  15.697 -0.1281  0.2214 -0.6042
  698TMC3    O110329   2.226   3.922  15.480  0.0918  0.7037  0.2625
  698TMC3    O210330   2.734   4.156  15.797 -0.1549  0.3279  0.3054
  699TMC3    C110331   2.845   0.693  13.256  0.2918 -0.3906 -0.2244
  699TMC3    C210332   2.860   0.608  13.363  0.7362 -0.2818 -0.5458
  699TMC3    C310333   2.741   0.548  13.396  0.4839 -0.2551 -0.0115
  699TMC3    C410334   2.731   0.698  13.175 -0.3731 -0.5866 -0.9274
  699TMC3    C510335   2.625   0.616  13.198  0.0712  0.7073  0.3152
  699TMC3    C610336   2.626   0.541  13.314  0.1749  1.0899  0.0709
  699TMC3     C10337   2.911   0.823  13.277 -0.6949  0.7828  0.4542
  699TMC3     O10338   2.927   0.856  13.398  0.0912 -0.2829  0.2044
  699TMC3     H10339   2.952   0.602  13.421  0.9810 -0.1982 -0.9252
  699TMC3    H110340   2.733   0.773  13.096 -2.0813 -2.5354 -2.8215
  699TMC3    H210341   2.533   0.494  13.344 -0.5099  2.2831 -0.1932
  699TMC3    C710342   2.498   0.673  13.158  0.8214  0.4080  0.1365
  699TMC3    C810343   2.708   0.566  13.528 -0.2666 -0.4580 -0.6968
  699TMC3    O110344   2.502   0.796  13.161 -0.0257 -0.0111  0.0902
  699TMC3    O210345   2.599   0.527  13.563  0.0380 -0.0501  0.6044
  700TMC3    C110346   1.107   4.119  17.550  0.6503  0.4519 -0.4247
  700TMC3    C210347   1.226   4.057  17.528  0.6972  0.4102  0.4609
  700TMC3    C310348   1.289   4.001  17.636 -0.2403  0.1368 -0.1819
  700TMC3    C410349   1.066   4.149  17.677  0.0657  0.6670 -0.1401
  700TMC3    C510350   1.155   4.119   0.079 -0.2042 -0.5139  0.0895
  700TMC3    C610351   1.258   4.036   0.067 -0.0710 -0.3673 -0.1860
  700TMC3     C10352   1.057   4.210  17.450  0.1855  0.4939 -0.8264
  700TMC3     O10353   0.935   4.224  17.447 -0.1606 -0.7224  0.3936
  700TMC3     H10354   1.253   4.026  17.428 -0.4437  0.1789  0.2204
  700TMC3    H110355   0.986   4.222  17.684 -0.7365  0.0262 -2.5248
  700TMC3    H210356   1.327   4.026   0.150 -2.6494  0.0218  1.9812
  700TMC3    C710357   1.169   4.207   0.196 -0.0264  0.2347  0.7878
  700TMC3    C810358   1.406   3.916  17.616  0.3443 -0.1631 -0.3336
  700TMC3    O110359   1.284   4.231   0.237 -0.1777  0.2448  0.2587
  700TMC3    O210360   1.475   3.937  17.517  0.3763 -0.0968  0.1619
  701TMC3    C110361   1.458   2.989  15.959 -0.1595  0.1931 -0.3226
  701TMC3    C210362   1.432   2.979  15.827  0.2415 -0.6240  0.0390
  701TMC3    C310363   1.521   3.044  15.748 -0.1869  0.2908 -0.4594
  701TMC3    C410364   1.573   3.033  16.012  0.2914 -0.4481 -0.5582
  701TMC3    C510365   1.668   3.078  15.925  0.4345  0.4170  0.3554
  701TMC3    C610366   1.636   3.093  15.792 -0.0563 -0.3619  0.8418
  701TMC3     C10367   1.351   2.959  16.051  0.3086 -0.2430 -0.1573
  701TMC3     O10368   1.349   3.035  16.146  0.0777 -0.5198  0.3377
  701TMC3     H10369   1.338   2.936  15.793  0.7581 -2.1708  0.5753
  701TMC3    H110370   1.583   3.033  16.120 -1.1696  0.8186 -0.4245
  701TMC3    H210371   1.696   3.156  15.728 -3.2768  0.5682 -1.2443
  701TMC3    C710372   1.791   3.145  15.970  0.1277  1.3954  0.2389
  701TMC3    C810373   1.485   3.066  15.607 -0.1777  0.5491 -0.3621
  701TMC3    O110374   1.878   3.173  15.887  0.1937 -0.2869  0.2035
  701TMC3    O210375   1.560   3.135  15.546 -0.2141  0.0694 -0.2520
  702MPD2     C10376   1.528   4.221  11.084 -0.0326  0.0355 -0.2866
  702MPD2    C110377   1.406   4.288  11.069  1.1366 -0.4402  0.1365
  702MPD2    C210378   1.383   4.364  10.953 -0.3204 -1.3104  0.5560
  702MPD2    C310379   1.481   4.362  10.849  0.1498 -0.3971 -0.7597
  702MPD2    C410380   1.593   4.277  10.865  0.1446 -0.6779  0.1285
  702MPD2    C510381   1.617   4.218  10.980  0.1783 -0.7845 -0.1067
  702MPD2     H10382   1.298   4.431  10.950  0.4769 -0.3391 -0.5197
  702MPD2    H110383   1.661   4.254  10.784  1.3776 -0.5343  1.1292
  702MPD2    H210384   1.559   4.164  11.170  1.8141  0.8195 -0.4459
  702MPD2    H310385   1.710   4.163  10.985  0.8270  0.1642 -1.7016
  702MPD2     N10386   1.481   4.443  10.735 -0.0388 -0.0116  0.0872
  702MPD2    H510387   1.560   4.433  10.671  0.3603  0.5951  0.4840
  702MPD2    N110388   1.312   4.310  11.175 -0.4434 -0.4074 -0.1514
  702MPD2    H710389   1.235   4.375  11.162 -0.4630 -0.3211  0.4245
  703TMC3    C110390   1.406   4.602  10.574  0.5272 -0.8105 -0.8270
  703TMC3    C210391   1.294   4.671  10.528  0.4692 -0.7676 -0.2320
  703TMC3    C310392   1.310   0.015  10.407 -0.1088 -0.3952 -0.7436
  703TMC3    C410393   1.518   4.596  10.497  0.4019 -0.1776 -0.6426
  703TMC3    C510394   1.530   4.678  10.387  0.8108  0.3042 -0.4298
  703TMC3    C610395   1.429   0.024  10.334  0.0541 -0.0843  0.1748
  703TMC3     C10396   1.383   4.531  10.703 -0.1930  0.3135 -0.0554
  703TMC3     O10397   1.278   4.543  10.759 -0.4619  0.8332  0.4051
  703TMC3     H10398   1.200   4.661  10.582 -0.3433  1.1357 -1.2839
  703TMC3    H110399   1.597   4.524  10.514 -0.0997 -0.4188  0.6283
  703TMC3    H210400   1.448   0.093  10.253  0.6857 -0.2404  0.1893
  703TMC3    C710401   1.663   4.719  10.346 -0.0036  0.2655  0.1452
  703TMC3    C810402   1.215   0.113  10.367 -0.5119  0.0296 -0.6684
  703TMC3    O110403   1.756   4.640  10.355 -0.2245  0.0723 -0.1510
  703TMC3    O210404   1.211   0.151  10.249 -0.8343 -0.4887  0.5747
  704TMC3    C110405   3.893   3.428  12.299  0.4255  0.3176  0.3255
  704TMC3    C210406   3.895   3.378  12.170  0.7160 -0.6006  0.3053
  704TMC3    C310407   4.004   3.407  12.096 -0.3305  0.1619 -0.3575
  704TMC3    C410408   4.004   3.495  12.353 -0.6641  0.1680 -0.4943
  704TMC3    C510409   4.119   3.497  12.286  0.9448  0.7190 -0.0808
  704TMC3    C610410   4.109   3.470  12.150 -0.5848 -0.1958 -0.9359
  704TMC3     C10411   3.816   3.357  12.398  0.0771  0.7189 -0.0203
  704TMC3     O10412   3.804   3.419  12.505  0.4033 -0.4760 -0.1400
  704TMC3     H10413   3.806   3.327  12.136  1.2857  0.7453 -3.1353
  704TMC3    H110414   3.992   3.533  12.454 -1.3046 -1.4957  0.0562
  704TMC3    H210415   4.198   3.484  12.089  1.8933 -0.9193  2.5182
  704TMC3    C710416   4.211   3.397  12.334 -0.0055  0.2732 -0.1930
  704TMC3    C810417   4.006   3.400  11.954  0.3107 -0.4074  0.0578
  704TMC3    O110418   4.295   3.354  12.256  0.0323  0.4207 -0.1629
  704TMC3    O210419   4.115   3.366  11.904 -0.1348 -0.4555 -0.7947
  705MPD2     C10420   2.922   1.661  16.815 -0.5590 -0.2267  0.9539
  705MPD2    C110421   2.920   1.774  16.738 -0.5106 -0.0664 -0.3621
  705MPD2    C210422   2.818   1.868  16.769 -0.5442  0.2801  0.5814
  705MPD2    C310423   2.722   1.832  16.855 -0.2860 -0.3912 -0.0522
  705MPD2    C410424   2.714   1.711  16.925 -0.0965  0.3230  0.4864
  705MPD2    C510425   2.815   1.622  16.893 -1.0449 -0.8669  0.7603
  705MPD2     H10426   2.820   1.965  16.720  1.6813 -0.8561 -1.5876
  705MPD2    H110427   2.630   1.688  16.989 -0.8911 -0.9110 -0.9980
  705MPD2    H210428   3.005   1.592  16.807 -2.2508 -1.9852 -1.1733
  705MPD2    H310429   2.828   1.534  16.954 -0.7315 -1.5257 -0.2513
  705MPD2     N10430   2.606   1.916  16.877 -0.3794 -0.1353 -0.7180
  705MPD2    H510431   2.534   1.876  16.936 -0.2778  0.2899 -0.2976
  705MPD2    N110432   3.022   1.803  16.635  0.4245 -0.6082 -0.2263
  705MPD2    H710433   2.998   1.880  16.574  0.7036 -0.4601 -0.1482
  706TMC3    C110434   3.375   1.732  16.341  0.2269  0.7404  0.4011
  706TMC3    C210435   3.348   1.846  16.274 -0.5769 -0.4813 -0.5178
  706TMC3    C310436   3.242   1.926  16.318  0.2079 -0.2348  0.6817
  706TMC3    C410437   3.325   1.703  16.466  0.0668  0.0147  0.4210
  706TMC3    C510438   3.226   1.786  16.511 -0.0305  0.7522  0.7644
  706TMC3    C610439   3.180   1.892  16.441 -0.0247 -0.3565 -0.3704
  706TMC3     C10440   3.484   1.655  16.293  0.0001 -0.5775 -0.1168
  706TMC3     O10441   3.529   1.583  16.382  0.0752  0.5210  0.0302
  706TMC3     H10442   3.378   1.858  16.171 -0.6830  0.2645 -0.4605
  706TMC3    H110443   3.357   1.613  16.518 -0.1622 -0.8799 -0.9731
  706TMC3    H210444   3.115   1.963  16.491  0.5952  1.5905 -2.3226
  706TMC3    C710445   3.142   1.735  16.624 -0.4742 -0.1690 -0.5597
  706TMC3    C810446   3.244   2.057  16.273 -0.6201 -0.1789  0.2686
  706TMC3    O110447   3.188   1.658  16.709  0.2300 -1.0314  0.6254
  706TMC3    O210448   3.242   2.078  16.154 -0.3117 -0.6085 -0.6018
  707TMC3    C110449   4.313   0.872   1.282 -0.9132  0.1815 -0.3531
  707TMC3    C210450   4.290   0.846   1.411  0.0561 -0.0852 -0.2507
  707TMC3    C310451   4.197   0.917   1.485  0.0755 -0.4063 -1.0118
  707TMC3    C410452   4.241   0.962   1.215  0.0385  0.3142  0.4942
  707TMC3    C510453   4.136   1.022   1.284  0.6184  0.4276  0.1683
  707TMC3    C610454   4.116   1.007   1.421 -0.0104  0.4771  0.1985
  707TMC3     C10455   4.446   0.839   1.229 -0.1135 -0.2526  0.8412
  707TMC3     O10456   4.529   0.800   1.310 -0.0924  1.1454 -0.1307
  707TMC3     H10457   4.337   0.760   1.457  3.5765  1.7262 -0.5264
  707TMC3    H110458   4.263   0.971   1.109 -2.4183 -1.0317 -0.1288
  707TMC3    H210459   4.039   1.059   1.477 -0.5026 -2.2324  2.0837
  707TMC3    C710460   4.032   1.073   1.201  0.7294 -1.0376 -0.2714
  707TMC3    C810461   4.254   0.955   1.615 -0.1830  0.5593 -0.3405
  707TMC3    O110462   4.050   1.081   1.084  0.3985 -0.2816 -0.5065
  707TMC3    O210463   4.183   1.005   1.698  0.6845  0.3210  0.0079
  708MPD2     C10464   1.282   0.175  14.511 -0.3124 -0.6543 -0.2588
  708MPD2    C110465   1.280   0.253  14.625 -0.4936 -0.5728 -0.2653
  708MPD2    C210466   1.287   0.191  14.748  0.4338  0.0421 -0.4680
  708MPD2    C310467   1.275   0.050  14.759 -0.3880 -0.8313 -0.3948
  708MPD2    C410468   1.259   4.697  14.645 -0.7919  0.1379 -0.1048
  708MPD2    C510469   1.265   0.036  14.525 -0.0500  0.0219  0.2250
  708MPD2     H10470   1.307   0.248  14.838  2.8540  1.5904 -2.0065
  708MPD2    H110471   1.270   4.589  14.646  0.7239  0.2985  0.6112
  708MPD2    H210472   1.268   0.226  14.417 -0.7556 -0.4255 -0.0679
  708MPD2    H310473   1.258   4.694  14.440 -0.8043 -1.3869  1.4114
  708MPD2     N10474   1.286   0.006  14.889  0.5793 -0.8584 -0.3344
  708MPD2    H510475   1.314   0.074  14.959  0.5619 -0.3509 -0.8284
  708MPD2    N110476   1.262   0.386  14.605 -0.6071 -0.2555  0.3630
  708MPD2    H710477   1.266   0.418  14.509 -0.7539 -1.7993 -0.1510
  709TMC3    C110478   1.164   0.594  14.653  0.1345 -0.4620 -0.0091
  709TMC3    C210479   1.146   0.599  14.517 -1.0852 -0.2230  0.2971
  709TMC3    C310480   1.025   0.618  14.454  0.0702 -0.2875 -0.2383
  709TMC3    C410481   1.055   0.609  14.730 -0.2155 -0.0978  0.2332
  709TMC3    C510482   0.934   0.594  14.665  0.1812  0.3881  0.5177
  709TMC3    C610483   0.911   0.598  14.531  0.1108  0.7157 -0.2760
  709TMC3     C10484   1.245   0.484  14.704  0.0527 -0.2877 -0.2818
  709TMC3     O10485   1.228   0.466  14.825 -0.4894  0.0161  0.0890
  709TMC3     H10486   1.236   0.615  14.459 -1.8785  0.2785 -0.8002
  709TMC3    H110487   1.061   0.621  14.837  2.2356 -0.8199  0.1776
  709TMC3    H210488   0.814   0.568  14.492  0.1921  0.2646 -0.1369
  709TMC3    C710489   0.843   0.494  14.727  0.0568  0.0828 -0.3700
  709TMC3    C810490   1.017   0.574  14.317  0.4914  0.5013 -0.5068
  709TMC3    O110491   0.727   0.498  14.695  0.2682  0.5693 -0.0127
  709TMC3    O210492   0.909   0.537  14.277  0.0688 -0.0240 -0.1076
  710TMC3    C110493   2.369   1.466   0.837 -0.1872  0.2018  0.3468
  710TMC3    C210494   2.412   1.438   0.708  0.2930 -1.1086  0.8311
  710TMC3    C310495   2.517   1.347   0.696 -0.1802  0.4997  0.4910
  710TMC3    C410496   2.429   1.420   0.947 -0.0035 -0.0826 -0.0449
  710TMC3    C510497   2.531   1.332   0.928 -0.4777  0.0120 -0.7091
  710TMC3    C610498   2.575   1.291   0.803 -0.2201  0.2449 -0.2388
  710TMC3     C10499   2.237   1.531   0.856  0.1235  0.3137  0.3452
  710TMC3     O10500   2.166   1.529   0.754  0.3936  0.5094  0.0024
  710TMC3     H10501   2.369   1.486   0.620  0.5446 -0.1878  1.2162
  710TMC3    H110502   2.381   1.436   1.043 -1.6602 -2.1138 -0.5484
  710TMC3    H210503   2.657   1.221   0.796 -2.7761 -3.0746  2.5766
  710TMC3    C710504   2.605   1.291   1.045  0.0271 -0.3471 -0.7610
  710TMC3    C810505   2.592   1.335   0.570  0.0666 -0.5554 -0.0100
  710TMC3    O110506   2.561   1.305   1.162 -0.0855  0.2299 -0.2127
  710TMC3    O210507   2.680   1.246   0.571 -0.8132 -0.5636 -0.3120
  711TMC3    C110508   1.959   2.629  15.248 -0.4041 -0.9975 -0.2161
  711TMC3    C210509   1.948   2.663  15.380  0.3329 -0.3304  0.0046
  711TMC3    C310510   2.052   2.740  15.436  0.2537 -0.0790 -0.5307
  711TMC3    C410511   2.074   2.656  15.183  0.8032  0.8554  0.0884
  711TMC3    C510512   2.180   2.731  15.234  0.2689  0.1178 -0.4913
  711TMC3    C610513   2.156   2.785  15.356 -0.1121 -0.2264  0.4019
  711TMC3     C10514   1.871   2.533  15.188 -0.4076 -0.5861  0.3026
  711TMC3     O10515   1.922   2.443  15.115 -0.0994  0.4443  0.6601
  711TMC3     H10516   1.874   2.621  15.447  2.3039 -3.5479  0.1681
  711TMC3    H110517   2.073   2.627  15.078 -0.0629 -0.0086  0.3274
  711TMC3    H210518   2.228   2.854  15.399 -0.0238 -0.0707  0.0010
  711TMC3    C710519   2.303   2.656  15.238 -0.2818 -0.5451 -0.3333
  711TMC3    C810520   2.084   2.700  15.572 -0.3989 -0.2894 -0.0438
  711TMC3    O110521   2.361   2.655  15.346  0.0175  0.3544 -0.2427
  711TMC3    O210522   2.001   2.642  15.641  0.0743 -0.0542  0.0322
  712MPD2     C10523   3.537   3.552  14.371  0.1280 -0.3620  0.4260
  712MPD2    C110524   3.489   3.554  14.242  0.1566 -0.6181 -0.0789
  712MPD2    C210525   3.506   3.677  14.174  0.0682 -0.1976 -0.1443
  712MPD2    C310526   3.557   3.790  14.232 -1.1326 -0.3026 -0.0448
  712MPD2    C410527   3.615   3.779  14.358  0.3647 -0.7195  0.4831
  712MPD2    C510528   3.600   3.659  14.426  0.5033 -0.3550  0.2378
  712MPD2     H10529   3.474   3.671  14.071  0.2182 -2.6114 -0.0514
  712MPD2    H110530   3.665   3.859  14.411 -1.4296  0.4219  0.4472
  712MPD2    H210531   3.540   3.464  14.435  1.2873 -0.4090  0.3210
  712MPD2    H310532   3.642   3.655  14.526 -0.3469  0.2144  0.6259
  712MPD2     N10533   3.571   3.913  14.165  0.2470 -0.5454  0.9709
  712MPD2    H510534   3.629   3.981  14.214  0.4512  0.3802 -0.5725
  712MPD2    N110535   3.450   3.441  14.169  0.0730 -0.0041 -0.0180
  712MPD2    H710536   3.415   3.459  14.076  1.5119 -0.2840 -0.6052
  713TMC3    C110537   3.552   4.076  13.998  0.5569  0.4617 -0.0489
  713TMC3    C210538   3.678   4.118  14.031  0.2408  0.0239  0.2580
  713TMC3    C310539   3.718   4.246  13.989  0.7801 -0.4076 -0.4890
  713TMC3    C410540   3.471   4.146  13.920  0.1409  0.1161  0.6682
  713TMC3    C510541   3.525   4.253  13.860  0.0154 -0.0464  0.5407
  713TMC3    C610542   3.636   4.318  13.901  0.5884 -0.3075 -0.8195
  713TMC3     C10543   3.508   3.945  14.043 -0.0438  0.1904 -0.5769
  713TMC3     O10544   3.404   3.899  13.995  0.5544 -0.2876  0.0441
  713TMC3     H10545   3.741   4.063  14.100 -1.0454 -0.6447  0.8818
  713TMC3    H110546   3.381   4.092  13.894  0.1690 -0.5977  2.0480
  713TMC3    H210547   3.663   4.414  13.860 -2.4299  0.9817  0.2257
  713TMC3    C710548   3.473   4.295  13.732 -0.1719 -0.1279  0.2763
  713TMC3    C810549   3.860   4.263  13.966 -0.1991  0.1334  0.2717
  713TMC3    O110550   3.550   4.355  13.658  0.1258 -0.3381 -0.5039
  713TMC3    O210551   3.881   4.308  13.852 -0.1243  0.2560  0.3118
  714MPD2     C10552   1.138   2.801   1.856  0.2042  0.0209  0.3282
  714MPD2    C110553   1.105   2.706   1.766  0.0262  0.3878 -0.0552
  714MPD2    C210554   1.034   2.744   1.651  0.0357  0.0467 -0.5138
  714MPD2    C310555   0.975   2.865   1.639  0.4829 -0.2965 -0.3469
  714MPD2    C410556   0.999   2.965   1.738  0.1813  0.3326  0.6285
  714MPD2    C510557   1.078   2.921   1.837  0.2707  0.1320  0.3384
  714MPD2     H10558   1.010   2.668   1.577 -0.6481  0.4049 -0.6586
  714MPD2    H110559   0.956   3.064   1.729 -0.3271  0.1098  0.6222
  714MPD2    H210560   1.203   2.785   1.942 -2.4320  1.1393  2.5044
  714MPD2    H310561   1.108   2.990   1.916 -2.3372  1.1923  0.4261
  714MPD2     N10562   0.886   2.888   1.527  0.1177 -0.3294  0.6687
  714MPD2    H510563   0.873   2.811   1.463  3.0592  0.0013 -0.3397
  714MPD2    N110564   1.152   2.580   1.788  0.3062  0.4643 -0.1715
  714MPD2    H710565   1.223   2.562   1.858  0.3598  0.4429 -0.2316
  715TMC3    C110566   1.188   2.358   1.776  1.3634 -0.0559 -0.4363
  715TMC3    C210567   1.241   2.269   1.684 -0.1660  0.5726 -0.1976
  715TMC3    C310568   1.353   2.199   1.717  0.2151  0.2431  0.1017
  715TMC3    C410569   1.240   2.366   1.902  0.9010 -0.2369  0.0646
  715TMC3    C510570   1.354   2.297   1.932  0.4632  0.5246  0.9968
  715TMC3    C610571   1.403   2.203   1.846  0.3033  0.4006  0.3843
  715TMC3     C10572   1.117   2.466   1.714  0.0047 -0.3782 -0.0557
  715TMC3     O10573   1.016   2.440   1.644 -0.0497  0.1700 -0.1696
  715TMC3     H10574   1.206   2.283   1.583 -1.8435 -0.6156  0.2329
  715TMC3    H110575   1.202   2.437   1.975  1.0426 -1.3852  1.2469
  715TMC3    H210576   1.494   2.153   1.879 -0.0460 -0.3095  0.2817
  715TMC3    C710577   1.451   2.347   2.036  0.0550 -0.5329 -0.4452
  715TMC3    C810578   1.419   2.113   1.623 -0.1112  0.6007  0.5788
  715TMC3    O110579   1.557   2.288   2.049  0.2081  0.5917 -0.6507
  715TMC3    O210580   1.346   2.065   1.537  0.0769 -0.1546  0.3558
  716MPD2     C10581   0.569   4.700   9.767  0.0106 -0.0492 -0.9379
  716MPD2    C110582   0.513   4.694   9.640  0.1620  0.3483 -0.7482
  716MPD2    C210583   0.594   4.642   9.536 -0.2600 -0.1762 -0.4055
  716MPD2    C310584   0.728   4.602   9.558  0.1091 -0.6183 -0.0666
  716MPD2    C410585   0.784   4.634   9.678  0.3024  0.1646  0.8478
  716MPD2    C510586   0.701   4.674   9.783 -0.4898 -0.2639 -0.4613
  716MPD2     H10587   0.553   4.637   9.436  2.0688  1.0457 -1.4309
  716MPD2    H110588   0.887   4.601   9.689 -0.0395 -0.8526  0.9815
  716MPD2    H210589   0.507   4.720   9.854 -0.0357 -0.6670 -0.8298
  716MPD2    H310590   0.746   4.693   9.879 -0.6633 -0.6852 -0.2946
  716MPD2     N10591   0.798   4.547   9.445 -0.0683 -0.0842 -0.4575
  716MPD2    H510592   0.748   4.535   9.357 -0.7158  1.4610 -0.3011
  716MPD2    N110593   0.377   4.721   9.634  0.0421  0.0353  0.2411
  716MPD2    H710594   0.332   0.021   9.721  1.6285 -0.5224  1.2260
  717TMC3    C110595   0.971   4.452   9.311 -0.7632 -0.0267 -0.4690
  717TMC3    C210596   0.881   4.439   9.211  0.2916 -0.6061  0.6172
  717TMC3    C310597   0.895   4.355   9.103  0.4074 -0.7301  0.4969
  717TMC3    C410598   1.082   4.371   9.308  0.6448 -0.5072  0.8696
  717TMC3    C510599   1.090   4.281   9.204  0.5214  0.0643  0.9569
  717TMC3    C610600   1.008   4.276   9.098  0.5048  0.2401 -0.2879
  717TMC3     C10601   0.931   4.524   9.437  0.0177 -0.5175 -0.7332
  717TMC3     O10602   1.018   4.523   9.522 -0.1159 -0.2671  0.1011
  717TMC3     H10603   0.804   4.516   9.204  0.3340 -0.5644  0.6112
  717TMC3    H110604   1.151   4.374   9.392  0.7720  0.3610  0.7363
  717TMC3    H210605   1.034   4.204   9.020  0.9030  0.1402 -0.0631
  717TMC3    C710606   1.166   4.153   9.214 -0.4952  0.4563 -0.4231
  717TMC3    C810607   0.779   4.342   9.017 -0.2206  0.0760  0.0949
  717TMC3    O110608   1.147   4.062   9.135 -0.0980  0.9062 -0.0606
  717TMC3    O210609   0.689   4.414   9.046  0.1702  0.3414  0.0316
  718MPD2     C10610   0.378   4.408  13.157  0.4036  0.6386 -0.0954
  718MPD2    C110611   0.425   4.297  13.088 -0.6606  0.0853  0.5963
  718MPD2    C210612   0.428   4.177  13.165 -0.2408  1.0286 -0.4759
  718MPD2    C310613   0.396   4.177  13.297 -0.1206  0.2170 -0.1395
  718MPD2    C410614   0.365   4.293  13.358  1.2759  0.7066  0.2663
  718MPD2    C510615   0.351   4.406  13.288  1.7303 -0.1624 -0.3790
  718MPD2     H10616   0.449   4.081  13.118 -0.1186  1.3147 -0.9997
  718MPD2    H110617   0.341   4.303  13.464  1.9734  1.6545  0.3347
  718MPD2    H210618   0.362   4.500  13.101  3.5941  0.6446 -1.0163
  718MPD2    H310619   0.340   4.492  13.354  1.7016  0.1088 -0.7395
  718MPD2     N10620   0.397   4.052  13.356  0.2411 -0.2026 -0.2366
  718MPD2    H510621   0.422   3.973  13.296  1.3690 -1.3536  1.7457
  718MPD2    N110622   0.446   4.303  12.952  0.3599 -0.4252  0.4724
  718MPD2    H710623   0.410   4.386  12.908  1.4218 -0.4970 -0.5219
  719TMC3    C110624   0.476   4.209  12.738  0.2959 -0.1337  0.7309
  719TMC3    C210625   0.351   4.179  12.699 -0.1983  0.4017 -0.1087
  719TMC3    C310626   0.335   4.065  12.627  0.0121 -0.1016  0.0433
  719TMC3    C410627   0.590   4.152  12.679 -0.6468 -0.4095  0.1846
  719TMC3    C510628   0.563   4.058  12.583  0.2578  0.4495  0.4439
  719TMC3    C610629   0.438   4.019  12.549 -0.2290  0.0235  0.4747
  719TMC3     C10630   0.504   4.202  12.879  0.3475 -0.3470 -0.1289
  719TMC3     O10631   0.568   4.106  12.920 -0.4470  0.4201  0.0877
  719TMC3     H10632   0.274   4.209  12.769  0.0936  1.8781 -0.4389
  719TMC3    H110633   0.687   4.167  12.726 -0.2929 -0.7653 -0.4361
  719TMC3    H210634   0.436   3.923  12.499 -2.7252  0.3827 -0.1482
  719TMC3    C710635   0.653   3.948  12.598  0.4884  0.2079  0.4731
  719TMC3    C810636   0.278   3.962  12.718 -0.6809  0.1560 -0.0104
  719TMC3    O110637   0.668   3.866  12.507 -0.1206 -0.1969 -0.3628
  719TMC3    O210638   0.259   4.002  12.830  0.0004 -0.0749  0.3376
  720MPD2     C10639   3.243   0.973  14.133  0.0683 -0.6509 -0.8118
  720MPD2    C110640   3.334   0.893  14.063 -0.3452  1.0500  0.5319
  720MPD2    C210641   3.429   0.817  14.137 -0.6366 -0.8792  0.1378
  720MPD2    C310642   3.429   0.834  14.275 -0.0749  0.4715  0.0966
  720MPD2    C410643   3.338   0.915  14.342  0.3576  0.7925  0.0934
  720MPD2    C510644   3.249   0.980  14.266  0.3049 -0.1788 -0.1035
  720MPD2     H10645   3.493   0.747  14.085  0.7505 -1.8814  3.1517
  720MPD2    H110646   3.335   0.923  14.450  0.2433  0.2653  0.1327
  720MPD2    H210647   3.172   1.030  14.074 -0.7002 -0.0966  0.6555
  720MPD2    H310648   3.179   1.051  14.308  0.5788 -0.9868  1.7033
  720MPD2     N10649   3.525   0.755  14.344 -0.1368  0.5444  0.3107
  720MPD2    H510650   3.593   0.707  14.286 -0.7407  0.0488  0.0216
  720MPD2    N110651   3.340   0.884  13.923 -0.0577  0.0889 -0.3988
  720MPD2    H710652   3.408   0.818  13.887 -0.4285  0.2842 -1.4393
  721TMC3    C110653   3.657   0.677  14.515 -0.1687 -0.5870  0.3109
  721TMC3    C210654   3.666   0.650  14.648  0.4008  0.2303 -0.1658
  721TMC3    C310655   3.793   0.654  14.704 -0.1697 -0.2563 -0.1384
  721TMC3    C410656   3.765   0.707  14.431  0.1505 -0.1284  0.1962
  721TMC3    C510657   3.886   0.682  14.488  0.3657  0.2325 -0.7485
  721TMC3    C610658   3.904   0.664  14.622  0.6897  0.1046  0.1713
  721TMC3     C10659   3.532   0.744  14.477 -0.0133 -0.8517 -1.2557
  721TMC3     O10660   3.447   0.755  14.566  0.0269  0.2970  0.2934
  721TMC3     H10661   3.574   0.641  14.704  1.3584  0.4482  1.4111
  721TMC3    H110662   3.765   0.715  14.323 -0.3181 -0.9506  0.1365
  721TMC3    H210663   4.004   0.671  14.664  1.3456 -0.7779 -1.2167
  721TMC3    C710664   4.003   0.693  14.394 -0.4048 -0.5274  0.1783
  721TMC3    C810665   3.819   0.623  14.846 -0.8912  0.5813  0.2337
  721TMC3    O110666   3.993   0.728  14.278 -0.0942 -0.0168 -0.4992
  721TMC3    O210667   3.935   0.622  14.878 -0.2044 -0.0694  0.3967
  722MPD2     C10668   2.404   3.666  13.665  0.0939 -0.5698  0.0707
  722MPD2    C110669   2.345   3.744  13.565 -0.1736  0.0009 -0.3677
  722MPD2    C210670   2.214   3.717  13.525 -0.5661 -0.6487  0.3455
  722MPD2    C310671   2.132   3.628  13.591 -0.2956  0.0822 -0.2186
  722MPD2    C410672   2.193   3.551  13.689  0.0987 -0.1469 -0.2150
  722MPD2    C510673   2.323   3.576  13.723 -0.1574  1.0582  0.1293
  722MPD2     H10674   2.166   3.778  13.448 -1.4961  1.2649  2.4267
  722MPD2    H110675   2.137   3.477  13.745  0.9152 -0.6583 -0.0794
  722MPD2    H210676   2.506   3.661  13.700  0.9757 -2.4799 -2.8236
  722MPD2    H310677   2.375   3.507  13.788  1.8503  2.5711  0.1114
  722MPD2     N10678   1.989   3.621  13.560  0.6612 -0.3833  0.3902
  722MPD2    H510679   1.955   3.686  13.490  1.0922 -2.3983 -1.6582
  722MPD2    N110680   2.400   3.862  13.509 -0.2234 -1.1674 -0.3687
  722MPD2    H710681   2.346   3.911  13.439  0.0304  0.7351  0.7505
  723TMC3    C110682   1.763   3.583  13.578 -0.4618 -0.5468  0.1703
  723TMC3    C210683   1.671   3.481  13.571  0.5095 -0.3804  0.1016
  723TMC3    C310684   1.545   3.506  13.525  0.2330 -0.4835 -0.2615
  723TMC3    C410685   1.732   3.713  13.532  0.2800 -0.7479  0.2449
  723TMC3    C510686   1.604   3.732  13.482 -0.4382 -0.1458 -1.0549
  723TMC3    C610687   1.521   3.627  13.468 -0.5054 -0.5860 -0.9576
  723TMC3     C10688   1.897   3.546  13.623 -0.0090 -0.1785  0.2878
  723TMC3     O10689   1.909   3.446  13.693  0.1798  0.0245  0.2230
  723TMC3     H10690   1.701   3.392  13.624  3.0866  0.1705 -0.4323
  723TMC3    H110691   1.801   3.796  13.537 -0.4511 -0.0943 -0.4659
  723TMC3    H210692   1.419   3.650  13.438 -0.1679  0.2421 -1.4711
  723TMC3    C710693   1.591   3.843  13.382  0.3792 -0.2655  0.6898
  723TMC3    C810694   1.465   3.390  13.495 -0.0811 -0.3095 -0.1044
  723TMC3    O110695   1.536   3.806  13.277  0.1883 -0.2175  0.6340
  723TMC3    O210696   1.349   3.411  13.523 -0.1365 -0.9607 -0.7050
  724TMC3    C110697   3.001   1.621   9.948  0.2008  0.0823  0.0472
  724TMC3    C210698   2.959   1.715   9.858  0.3062  0.1448  0.3695
  724TMC3    C310699   3.053   1.805   9.822 -0.3083 -0.2478  0.4783
  724TMC3    C410700   3.132   1.601   9.992 -0.2881  0.8028 -0.2647
  724TMC3    C510701   3.223   1.694   9.948  0.1221  0.3402  0.2213
  724TMC3    C610702   3.183   1.800   9.866 -0.0261 -0.0143  0.5134
  724TMC3     C10703   2.910   1.514   9.964 -0.1315 -0.0922  0.1755
  724TMC3     O10704   2.918   1.448  10.062 -0.9446 -0.3408  0.4671
  724TMC3     H10705   2.853   1.733   9.849  0.2157  0.1226  1.4381
  724TMC3    H110706   3.164   1.518  10.054 -1.6881  0.0121 -0.6123
  724TMC3    H210707   3.262   1.870   9.839 -2.9905  3.1647 -0.0583
  724TMC3    C710708   3.356   1.689  10.002  0.1455 -0.4187  0.3107
  724TMC3    C810709   3.000   1.912   9.732 -0.5302 -0.0527  0.2569
  724TMC3    O110710   3.404   1.583  10.032  0.3084 -0.2883  0.1968
  724TMC3    O210711   2.888   1.895   9.691  0.4553  1.0737  0.0386
  725TMC3    C110712   4.124   0.955  12.987 -0.3301 -0.4669  0.1055
  725TMC3    C210713   4.063   0.921  12.870  0.0012 -0.1828  0.0018
  725TMC3    C310714   4.080   0.797  12.823 -0.5991 -0.2991 -0.2353
  725TMC3    C410715   4.220   0.871  13.040  0.3831  0.5929 -0.7272
  725TMC3    C510716   4.247   0.750  12.974 -0.3225  0.3063 -0.2231
  725TMC3    C610717   4.172   0.712  12.869  0.5613  0.2921  0.5904
  725TMC3     C10718   4.138   1.100  13.015  0.5588 -0.3885 -0.3809
  725TMC3     O10719   4.191   1.170  12.927  0.1737 -0.7064  0.0126
  725TMC3     H10720   3.994   0.987  12.818 -0.5654  0.5937  1.7600
  725TMC3    H110721   4.277   0.900  13.127  0.0453  0.1739 -0.3702
  725TMC3    H210722   4.201   0.634  12.800 -6.5697 -3.1422  1.4323
  725TMC3    C710723   4.375   0.683  12.987 -0.0389  0.4436  0.2273
  725TMC3    C810724   4.014   0.758  12.699  0.3407  0.1308 -0.5680
  725TMC3    O110725   4.396   0.576  12.926  0.0786  0.1977 -0.1507
  725TMC3    O210726   3.950   0.654  12.689  0.1663 -0.1636 -0.1080
  726MPD2     C10727   2.693   1.948  10.427 -0.7538  0.0737 -0.2127
  726MPD2    C110728   2.582   2.004  10.372 -0.0641 -0.3014  0.0650
  726MPD2    C210729   2.464   1.930  10.379 -0.5585 -0.4697 -0.5475
  726MPD2    C310730   2.456   1.818  10.463 -0.1168 -0.2047  0.3484
  726MPD2    C410731   2.563   1.780  10.532 -0.1217 -0.3182 -0.6145
  726MPD2    C510732   2.684   1.842  10.514 -0.2754  0.0558 -0.5275
  726MPD2     H10733   2.378   1.975  10.330 -0.6412 -2.0994 -1.8856
  726MPD2    H110734   2.560   1.691  10.595  0.3201 -1.6228 -2.4470
  726MPD2    H210735   2.792   1.991  10.425 -1.6186  1.9956 -1.3298
  726MPD2    H310736   2.775   1.802  10.557 -0.9375 -0.9564 -0.0714
  726MPD2     N10737   2.334   1.754  10.486  0.2358  0.1551  0.4592
  726MPD2    H510738   2.326   1.693  10.567  0.3609 -0.4527  0.0115
  726MPD2    N110739   2.583   2.134  10.311 -0.2495  0.2991  1.3445
  726MPD2    H710740   2.494   2.168  10.275 -0.3899 -0.4100  1.0221
  727TMC3    C110741   2.664   2.363  10.277 -0.0766  0.1724 -0.0086
  727TMC3    C210742   2.720   2.466  10.343  0.2366  0.1472 -0.3650
  727TMC3    C310743   2.696   2.593  10.303 -0.5159 -0.7248 -0.7989
  727TMC3    C410744   2.577   2.389  10.174  0.5569 -0.7760 -0.0528
  727TMC3    C510745   2.540   2.516  10.148 -0.2769  0.0624 -0.1578
  727TMC3    C610746   2.610   2.624  10.207  0.3762 -0.0172  0.2339
  727TMC3     C10747   2.685   2.227  10.317 -0.2746  0.2458  0.1987
  727TMC3     O10748   2.784   2.225  10.390  0.0710  0.1654 -0.5174
  727TMC3     H10749   2.794   2.450  10.421  0.9234  0.5385 -0.9341
  727TMC3    H110750   2.538   2.308  10.112  2.0150 -0.6593 -1.1302
  727TMC3    H210751   2.576   2.725  10.190 -1.3134 -0.5845  0.2554
  727TMC3    C710752   2.435   2.547  10.059  0.5693  0.1888 -0.2031
  727TMC3    C810753   2.813   2.678  10.331  0.2936  0.3687  0.1210
  727TMC3    O110754   2.390   2.659  10.063  0.5433 -0.0326  0.3646
  727TMC3    O210755   2.912   2.614  10.352  0.3870 -0.2548 -0.0302
  728TMC3    C110756   1.394   1.277  15.679  0.0719  0.0114 -0.0874
  728TMC3    C210757   1.483   1.366  15.731  0.9009  0.9561  0.3025
  728TMC3    C310758   1.566   1.433  15.643 -0.3445 -0.2858 -0.6229
  728TMC3    C410759   1.402   1.228  15.548  0.4321 -0.5410  0.2829
  728TMC3    C510760   1.485   1.301  15.469 -0.1290  0.3738  0.6726
  728TMC3    C610761   1.566   1.404  15.513 -0.3301 -0.4279  0.1259
  728TMC3     C10762   1.305   1.218  15.780  0.0996  0.5391  0.3494
  728TMC3     O10763   1.332   1.256  15.894 -0.6941  0.1184 -0.1148
  728TMC3     H10764   1.490   1.393  15.836 -3.0087 -0.8886  1.0159
  728TMC3    H110765   1.335   1.151  15.513 -0.6883  0.4305  0.2969
  728TMC3    H210766   1.631   1.457  15.444  0.8508  0.9492  2.2874
  728TMC3    C710767   1.475   1.279  15.317 -0.7083 -0.5848 -0.1023
  728TMC3    C810768   1.637   1.554  15.691  0.7193 -0.6677  0.0962
  728TMC3    O110769   1.414   1.183  15.273  0.6453 -0.7500 -0.6061
  728TMC3    O210770   1.645   1.635  15.597 -0.1640 -0.1659 -0.2344
  729MPD2     C10771   3.192   2.506  17.391 -0.1076 -0.1181  0.1673
  729MPD2    C110772   3.259   2.389  17.376 -0.1353  0.1746 -0.5215
  729MPD2    C210773   3.305   2.336  17.495  0.3143  0.0076  0.3900
  729MPD2    C310774   3.302   2.393  17.622  0.5359  0.7456 -0.5261
  729MPD2    C410775   3.241   2.512  17.630 -0.4753  0.3682 -0.3787
  729MPD2    C510776   3.186   2.568  17.514  0.3018  0.1645 -0.0432
  729MPD2     H10777   3.342   2.234  17.490  0.7668  0.1993 -0.1226
  729MPD2    H110778   3.240   2.578   0.016 -0.0956 -0.6236  0.3963
  729MPD2    H210779   3.147   2.549  17.302 -1.3275  1.1249  1.3735
  729MPD2    H310780   3.142   2.667  17.507 -3.3173 -1.3788  0.9698
  729MPD2     N10781   3.364   2.359   0.040  0.0053  0.0349 -0.2618
  729MPD2    H510782   3.331   2.406   0.124 -1.5145 -0.0138 -0.8475
  729MPD2    N110783   3.274   2.334  17.247  0.1408  0.3575 -0.0433
  729MPD2    H710784   3.223   2.387  17.176 -1.1980  0.5600  1.0655
  730TMC3    C110785   3.536   2.262   0.172 -0.9059  0.4415 -0.3941
  730TMC3    C210786   3.660   2.216   0.139 -0.2812  0.3172  0.3273
  730TMC3    C310787   3.764   2.298   0.178 -1.1218 -0.1652 -0.4599
  730TMC3    C410788   3.522   2.375   0.246  0.0966 -0.2453  1.2522
  730TMC3    C510789   3.625   2.454   0.280 -0.4232  0.5818  0.0499
  730TMC3    C610790   3.751   2.405   0.260 -0.0309 -0.3676 -0.0086
  730TMC3     C10791   3.467   2.270   0.046  0.3559  0.7712 -0.0557
  730TMC3     O10792   3.524   2.215  17.652  0.3365 -0.4901  0.0033
  730TMC3     H10793   3.680   2.124   0.085  0.8761  0.2163  0.9341
  730TMC3    H110794   3.428   2.423   0.269 -0.0305 -0.0469  0.3091
  730TMC3    H210795   3.842   2.457   0.285  0.8686 -1.3388 -1.2532
  730TMC3    C710796   3.603   2.588   0.248  0.2312  0.0169 -0.0519
  730TMC3    C810797   3.855   2.323   0.070  0.1094 -0.1686 -0.0376
  730TMC3    O110798   3.510   2.614   0.175  0.2854 -0.0093  0.1931
  730TMC3    O210799   3.970   2.349   0.100  0.0706 -0.0997  0.3621
  731MPD2     C10800   4.035   0.242  12.401 -0.3565 -0.4717 -0.0671
  731MPD2    C110801   4.173   0.233  12.365 -0.0647 -0.5014 -0.0460
  731MPD2    C210802   4.266   0.243  12.469 -0.5354 -0.1226  0.0541
  731MPD2    C310803   4.223   0.275  12.598 -0.5071 -0.0762 -0.4365
  731MPD2    C410804   4.090   0.288  12.623  0.7789  0.4736  0.4149
  731MPD2    C510805   3.996   0.265  12.527  0.2974  0.6385  0.1779
  731MPD2     H10806   4.370   0.220  12.447 -0.2890 -0.7119  1.7938
  731MPD2    H110807   4.055   0.323  12.719 -1.1328 -0.6115  0.1034
  731MPD2    H210808   3.962   0.226  12.322 -0.4881 -3.5804  0.6816
  731MPD2    H310809   3.893   0.272  12.561  0.6646  0.4392  1.3432
  731MPD2     N10810   4.329   0.284  12.699  0.3268  0.2098  0.2337
  731MPD2    H510811   4.424   0.254  12.678  0.4805 -0.0433  1.2608
  731MPD2    N110812   4.219   0.194  12.236 -0.0749 -0.9441 -0.0531
  731MPD2    H710813   4.159   0.137  12.178 -0.8414  0.1184 -0.2946
  732TMC3    C110814   4.384   0.148  12.065 -0.0704  0.6767 -0.3278
  732TMC3    C210815   4.338   0.023  12.056 -0.0029 -0.1911  0.0774
  732TMC3    C310816   4.381   4.673  11.946  0.2308  0.1520  0.4631
  732TMC3    C410817   4.483   0.198  11.990  0.1376 -0.5132 -0.5152
  732TMC3    C510818   4.533   0.122  11.890  0.0982 -0.7077  0.4246
  732TMC3    C610819   4.484   4.718  11.867 -0.3118 -0.5085  0.2486
  732TMC3     C10820   4.348   0.220  12.184 -0.1582 -0.2424 -0.0579
  732TMC3     O10821   4.444   0.286  12.224 -0.6416 -0.8867 -0.2916
  732TMC3     H10822   4.263   4.713  12.127  0.6975 -0.0049  0.9068
  732TMC3    H110823   4.530   0.295  12.006 -1.4716  0.2794 -0.5325
  732TMC3    H210824   4.536   4.650  11.800  3.3833 -0.4151  3.0301
  732TMC3    C710825   4.678   0.144  11.878 -0.4022  0.9924  0.8064
  732TMC3    C810826   4.317   4.546  11.919 -0.4871 -0.3317 -0.6631
  732TMC3    O110827   0.000   0.117  11.768 -0.3502 -0.2923  0.0354
  732TMC3    O210828   4.367   4.463  11.848  0.7695 -0.1519  0.0733
  733TMC3    C110829   0.225   3.710  13.467  0.7563  0.6886  0.3616
  733TMC3    C210830   0.262   3.828  13.529  0.1396  0.4234  0.1629
  733TMC3    C310831   0.380   3.882  13.497  0.9176 -0.1991  0.3925
  733TMC3    C410832   0.302   3.642  13.372  0.6190  0.4286 -0.3176
  733TMC3    C510833   0.421   3.703  13.333  0.0543  0.1665  0.0110
  733TMC3    C610834   0.459   3.828  13.396  0.7959 -0.0747  0.5077
  733TMC3     C10835   0.092   3.660  13.473  0.8305 -0.4893  0.1897
  733TMC3     O10836   0.041   3.607  13.379 -0.3628 -0.0757  0.1309
  733TMC3     H10837   0.204   3.880  13.604  1.9079  1.2877  0.9286
  733TMC3    H110838   0.257   3.568  13.307 -1.9507  0.8000  1.0301
  733TMC3    H210839   0.553   3.872  13.366  0.1420  0.7935 -0.2570
  733TMC3    C710840   0.415   3.731  13.191  0.5784 -0.4162 -0.5082
  733TMC3    C810841   0.375   4.020  13.488 -0.1153  0.2329 -0.0735
  733TMC3    O110842   0.438   3.846  13.156 -0.3727 -0.1221 -0.1232
  733TMC3    O210843   0.319   4.089  13.570 -0.1596  0.4952 -0.0823
  734MPD2     C10844   1.892   0.476  12.476  0.7474  0.1449  0.1817
  734MPD2    C110845   1.850   0.398  12.364 -0.1412 -0.8816 -0.5337
  734MPD2    C210846   1.846   0.456  12.239 -0.5293 -0.2343 -0.1145
  734MPD2    C310847   1.893   0.580  12.224 -0.6377 -0.0771  0.4423
  734MPD2    C410848   1.943   0.645  12.327  0.2977  0.4938  0.4287
  734MPD2    C510849   1.939   0.599  12.457 -0.3262 -0.2560 -0.6322
  734MPD2     H10850   1.822   0.399  12.150 -0.1204  1.2322 -1.1772
  734MPD2    H110851   1.994   0.739  12.311  1.0431  0.4367  2.5336
  734MPD2    H210852   1.897   0.441  12.578  0.3079 -2.8830 -0.8157
  734MPD2    H310853   1.988   0.656  12.535  0.6976 -1.6777 -0.2462
  734MPD2     N10854   1.897   0.627  12.096  0.3025  0.2338  0.3293
  734MPD2    H510855   1.863   0.567  12.021 -2.1618  1.3912  0.5242
  734MPD2    N110856   1.815   0.262  12.385 -1.0988  0.0016 -0.1652
  734MPD2    H710857   1.831   0.228  12.480 -0.1994 -0.4717 -0.4835
  735TMC3    C110858   1.747   0.045  12.313 -0.1002  0.1489  0.8543
  735TMC3    C210859   1.677   4.709  12.212  0.4382 -0.3732  0.0208
  735TMC3    C310860   1.735   4.605  12.146 -0.9863  1.0080  0.0995
  735TMC3    C410861   1.870   0.007  12.357 -0.2566 -0.5627 -0.0053
  735TMC3    C510862   1.920   4.625  12.289  0.0740  1.0689 -0.0322
  735TMC3    C610863   1.858   4.554  12.191  0.1878  0.5344  0.0218
  735TMC3     C10864   1.740   0.190  12.293 -0.4177 -0.0136  0.0168
  735TMC3     O10865   1.690   0.216  12.185  0.2824  0.0791  0.0594
  735TMC3     H10866   1.580   0.025  12.187  0.6323 -0.9288 -1.6704
  735TMC3    H110867   1.929   0.063  12.429 -1.0212  1.8541 -1.2666
  735TMC3    H210868   1.921   4.493  12.128  0.7925  0.6644  0.5044
  735TMC3    C710869   2.048   4.576  12.336  0.3974 -0.0477  0.4856
  735TMC3    C810870   1.730   4.620  12.004 -0.0794 -0.1003  0.4506
  735TMC3    O110871   2.121   4.655  12.396 -0.8655 -0.9378  0.0548
  735TMC3    O210872   1.751   4.521  11.936 -0.2049 -0.2322  0.4162
  736MPD2     C10873   2.206   4.239  12.331 -0.6295  0.4839  0.2555
  736MPD2    C110874   2.201   4.381  12.319  0.3439  0.0857 -0.5815
  736MPD2    C210875   2.318   4.456  12.319  1.1728  0.7460 -0.3527
  736MPD2    C310876   2.435   4.379  12.346 -0.0803  0.5394 -0.1759
  736MPD2    C410877   2.431   4.242  12.367 -0.6786 -0.1157 -0.0686
  736MPD2    C510878   2.316   4.170  12.357  0.0999 -0.4146 -0.2338
  736MPD2     H10879   2.320   4.563  12.303  2.5299  0.9584  1.3022
  736MPD2    H110880   2.522   4.191  12.396 -0.2464  2.0031  2.2591
  736MPD2    H210881   2.117   4.177  12.335 -1.0265  0.8859 -2.2674
  736MPD2    H310882   2.315   4.063  12.372 -0.0255 -0.3906 -0.0769
  736MPD2     N10883   2.567   4.439  12.338  0.1294 -0.5226  0.2040
  736MPD2    H510884   2.641   4.373  12.319 -1.1071 -1.7930 -0.2018
  736MPD2    N110885   2.078   4.447  12.304 -0.0931 -0.8608  0.4167
  736MPD2    H710886   2.003   4.378  12.305 -1.5524  0.7373  1.3170
  737TMC3    C110887   2.716   4.590  12.236 -0.5146  0.5007  0.0538
  737TMC3    C210888   2.709   4.694  12.142  0.4924  0.7576  0.6937
  737TMC3    C310889   2.803   4.694  12.048  0.1240 -0.7376 -0.2843
  737TMC3    C410890   2.816   4.489  12.229  0.0055  0.0089 -0.1481
  737TMC3    C510891   2.906   4.501  12.137  0.2580 -0.1163  0.3547
  737TMC3    C610892   2.903   4.600  12.039  0.3062  0.2340 -0.1778
  737TMC3     C10893   2.587   4.569  12.305  0.4466  0.7391  0.0356
  737TMC3     O10894   2.510   4.660  12.305 -0.2523 -0.2734  0.2232
  737TMC3     H10895   2.639   0.052  12.149  0.4171  0.7697 -0.2333
  737TMC3    H110896   2.822   4.414  12.308 -1.6913 -0.3420 -0.3559
  737TMC3    H210897   2.965   4.603  11.950 -0.4344  3.7688 -0.5649
  737TMC3    C710898   3.010   4.401  12.133 -0.0813 -0.3489  0.3748
  737TMC3    C810899   2.806   0.096  11.972 -0.2531 -1.3132 -0.0122
  737TMC3    O110900   2.994   4.304  12.204 -0.2336 -0.0495 -0.5454
  737TMC3    O210901   2.768   0.190  12.037 -0.2878  0.0782 -0.5482
  738MPD2     C10902   2.967   4.186  15.630 -0.0830 -0.3381  0.1556
  738MPD2    C110903   2.872   4.255  15.548  0.0940  0.1573  0.2344
  738MPD2    C210904   2.910   4.299  15.423  0.4895  0.0175  0.4832
  738MPD2    C310905   3.043   4.304  15.388 -0.1086  0.2176 -0.7729
  738MPD2    C410906   3.137   4.263  15.480 -0.4340  0.0247  0.3362
  738MPD2    C510907   3.100   4.202  15.598 -0.0001 -0.1497  0.0486
  738MPD2     H10908   2.831   4.333  15.357 -1.0064  1.1199  2.8414
  738MPD2    H110909   3.237   4.286  15.447  0.8006 -1.7809  2.8816
  738MPD2    H210910   2.938   4.135  15.721 -0.6749 -0.4659 -0.1076
  738MPD2    H310911   3.175   4.174  15.670 -0.9831  1.8915  1.8695
  738MPD2     N10912   3.081   4.348  15.258 -0.9510 -0.2064 -0.3425
  738MPD2    H510913   3.179   4.352  15.234 -0.7049  1.8848  1.0363
  738MPD2    N110914   2.733   4.250  15.580 -0.3494 -0.4821  0.6515
  738MPD2    H710915   2.660   4.280  15.516 -0.2694 -0.4240  0.5874
  739TMC3    C110916   3.093   4.465  15.050 -0.2280  1.2619  0.3346
  739TMC3    C210917   3.026   4.523  14.947  0.1439 -0.0672  0.5887
  739TMC3    C310918   3.108   4.591  14.856  0.6572 -0.2014  0.3131
  739TMC3    C410919   3.231   4.456  15.061  0.4214  0.7598 -0.5797
  739TMC3    C510920   3.307   4.511  14.955 -0.5285 -0.0527  0.0086
  739TMC3    C610921   3.244   4.569  14.848 -0.0239  0.0266  0.6717
  739TMC3     C10922   3.007   4.403  15.156 -0.7481 -0.4150 -0.5276
  739TMC3     O10923   2.886   4.414  15.138  0.1198 -0.0300  0.5686
  739TMC3     H10924   2.918   4.533  14.948 -0.0005 -1.4543 -1.6110
  739TMC3    H110925   3.284   4.434  15.153 -0.5820  1.3063  0.1338
  739TMC3    H210926   3.303   4.616  14.770 -0.1399 -1.9608 -0.6257
  739TMC3    C710927   3.450   4.489  14.947  0.5026  0.2204 -0.3664
  739TMC3    C810928   3.029   4.661  14.754  1.2597 -0.5159 -0.3581
  739TMC3    O110929   3.506   4.528  14.844 -0.2113 -0.4124  0.0606
  739TMC3    O210930   2.909   4.638  14.749 -0.2371  0.1857  0.0614
  740TMC3    C110931   3.543   1.223  14.429 -0.0528  0.1650  0.6761
  740TMC3    C210932   3.614   1.174  14.541  1.0696  0.3149  0.1777
  740TMC3    C310933   3.717   1.088  14.521 -0.1316  0.8162  0.1821
  740TMC3    C410934   3.573   1.177  14.302 -0.0508 -0.4492  0.3271
  740TMC3    C510935   3.670   1.083  14.291 -0.1420 -0.4367 -1.0843
  740TMC3    C610936   3.744   1.043  14.397  0.2078 -0.7546  1.4630
  740TMC3     C10937   3.414   1.281  14.455  0.3970  0.0516 -0.1482
  740TMC3     O10938   3.361   1.342  14.364  0.5273 -0.1150  0.3662
  740TMC3     H10939   3.599   1.229  14.634 -0.7167 -1.4906  0.9599
  740TMC3    H110940   3.503   1.196  14.221  1.8340  0.0002 -1.1914
  740TMC3    H210941   3.826   0.974  14.378  1.2375  1.4605 -2.1745
  740TMC3    C710942   3.696   1.017  14.170 -0.0317 -0.7362 -0.0605
  740TMC3    C810943   3.808   1.046  14.625  0.3359 -0.2650  0.6035
  740TMC3    O110944   3.761   0.910  14.171  0.5430  0.3891 -0.1055
  740TMC3    O210945   3.912   1.007  14.582 -0.2031  0.6048 -0.3114
  741TMC3    C110946   2.951   0.421  14.854  0.6849  0.6794 -0.2214
  741TMC3    C210947   2.836   0.364  14.803 -1.0153  0.0682 -0.0267
  741TMC3    C310948   2.801   0.245  14.849 -0.2289  0.0829  0.0162
  741TMC3    C410949   3.036   0.344  14.932 -0.0061 -0.0142 -0.1365
  741TMC3    C510950   2.994   0.223  14.970  0.1901 -0.1084  0.5448
  741TMC3    C610951   2.872   0.171  14.937  0.6307  0.1683  0.4096
  741TMC3     C10952   2.989   0.556  14.825 -0.3227 -0.6435  0.1749
  741TMC3     O10953   3.088   0.594  14.888  0.6212  0.0792  0.0022
  741TMC3     H10954   2.766   0.423  14.744  0.0052 -0.0312 -1.3419
  741TMC3    H110955   3.134   0.385  14.956  0.0135 -1.6642  2.5759
  741TMC3    H210956   2.832   0.082  14.982  1.3438  0.1747  1.0592
  741TMC3    C710957   3.066   0.151  15.071  0.4858 -0.2993 -0.8602
  741TMC3    C810958   2.677   0.193  14.799  0.5795  0.3365 -0.0659
  741TMC3    O110959   3.003   0.082  15.149  0.4810  0.6439  0.0644
  741TMC3    O210960   2.602   0.275  14.744  0.1688 -0.3790  0.5879
  742TMC3    C110961   3.133   3.424  15.674  0.0682  0.2143  0.3275
  742TMC3    C210962   3.037   3.394  15.579  0.0521 -0.9359  0.5985
  742TMC3    C310963   3.051   3.270  15.529  0.1439 -0.1246 -0.4428
  742TMC3    C410964   3.214   3.324  15.732 -0.0277 -0.0130 -0.6324
  742TMC3    C510965   3.210   3.200  15.674  0.1785  0.7721 -0.4595
  742TMC3    C610966   3.137   3.175  15.564 -0.3801  0.3841  0.3278
  742TMC3     C10967   3.132   3.558  15.724 -0.2110  0.2984 -0.7019
  742TMC3     O10968   3.063   3.636  15.657  0.3421 -0.6458  0.2667
  742TMC3     H10969   2.979   3.474  15.534  2.1638  1.0686  1.4350
  742TMC3    H110970   3.294   3.357  15.797 -0.4701  1.2111 -0.6930
  742TMC3    H210971   3.134   3.074  15.526  0.5548 -0.1277  1.5907
  742TMC3    C710972   3.322   3.111  15.702  0.6912  0.5439  0.0349
  742TMC3    C810973   2.957   3.227  15.416 -0.3689  0.9248 -0.1730
  742TMC3    O110974   3.363   3.050  15.604 -0.0525  0.0638 -0.2928
  742TMC3    O210975   2.981   3.122  15.360  0.4166 -0.5720 -0.4556
  743MPD2     C10976   0.575   1.225   2.031 -0.6847  0.0818  0.2135
  743MPD2    C110977   0.641   1.109   2.001 -0.1905 -0.1645 -0.2485
  743MPD2    C210978   0.773   1.091   2.046  0.2757 -0.7385  0.5975
  743MPD2    C310979   0.839   1.182   2.116 -0.3885  0.7241 -0.3622
  743MPD2    C410980   0.771   1.297   2.156  0.1112  0.3143 -0.0860
  743MPD2    C510981   0.636   1.314   2.113  0.3984  1.1546  0.1207
  743MPD2     H10982   0.825   1.000   2.016  0.0173 -0.8052  0.3534
  743MPD2    H110983   0.814   1.374   2.218  1.9806 -1.4975  0.8692
  743MPD2    H210984   0.475   1.252   1.997 -0.1355  0.9521 -0.7102
  743MPD2    H310985   0.586   1.407   2.140 -0.1208  1.5026 -2.0097
  743MPD2     N10986   0.974   1.164   2.151 -0.0050 -0.4546 -0.6518
  743MPD2    H510987   1.010   1.072   2.127  0.8438 -0.9030  2.4116
  743MPD2    N110988   0.567   1.019   1.926 -0.1128 -0.4440  0.0328
  743MPD2    H710989   0.491   1.060   1.873  0.5836  1.3539  0.4406
  744TMC3    C110990   0.522   0.818   1.800 -0.1661  0.2858  0.1683
  744TMC3    C210991   0.386   0.850   1.802 -0.2029  0.3890  0.4537
  744TMC3    C310992   0.308   0.801   1.694  0.6743 -0.4579  0.1270
  744TMC3    C410993   0.582   0.732   1.715 -0.7248  0.4660  0.1652
  744TMC3    C510994   0.504   0.688   1.611 -0.0395  0.0045 -0.1718
  744TMC3    C610995   0.370   0.721   1.600 -0.3140  0.4237 -0.3665
  744TMC3     C10996   0.601   0.884   1.898  0.3757 -0.4829  0.4509
  744TMC3     O10997   0.708   0.824   1.923  0.2684  0.4324 -0.0659
  744TMC3     H10998   0.338   0.916   1.873  1.8233  2.4895 -0.1263
  744TMC3    H110999   0.689   0.717   1.714 -0.7881 -0.0871  1.6343
  744TMC3    H211000   0.308   0.687   1.518  0.6098  2.0726 -1.7579
  744TMC3    C711001   0.568   0.606   1.517 -0.4946  0.2788 -0.1130
  744TMC3    C811002   0.164   0.795   1.696 -0.1332  0.3712  0.3447
  744TMC3    O111003   0.685   0.628   1.495 -0.2448  0.2208 -0.2571
  744TMC3    O211004   0.114   0.775   1.588 -0.1205 -0.1922  0.0323
  745TMC3    C111005   3.349   3.239  14.136 -0.2310  0.0967  0.9540
  745TMC3    C211006   3.222   3.221  14.189 -0.4642 -0.2112 -0.5468
  745TMC3    C311007   3.113   3.218  14.102 -0.3856  0.3082 -0.1134
  745TMC3    C411008   3.379   3.245  14.000 -0.1560 -0.2106 -0.1356
  745TMC3    C511009   3.272   3.218  13.915 -0.2444  0.4187  0.8213
  745TMC3    C611010   3.143   3.222  13.962  0.1099 -1.0282  0.4533
  745TMC3     C11011   3.437   3.314  14.223  0.3823  0.4285 -0.9210
  745TMC3     O11012   3.442   3.279  14.342  0.8786 -0.0397 -0.0115
  745TMC3     H11013   3.209   3.221  14.297 -0.4262 -0.2961 -0.5416
  745TMC3    H111014   3.485   3.241  13.976 -0.2344 -0.6884 -0.4023
  745TMC3    H211015   3.060   3.221  13.893  1.5535  0.8209 -1.3193
  745TMC3    C711016   3.299   3.172  13.774 -0.2782  0.3305 -0.2225
  745TMC3    C811017   2.974   3.252  14.141 -0.7731  0.2766 -0.3771
  745TMC3    O111018   3.210   3.104  13.723  0.1957  0.4506  0.1413
  745TMC3    O211019   2.899   3.292  14.057 -0.0354 -0.0305 -0.5186
  746TMC3    C111020   1.147   4.484  11.494 -0.5902 -0.5050 -0.7599
  746TMC3    C211021   1.231   4.428  11.407  0.4114  0.0308  0.5171
  746TMC3    C311022   1.213   4.296  11.387 -0.3990 -0.3822 -0.1614
  746TMC3    C411023   1.038   4.428  11.546 -0.3403 -0.2419  0.0822
  746TMC3    C511024   1.018   4.297  11.510 -0.5902  0.1020  0.0122
  746TMC3    C611025   1.118   4.228  11.452  0.1543  0.5382  0.3762
  746TMC3     C11026   1.123   4.625  11.477  0.1151  0.1912  0.6645
  746TMC3     O11027   1.017   4.673  11.516  0.1093  0.8930  0.0890
  746TMC3     H11028   1.307   4.478  11.349 -0.3082  1.6682  0.9776
  746TMC3    H111029   0.967   4.489  11.601  1.9674  1.3826  1.2097
  746TMC3    H211030   1.102   4.134  11.402  0.8209  0.7768 -0.2948
  746TMC3    C711031   0.895   4.238  11.512  0.7762  0.1877  1.0954
  746TMC3    C811032   1.304   4.239  11.289 -0.4756  0.3359 -0.4889
  746TMC3    O111033   0.896   4.112  11.507 -0.2036  0.2172  0.9093
  746TMC3    O211034   1.369   4.140  11.325 -0.2857  0.1103  0.5394
  747TMC3    C111035   3.775   4.395  11.442  0.3657  0.1827 -0.4564
  747TMC3    C211036   3.720   4.320  11.536  0.5664  0.3368 -0.0404
  747TMC3    C311037   3.714   4.371  11.662 -0.2200  0.6140  0.2813
  747TMC3    C411038   3.844   4.513  11.466  0.2722  0.2099 -0.1256
  747TMC3    C511039   3.832   4.557  11.602  0.8260  0.5453  0.1123
  747TMC3    C611040   3.766   4.489  11.700 -0.0668 -0.6297 -0.0623
  747TMC3     C11041   3.778   4.339  11.310  0.1097  0.0197  0.1661
  747TMC3     O11042   3.760   4.221  11.294 -0.2299 -0.0829 -0.3871
  747TMC3     H11043   3.677   4.224  11.510 -0.4047 -0.1470  3.2475
  747TMC3    H111044   3.888   4.571  11.386 -0.1116  0.8004  0.0891
  747TMC3    H211045   3.756   4.541  11.795 -1.9033 -1.7186  0.3290
  747TMC3    C711046   3.939   4.649  11.647  0.2682  0.6743 -0.1078
  747TMC3    C811047   3.633   4.293  11.756  0.4033  0.6834  0.0112
  747TMC3    O111048   3.917   0.004  11.732  0.1306  0.6398  0.0911
  747TMC3    O211049   3.645   4.172  11.752  0.1684  0.8630  0.1072
  748MPD2     C11050   4.152   1.783   0.996 -0.5322  0.5459 -0.1341
  748MPD2    C111051   4.196   1.775   1.129 -0.4327 -0.0582  0.4805
  748MPD2    C211052   4.298   1.851   1.164  0.1711  0.9081  0.7702
  748MPD2    C311053   4.366   1.921   1.064  0.2187 -0.3933 -0.1440
  748MPD2    C411054   4.327   1.934   0.935  0.1347  0.0500  0.2657
  748MPD2    C511055   4.213   1.863   0.903 -0.2680 -0.0326 -0.3724
  748MPD2     H11056   4.332   1.869   1.265  0.9533  0.7427  0.5361
  748MPD2    H111057   4.390   1.994   0.870 -0.3761  1.8153  1.3790
  748MPD2    H211058   4.071   1.719   0.965  1.5330 -1.7793 -0.7248
  748MPD2    H311059   4.158   1.865   0.810 -0.4274  0.8969 -0.2566
  748MPD2     N11060   4.489   1.974   1.104  0.1060 -0.4103 -0.4127
  748MPD2    H511061   4.519   1.966   1.201 -1.8435  0.3214  0.2405
  748MPD2    N111062   4.146   1.672   1.215 -0.4187  0.1348  0.5990
  748MPD2    H711063   4.169   1.673   1.314  0.8769  1.7048  0.2870
  749TMC3    C111064   4.713   2.026   1.103 -0.0241  0.0857 -0.4454
  749TMC3    C211065   0.007   1.939   1.204 -0.9280  0.0466  0.2595
  749TMC3    C311066   0.135   1.929   1.259 -0.0550 -0.1307  0.4365
  749TMC3    C411067   0.090   2.094   1.054 -0.0281  0.1681 -0.4952
  749TMC3    C511068   0.216   2.079   1.101 -0.0389  0.1260 -0.0355
  749TMC3    C611069   0.244   1.991   1.198 -0.1108  0.2126 -0.5536
  749TMC3     C11070   4.587   2.038   1.032 -0.6322  1.1971  0.3361
  749TMC3     O11071   4.582   2.087   0.923 -0.3118  0.2547  0.2521
  749TMC3     H11072   4.652   1.882   1.251 -1.0905  0.1056  0.0519
  749TMC3    H111073   0.074   2.171   0.979  0.3270 -0.0516 -0.7934
  749TMC3    H211074   0.343   1.988   1.243 -0.8838 -1.0008  1.0753
  749TMC3    C711075   0.324   2.130   1.022  0.1820 -0.7233 -0.5354
  749TMC3    C811076   0.145   1.824   1.361  0.0144  0.2532  0.0146
  749TMC3    O111077   0.304   2.235   0.966 -0.0218  0.1791 -0.4829
  749TMC3    O211078   0.039   1.773   1.404  0.2851 -0.3755  0.2876
  750MPD2     C11079   1.677   1.905  11.325 -0.0225  0.5689  0.3908
  750MPD2    C111080   1.547   1.874  11.355 -0.1447  0.0887 -0.4024
  750MPD2    C211081   1.498   1.746  11.320 -0.2465 -0.1645  0.0445
  750MPD2    C311082   1.576   1.654  11.258 -0.0148  0.0488 -0.1215
  750MPD2    C411083   1.698   1.698  11.206 -0.8327 -0.7451  0.1085
  750MPD2    C511084   1.746   1.813  11.241 -1.1117 -1.1788 -0.1218
  750MPD2     H11085   1.398   1.718  11.349 -0.4504 -0.0664 -0.5663
  750MPD2    H111086   1.759   1.633  11.144 -1.0956 -0.0340 -0.9073
  750MPD2    H211087   1.728   1.993  11.361 -0.0571  0.1771  1.3943
  750MPD2    H311088   1.838   1.849  11.195 -1.3613 -0.3684  0.0013
  750MPD2     N11089   1.531   1.515  11.240  0.3955 -0.0238  0.2649
  750MPD2    H511090   1.589   1.453  11.184  0.5380 -0.7709  1.2386
  750MPD2    N111091   1.466   1.974  11.420 -0.6718 -0.0512 -0.6534
  750MPD2    H711092   1.514   2.061  11.440 -2.4395  0.1789  2.6403
  751TMC3    C111093   1.413   1.315  11.233  0.6088 -0.1078  0.0944
  751TMC3    C211094   1.290   1.256  11.242  0.4564 -0.1496  0.2574
  751TMC3    C311095   1.280   1.127  11.202  0.8826  0.8009 -0.4130
  751TMC3    C411096   1.521   1.250  11.179  0.5612 -0.6580  0.5131
  751TMC3    C511097   1.509   1.117  11.143 -0.0576  0.0265 -0.0104
  751TMC3    C611098   1.386   1.061  11.154 -0.0458 -0.4059 -0.1223
  751TMC3     C11099   1.418   1.453  11.279  0.0368 -1.3281  0.1120
  751TMC3     O11100   1.325   1.495  11.342  0.5339  0.1162 -0.8299
  751TMC3     H11101   1.210   1.307  11.294  0.3585 -1.0898  1.0385
  751TMC3    H111102   1.622   1.290  11.177 -0.1883  1.2244 -0.2710
  751TMC3    H211103   1.364   0.961  11.117  1.0651 -0.1821 -1.4134
  751TMC3    C711104   1.606   1.055  11.052  0.6701  0.4071  0.1323
  751TMC3    C811105   1.155   1.048  11.214 -0.5959  0.0714 -0.6576
  751TMC3    O111106   1.572   0.953  10.991  0.1469 -0.2441  0.4087
  751TMC3    O211107   1.155   0.939  11.159  0.1080  0.4528  0.1379
  752TMC3    C111108   3.926   1.904   0.017 -0.5508 -0.4376  0.3898
  752TMC3    C211109   3.826   1.809   0.016 -0.3556 -0.7155 -0.4448
  752TMC3    C311110   3.805   1.735   0.130 -0.4434 -0.1532  0.3588
  752TMC3    C411111   3.994   1.933   0.131 -0.1334 -0.4631 -0.1541
  752TMC3    C511112   3.964   1.865   0.250  0.5650  0.2497  0.2576
  752TMC3    C611113   3.874   1.764   0.244  0.4279 -0.2369  0.5453
  752TMC3     C11114   3.974   1.956  17.591 -0.9676 -0.4332 -0.1256
  752TMC3     O11115   4.087   1.992  17.584 -0.3036 -0.6561  0.1638
  752TMC3     H11116   3.774   1.787  17.622  3.1027  0.1980 -2.5971
  752TMC3    H111117   4.081   1.997   0.121 -1.7661  1.8017  0.3416
  752TMC3    H211118   3.854   1.703   0.331 -1.2132 -0.7432 -0.1693
  752TMC3    C711119   4.018   1.915   0.373  0.2503 -0.5859  0.0859
  752TMC3    C811120   3.715   1.627   0.113 -0.5259 -0.9207  0.7125
  752TMC3    O111121   4.101   2.002   0.351 -0.4878  0.0818 -0.2533
  752TMC3    O211122   3.645   1.614   0.020  0.6762 -0.0088 -0.1819
  753TMC3    C111123   1.468   3.258  13.905  0.3484 -0.4071 -0.7224
  753TMC3    C211124   1.572   3.250  13.984  0.1537 -0.0437  0.2328
  753TMC3    C311125   1.627   3.129  14.001 -0.1982  0.0407  0.8113
  753TMC3    C411126   1.416   3.152  13.831 -0.2318  0.0897 -0.5759
  753TMC3    C511127   1.473   3.029  13.857 -0.2033 -0.9662 -0.0635
  753TMC3    C611128   1.578   3.014  13.941 -0.5851  0.0211  0.2997
  753TMC3     C11129   1.418   3.386  13.865  0.0075 -0.3243  0.5149
  753TMC3     O11130   1.500   3.475  13.836 -0.2948 -0.5522  0.0516
  753TMC3     H11131   1.605   3.343  14.029 -1.9278  0.5454  0.5536
  753TMC3    H111132   1.335   3.165  13.759 -2.0100  0.3868  1.4582
  753TMC3    H211133   1.618   2.918  13.974 -0.2722  0.3384  0.8480
  753TMC3    C711134   1.407   2.911  13.798  0.2476 -0.0686  0.3160
  753TMC3    C811135   1.748   3.113  14.083  0.2550  0.4730  0.7986
  753TMC3    O111136   1.290   2.916  13.768  0.0821  0.2003 -0.3100
  753TMC3    O211137   1.817   3.017  14.079 -0.2492 -0.0906  0.6071
  754MPD2     C11138   0.033   2.160  12.969 -0.6534  0.7093 -0.6152
  754MPD2    C111139   4.690   2.039  12.986 -0.6928 -0.6374  0.3612
  754MPD2    C211140   4.629   1.986  12.878  0.0240 -0.5989  0.4018
  754MPD2    C311141   4.614   2.057  12.758  0.5529  0.4728  0.0929
  754MPD2    C411142   4.677   2.182  12.744 -0.3150  0.2283 -1.0696
  754MPD2    C511143   0.033   2.223  12.847 -0.1366  0.0810 -0.2845
  754MPD2     H11144   4.590   1.886  12.887 -2.7618  0.4377 -0.0969
  754MPD2    H111145   4.676   2.242  12.653 -1.9718 -0.1236 -1.2975
  754MPD2    H211146   0.088   2.205  13.051  1.4762  0.2449 -1.7999
  754MPD2    H311147   0.088   2.314  12.825 -0.3230 -0.0663 -1.3865
  754MPD2     N11148   4.541   2.004  12.644 -0.1685 -0.1280 -0.2398
  754MPD2    H511149   4.581   2.030  12.554 -2.7707 -2.2822 -2.0100
  754MPD2    N111150   4.695   1.985  13.113 -0.0541 -0.0470 -0.4564
  754MPD2    H711151   0.004   2.047  13.186  0.7343 -2.2420  1.0446
  755MPD2     C11152   4.565   2.485  13.266 -0.3468  0.5118 -0.1062
  755MPD2    C111153   4.484   2.402  13.330 -0.7589 -0.6963  0.1012
  755MPD2    C211154   4.421   2.307  13.247 -0.3244  0.0526 -0.2225
  755MPD2    C311155   4.439   2.297  13.113 -0.1058  0.0607  0.0222
  755MPD2    C411156   4.525   2.392  13.056  0.6326  0.2046  0.1539
  755MPD2    C511157   4.586   2.484  13.133 -0.2094 -0.2006 -0.5897
  755MPD2     H11158   4.357   2.240  13.303 -1.2570  0.3019 -0.9947
  755MPD2    H111159   4.539   2.401  12.949  1.4787  1.0134  0.3287
  755MPD2    H211160   4.598   2.578  13.310  0.2287  0.1106  0.3086
  755MPD2    H311161   4.653   2.557  13.088 -1.3386  1.0203 -0.2916
  755MPD2     N11162   4.382   2.204  13.027 -0.0835  0.3323  1.0290
  755MPD2    H511163   4.423   2.197  12.934 -0.7716 -1.5742  0.8558
  755MPD2    N111164   4.441   2.421  13.464  0.6353 -0.2583 -0.1954
  755MPD2    H711165   4.366   2.361  13.498  0.6796 -0.0531  0.2480
  756MPD2     C11166   1.242   2.500   9.748 -0.1134  0.3384  0.2350
  756MPD2    C111167   1.176   2.396   9.791 -0.5382 -0.0573  0.8862
  756MPD2    C211168   1.059   2.353   9.724  0.4831 -0.1476 -0.1558
  756MPD2    C311169   1.014   2.414   9.604  0.1372 -0.3783  0.1215
  756MPD2    C411170   1.096   2.512   9.549  0.4496  0.8112 -0.0199
  756MPD2    C511171   1.206   2.553   9.623  0.7071 -0.1182 -0.1435
  756MPD2     H11172   0.994   2.280   9.772  2.4290 -0.6257  1.7157
  756MPD2    H111173   1.065   2.558   9.456  0.3067 -1.7904 -1.2527
  756MPD2    H211174   1.327   2.539   9.801  0.1089 -1.3945  1.1634
  756MPD2    H311175   1.255   2.637   9.575  2.8712 -1.4156 -0.1907
  756MPD2     N11176   0.904   2.372   9.522 -0.2526  0.2207 -1.0050
  756MPD2    H511177   0.886   2.420   9.435  0.7799  1.7097 -0.3954
  756MPD2    N111178   1.221   2.310   9.895 -0.3173 -0.2860  0.3657
  756MPD2    H711179   1.160   2.242   9.939 -3.4808  1.7264 -0.9073
  757MPD2     C11180   0.072   1.861   9.806 -0.1313 -0.3764  0.3713
  757MPD2    C111181   0.207   1.844   9.836  0.2441  0.2943 -0.5192
  757MPD2    C211182   0.295   1.915   9.758  0.4896 -0.0063  0.8436
  757MPD2    C311183   0.259   2.011   9.659 -1.1524  0.0643 -0.3473
  757MPD2    C411184   0.123   2.036   9.645 -0.5742 -0.1702  0.1685
  757MPD2    C511185   0.033   1.955   9.711  0.3124  0.1777  0.6995
  757MPD2     H11186   0.403   1.903   9.761  0.4583  0.1980  2.4454
  757MPD2    H111187   0.082   2.112   9.580  0.2662  0.6479  0.5880
  757MPD2    H211188   0.003   1.803   9.867 -1.1271  0.6354  0.2042
  757MPD2    H311189   4.651   1.964   9.689  0.4018 -0.6377 -0.0673
  757MPD2     N11190   0.370   2.073   9.586 -0.0558 -0.1633  0.4602
  757MPD2    H511191   0.461   2.037   9.611 -0.3041 -1.5675 -0.7139
  757MPD2    N111192   0.262   1.746   9.924 -0.1401  0.7357  0.0231
  757MPD2    H711193   0.188   1.703   9.979  0.9843 -2.0742 -0.6453
  758MPD2     C11194   0.404   1.309  15.881  0.5636  0.2310 -0.1662
  758MPD2    C111195   0.513   1.332  15.965  0.5068  1.0502 -0.6626
  758MPD2    C211196   0.492   1.330  16.102 -0.7800  0.1528 -0.5974
  758MPD2    C311197   0.368   1.289  16.155  0.1424  0.5800  0.6254
  758MPD2    C411198   0.265   1.267  16.066  0.1632 -1.2864  0.4241
  758MPD2    C511199   0.280   1.273  15.928 -0.4727 -0.1218  0.4285
  758MPD2     H11200   0.560   1.372  16.175 -0.2196 -2.7349  0.5441
  758MPD2    H111201   0.167   1.243  16.106 -0.6575  1.5121  0.0490
  758MPD2    H211202   0.404   1.323  15.773 -2.6310  1.1817 -0.0549
  758MPD2    H311203   0.197   1.257  15.860 -1.6435 -0.3170  1.9168
  758MPD2     N11204   0.342   1.298  16.291  0.1936 -0.1455 -0.2918
  758MPD2    H511205   0.245   1.289  16.321  0.3012  1.5720  0.6171
  758MPD2    N111206   0.629   1.392  15.910 -0.7863 -0.0694 -0.5133
  758MPD2    H711207   0.641   1.423  15.814 -0.0308 -0.5552 -0.5722
  759MPD2     C11208   4.403   3.768  10.389  0.5580  0.2277  0.6696
  759MPD2    C111209   4.410   3.899  10.434 -0.0574  0.4203 -0.5580
  759MPD2    C211210   4.386   3.998  10.341  0.1105  0.3773 -0.3854
  759MPD2    C311211   4.320   3.981  10.222  0.4120 -0.3993 -0.0494
  759MPD2    C411212   4.302   3.854  10.191  0.3329  0.9836  0.2371
  759MPD2    C511213   4.345   3.749  10.268 -0.0454  0.1765 -0.3699
  759MPD2     H11214   4.411   4.095  10.383  0.8861  0.4522 -1.0303
  759MPD2    H111215   4.249   3.827  10.100  0.3721  2.3555 -0.1886
  759MPD2    H211216   4.419   3.679  10.449  2.2373 -0.3990 -0.6992
  759MPD2    H311217   4.325   3.648  10.235 -2.0190  0.7162 -0.8437
  759MPD2     N11218   4.285   4.092  10.140 -0.3225  0.5912  0.6830
  759MPD2    H511219   4.308   4.181  10.184 -0.2961  0.4170  1.0222
  759MPD2    N111220   4.472   3.931  10.561  0.2830  0.3128  0.2939
  759MPD2    H711221   4.506   4.026  10.555 -1.2739  0.7629 -1.5829
  760MPD2     C11222   4.222   1.720  12.032 -0.3628 -0.1461  0.2950
  760MPD2    C111223   4.347   1.699  11.977  0.4361  0.2330 -0.4281
  760MPD2    C211224   4.403   1.575  11.984 -0.2910  0.4539  0.3451
  760MPD2    C311225   4.336   1.472  12.050 -0.0771  0.3902  0.0739
  760MPD2    C411226   4.218   1.496  12.111  0.2752  0.7397  0.1682
  760MPD2    C511227   4.152   1.615  12.088 -0.8613 -0.3024  0.0326
  760MPD2     H11228   4.497   1.565  11.930 -0.1896  0.1178  0.5830
  760MPD2    H111229   4.174   1.412  12.163 -0.5253 -0.1435 -1.9447
  760MPD2    H211230   4.172   1.816  12.038  0.7062  0.4302  0.1434
  760MPD2    H311231   4.050   1.630  12.122 -0.2455  0.1597  1.6992
  760MPD2     N11232   4.394   1.343  12.064  0.1711 -0.2242  0.4048
  760MPD2    H511233   4.356   1.285  12.139 -2.0387 -3.0843 -2.8898
  760MPD2    N111234   4.422   1.795  11.906  0.0515  0.6324  0.3548
  760MPD2    H711235   4.522   1.781  11.900 -0.1719  0.6229 -3.3388
  761MPD2     C11236   0.690   0.947  11.386 -0.9687  0.4763  0.0743
  761MPD2    C111237   0.764   0.880  11.288 -0.2596  0.0368 -0.1470
  761MPD2    C211238   0.890   0.926  11.257  0.1854 -0.7756 -0.0455
  761MPD2    C311239   0.931   1.049  11.312 -0.1398 -0.0697  0.1603
  761MPD2    C411240   0.853   1.108  11.407  0.2144  0.7457  0.2427
  761MPD2    C511241   0.732   1.059  11.445 -0.1275 -0.5078  0.3290
  761MPD2     H11242   0.949   0.882  11.178  0.4033 -0.0672 -0.2789
  761MPD2    H111243   0.892   1.191  11.465  0.7566  0.1868  0.6783
  761MPD2    H211244   0.600   0.899  11.423 -0.5559 -0.3079  0.0709
  761MPD2    H311245   0.688   1.102  11.534  2.7173 -1.6961  2.3199
  761MPD2     N11246   1.056   1.111  11.284 -0.2563 -0.4481  0.3386
  761MPD2    H511247   1.067   1.204  11.323 -0.0336 -0.5400  0.4979
  761MPD2    N111248   0.704   0.757  11.230 -0.1677  0.5189 -0.3785
  761MPD2    H711249   0.612   0.726  11.257  1.2830 -1.0408  2.7044
  762MPD2     C11250   0.920   0.505  10.505 -0.0589  0.8174 -0.7836
  762MPD2    C111251   0.919   0.416  10.606  0.4153 -0.0207 -0.2244
  762MPD2    C211252   0.989   0.297  10.589 -0.0772  0.5071  0.3563
  762MPD2    C311253   1.065   0.273  10.482  0.4820 -0.3034  0.6771
  762MPD2    C411254   1.075   0.366  10.386 -0.0453  0.3113 -0.5473
  762MPD2    C511255   0.998   0.474  10.399  0.2647  0.1117  0.9486
  762MPD2     H11256   0.978   0.220  10.665  2.9568 -2.5985 -2.3457
  762MPD2    H111257   1.137   0.356  10.298  0.8082 -0.5788  0.1477
  762MPD2    H211258   0.878   0.605  10.508 -0.5480  0.5540  1.1479
  762MPD2    H311259   1.005   0.557  10.328 -1.7630  1.1396  1.9562
  762MPD2     N11260   1.138   0.152  10.474 -0.3440 -0.1639  0.4466
  762MPD2    H511261   1.140   0.097  10.559 -2.3883  0.3023  0.8000
  762MPD2    N111262   0.834   0.432  10.721 -0.1126 -0.3791 -0.0117
  762MPD2    H711263   0.796   0.525  10.733  3.8413  1.1752  0.6867
  763MPD2     C11264   2.473   1.813  16.411 -0.3096 -0.0585 -0.5306
  763MPD2    C111265   2.361   1.887  16.373 -0.3727  0.1162 -0.2488
  763MPD2    C211266   2.362   2.019  16.422 -0.7932 -1.1532  0.2725
  763MPD2    C311267   2.468   2.071  16.504  0.2928 -0.4449 -0.2554
  763MPD2    C411268   2.583   1.990  16.518  0.4077  0.1029  0.0554
  763MPD2    C511269   2.575   1.857  16.488  0.0769 -0.3942 -0.3028
  763MPD2     H11270   2.270   2.075  16.411 -0.3107 -0.5779 -0.8610
  763MPD2    H111271   2.669   2.029  16.570  3.6652 -1.2857 -4.2790
  763MPD2    H211272   2.491   1.714  16.370 -0.3877 -0.1273 -0.3969
  763MPD2    H311273   2.660   1.791  16.500  0.4573  0.1351 -0.0739
  763MPD2     N11274   2.471   2.196  16.564 -0.4589  0.1303 -0.3952
  763MPD2    H511275   2.552   2.222  16.619  1.3744  0.5935 -3.3708
  763MPD2    N111276   2.272   1.828  16.276  0.4082 -0.3067 -0.8467
  763MPD2    H711277   2.236   1.898  16.211  0.4196  1.1385  0.6866
  764MPD2     C11278   0.568   3.355  17.270 -0.2802  1.1868 -0.5556
  764MPD2    C111279   0.464   3.259  17.285 -0.1126 -0.1951 -0.6131
  764MPD2    C211280   0.475   3.180  17.397 -0.3814  0.4163 -0.4630
  764MPD2    C311281   0.561   3.208  17.507  0.7670  0.3290 -0.4149
  764MPD2    C411282   0.653   3.308  17.492 -0.2467 -0.2269 -0.4096
  764MPD2    C511283   0.662   3.379  17.370  0.2031  0.2427 -0.8495
  764MPD2     H11284   0.404   3.099  17.406  1.4898 -0.8270  2.9500
  764MPD2    H111285   0.719   3.340  17.572 -0.4070 -0.1311 -0.3166
  764MPD2    H211286   0.568   3.432  17.194 -0.7886  1.5549 -0.1896
  764MPD2    H311287   0.737   3.456  17.357  0.9036 -0.1567  0.9170
  764MPD2     N11288   0.555   3.131  17.619 -0.3478  0.2049 -0.0652
  764MPD2    H511289   0.505   3.043  17.614  0.9463 -0.7347  3.2644
  764MPD2    N111290   0.356   3.244  17.191  0.1233  0.4845 -0.1506
  764MPD2    H711291   0.295   3.163  17.200 -1.2693  1.4288 -1.1201
  765MPD2     C11292   4.508   0.874  15.881  0.0368  0.1099 -0.8635
  765MPD2    C111293   4.583   0.984  15.855 -0.1495  0.1024  0.1888
  765MPD2    C211294   4.709   0.958  15.807 -0.4222 -0.0626  0.1776
  765MPD2    C311295   0.031   0.830  15.774 -0.6994 -0.2237  0.2170
  765MPD2    C411296   4.664   0.728  15.798  0.8561  0.0407  0.8159
  765MPD2    C511297   4.549   0.747  15.862  0.1518  1.0224  0.9800
  765MPD2     H11298   0.049   1.040  15.778  0.9473 -1.4608 -0.6903
  765MPD2    H111299   4.704   0.629  15.784  2.4976  0.3310  3.4476
  765MPD2    H211300   4.416   0.889  15.935  2.0200  1.3921  2.2113
  765MPD2    H311301   4.500   0.659  15.903 -0.9782  2.5146  2.8483
  765MPD2     N11302   0.163   0.816  15.734  0.0132 -0.3952 -0.2612
  765MPD2    H511303   0.222   0.898  15.732 -1.1217  0.4642  0.9766
  765MPD2    N111304   4.529   1.110  15.880  0.0803 -0.7722 -0.2435
  765MPD2    H711305   4.435   1.118  15.918  0.4340  3.5859 -0.2061
  766MPD2     C11306   4.091   1.323  15.456  0.8478 -0.0276 -0.2771
  766MPD2    C111307   4.215   1.292  15.507 -0.0427 -0.1101  0.2657
  766MPD2    C211308   4.292   1.202  15.435 -0.0895  0.4395 -0.3201
  766MPD2    C311309   4.246   1.131  15.327 -0.2436  0.2552 -0.7408
  766MPD2    C411310   4.124   1.176  15.271 -0.7612  0.8217 -0.0761
  766MPD2    C511311   4.047   1.266  15.337  0.1668  0.5905  0.5329
  766MPD2     H11312   4.389   1.180  15.478 -1.5637  1.7637  3.7504
  766MPD2    H111313   4.101   1.135  15.173 -1.7561 -0.4341  0.6768
  766MPD2    H211314   4.023   1.391  15.506  2.9344  1.9420 -0.1135
  766MPD2    H311315   3.951   1.309  15.311  1.1658  1.7661 -1.2038
  766MPD2     N11316   4.320   1.042  15.252 -0.2231 -0.0261  0.6044
  766MPD2    H511317   4.281   1.015  15.162  1.2941 -0.7875  0.1774
  766MPD2    N111318   4.260   1.347  15.631 -0.1574 -0.0000  0.1333
  766MPD2    H711319   4.350   1.313  15.663  0.1124  2.0278  1.5580
  767MPD2     C11320   4.333   1.493  15.208 -0.4472  0.3650 -0.3630
  767MPD2    C111321   4.426   1.399  15.172 -0.4723 -0.4032  0.1393
  767MPD2    C211322   4.402   1.333  15.053  0.0376 -0.3236  1.1194
  767MPD2    C311323   4.290   1.345  14.975 -0.0597 -0.2921 -0.1470
  767MPD2    C411324   4.198   1.431  15.015 -0.5845 -0.9012 -0.0552
  767MPD2    C511325   4.219   1.500  15.130 -0.0685 -0.1808 -0.0654
  767MPD2     H11326   4.470   1.258  15.015 -0.5022 -0.6050  0.7109
  767MPD2    H111327   4.108   1.457  14.961 -0.6462 -2.1788 -0.5599
  767MPD2    H211328   4.342   1.543  15.304  2.2788 -1.8655  0.5269
  767MPD2    H311329   4.139   1.568  15.156  0.5785  0.4140  0.3823
  767MPD2     N11330   4.276   1.264  14.859  0.2443 -0.4998  0.1660
  767MPD2    H511331   4.351   1.196  14.850  0.8750  0.1670  0.3830
  767MPD2    N111332   4.543   1.385  15.254 -0.0441 -0.0187  0.4609
  767MPD2    H711333   4.553   1.444  15.336  0.3593 -0.4877  0.7533
  768MPD2     C11334   0.985   3.975  10.979  0.4445  0.0533 -0.1538
  768MPD2    C111335   0.923   3.917  11.079 -0.8255  0.2360 -0.0151
  768MPD2    C211336   0.988   3.896  11.201 -0.2694  0.3759  0.7152
  768MPD2    C311337   1.125   3.917  11.208  0.1212 -0.4686 -0.5375
  768MPD2    C411338   1.184   3.985  11.106  0.1124 -0.6744 -0.0621
  768MPD2    C511339   1.113   4.016  10.999  0.2209  1.1733 -0.0941
  768MPD2     H11340   0.936   3.867  11.292 -0.0511  1.3839  1.1562
  768MPD2    H111341   1.287   4.018  11.117 -0.2570 -0.1992  1.9618
  768MPD2    H211342   0.931   3.990  10.886  0.6162  3.3917  0.2819
  768MPD2    H311343   1.163   4.072  10.920  1.9209  1.1674  0.9823
  768MPD2     N11344   1.204   3.887  11.327 -0.5176  0.4867  0.0067
  768MPD2    H511345   1.291   3.936  11.342 -0.0015 -0.4049 -0.0871
  768MPD2    N111346   0.792   3.874  11.057 -0.1040 -0.0251  0.1292
  768MPD2    H711347   0.764   3.869  10.959 -1.2155  0.6862  0.4078
  769MPD2     C11348   1.274   2.949  15.156  0.2009  0.1106  0.2596
  769MPD2    C111349   1.227   2.860  15.250 -0.2674 -0.3984  0.2611
  769MPD2    C211350   1.272   2.872  15.381 -0.0488 -0.4711  0.1158
  769MPD2    C311351   1.361   2.965  15.419 -0.8669 -0.2186  0.0852
  769MPD2    C411352   1.410   3.046  15.317 -0.0124  0.4574 -1.4516
  769MPD2    C511353   1.371   3.037  15.190 -0.0200  0.3258 -0.5613
  769MPD2     H11354   1.247   2.797  15.455  0.0590  0.6247  1.2853
  769MPD2    H111355   1.494   3.115  15.325  1.5337 -1.3368 -2.1284
  769MPD2    H211356   1.255   2.946  15.049  0.6473  2.2050  0.1139
  769MPD2    H311357   1.411   3.103  15.114  1.2855 -1.4475 -1.4218
  769MPD2     N11358   1.398   2.974  15.557 -0.1788 -1.2986 -0.3100
  769MPD2    H511359   1.357   2.918  15.631 -2.4800  2.0392  0.9366
  769MPD2    N111360   1.143   2.756  15.204 -0.0239 -0.0278  0.2949
  769MPD2    H711361   1.126   2.755  15.104  0.1867 -0.0582  0.2607
  770MPD2     C11362   0.885   1.688  15.326 -0.2592 -0.5738 -0.3041
  770MPD2    C111363   0.896   1.731  15.193  0.6593  0.8174 -0.2732
  770MPD2    C211364   0.909   1.864  15.156 -0.0706 -0.3041 -1.0449
  770MPD2    C311365   0.926   1.953  15.254  0.5914  0.5078  0.1301
  770MPD2    C411366   0.934   1.913  15.388  1.1540 -0.5550 -0.4869
  770MPD2    C511367   0.909   1.786  15.422 -0.0502  0.4014  0.3452
  770MPD2     H11368   0.905   1.899  15.054 -0.5115  0.4345 -0.7710
  770MPD2    H111369   0.961   1.979  15.470 -0.7119 -0.6884  0.2346
  770MPD2    H211370   0.878   1.585  15.357  0.1794  0.3487  2.8523
  770MPD2    H311371   0.924   1.749  15.523  0.3547 -0.6551 -0.1033
  770MPD2     N11372   0.948   2.083  15.201  0.6218  0.1467  0.1763
  770MPD2    H511373   0.940   2.097  15.101 -0.4160  2.2433  0.5689
  770MPD2    N111374   0.880   1.630  15.101 -0.0548 -0.2468 -0.2350
  770MPD2    H711375   0.883   1.538  15.143  1.0032 -0.1296 -0.0309
  771MPD2     C11376   2.141   0.185  14.187  0.0754  0.1941  0.3172
  771MPD2    C111377   2.151   0.281  14.089 -0.2639 -0.2982 -0.4215
  771MPD2    C211378   2.135   0.243  13.956 -0.1876  0.0802 -0.0217
  771MPD2    C311379   2.130   0.113  13.913 -1.0363  0.0513 -0.0569
  771MPD2    C411380   2.136   0.014  14.015  0.3441  0.3773  0.0448
  771MPD2    C511381   2.137   0.050  14.148 -0.2767  0.8132 -0.3079
  771MPD2     H11382   2.124   0.317  13.878  1.1137 -1.7366 -1.9393
  771MPD2    H111383   2.137   4.632  13.995 -2.1736  0.1180  1.2702
  771MPD2    H211384   2.145   0.216  14.291 -0.5028 -0.1509  0.4361
  771MPD2    H311385   2.143   4.700  14.227 -2.2937 -1.7022 -2.5682
  771MPD2     N11386   2.101   0.080  13.781  0.0277  0.8468  0.1858
  771MPD2    H511387   2.074   0.156  13.720  0.6316 -0.8323 -2.1914
  771MPD2    N111388   2.152   0.421  14.105 -0.1391  0.5880 -0.2024
  771MPD2    H711389   2.145   0.478  14.021  3.0546 -1.3742 -1.7870
  772MPD2     C11390   1.865   0.912  13.725  0.2382 -0.2612  0.3596
  772MPD2    C111391   1.835   0.875  13.857  0.5390  0.2023  0.1966
  772MPD2    C211392   1.708   0.893  13.907  0.4455  0.1253  0.2239
  772MPD2    C311393   1.605   0.939  13.830 -0.4079  0.3789  0.0824
  772MPD2    C411394   1.632   0.972  13.705  0.3857  0.0882 -0.8154
  772MPD2    C511395   1.760   0.959  13.652  0.4751  0.3265  0.5935
  772MPD2     H11396   1.682   0.863  14.008 -1.6693 -0.2352 -0.4287
  772MPD2    H111397   1.551   1.012  13.645 -0.6462 -1.0677 -0.2076
  772MPD2    H211398   1.959   0.900  13.672  0.6680  1.6262  0.6928
  772MPD2    H311399   1.778   0.977  13.547 -0.2907 -0.8441  0.2498
  772MPD2     N11400   1.470   0.952  13.867  0.0813  0.9803 -0.1138
  772MPD2    H511401   1.409   0.987  13.794 -1.5100  0.4035  0.9412
  772MPD2    N111402   1.938   0.845  13.948 -0.1457 -0.6531  0.6329
  772MPD2    H711403   1.913   0.831  14.045 -0.3572 -1.0024  0.5291
  773MPD2     C11404   0.936   2.326   0.594  0.3747 -0.5426  0.6965
  773MPD2    C111405   0.872   2.209   0.560 -0.1495  0.1175  0.4222
  773MPD2    C211406   0.925   2.086   0.603 -0.0383  0.2515  0.3651
  773MPD2    C311407   1.041   2.082   0.682  0.0992  0.2249 -0.4373
  773MPD2    C411408   1.098   2.203   0.715 -0.0932  0.1393  0.2329
  773MPD2    C511409   1.050   2.323   0.666 -0.1505  0.2560  0.0484
  773MPD2     H11410   0.874   1.994   0.577 -0.9932  1.0383 -0.5654
  773MPD2    H111411   1.191   2.203   0.770  0.5697  1.8764 -0.9026
  773MPD2    H211412   0.908   2.417   0.541  0.1797 -0.1917  1.4075
  773MPD2    H311413   1.105   2.414   0.686 -0.3534  0.0223  1.6646
  773MPD2     N11414   1.088   1.957   0.734 -0.2221 -0.6364  0.1210
  773MPD2    H511415   1.056   1.878   0.678 -1.2996  0.0489 -0.2218
  773MPD2    N111416   0.750   2.199   0.489  0.3381 -0.1889  0.7131
  773MPD2    H711417   0.714   2.105   0.483 -2.9990  1.1075  0.6780
  774MPD2     C11418   4.318   1.258  13.855  0.5894 -0.6490 -0.6149
  774MPD2    C111419   4.441   1.214  13.811  0.2776  0.2559  0.6038
  774MPD2    C211420   4.510   1.302  13.731 -0.3666 -0.1725 -0.0791
  774MPD2    C311421   4.461   1.423  13.685 -0.8684 -0.3813  0.4786
  774MPD2    C411422   4.333   1.460  13.729  0.2115  0.1941  0.0261
  774MPD2    C511423   4.260   1.374  13.804  0.4782 -0.2227 -0.0452
  774MPD2     H11424   4.618   1.297  13.716 -0.3780 -1.0068  0.1278
  774MPD2    H111425   4.289   1.556  13.706 -2.2206 -1.5965 -2.8934
  774MPD2    H211426   4.253   1.198  13.917 -0.1919  1.0442  0.2074
  774MPD2    H311427   4.166   1.412  13.842  0.3635  0.7593 -1.2917
  774MPD2     N11428   4.541   1.502  13.596 -0.3787  0.0596  0.0226
  774MPD2    H511429   4.634   1.463  13.586  0.9866  3.0756  1.0113
  774MPD2    N111430   4.497   1.096  13.865  0.1015  0.1362  0.5375
  774MPD2    H711431   4.453   1.065  13.951 -1.0669 -0.7650 -0.3813
  775MPD2     C11432   1.637   2.695  15.983  0.2997  0.2191  0.3428
  775MPD2    C111433   1.695   2.730  16.104 -0.1595 -0.0754  0.3619
  775MPD2    C211434   1.825   2.776  16.124  0.3671  0.9286 -0.3617
  775MPD2    C311435   1.894   2.797  16.008  0.8308  0.4255 -0.2550
  775MPD2    C411436   1.840   2.759  15.890  0.2925 -0.4153 -0.4207
  775MPD2    C511437   1.719   2.700  15.876  0.0191  0.5558  0.1066
  775MPD2     H11438   1.863   2.794  16.224  0.0183  0.1252 -0.0862
  775MPD2    H111439   1.898   2.778  15.800 -0.1094  0.3094 -0.5247
  775MPD2    H211440   1.536   2.655  15.979 -0.8786  3.3033 -1.0633
  775MPD2    H311441   1.680   2.658  15.784 -0.0886  2.5174 -0.7243
  775MPD2     N11442   2.022   2.858  16.001  0.2251 -0.2031 -0.1190
  775MPD2    H511443   2.068   2.880  15.913 -0.6741  0.8976 -0.3221
  775MPD2    N111444   1.603   2.727  16.217 -0.2882 -0.6427  0.2087
  775MPD2    H711445   1.515   2.677  16.210  0.3732 -1.7191 -0.5256
  776MPD2     C11446   1.176   2.764  11.383  0.8741  0.0162  0.3127
  776MPD2    C111447   1.262   2.689  11.455 -1.0763 -0.2624 -0.6219
  776MPD2    C211448   1.378   2.742  11.507  0.2750  0.1618  0.5146
  776MPD2    C311449   1.409   2.875  11.483  0.0661 -0.2848 -0.2035
  776MPD2    C411450   1.324   2.952  11.407  0.6412 -0.2455 -0.8245
  776MPD2    C511451   1.208   2.896  11.370 -1.3321  0.3562  0.2104
  776MPD2     H11452   1.444   2.679  11.565  1.9060  2.8941  1.6249
  776MPD2    H111453   1.342   3.056  11.386  1.0907 -0.2331 -0.3706
  776MPD2    H211454   1.087   2.724  11.335 -0.7052  3.2186  0.5680
  776MPD2    H311455   1.137   2.951  11.310 -0.4974 -0.5158 -1.5513
  776MPD2     N11456   1.518   2.943  11.537 -0.2800 -0.1026  0.3579
  776MPD2    H511457   1.533   3.037  11.500 -2.0454 -0.7463 -2.0293
  776MPD2    N111458   1.223   2.551  11.472 -0.2513 -0.2282  0.1188
  776MPD2    H711459   1.137   2.524  11.425 -1.2564  0.1628  1.7191
  777MPD2     C11460   1.326   1.076   1.127 -0.3036 -0.0358 -0.1638
  777MPD2    C111461   1.194   1.068   1.161 -0.3454  0.1619 -0.4055
  777MPD2    C211462   1.120   0.960   1.113 -0.0470 -0.6674  0.2265
  777MPD2    C311463   1.182   0.874   1.023  0.2105 -0.3984 -0.0339
  777MPD2    C411464   1.317   0.876   1.002 -0.3341 -0.0354 -0.4896
  777MPD2    C511465   1.386   0.985   1.045 -0.0272 -0.0784  0.3315
  777MPD2     H11466   1.012   0.952   1.128  0.0966 -1.9269  0.5245
  777MPD2    H111467   1.372   0.812   0.934 -1.1558  1.5574 -2.6664
  777MPD2    H211468   1.391   1.157   1.160  1.4417 -1.1354 -0.9161
  777MPD2    H311469   1.493   0.992   1.028  0.2708 -1.6753  1.5295
  777MPD2     N11470   1.115   0.758   0.976 -0.0836 -0.3626 -0.1228
  777MPD2    H511471   1.025   0.737   1.017 -0.0216  1.2680  0.8804
  777MPD2    N111472   1.143   1.160   1.259 -0.8973  0.4425  0.2573
  777MPD2    H711473   1.200   1.236   1.295 -1.8786  0.4726  1.7449
  778MPD2     C11474   2.069   0.249  15.776 -0.5280  0.2767 -0.7222
  778MPD2    C111475   1.973   0.278  15.685 -0.0907  1.2778 -0.2395
  778MPD2    C211476   2.012   0.367  15.588 -0.9903  0.2545 -0.0686
  778MPD2    C311477   2.130   0.436  15.582  0.2311 -1.1185  0.2547
  778MPD2    C411478   2.224   0.406  15.673  0.2566  0.4714 -0.0387
  778MPD2    C511479   2.195   0.310  15.769 -0.7095  0.0138 -1.1768
  778MPD2     H11480   1.943   0.386  15.506 -0.9078 -0.8945 -0.4056
  778MPD2    H111481   2.325   0.447  15.676 -0.8682  3.2833 -0.8484
  778MPD2    H211482   2.051   0.181  15.859 -0.7132  2.0010  0.6578
  778MPD2    H311483   2.276   0.281  15.836 -2.6678 -1.2141  0.6520
  778MPD2     N11484   2.157   0.535  15.483  0.4247  0.8019 -0.2124
  778MPD2    H511485   2.084   0.576  15.426 -0.0746  2.5463  1.6569
  778MPD2    N111486   1.842   0.228  15.678  0.0793 -0.3416 -1.0008
  778MPD2    H711487   1.794   0.251  15.592 -0.6286  2.1140  0.0450
  779MPD2     C11488   1.555   4.194  14.800  0.0276 -0.6533  0.0835
  779MPD2    C111489   1.692   4.188  14.790  0.9598  0.4419 -0.1952
  779MPD2    C211490   1.759   4.301  14.741  0.1222 -0.7333  0.5454
  779MPD2    C311491   1.696   4.417  14.725  1.0497  0.0632  0.0457
  779MPD2    C411492   1.560   4.424  14.744 -0.4156 -0.9820 -0.1976
  779MPD2    C511493   1.488   4.309  14.775  0.8802  0.1924 -0.2148
  779MPD2     H11494   1.859   4.302  14.700 -0.5269  0.7910 -1.0504
  779MPD2    H111495   1.497   4.510  14.723 -0.1835 -0.9464 -0.7564
  779MPD2    H211496   1.487   4.110  14.809  0.0646 -0.5853  1.0534
  779MPD2    H311497   1.380   4.320  14.775  0.8256 -0.3275  1.6042
  779MPD2     N11498   1.767   4.535  14.688  0.1968  0.1845 -0.0698
  779MPD2    H511499   1.861   4.516  14.655  1.4653  1.1874  2.8909
  779MPD2    N111500   1.770   4.068  14.816 -0.6085  0.0367  0.0048
  779MPD2    H711501   1.870   4.084  14.814 -0.6594  0.1491 -2.0850
  780MPD2     C11502   2.006   4.310   1.401  0.1587 -0.2456 -0.6206
  780MPD2    C111503   1.902   4.246   1.330  0.0216  0.3909  0.0940
  780MPD2    C211504   1.890   4.270   1.198  0.2627  0.1752 -0.5702
  780MPD2    C311505   1.989   4.336   1.126 -0.2223  0.4837  0.3725
  780MPD2    C411506   2.102   4.381   1.197  0.2094 -0.3180  0.0753
  780MPD2    C511507   2.106   4.374   1.332 -0.8896  0.4244  0.3216
  780MPD2     H11508   1.815   4.216   1.142  1.1419 -0.7308 -0.8879
  780MPD2    H111509   2.188   4.422   1.145 -0.3021 -1.0660 -1.3735
  780MPD2    H211510   2.012   4.308   1.509 -1.1093  0.9781 -0.5206
  780MPD2    H311511   2.182   4.421   1.394 -1.4894  1.2593  0.4320
  780MPD2     N11512   1.967   4.361   0.988 -0.5712 -0.1596  0.1934
  780MPD2    H511513   1.879   4.325   0.953 -0.1382 -0.7634 -0.2895
  780MPD2    N111514   1.790   4.183   1.390 -0.3513  0.2709 -0.3854
  780MPD2    H711515   1.707   4.154   1.339  0.3898  0.8932 -1.9442
  781MPD2     C11516   4.068   1.190  11.949 -0.5677  0.0587 -0.0522
  781MPD2    C111517   4.029   1.060  11.957  0.6742 -0.5405 -0.9033
  781MPD2    C211518   4.093   0.972  11.874 -0.2260 -0.5825 -0.1863
  781MPD2    C311519   4.191   1.003  11.782  0.0391  0.0385 -0.5403
  781MPD2    C411520   4.222   1.142  11.777  0.4255  0.2448  0.7333
  781MPD2    C511521   4.152   1.232  11.855 -0.7690 -0.0720  0.3285
  781MPD2     H11522   4.067   0.867  11.879  1.4057 -1.0798 -1.7465
  781MPD2    H111523   4.295   1.184  11.708 -0.5532  1.1581  0.2689
  781MPD2    H211524   4.033   1.274  12.007 -2.4037 -1.7159  1.4054
  781MPD2    H311525   4.159   1.340  11.848 -0.6894 -0.1479 -0.9375
  781MPD2     N11526   4.257   0.917  11.696 -0.6749  0.4134  0.2524
  781MPD2    H511527   4.337   0.955  11.646 -0.1517 -1.7428 -0.5342
  781MPD2    N111528   3.931   1.026  12.056 -0.4992 -0.3890  0.1745
  781MPD2    H711529   3.907   1.104  12.117  0.6247  1.9005 -2.2696
  782MPD2     C11530   1.686   1.070  10.147  0.1782 -0.5464  0.6473
  782MPD2    C111531   1.793   1.048  10.233 -0.2868  0.2300 -0.3739
  782MPD2    C211532   1.849   1.155  10.300 -0.3354 -0.0106  0.4305
  782MPD2    C311533   1.795   1.283  10.289  0.0504  0.3009  1.2649
  782MPD2    C411534   1.689   1.300  10.202  0.2753  0.3860  0.6362
  782MPD2    C511535   1.638   1.203  10.131 -0.8982 -0.1279  0.1436
  782MPD2     H11536   1.927   1.144  10.375 -0.9478  0.6708  1.1647
  782MPD2    H111537   1.637   1.395  10.208  0.4999  0.5963 -0.6711
  782MPD2    H211538   1.647   0.990  10.086 -0.3967  0.3024 -0.0965
  782MPD2    H311539   1.554   1.229  10.069 -1.7622 -1.4940  0.7475
  782MPD2     N11540   1.845   1.384  10.376 -0.1849 -0.1897 -0.1885
  782MPD2    H511541   1.916   1.354  10.442  1.2489  0.4461 -1.4412
  782MPD2    N111542   1.840   0.915  10.238 -0.1846 -0.7585  0.0642
  782MPD2    H711543   1.781   0.835  10.219 -0.7279 -1.0214  2.7744
  783MPD2     C11544   1.966   1.091  11.054 -0.1725  0.5524 -0.0818
  783MPD2    C111545   1.841   1.055  11.012  0.9160  0.7656  0.3180
  783MPD2    C211546   1.838   0.970  10.900 -0.1199 -0.3454 -0.6954
  783MPD2    C311547   1.953   0.917  10.844  0.0336 -0.2710  0.1349
  783MPD2    C411548   2.080   0.945  10.889 -0.6156 -0.6545  0.0381
  783MPD2    C511549   2.085   1.043  10.992  0.1434  0.0300 -0.2880
  783MPD2     H11550   1.744   0.956  10.849  0.2312 -0.0655 -1.4239
  783MPD2    H111551   2.176   0.905  10.859 -0.4699 -0.8521  0.7643
  783MPD2    H211552   1.969   1.164  11.134  0.9592  0.5395 -0.1157
  783MPD2    H311553   2.186   1.063  11.025 -0.1972  1.4858 -0.1255
  783MPD2     N11554   1.955   0.827  10.737  0.7681 -0.0575 -0.2634
  783MPD2    H511555   2.044   0.790  10.706  2.6138  1.4978  3.1742
  783MPD2    N111556   1.731   1.109  11.071  0.2238 -0.3369  0.0300
  783MPD2    H711557   1.736   1.187  11.135 -0.4955 -0.7649  0.6014
  784MPD2     C11558   4.026   2.013   1.328  0.0979  0.8329  0.8731
  784MPD2    C111559   4.017   2.136   1.388 -0.6414  0.6432  0.5317
  784MPD2    C211560   3.923   2.221   1.337  0.1351 -0.1449  0.5221
  784MPD2    C311561   3.825   2.185   1.246  0.3324 -0.0365 -0.4037
  784MPD2    C411562   3.839   2.054   1.198 -0.3887  0.7865 -0.0102
  784MPD2    C511563   3.943   1.971   1.228 -0.1395  0.1937 -0.1541
  784MPD2     H11564   3.923   2.323   1.373 -2.7227  0.4971 -1.2431
  784MPD2    H111565   3.782   2.008   1.118 -0.8976  0.3558  0.5984
  784MPD2    H211566   4.107   1.945   1.352 -1.1248 -0.5227  1.1480
  784MPD2    H311567   3.953   1.874   1.181 -1.3452  1.1040 -2.3264
  784MPD2     N11568   3.714   2.272   1.234 -0.1516  0.2710 -0.0181
  784MPD2    H511569   3.722   2.360   1.283  0.1615  0.1587  0.1366
  784MPD2    N111570   4.104   2.185   1.485 -0.4531  0.2146  0.5770
  784MPD2    H711571   4.107   2.284   1.506 -0.3809  0.0689  1.2760
  785MPD2     C11572   4.615   4.490  10.974  0.6115 -0.4832  0.7111
  785MPD2    C111573   4.492   4.532  11.019 -0.2607 -0.4352  0.6034
  785MPD2    C211574   4.373   4.484  10.960  0.4440  0.0219  0.5864
  785MPD2    C311575   4.384   4.381  10.869 -0.1261  0.3296  0.0198
  785MPD2    C411576   4.506   4.332  10.835 -0.4950  0.5738  0.2181
  785MPD2    C511577   4.618   4.384  10.891  0.3680  0.3350 -0.2474
  785MPD2     H11578   4.274   4.520  10.986 -0.5208 -2.1847  0.0066
  785MPD2    H111579   4.517   4.251  10.764  1.9165  0.5799  0.5768
  785MPD2    H211580   4.705   4.547  10.994  0.5774 -0.5659  1.1005
  785MPD2    H311581   4.715   4.349  10.858  0.9456  0.6040  1.1218
  785MPD2     N11582   4.274   4.358  10.789  0.4869 -0.1431 -0.5319
  785MPD2    H511583   4.185   4.401  10.810 -0.4233 -3.0227  1.5292
  785MPD2    N111584   4.496   4.649  11.099 -0.2037 -0.5911 -0.3993
  785MPD2    H711585   4.586   4.681  11.134  0.7584 -1.7121 -1.8493
  786MPD2     C11586   2.556   3.336  15.126  0.6552  0.0248 -0.1324
  786MPD2    C111587   2.660   3.251  15.098 -0.1379 -0.6527 -0.0106
  786MPD2    C211588   2.755   3.243  15.189 -0.0739  0.0604  0.0517
  786MPD2    C311589   2.744   3.309  15.315  0.0583  0.6598 -0.3601
  786MPD2    C411590   2.643   3.396  15.336 -0.2930 -0.8510 -0.6489
  786MPD2    C511591   2.555   3.417  15.233  0.8002  0.7157  0.8317
  786MPD2     H11592   2.836   3.174  15.169  0.4651  0.6244  0.3040
  786MPD2    H111593   2.639   3.459  15.424  0.2388 -0.5358 -0.8485
  786MPD2    H211594   2.462   3.331  15.073  1.2565 -0.2511 -1.1809
  786MPD2    H311595   2.466   3.479  15.244  0.7417  0.7830 -0.0001
  786MPD2     N11596   2.841   3.304  15.418  0.5527 -0.6267 -0.0383
  786MPD2    H511597   2.840   3.382  15.483  1.7076 -0.0145 -0.7527
  786MPD2    N111598   2.670   3.177  14.979  0.0045 -0.6318  0.2560
  786MPD2    H711599   2.739   3.103  14.981  0.3505 -0.3686 -3.1361
  787MPD2     C11600   2.721   2.588  15.111 -1.2358  0.8753  0.4828
  787MPD2    C111601   2.787   2.618  14.993 -0.4566  0.1049  0.9058
  787MPD2    C211602   2.913   2.562  14.971 -0.5080 -0.1087 -0.0064
  787MPD2    C311603   2.970   2.480  15.069 -0.3280  1.0460  0.2296
  787MPD2    C411604   2.897   2.448  15.177  0.7692 -0.2300  0.2346
  787MPD2    C511605   2.775   2.498  15.200 -0.4379 -1.0504  0.9263
  787MPD2     H11606   2.967   2.597  14.884 -0.1229  0.4197  0.4405
  787MPD2    H111607   2.943   2.381  15.249 -0.6467 -0.9046  0.5213
  787MPD2    H211608   2.622   2.625  15.136 -0.3693  1.9666  2.3067
  787MPD2    H311609   2.725   2.470  15.292  0.1191  0.0213  1.5423
  787MPD2     N11610   3.110   2.451  15.043  0.3382  0.3981 -0.3248
  787MPD2    H511611   3.141   2.504  14.963 -2.2459  0.0294 -1.5750
  787MPD2    N111612   2.724   2.713  14.906  0.8608 -0.4827  0.0158
  787MPD2    H711613   2.638   2.760  14.932 -0.7595 -3.9918  1.0427
  788MPD2     C11614   0.162   1.752   0.921  0.4476  0.1878 -0.5307
  788MPD2    C111615   0.045   1.682   0.937  0.3373 -0.3552 -0.5168
  788MPD2    C211616   4.657   1.710   0.858  0.3918  0.7233  0.8673
  788MPD2    C311617   4.671   1.807   0.766  0.2214  0.4172 -0.1711
  788MPD2    C411618   0.059   1.884   0.761  0.4597  1.9948  0.4418
  788MPD2    C511619   0.169   1.853   0.835 -0.0257 -0.0782  0.1630
  788MPD2     H11620   4.568   1.649   0.858 -0.5139  2.0017 -2.5410
  788MPD2    H111621   0.074   1.964   0.690  1.6436 -0.6377 -2.2962
  788MPD2    H211622   0.242   1.730   0.991  0.0212 -2.8840 -1.0225
  788MPD2    H311623   0.260   1.913   0.833 -1.3520  1.9202 -0.2163
  788MPD2     N11624   4.571   1.837   0.667 -0.1416  0.3974  0.0751
  788MPD2    H511625   4.594   1.909   0.598 -0.4517 -0.6985 -1.1686
  788MPD2    N111626   0.032   1.569   1.021  0.7172 -0.2833  0.4687
  788MPD2    H711627   4.664   1.528   1.013 -0.6280  2.5082  1.5645
  789MPD2     C11628   0.100   1.205  16.635 -0.0414  0.3097  0.8455
  789MPD2    C111629   4.712   1.235  16.559 -0.4936  0.1016  0.2153
  789MPD2    C211630   4.631   1.333  16.610  0.3018  0.4476 -0.0976
  789MPD2    C311631   4.643   1.393  16.735 -0.3939 -0.3819  0.0130
  789MPD2    C411632   0.037   1.367  16.799  0.1854 -0.1153 -0.4062
  789MPD2    C511633   0.121   1.269  16.753 -0.1191 -0.0208 -0.5814
  789MPD2     H11634   4.543   1.345  16.546  0.4744 -0.3514 -0.4805
  789MPD2    H111635   0.063   1.418  16.891  0.6189 -0.5489 -0.2854
  789MPD2    H211636   0.175   1.130  16.613  0.1688  0.9386 -0.5486
  789MPD2    H311637   0.212   1.248  16.808  0.2042  1.1278 -0.6736
  789MPD2     N11638   4.551   1.491  16.799 -0.0703 -0.6344 -0.2209
  789MPD2    H511639   4.571   1.531  16.890 -0.3141  0.0825 -0.4775
  789MPD2    N111640   4.673   1.169  16.441 -0.2089 -1.4260  0.1076
  789MPD2    H711641   4.587   1.191  16.393  0.9621  2.1724 -0.3195
  790MPD2     C11642   1.255   2.400  14.269 -0.1318  0.2055  0.0263
  790MPD2    C111643   1.222   2.488  14.165  0.2492  0.2381 -0.3535
  790MPD2    C211644   1.159   2.429  14.051 -0.1184  0.1113  0.9269
  790MPD2    C311645   1.145   2.293  14.044  0.0575  0.2310  0.3834
  790MPD2    C411646   1.181   2.213  14.153 -0.5749 -0.1439  0.4322
  790MPD2    C511647   1.234   2.268  14.264 -0.1659 -0.1729 -0.0212
  790MPD2     H11648   1.140   2.491  13.964  1.1251 -1.6303 -0.5722
  790MPD2    H111649   1.170   2.105  14.148  0.7317 -0.2529  0.0234
  790MPD2    H211650   1.288   2.436  14.366 -0.2716  2.3735 -0.7301
  790MPD2    H311651   1.260   2.196  14.341 -0.0808  0.9726  1.0195
  790MPD2     N11652   1.074   2.230  13.941  0.3620  0.2753 -0.3820
  790MPD2    H511653   1.064   2.129  13.941 -0.9799  0.4100  0.3293
  790MPD2    N111654   1.234   2.626  14.184  0.5021  0.4719 -0.1262
  790MPD2    H711655   1.282   2.654  14.269 -1.3696  0.7215  0.8613
  791MPD2     C11656   0.607   2.487  13.360  0.5073  0.1281  0.0761
  791MPD2    C111657   0.651   2.360  13.332  0.3627 -0.4362 -0.6843
  791MPD2    C211658   0.614   2.293  13.217 -0.1456 -0.0375  0.6535
  791MPD2    C311659   0.525   2.352  13.128 -0.2989  0.1988 -0.5942
  791MPD2    C411660   0.467   2.475  13.164 -1.0117 -0.3847 -0.2129
  791MPD2    C511661   0.519   2.540  13.273  0.5381  0.1930 -0.5395
  791MPD2     H11662   0.654   2.196  13.190 -1.0793 -0.5687  1.1872
  791MPD2    H111663   0.384   2.522  13.113 -1.3973 -1.0201 -0.1671
  791MPD2    H211664   0.651   2.552  13.435 -0.2846  0.2549  0.4285
  791MPD2    H311665   0.478   2.639  13.291 -1.4155 -0.9939  1.5353
  791MPD2     N11666   0.504   2.281  13.011  0.9272 -0.1059  0.7438
  791MPD2    H511667   0.556   2.195  12.994 -0.0732 -0.5420 -0.0840
  791MPD2    N111668   0.745   2.296  13.424 -0.1513 -0.1831 -0.3006
  791MPD2    H711669   0.779   2.360  13.495 -1.4711  0.0662  0.1185
  792MPD2     C11670   1.666   2.128  11.047  0.4253  1.0802 -0.4170
  792MPD2    C111671   1.548   2.194  11.098 -0.4015 -0.6628  0.6481
  792MPD2    C211672   1.433   2.121  11.096 -0.1019  0.0546  0.5485
  792MPD2    C311673   1.433   1.988  11.047 -0.5482 -0.3239  0.1565
  792MPD2    C411674   1.539   1.934  10.976  0.2103  0.0068  0.2722
  792MPD2    C511675   1.653   2.007  10.979  0.1885  0.4245  0.3027
  792MPD2     H11676   1.343   2.160  11.141 -0.7777 -0.9668  0.0788
  792MPD2    H111677   1.549   1.830  10.946  0.8815 -0.1134  0.8918
  792MPD2    H211678   1.760   2.183  11.045 -0.2057  2.2223  0.9388
  792MPD2    H311679   1.739   1.956  10.940 -0.1815 -0.0344  0.0916
  792MPD2     N11680   1.318   1.900  11.051  0.1923 -0.2597 -0.4657
  792MPD2    H511681   1.324   1.807  11.011 -2.3216 -0.3497 -0.5920
  792MPD2    N111682   1.560   2.325  11.151  0.5210 -0.1235  0.2095
  792MPD2    H711683   1.653   2.365  11.159  0.7276  0.1194 -3.2772
  793MPD2     C11684   0.915   1.808  10.381  0.3365 -0.6227 -0.6950
  793MPD2    C111685   0.999   1.897  10.445  0.7958 -0.3688 -0.2962
  793MPD2    C211686   0.994   1.919  10.586 -0.2903 -0.5822 -0.8157
  793MPD2    C311687   0.908   1.836  10.664  0.5250 -0.3858  0.0755
  793MPD2    C411688   0.822   1.747  10.594  0.5998 -0.3834 -0.1143
  793MPD2    C511689   0.832   1.738  10.461 -0.0037  0.1694  0.0431
  793MPD2     H11690   1.068   1.983  10.632 -1.1154 -1.0528  1.1505
  793MPD2    H111691   0.763   1.669  10.641 -0.0257  0.8679  1.1693
  793MPD2    H211692   0.907   1.797  10.273 -2.1619 -1.9365 -0.3606
  793MPD2    H311693   0.753   1.689  10.405 -2.4811  2.0060  1.9361
  793MPD2     N11694   0.929   1.836  10.806  0.0524  0.4462 -0.7749
  793MPD2    H511695   1.002   1.888  10.852  0.0065 -1.7505  1.8027
  793MPD2    N111696   1.099   1.977  10.386 -0.0939  0.2357 -0.3228
  793MPD2    H711697   1.160   2.031  10.446 -1.8424  1.2800  0.5030
  794MPD2     C11698   0.678   2.228  17.407 -0.4165 -0.0171 -0.0064
  794MPD2    C111699   0.551   2.193  17.446 -0.0115 -0.3422 -0.4820
  794MPD2    C211700   0.453   2.139  17.362 -0.3156 -0.1114  0.5370
  794MPD2    C311701   0.475   2.138  17.226  0.4763  0.3259  0.2644
  794MPD2    C411702   0.599   2.179  17.183 -0.2152 -0.9161  0.3835
  794MPD2    C511703   0.701   2.216  17.271  0.6555 -0.5628 -0.8153
  794MPD2     H11704   0.356   2.113  17.404 -1.6189  1.6039 -1.4125
  794MPD2    H111705   0.633   2.180  17.081 -1.1177 -2.1222  0.0791
  794MPD2    H211706   0.762   2.264  17.464  0.5769 -0.6580 -1.0713
  794MPD2    H311707   0.802   2.235  17.238  0.5641  0.8611 -0.2660
  794MPD2     N11708   0.380   2.102  17.130 -0.4715 -0.3056  0.0095
  794MPD2    H511709   0.420   2.089  17.037  0.7079 -1.4511  0.6787
  794MPD2    N111710   0.518   2.197  17.579 -0.4126 -0.3514 -0.0396
  794MPD2    H711711   0.426   2.160  17.603 -1.1724  0.9524 -0.9935
  795MPD2     C11712   3.104   4.290  13.373 -0.1145  0.3346  0.1281
  795MPD2    C111713   3.053   4.243  13.492 -0.3830  0.1287  0.4643
  795MPD2    C211714   3.132   4.244  13.605 -0.2928 -0.0705 -0.7631
  795MPD2    C311715   3.261   4.275  13.600 -0.2035 -0.9518 -0.3574
  795MPD2    C411716   3.317   4.327  13.479 -0.1110 -0.0365 -0.0088
  795MPD2    C511717   3.233   4.344  13.367  0.2252  0.8822  0.1780
  795MPD2     H11718   3.081   4.228  13.699  1.0172 -2.4523 -0.4573
  795MPD2    H111719   3.425   4.335  13.473  0.1959 -2.6245  1.8307
  795MPD2    H211720   3.054   4.299  13.278 -1.0738  0.1070  0.6157
  795MPD2    H311721   3.275   4.375  13.272  0.3702 -0.2474 -0.1158
  795MPD2     N11722   3.340   4.255  13.717 -0.5400 -0.0562 -0.5249
  795MPD2    H511723   3.292   4.213  13.795 -1.2114  1.3859 -0.1536
  795MPD2    N111724   2.917   4.211  13.515 -0.6053 -0.6362  0.0055
  795MPD2    H711725   2.884   4.168  13.600 -0.4973 -0.1020  0.3197
  796MPD2     C11726   2.633   1.422  16.209 -0.3437 -0.5051  0.2053
  796MPD2    C111727   2.720   1.492  16.291  0.0787 -0.2551  0.1396
  796MPD2    C211728   2.749   1.624  16.277  0.5079  0.5110 -0.3246
  796MPD2    C311729   2.691   1.693  16.172  0.6246  0.6461 -0.7170
  796MPD2    C411730   2.603   1.631  16.092  0.1141  0.2706 -0.2412
  796MPD2    C511731   2.580   1.498  16.110  0.1994 -0.3706  0.4194
  796MPD2     H11732   2.806   1.680  16.350 -1.5013 -0.1279  1.7279
  796MPD2    H111733   2.549   1.677  16.010 -2.8578 -1.8046  0.5597
  796MPD2    H211734   2.614   1.316  16.215 -0.2208 -0.4680  1.2750
  796MPD2    H311735   2.518   1.450  16.036  0.3505 -0.0101  0.0606
  796MPD2     N11736   2.707   1.833  16.173  0.6897  0.0761 -0.6780
  796MPD2    H511737   2.771   1.874  16.240  0.6245 -2.2902  0.8131
  796MPD2    N111738   2.760   1.418  16.405 -0.7421 -0.1619  0.1750
  796MPD2    H711739   2.715   1.330  16.426 -0.3786 -0.2122  0.7372
  797MPD2     C11740   4.362   0.728  17.385 -0.8631 -0.1831  0.2400
  797MPD2    C111741   4.256   0.749  17.475  1.1056 -0.2703  0.7231
  797MPD2    C211742   4.179   0.863  17.465 -0.0573  0.6723  0.9202
  797MPD2    C311743   4.216   0.965  17.380 -0.4689 -0.5615  0.0272
  797MPD2    C411744   4.330   0.950  17.306  0.1963 -0.0667  0.0044
  797MPD2    C511745   4.401   0.832  17.308 -0.1490  0.2287 -0.4429
  797MPD2     H11746   4.081   0.858  17.512 -0.3532 -1.2524  0.0772
  797MPD2    H111747   4.363   1.031  17.241  1.7789 -0.0350  0.8544
  797MPD2    H211748   4.428   0.642  17.389  0.3431  0.6496 -1.8267
  797MPD2    H311749   4.495   0.832  17.253 -0.5281  1.9824 -1.0870
  797MPD2     N11750   4.135   1.086  17.375  0.3333  0.3159 -0.3693
  797MPD2    H511751   4.158   1.151  17.300 -1.3994 -0.1449 -1.2985
  797MPD2    N111752   4.204   0.652  17.561  0.4585  0.2209  0.0600
  797MPD2    H711753   4.128   0.690  17.617 -0.1588 -0.8107 -0.0753
  798MPD2     C11754   3.546   0.901   0.031  0.1520 -0.0664  0.2567
  798MPD2    C111755   3.676   0.946   0.017 -0.0440  0.2470 -0.3720
  798MPD2    C211756   3.783   0.867   0.044 -0.4191 -0.1944  0.7098
  798MPD2    C311757   3.757   0.744   0.105 -0.0858 -0.4917  0.3841
  798MPD2    C411758   3.626   0.707   0.131 -0.0888  0.6374 -0.5345
  798MPD2    C511759   3.523   0.785   0.095 -0.3349 -0.1477  0.3777
  798MPD2     H11760   3.881   0.896   0.008  0.3670 -2.0535  1.3907
  798MPD2    H111761   3.610   0.613   0.183 -1.7874  1.1301 -0.1825
  798MPD2    H211762   3.464   0.963  17.697 -1.5049 -1.6375  1.4422
  798MPD2    H311763   3.422   0.760   0.127  0.5508 -1.6746  1.9392
  798MPD2     N11764   3.869   0.659   0.117 -0.2920 -0.0822 -0.3173
  798MPD2    H511765   3.958   0.702   0.094  0.3312 -1.2109 -0.0274
  798MPD2    N111766   3.711   1.068  17.656 -0.5478 -0.5835  0.0978
  798MPD2    H711767   3.810   1.076  17.637 -0.4527 -1.8129  0.0537
  799MPD2     C11768   2.749   2.212  14.787  0.3354  0.4085  0.0456
  799MPD2    C111769   2.762   2.166  14.659  0.1112  0.0848  0.5337
  799MPD2    C211770   2.693   2.232  14.556  0.5155  0.3558  0.2345
  799MPD2    C311771   2.619   2.348  14.586  0.3959  0.5358  0.3305
  799MPD2    C411772   2.620   2.404  14.708 -0.8948 -0.3833 -0.1889
  799MPD2    C511773   2.685   2.334  14.808  0.0941  0.7903 -0.4653
  799MPD2     H11774   2.695   2.197  14.453 -0.5269 -0.7087  0.5746
  799MPD2    H111775   2.564   2.496  14.724 -0.2195 -0.3137  1.7681
  799MPD2    H211776   2.803   2.162  14.866 -0.9985 -0.7034  0.2628
  799MPD2    H311777   2.695   2.377  14.908  0.7448  0.3690 -0.3489
  799MPD2     N11778   2.542   2.420  14.497 -0.2812 -0.7254  0.1989
  799MPD2    H511779   2.512   2.512  14.527  0.3419 -0.6824  0.6883
  799MPD2    N111780   2.821   2.038  14.630 -0.1651 -0.0998  0.3125
  799MPD2    H711781   2.807   2.008  14.534 -2.1865 -2.8020  1.4614
  800MPD2     C11782   2.727   3.414  14.555 -0.0168  0.7858 -0.1417
  800MPD2    C111783   2.837   3.343  14.598 -0.3878 -0.7998  0.8941
  800MPD2    C211784   2.907   3.264  14.505  0.1400 -0.0411  0.3960
  800MPD2    C311785   2.881   3.276  14.376  0.5784  0.2284 -0.4808
  800MPD2    C411786   2.770   3.341  14.333  0.4037  0.2954 -0.4814
  800MPD2    C511787   2.685   3.404  14.424 -0.1691  0.6750 -0.8260
  800MPD2     H11788   2.991   3.202  14.535  1.4029  1.6433  0.3146
  800MPD2    H111789   2.741   3.328  14.230 -1.4595  0.8826 -0.0293
  800MPD2    H211790   2.660   3.464  14.624 -1.6068 -2.0583  0.3689
  800MPD2    H311791   2.599   3.453  14.381 -2.8092 -5.1816 -2.1816
  800MPD2     N11792   2.968   3.230  14.281 -0.6738  0.3083  0.5589
  800MPD2    H511793   3.048   3.184  14.323 -1.6748 -0.2487  1.8495
  800MPD2    N111794   2.888   3.355  14.734  0.0262 -0.4926 -0.2196
  800MPD2    H711795   2.837   3.418  14.795  1.1716 -1.3485  1.6553
  801MPD2     C11796   2.952   3.849  15.217 -0.0388  0.0222  0.2329
  801MPD2    C111797   2.896   3.778  15.115  0.2967  0.0395 -0.4868
  801MPD2    C211798   2.813   3.849  15.029  0.1713 -0.3812  0.3476
  801MPD2    C311799   2.790   3.987  15.043 -0.3374  0.5370 -0.2022
  801MPD2    C411800   2.864   4.049  15.138 -1.0586 -0.2374 -0.6727
  801MPD2    C511801   2.938   3.987  15.229  0.6234 -0.1099  0.3804
  801MPD2     H11802   2.765   3.784  14.957  0.4743 -0.1768 -0.0346
  801MPD2    H111803   2.849   4.156  15.153 -0.5353 -0.0432 -1.5097
  801MPD2    H211804   3.005   3.800  15.297  0.6431  0.0724 -0.1809
  801MPD2    H311805   2.988   4.039  15.310  1.4409 -1.5571  0.8096
  801MPD2     N11806   2.684   4.059  14.988 -0.2418 -0.5399  0.0162
  801MPD2    H511807   2.680   4.153  15.026 -0.8748 -0.1829 -0.9414
  801MPD2    N111808   2.903   3.637  15.095 -0.3224 -0.7667  0.1013
  801MPD2    H711809   2.856   3.599  15.014 -0.0315 -1.3942  0.2185
  802MPD2     C11810   1.826   0.245   0.023  0.4787 -0.1489  0.1172
  802MPD2    C111811   1.911   0.264   0.132 -0.1472  0.0970 -0.3543
  802MPD2    C211812   2.007   0.166   0.156  0.5474  0.0631 -0.1087
  802MPD2    C311813   2.002   0.044   0.087  0.4875  0.6646  0.0738
  802MPD2    C411814   1.914   0.022  17.683 -1.3763 -0.2703  0.0509
  802MPD2    C511815   1.835   0.129  17.646 -0.0947  1.1877  0.1948
  802MPD2     H11816   2.088   0.182   0.226 -1.1457  2.1517  1.3832
  802MPD2    H111817   1.919   4.660  17.618  1.2739  1.1513 -1.6484
  802MPD2    H211818   1.744   0.310  17.694  0.6607  0.0829  0.1230
  802MPD2    H311819   1.780   0.118  17.553  0.1593 -0.6103  0.2588
  802MPD2     N11820   2.114   4.679   0.107  0.0416  0.0635 -0.3072
  802MPD2    H511821   2.174   4.704   0.185  0.4837  0.2270 -0.7045
  802MPD2    N111822   1.920   0.383   0.200  0.0785  0.6510  0.0411
  802MPD2    H711823   1.999   0.387   0.264 -0.0386 -0.4689  0.2595
  803MPD2     C11824   4.174   2.580  11.370  0.4299  0.4697 -0.1834
  803MPD2    C111825   4.165   2.697  11.434 -0.5132 -0.5904 -0.3485
  803MPD2    C211826   4.191   2.704  11.568  0.4643 -0.2837  0.1541
  803MPD2    C311827   4.223   2.588  11.637 -0.7452 -0.2447  0.2023
  803MPD2    C411828   4.237   2.467  11.575  0.4788  0.2794  0.5837
  803MPD2    C511829   4.207   2.463  11.443  0.6674  0.0306  0.3785
  803MPD2     H11830   4.189   2.795  11.628 -1.5557 -1.2925  1.6419
  803MPD2    H111831   4.263   2.379  11.633 -1.8059 -2.1609 -2.1256
  803MPD2    H211832   4.143   2.558  11.268  2.1385  1.4741 -0.9152
  803MPD2    H311833   4.218   2.370  11.389 -1.0949 -0.1727  0.3848
  803MPD2     N11834   4.270   2.590  11.767 -0.7018 -0.2677 -0.2794
  803MPD2    H511835   4.284   2.497  11.803 -1.0300  0.3205  1.3504
  803MPD2    N111836   4.137   2.818  11.366 -0.5707 -0.3823 -0.2995
  803MPD2    H711837   4.129   2.905  11.418  2.3250 -0.4680  0.2753
  804MPD2     C11838   3.034   3.967  17.272  0.1384  0.5650 -0.4711
  804MPD2    C111839   3.034   3.938  17.410 -0.0168  0.1237  0.0536
  804MPD2    C211840   3.058   4.043  17.491 -0.2084  0.4520  0.2079
  804MPD2    C311841   3.105   4.165  17.436 -0.5775  0.0825  0.2423
  804MPD2    C411842   3.116   4.188  17.300  0.1580 -0.7855 -0.4187
  804MPD2    C511843   3.086   4.082  17.222  0.0039 -0.7947 -0.2470
  804MPD2     H11844   3.069   4.028  17.598 -2.2214 -1.0794  0.1940
  804MPD2    H111845   3.140   4.284  17.256  0.4162 -0.3020  0.7798
  804MPD2    H211846   3.011   3.883  17.207  0.3264 -1.3918  2.0031
  804MPD2    H311847   3.090   4.103  17.116  2.4023  0.3448  0.0782
  804MPD2     N11848   3.160   4.266  17.524 -0.1645 -0.3556 -0.4981
  804MPD2    H511849   3.148   4.250  17.623 -1.7886 -0.4391 -0.7049
  804MPD2    N111850   3.010   3.805  17.470 -0.1296 -0.3383  0.2967
  804MPD2    H711851   2.992   3.803  17.570  0.7267 -0.8700  0.4423
  805MPD2     C11852   2.220   2.632  15.825  0.2797 -0.5410  0.0233
  805MPD2    C111853   2.282   2.683  15.715 -0.0478 -0.5596  0.4338
  805MPD2    C211854   2.420   2.700  15.720 -0.0238 -0.2734  0.5350
  805MPD2    C311855   2.484   2.672  15.837 -0.5488  0.5474 -0.7108
  805MPD2    C411856   2.409   2.609  15.936  0.3985 -0.2721  0.0382
  805MPD2    C511857   2.282   2.605  15.939  0.0207  0.0217  0.1969
  805MPD2     H11858   2.472   2.731  15.630 -3.2245 -1.3899 -1.6901
  805MPD2    H111859   2.460   2.577  16.026 -1.3338 -0.1352  1.0584
  805MPD2    H211860   2.119   2.594  15.814 -0.3747  0.9976  0.6180
  805MPD2    H311861   2.244   2.554  16.027  1.0084 -0.3094  0.4337
  805MPD2     N11862   2.624   2.687  15.849  0.2445  0.0354 -0.0889
  805MPD2    H511863   2.669   2.732  15.770 -0.5393  2.3970  0.7981
  805MPD2    N111864   2.217   2.712  15.593  0.0391  0.1381 -0.4400
  805MPD2    H711865   2.269   2.735  15.509 -0.1001 -0.9498 -0.8152
  806MPD2     C11866   2.706   1.844   0.558 -0.0522 -0.5184 -0.6525
  806MPD2    C111867   2.787   1.800   0.663  0.9182 -0.2655 -0.0787
  806MPD2    C211868   2.928   1.822   0.655  0.2687  0.4551  0.2077
  806MPD2    C311869   2.982   1.884   0.543 -0.7492 -0.2233  0.3460
  806MPD2    C411870   2.901   1.928   0.440  0.1142 -0.3307 -0.2764
  806MPD2    C511871   2.768   1.904   0.450  0.4828 -0.7964 -0.0031
  806MPD2     H11872   2.995   1.803   0.737  1.5865 -0.3697 -1.0554
  806MPD2    H111873   2.931   1.987   0.355  1.8821 -0.7695  0.0512
  806MPD2    H211874   2.597   1.840   0.565 -0.2700  0.2078 -3.4774
  806MPD2    H311875   2.705   1.931   0.366  0.6299  2.3718  0.8980
  806MPD2     N11876   3.118   1.913   0.548 -0.7784 -0.1143  0.6589
  806MPD2    H511877   3.166   1.897   0.636 -0.7974 -1.3127  0.4588
  806MPD2    N111878   2.732   1.738   0.779  0.2244 -0.0208  0.1315
  806MPD2    H711879   2.632   1.745   0.793 -0.0872 -1.5321 -1.3000
  807MPD2     C11880   2.268   1.739   1.398 -0.1413  0.5560  0.1754
  807MPD2    C111881   2.394   1.798   1.426 -0.9565  0.2250 -0.0561
  807MPD2    C211882   2.413   1.853   1.555  0.1511 -0.0549 -0.1117
  807MPD2    C311883   2.305   1.871   1.643  0.4629  0.2181 -0.1902
  807MPD2    C411884   2.177   1.826   1.610 -0.4624  0.0811  0.0522
  807MPD2    C511885   2.168   1.757   1.493 -0.4517  0.2976 -0.5663
  807MPD2     H11886   2.512   1.893   1.571 -0.3772  1.0513  0.4267
  807MPD2    H111887   2.094   1.830   1.681  1.0278  1.9662  1.6730
  807MPD2    H211888   2.253   1.687   1.304 -1.1647  0.9438  0.1259
  807MPD2    H311889   2.070   1.717   1.467  0.1082 -1.6124  0.2811
  807MPD2     N11890   2.337   1.930   1.771  0.2726 -0.2492  0.2277
  807MPD2    H511891   2.433   1.949   1.795  0.3254 -0.4015  0.1402
  807MPD2    N111892   2.510   1.767   1.346  0.0448 -0.0881 -1.0261
  807MPD2    H711893   2.595   1.806   1.388 -0.3361 -0.6181  0.2454
  808MPD2     C11894   4.007   2.818   9.749 -0.0473  0.5063 -0.5483
  808MPD2    C111895   3.884   2.877   9.726 -0.7256 -0.2827  0.3035
  808MPD2    C211896   3.878   3.015   9.743 -0.4586 -0.4475 -0.7923
  808MPD2    C311897   3.991   3.089   9.784  0.6771  0.4004  0.2385
  808MPD2    C411898   4.110   3.026   9.807 -0.0027 -0.0717  0.2105
  808MPD2    C511899   4.115   2.888   9.793  0.8418  0.2990  0.0511
  808MPD2     H11900   3.790   3.071   9.714  0.6655  2.5199  1.5080
  808MPD2    H111901   4.201   3.077   9.839  0.5956 -1.2605  0.3865
  808MPD2    H211902   4.022   2.711   9.738  1.6142  0.7114 -0.1811
  808MPD2    H311903   4.207   2.836   9.818 -0.6565 -1.8755  0.9678
  808MPD2     N11904   3.999   3.224   9.812 -0.2108 -0.2145  0.4465
  808MPD2    H511905   4.093   3.254   9.834 -0.3533 -2.5137  4.1789
  808MPD2    N111906   3.777   2.804   9.669 -0.5953  0.0702 -0.7426
  808MPD2    H711907   3.697   2.854   9.630  1.0512  1.2789 -2.5406
  809MPD2     C11908   4.605   3.985   9.646 -0.0793 -0.5785  0.6553
  809MPD2    C111909   4.608   3.844   9.634 -0.2802  0.1453  0.8244
  809MPD2    C211910   4.501   3.777   9.689  0.5107  0.7228 -0.4455
  809MPD2    C311911   4.397   3.840   9.755  0.5409 -0.0671  0.9153
  809MPD2    C411912   4.407   3.979   9.764  0.0979  0.0592 -0.4979
  809MPD2    C511913   4.507   4.051   9.708 -0.5821 -0.7705 -0.1661
  809MPD2     H11914   4.504   3.668   9.686  1.5099  0.7338  0.1681
  809MPD2    H111915   4.330   4.042   9.806 -0.9452 -0.4926 -1.5964
  809MPD2    H211916   4.687   4.042   9.605 -1.8111  0.5115 -1.2827
  809MPD2    H311917   4.496   4.158   9.708 -0.9663 -0.8163 -2.4796
  809MPD2     N11918   4.277   3.778   9.802  0.1578  0.3923  0.5791
  809MPD2    H511919   4.199   3.842   9.820 -0.4836  0.3915 -2.1890
  809MPD2    N111920   4.719   3.777   9.579  1.0439  0.0549 -0.1785
  809MPD2    H711921   4.719   3.679   9.603 -1.8790  0.2153  0.4338
  810MPD2     C11922   3.595   2.074  10.835  0.3009  0.2984  0.4869
  810MPD2    C111923   3.517   2.127  10.732 -0.2270 -0.1653 -0.3281
  810MPD2    C211924   3.513   2.268  10.699  0.0580  0.0594 -0.0459
  810MPD2    C311925   3.596   2.354  10.778 -0.2222 -0.3170  0.5188
  810MPD2    C411926   3.690   2.301  10.866  0.0137 -1.1200 -0.2070
  810MPD2    C511927   3.682   2.166  10.900  0.1811  0.5029  0.0883
  810MPD2     H11928   3.435   2.313  10.639  0.5751  0.0177 -0.7445
  810MPD2    H111929   3.760   2.359  10.924 -1.3993 -0.5104  0.8880
  810MPD2    H211930   3.599   1.968  10.859  0.8608  0.0402 -0.7496
  810MPD2    H311931   3.757   2.128  10.968  0.2175  1.8350  0.7842
  810MPD2     N11932   3.593   2.491  10.765 -0.8449  0.2060 -0.4753
  810MPD2    H511933   3.653   2.535  10.834  0.7886 -0.9170 -1.1678
  810MPD2    N111934   3.425   2.034  10.671 -0.3540 -1.1761 -0.4055
  810MPD2    H711935   3.421   1.942  10.713  2.1898 -1.1645 -0.1579
  811MPD2     C11936   2.756   1.883  10.081 -0.0295 -0.1452  0.1895
  811MPD2    C111937   2.877   1.927  10.128 -0.5578 -0.2517 -0.5536
  811MPD2    C211938   2.912   2.060  10.113  0.1227 -0.4123  0.1977
  811MPD2    C311939   2.839   2.143  10.038 -0.4577 -0.0292 -0.4066
  811MPD2    C411940   2.719   2.098   9.990 -0.8038 -0.0654  0.7395
  811MPD2    C511941   2.680   1.968  10.010 -0.6906  0.4924 -0.4604
  811MPD2     H11942   3.005   2.098  10.154 -1.3945  0.6129  2.6487
  811MPD2    H111943   2.655   2.161   9.929  1.2725  3.0850  1.7891
  811MPD2    H211944   2.722   1.780  10.082  0.8312 -0.4333  0.1311
  811MPD2    H311945   2.585   1.928   9.974  0.9507 -2.6212 -1.2903
  811MPD2     N11946   2.879   2.280  10.022 -0.6275 -1.1110  0.2901
  811MPD2    H511947   2.967   2.291  10.072  0.1145 -1.2522 -0.9718
  811MPD2    N111948   2.962   1.834  10.202 -0.2160  0.1714 -0.0842
  811MPD2    H711949   2.927   1.756  10.256 -0.3787  0.9530  0.9361
  812MPD2     C11950   2.157   2.347  12.737  0.2607 -0.6486  0.1599
  812MPD2    C111951   2.051   2.382  12.809 -0.3079  0.0460 -0.3047
  812MPD2    C211952   2.021   2.296  12.916  0.2342 -0.1767 -0.4133
  812MPD2    C311953   2.109   2.197  12.959 -0.2173  0.4472 -0.2550
  812MPD2    C411954   2.222   2.173  12.886  0.5061 -0.3495 -0.0517
  812MPD2    C511955   2.244   2.251  12.769  0.6769  1.1434  0.3323
  812MPD2     H11956   1.935   2.311  12.979  0.4179  0.8137 -0.3878
  812MPD2    H111957   2.291   2.092  12.905  0.0781 -0.2909  1.7247
  812MPD2    H211958   2.183   2.413  12.655 -0.3812 -0.3518  0.1981
  812MPD2    H311959   2.330   2.232  12.706  0.5664 -2.2035  1.1610
  812MPD2     N11960   2.077   2.126  13.074 -0.1672  0.1826  0.1498
  812MPD2    H511961   2.002   2.159  13.133  0.3674  0.4668  0.6650
  812MPD2    N111962   1.973   2.484  12.759 -0.0458 -0.0655 -0.4630
  812MPD2    H711963   2.001   2.531  12.673  2.1407  1.1220  0.9054
  813MPD2     C11964   1.734   0.140  14.084 -0.0514  0.1145 -0.6529
  813MPD2    C111965   1.708   0.200  13.963  0.5262  0.6504 -0.4783
  813MPD2    C211966   1.575   0.238  13.931  0.2954 -0.7198  0.5103
  813MPD2    C311967   1.472   0.210  14.019 -0.6514 -0.0626  0.8326
  813MPD2    C411968   1.500   0.151  14.137  0.0815 -0.0932  0.0760
  813MPD2    C511969   1.628   0.121  14.165 -0.6492  0.1969  0.7120
  813MPD2     H11970   1.555   0.271  13.830 -2.0069 -1.4162  0.7349
  813MPD2    H111971   1.422   0.130  14.209  1.0933  2.1207  1.8204
  813MPD2    H211972   1.834   0.118  14.120 -0.0586 -1.1875 -1.4288
  813MPD2    H311973   1.640   0.078  14.264 -2.0991 -3.5188 -0.7292
  813MPD2     N11974   1.343   0.242  13.978  0.6653 -0.2551  0.1198
  813MPD2    H511975   1.338   0.284  13.886  2.1527 -2.1584 -0.8417
  813MPD2    N111976   1.816   0.218  13.878 -0.0532  0.2123 -0.1353
  813MPD2    H711977   1.898   0.161  13.900  0.4442  1.1388  0.4007
  814MPD2     C11978   1.272   1.095  12.418 -0.0914  0.7853 -0.0437
  814MPD2    C111979   1.368   1.093  12.321  0.2396 -0.9028 -0.0397
  814MPD2    C211980   1.469   1.183  12.314  0.1963 -0.8392 -0.3054
  814MPD2    C311981   1.494   1.264  12.422 -0.6495  0.2598 -0.6510
  814MPD2    C411982   1.399   1.266  12.527 -0.3326  0.4508 -1.3312
  814MPD2    C511983   1.294   1.182  12.520  1.0267  0.7995 -0.0738
  814MPD2     H11984   1.535   1.171  12.229  1.3400 -2.1886  0.7505
  814MPD2    H111985   1.414   1.334  12.610 -0.7988  1.0696 -1.7542
  814MPD2    H211986   1.184   1.032  12.414  1.8446 -1.9448 -0.0738
  814MPD2    H311987   1.217   1.183  12.597 -1.3948 -0.8647 -2.4542
  814MPD2     N11988   1.602   1.352  12.431 -0.8245  0.1674 -0.0467
  814MPD2    H511989   1.612   1.409  12.515  3.4229  1.5250 -1.4289
  814MPD2    N111990   1.362   0.995  12.215 -0.2219 -0.4114  0.2957
  814MPD2    H711991   1.447   0.984  12.160  1.6401  0.9667  2.9206
  815MPD2     C11992   2.023   3.212  12.701 -0.2180  0.2041  0.2914
  815MPD2    C111993   1.990   3.238  12.569  0.4487 -0.0032  0.3321
  815MPD2    C211994   1.856   3.270  12.549 -0.6845 -0.5659 -0.0385
  815MPD2    C311995   1.765   3.279  12.653  0.1920 -0.1030  0.2431
  815MPD2    C411996   1.811   3.252  12.782  0.0228  0.3772 -0.1072
  815MPD2    C511997   1.941   3.219  12.808 -0.2960 -0.2107  0.3443
  815MPD2     H11998   1.808   3.288  12.453 -0.7587  1.4601  0.3796
  815MPD2    H111999   1.741   3.243  12.865  2.1924 -0.9779  1.6013
  815MPD2    H212000   2.123   3.175  12.721 -0.9359 -2.3847 -1.0491
  815MPD2    H312001   1.973   3.224  12.911 -1.4039  3.1687  0.5324
  815MPD2     N12002   1.627   3.317  12.631  0.3910 -0.1714  0.4828
  815MPD2    H512003   1.608   3.359  12.541 -1.1044 -0.1749  0.8070
  815MPD2    N112004   2.078   3.214  12.459 -0.3415  0.1055  0.3156
  815MPD2    H712005   2.158   3.153  12.470 -0.8898 -0.4370  1.3046
  816MPD2     C12006   1.385   3.564  17.693  1.3261  0.4725 -0.8297
  816MPD2    C112007   1.445   3.679  17.650 -0.2468 -0.5951  0.2296
  816MPD2    C212008   1.567   3.666  17.578  0.0321  0.0666  0.0702
  816MPD2    C312009   1.627   3.543  17.570 -0.1046 -0.2936  0.5855
  816MPD2    C412010   1.563   3.429  17.609 -0.6466 -0.1952  0.0527
  816MPD2    C512011   1.441   3.443  17.668 -0.3051  0.1066  0.8128
  816MPD2     H12012   1.621   3.754  17.545 -0.5594  0.0096 -1.0542
  816MPD2    H112013   1.601   3.328  17.598  1.0387  0.2796  1.4692
  816MPD2    H212014   1.286   3.554   0.037  2.5364  1.1991  2.1201
  816MPD2    H312015   1.398   3.348  17.698  0.0079 -0.4047 -0.3756
  816MPD2     N12016   1.758   3.544  17.517 -0.7897  0.9215 -0.0065
  816MPD2    H512017   1.796   3.636  17.501 -1.3467  0.7992 -2.0287
  816MPD2    N112018   1.382   3.799  17.683 -0.4039 -0.4035 -0.3249
  816MPD2    H712019   1.296   3.796   0.038 -0.1824 -3.3058 -0.1412
  817MPD2     C12020   1.493   4.182  10.456 -0.3812 -0.3116  1.1431
  817MPD2    C112021   1.601   4.234  10.379  0.8621  0.7898 -0.0525
  817MPD2    C212022   1.560   4.325  10.279 -0.5258 -0.3762  0.2386
  817MPD2    C312023   1.424   4.357  10.264 -0.0312 -0.7730  0.0242
  817MPD2    C412024   1.326   4.298  10.349  0.3725  0.1797 -0.6244
  817MPD2    C512025   1.362   4.208  10.444  0.1427  0.1764  0.6409
  817MPD2     H12026   1.629   4.363  10.204 -0.4948 -0.6683  0.1223
  817MPD2    H112027   1.226   4.339  10.343  1.1962  2.3904  1.0091
  817MPD2    H212028   1.519   4.105  10.528  0.0236 -0.0386  1.2922
  817MPD2    H312029   1.289   4.156  10.504  0.1029 -2.7558 -1.9226
  817MPD2     N12030   1.395   4.450  10.160 -0.4985  0.6761 -0.0568
  817MPD2    H512031   1.471   4.480  10.100  0.4187 -1.6688 -0.0662
  817MPD2    N112032   1.734   4.204  10.386  0.2712 -0.6382  0.1642
  817MPD2    H712033   1.794   4.263  10.329 -2.2743  1.5367 -0.2384
  818MPD2     C12034   0.061   4.698  10.208  0.3488  0.5940  0.2426
  818MPD2    C112035   0.173   4.623  10.199 -0.0693  0.0178 -0.6934
  818MPD2    C212036   0.155   4.497  10.151  0.4871  0.0227  0.2186
  818MPD2    C312037   0.026   4.448  10.115  0.2181 -0.3375 -0.3649
  818MPD2    C412038   4.645   4.530  10.132  0.0276  0.4919 -0.1049
  818MPD2    C512039   4.663   4.657  10.181 -0.3646  0.8408  0.5204
  818MPD2     H12040   0.244   4.436  10.135 -0.4621 -1.5210  0.7860
  818MPD2    H112041   4.544   4.503  10.104 -0.2127 -0.1442  1.3521
  818MPD2    H212042   0.069   0.077  10.238 -0.4504 -0.0060  2.5222
  818MPD2    H312043   4.578   4.724  10.183  0.3921  1.8233 -0.2669
  818MPD2     N12044   0.011   4.328  10.041  0.4433  0.0528 -0.3079
  818MPD2    H512045   4.645   4.302  10.003 -0.7754  2.3044  1.1039
  818MPD2    N112046   0.304   4.671  10.226 -0.0694 -0.1079  0.2966
  818MPD2    H712047   0.373   4.598  10.233  1.8328  1.4624 -2.0440
  819MPD2     C12048   3.125   2.504  15.787  0.1325  0.1131 -0.5513
  819MPD2    C112049   3.100   2.374  15.822  0.0998  0.7034  0.1282
  819MPD2    C212050   3.190   2.306  15.905 -0.2052  0.3529  0.4596
  819MPD2    C312051   3.298   2.374  15.946 -1.3568 -0.1198 -0.3483
  819MPD2    C412052   3.316   2.508  15.917  0.8072  0.0216 -0.4597
  819MPD2    C512053   3.233   2.568  15.825  0.7745  0.7453 -0.2858
  819MPD2     H12054   3.171   2.203  15.930 -2.6598  1.0112  1.3719
  819MPD2    H112055   3.395   2.567  15.963  1.0055 -0.0666 -0.6849
  819MPD2    H212056   3.051   2.567  15.739  1.2173  2.7370  1.2088
  819MPD2    H312057   3.252   2.672  15.801 -0.6915  0.6355 -1.9196
  819MPD2     N12058   3.388   2.298  16.022  0.4172 -0.3786 -0.0272
  819MPD2    H512059   3.357   2.205  16.050 -0.0704 -0.0070  0.6652
  819MPD2    N112060   2.984   2.313  15.761 -0.3107  0.2538 -0.5644
  819MPD2    H712061   2.938   2.367  15.689  1.4645 -0.0490 -1.9209
  820MPD2     C12062   2.375   2.360  15.016 -0.3158  0.0336  0.1012
  820MPD2    C112063   2.375   2.438  15.130 -0.0496 -0.0496 -0.9216
  820MPD2    C212064   2.439   2.387  15.236 -0.7323 -0.2462  0.6674
  820MPD2    C312065   2.504   2.263  15.236  0.3020 -0.0163  0.0234
  820MPD2    C412066   2.503   2.186  15.126 -0.3162  0.0266 -0.0572
  820MPD2    C512067   2.439   2.239  15.012  0.3868  0.5904  0.1249
  820MPD2     H12068   2.442   2.447  15.326  0.2045 -0.7523  0.9749
  820MPD2    H112069   2.543   2.085  15.120 -1.2834 -0.4308  0.9858
  820MPD2    H212070   2.327   2.388  14.922  0.4640 -0.9032 -0.5731
  820MPD2    H312071   2.450   2.193  14.915  0.3943  0.3747  0.2289
  820MPD2     N12072   2.566   2.209  15.350  0.6885 -0.3158  0.0992
  820MPD2    H512073   2.590   2.110  15.356  0.0429 -0.5392 -1.1283
  820MPD2    N112074   2.304   2.561  15.138 -0.2005 -0.6738 -0.4184
  820MPD2    H712075   2.247   2.590  15.059 -1.0364 -2.9000 -0.6389
  821MPD2     C12076   3.347   3.201  13.489 -0.4989 -0.3927 -0.1539
  821MPD2    C112077   3.441   3.215  13.583 -0.3458  0.2743  0.3629
  821MPD2    C212078   3.578   3.229  13.552  0.5618  0.1329 -0.3278
  821MPD2    C312079   3.613   3.232  13.415 -0.3356 -0.1015 -0.1658
  821MPD2    C412080   3.515   3.234  13.318 -0.0409  1.6024 -0.3671
  821MPD2    C512081   3.386   3.208  13.359  0.2593 -0.4320  0.2964
  821MPD2     H12082   3.654   3.220  13.628  0.0000  1.8223  0.4268
  821MPD2    H112083   3.547   3.231  13.214 -2.1470 -1.9093 -0.9134
  821MPD2    H212084   3.247   3.181  13.526 -0.2239 -1.9965 -0.2824
  821MPD2    H312085   3.310   3.190  13.284 -0.2326  0.8697  0.4746
  821MPD2     N12086   3.744   3.251  13.367 -0.4949 -0.0316 -0.5472
  821MPD2    H512087   3.760   3.266  13.268  2.2355 -0.6028 -0.1922
  821MPD2    N112088   3.419   3.212  13.719 -0.1190 -0.8861 -0.1332
  821MPD2    H712089   3.495   3.240  13.779 -0.7676  0.3154  0.1331
  822MPD2     C12090   3.747   3.487  16.083 -0.1634  0.2018 -0.1271
  822MPD2    C112091   3.730   3.430  16.209 -0.2315  0.1290  0.5610
  822MPD2    C212092   3.666   3.500  16.310 -0.0974  0.3517  0.1978
  822MPD2    C312093   3.631   3.632  16.284 -0.4163  0.3731 -0.1734
  822MPD2    C412094   3.645   3.691  16.159 -0.4952 -0.4931 -0.1500
  822MPD2    C512095   3.706   3.617  16.059 -1.4038 -0.3710 -0.3237
  822MPD2     H12096   3.647   3.460  16.410  1.7040  1.1584  0.8701
  822MPD2    H112097   3.620   3.793  16.132 -0.1311 -0.3652 -0.0005
  822MPD2    H212098   3.800   3.439  16.002 -1.3601 -3.0730  1.0507
  822MPD2    H312099   3.734   3.672  15.970  1.1341  1.3392  1.5244
  822MPD2     N12100   3.594   3.707  16.395  0.0707  0.2747  0.4399
  822MPD2    H512101   3.592   3.653  16.481  1.9370 -0.1923  0.2025
  822MPD2    N112102   3.774   3.299  16.242 -0.1454 -0.1161  0.2344
  822MPD2    H712103   3.742   3.252  16.326  0.7240  3.5488  2.6545
  823MPD2     C12104   3.421   3.905  17.207  0.1419  0.2015 -0.5920
  823MPD2    C112105   3.453   3.805  17.120 -0.0283  0.3462  0.3748
  823MPD2    C212106   3.450   3.670  17.160  0.2724  0.6861 -0.6807
  823MPD2    C312107   3.422   3.641  17.295  0.3470 -0.5494  0.0119
  823MPD2    C412108   3.380   3.741  17.382 -0.2190 -0.0333 -0.2449
  823MPD2    C512109   3.377   3.872  17.334  0.2069  0.8653  0.2418
  823MPD2     H12110   3.489   3.594  17.094 -1.8652 -1.4183  0.4686
  823MPD2    H112111   3.346   3.716  17.482 -0.7017 -0.1745 -0.4442
  823MPD2    H212112   3.425   4.011  17.185  2.0611  0.5874  1.5555
  823MPD2    H312113   3.355   3.947  17.409 -0.1403 -1.4012  2.4217
  823MPD2     N12114   3.433   3.512  17.352  0.1713 -0.3535  0.0093
  823MPD2    H512115   3.407   3.505  17.450  0.4454  1.8685  0.2424
  823MPD2    N112116   3.497   3.846  16.995  0.0865  0.0488 -0.1877
  823MPD2    H712117   3.515   3.946  16.982 -1.2248  0.4756  1.3506
  824MPD2     C12118   4.384   2.615  16.276 -0.0036 -0.6750  0.0689
  824MPD2    C112119   4.333   2.693  16.178  0.4086 -0.4715 -0.1062
  824MPD2    C212120   4.396   2.688  16.057 -0.6995 -0.0512  0.1329
  824MPD2    C312121   4.482   2.586  16.027  0.0919  0.6493  0.2391
  824MPD2    C412122   4.523   2.496  16.125 -0.0852 -0.2101 -0.1388
  824MPD2    C512123   4.476   2.521  16.252  0.1610 -0.2968 -0.8388
  824MPD2     H12124   4.351   2.739  15.973  1.7262  1.8644  0.0082
  824MPD2    H112125   4.583   2.407  16.109 -0.0170 -0.0565 -0.7482
  824MPD2    H212126   4.352   2.625  16.380  1.8970 -1.4497  0.7268
  824MPD2    H312127   4.506   2.460  16.337 -1.0304 -0.4615 -0.5442
  824MPD2     N12128   4.532   2.574  15.899 -0.3237  0.7781  0.0316
  824MPD2    H512129   4.486   2.638  15.836  1.0686  2.0406  0.3047
  824MPD2    N112130   4.236   2.784  16.211 -0.1838  0.5080  0.5305
  824MPD2    H712131   4.192   2.764  16.300  1.1407  0.2844  1.1317
  825MPD2     C12132   0.196   2.826  15.167 -0.3720  0.0858  0.8718
  825MPD2    C112133   0.184   2.841  15.306 -0.4770  0.4144 -0.1475
  825MPD2    C212134   0.240   2.953  15.362 -0.2983  0.6005 -0.2104
  825MPD2    C312135   0.322   3.038  15.280 -0.2322  0.0450  0.3997
  825MPD2    C412136   0.342   3.008  15.146  0.3327 -0.9557 -0.1347
  825MPD2    C512137   0.285   2.896  15.088 -0.1030  0.3843  0.4061
  825MPD2     H12138   0.214   2.977  15.464 -0.1185  0.2366 -0.0807
  825MPD2    H112139   0.391   3.073  15.075  1.4427 -0.9713  0.6298
  825MPD2    H212140   0.152   2.739  15.121 -1.9490  0.8456  0.9381
  825MPD2    H312141   0.296   2.884  14.981  1.1241  0.2904  0.5425
  825MPD2     N12142   0.348   3.171  15.319 -0.1851 -0.5589 -0.2486
  825MPD2    H512143   0.393   3.230  15.250 -0.7295 -0.7159 -0.7374
  825MPD2    N112144   0.105   2.740  15.363 -0.3129  0.0834 -0.0919
  825MPD2    H712145   0.063   2.671  15.303 -0.2341  1.8140 -2.1353
  826MPD2     C12146   0.029   2.969  14.061  0.2676  0.2128 -0.1487
  826MPD2    C112147   4.677   2.961  13.948 -0.3265  0.3828 -0.6169
  826MPD2    C212148   4.546   3.012  13.960 -0.2386  0.0606  0.5749
  826MPD2    C312149   4.501   3.067  14.081 -0.3681  0.0591 -0.3472
  826MPD2    C412150   4.582   3.076  14.193 -0.2175  1.0169 -0.4395
  826MPD2    C512151   4.709   3.021  14.182 -0.0263 -0.4550  0.2563
  826MPD2     H12152   4.488   3.037  13.872  0.1275  0.0319  0.3269
  826MPD2    H112153   4.551   3.123  14.285  1.4493 -0.8319  1.0361
  826MPD2    H212154   0.131   2.933  14.054  0.7112  1.7952 -1.7816
  826MPD2    H312155   0.046   3.029  14.271 -0.8102 -1.4341  0.8876
  826MPD2     N12156   4.363   3.097  14.110  0.3081 -1.2082 -0.2742
  826MPD2    H512157   4.344   3.126  14.205 -0.8178 -0.8026 -0.6237
  826MPD2    N112158   0.012   2.917  13.830  0.2702  0.2750  0.5817
  826MPD2    H712159   0.109   2.887  13.827  0.8580  2.1319  0.7947
  827MPD2     C12160   1.156   3.890  10.405 -0.3041 -0.3193  0.0463
  827MPD2    C112161   1.077   3.795  10.458  0.0317 -0.6147 -0.6324
  827MPD2    C212162   0.976   3.742  10.384  0.2969  0.0725 -0.2854
  827MPD2    C312163   0.953   3.786  10.255  0.9393 -0.3053  0.2241
  827MPD2    C412164   1.034   3.885  10.211 -0.5269 -0.4748 -0.5461
  827MPD2    C512165   1.136   3.942  10.283 -0.1389 -0.0935  0.5231
  827MPD2     H12166   0.919   3.661  10.428  0.7700  0.6239  1.3465
  827MPD2    H112167   1.029   3.926  10.111  0.7118  1.7459  0.2877
  827MPD2    H212168   1.240   3.935  10.457  0.0430  1.8370 -2.3920
  827MPD2    H312169   1.183   4.032  10.245  0.3700 -1.1017 -1.1925
  827MPD2     N12170   0.863   3.709  10.178  0.0437 -0.4055 -0.0808
  827MPD2    H512171   0.809   3.634  10.219  1.7693 -0.9083  1.2868
  827MPD2    N112172   1.101   3.754  10.600 -0.5401 -0.2054 -0.2096
  827MPD2    H712173   1.165   3.816  10.648 -0.6001 -1.5258  1.5559
  828MPD2     C12174   3.318   3.397  12.258 -0.8348  0.5318 -0.1047
  828MPD2    C112175   3.398   3.281  12.253  0.0557 -0.1105  0.1018
  828MPD2    C212176   3.447   3.229  12.135 -0.3745 -0.2629  0.1298
  828MPD2    C312177   3.419   3.298  12.019 -0.2417 -0.7854  0.3229
  828MPD2    C412178   3.348   3.420  12.027  0.3335 -0.0990  0.6692
  828MPD2    C512179   3.295   3.465  12.138 -0.2403 -0.8416  0.7210
  828MPD2     H12180   3.496   3.133  12.140  1.5212  0.7825  1.8320
  828MPD2    H112181   3.323   3.474  11.937 -0.4610 -0.4820  0.6610
  828MPD2    H212182   3.284   3.442  12.350 -1.5628 -0.7287  0.2485
  828MPD2    H312183   3.244   3.560  12.146  0.0243 -0.7935  2.0102
  828MPD2     N12184   3.465   3.249  11.896  0.4116 -0.0669 -0.0884
  828MPD2    H512185   3.435   3.303  11.815 -1.4749  0.6389  1.1023
  828MPD2    N112186   3.419   3.205  12.373 -0.4525 -0.8084 -0.5052
  828MPD2    H712187   3.470   3.118  12.364 -0.3730 -0.8290  0.1995
  829MPD2     C12188   2.668   3.131  12.544 -0.3062 -0.0274  0.1316
  829MPD2    C112189   2.761   3.215  12.496  0.9406  0.0736  0.4562
  829MPD2    C212190   2.892   3.191  12.520  0.1263  0.1005 -1.0582
  829MPD2    C312191   2.929   3.086  12.608 -0.3381  0.2202  0.1666
  829MPD2    C412192   2.834   2.992  12.642 -0.2642 -0.9715 -0.6692
  829MPD2    C512193   2.703   3.016  12.608 -0.0822  0.2268  0.0846
  829MPD2     H12194   2.957   3.259  12.466 -1.7822  2.0390 -0.9509
  829MPD2    H112195   2.857   2.895  12.686 -1.3879  0.0313  2.1276
  829MPD2    H212196   2.562   3.154  12.540  0.3008  2.6960 -0.5484
  829MPD2    H312197   2.628   2.947  12.645 -1.8920  1.6915 -0.8329
  829MPD2     N12198   3.060   3.066  12.626  0.2404  0.7918 -0.2020
  829MPD2    H512199   3.125   3.123  12.573  0.9529  0.7178  0.5870
  829MPD2    N112200   2.733   3.326  12.416 -0.0905 -0.0413  0.1003
  829MPD2    H712201   2.805   3.374  12.363  0.2633 -0.7442 -0.0582
  830MPD2     C12202   4.094   1.901  16.096 -0.8261  0.1066 -0.4761
  830MPD2    C112203   3.986   1.902  16.012  0.6032 -0.1734  0.2190
  830MPD2    C212204   4.010   1.895  15.873  0.6196 -0.5313 -0.6831
  830MPD2    C312205   4.144   1.867  15.836  0.2806  0.4758 -1.3905
  830MPD2    C412206   4.245   1.860  15.929  0.0134  0.5282 -0.5515
  830MPD2    C512207   4.223   1.880  16.059 -0.0147 -0.0827  0.1358
  830MPD2     H12208   3.925   1.880  15.807 -0.7894  4.0056  0.0965
  830MPD2    H112209   4.344   1.828  15.897 -0.0722 -1.0495  0.7880
  830MPD2    H212210   4.079   1.910  16.203 -0.8825  1.8850 -0.6353
  830MPD2    H312211   4.297   1.873  16.138 -0.8298  1.3497  1.0242
  830MPD2     N12212   4.186   1.864  15.700 -0.0364  0.4685  0.0594
  830MPD2    H512213   4.283   1.841  15.683  0.3031  1.4004  0.7659
  830MPD2    N112214   3.858   1.915  16.070 -0.6998 -0.0821 -0.1683
  830MPD2    H712215   3.852   1.909  16.171  2.4791  3.2559  0.2362
  831MPD2     C12216   3.770   3.478  16.789  0.4080  0.3714  0.1457
  831MPD2    C112217   3.792   3.387  16.689  0.2725  0.1807  0.0262
  831MPD2    C212218   3.722   3.268  16.674  0.5176 -0.3155  0.1281
  831MPD2    C312219   3.602   3.266  16.747 -0.5280  0.4437 -0.8911
  831MPD2    C412220   3.575   3.360  16.845 -0.6648  0.9320  0.8740
  831MPD2    C512221   3.663   3.462  16.872  0.4351 -0.0437 -0.3356
  831MPD2     H12222   3.733   3.210  16.583 -2.9224  1.7954 -1.6353
  831MPD2    H112223   3.493   3.351  16.916  0.0881 -0.1655  1.5885
  831MPD2    H212224   3.835   3.564  16.795 -0.1335  0.5864  2.7564
  831MPD2    H312225   3.645   3.536  16.950 -1.3387 -0.4369 -0.3746
  831MPD2     N12226   3.509   3.158  16.723  0.6591  0.1177  0.1521
  831MPD2    H512227   3.426   3.158  16.782  0.5570 -2.0886  0.0130
  831MPD2    N112228   3.887   3.409  16.590  0.1379 -0.6847 -0.4813
  831MPD2    H712229   3.908   3.329  16.531 -4.2489 -3.1798  1.3076
  832MPD2     C12230   2.290   0.180  17.532  0.1752 -0.5867 -0.4054
  832MPD2    C112231   2.207   0.290  17.542  0.4632  0.2526  0.2477
  832MPD2    C212232   2.090   0.278  17.471 -0.1019 -0.5209  0.4571
  832MPD2    C312233   2.053   0.159  17.401 -0.4745 -0.5641  0.1942
  832MPD2    C412234   2.136   0.053  17.394 -0.6479 -0.2742 -0.1295
  832MPD2    C512235   2.261   0.066  17.454  0.3727  0.0891 -0.5667
  832MPD2     H12236   2.011   0.351  17.480 -0.2330 -0.4238 -1.4761
  832MPD2    H112237   2.126   4.694  17.326 -2.5993  0.4911 -0.7952
  832MPD2    H212238   2.387   0.168  17.579  0.6664 -1.8684 -1.7109
  832MPD2    H312239   2.342   4.719  17.451 -0.9785 -1.4550 -0.4069
  832MPD2     N12240   1.924   0.147  17.334  0.0893 -0.7943 -0.1193
  832MPD2    H512241   1.899   0.058  17.291 -1.5882 -1.1035  1.4943
  832MPD2    N112242   2.253   0.403  17.622  0.5749 -0.0880 -0.1939
  832MPD2    H712243   2.338   0.392  17.676  0.4307  2.5428  0.5490
  833MPD2     C12244   4.627   1.062  12.766  0.0957 -0.0095  0.2489
  833MPD2    C112245   4.678   1.159  12.677  0.1049  0.3619  0.6096
  833MPD2    C212246   0.066   1.122  12.609 -0.2469 -0.6876 -0.4641
  833MPD2    C312247   0.130   0.999  12.628  0.3336  0.7441 -0.5103
  833MPD2    C412248   0.074   0.908  12.719  0.7127 -0.4953 -0.4328
  833MPD2    C512249   4.685   0.941  12.781  0.3261 -0.1350  0.7195
  833MPD2     H12250   0.092   1.173  12.517 -0.9826 -0.2413 -0.4238
  833MPD2    H112251   0.116   0.811  12.743 -0.4810 -1.0571 -0.6023
  833MPD2    H212252   4.537   1.083  12.823 -0.5680 -1.9066 -0.0895
  833MPD2    H312253   4.650   0.874  12.859 -1.0349  0.1783  0.3829
  833MPD2     N12254   0.244   0.967  12.549  0.0986 -0.0271  0.1272
  833MPD2    H512255   0.273   1.048  12.494 -1.2695 -0.3152 -1.0315
  833MPD2    N112256   4.611   1.284  12.659 -0.6438  0.1529  0.0752
  833MPD2    H712257   4.519   1.289  12.701 -0.7289 -1.4176  0.0750
  834MPD2     C12258   4.627   0.496  11.827 -0.2752 -0.1384  0.5120
  834MPD2    C112259   0.030   0.507  11.775  0.7692 -0.2950 -0.0403
  834MPD2    C212260   0.124   0.579  11.849 -0.5271  0.0256 -0.4541
  834MPD2    C312261   0.098   0.633  11.973  0.1872  0.3161  0.6545
  834MPD2    C412262   4.697   0.607  12.034 -0.2536  0.3853 -0.1446
  834MPD2    C512263   4.605   0.537  11.956 -0.2015 -0.6636  0.1724
  834MPD2     H12264   0.221   0.604  11.807  1.1342 -1.5418  2.4486
  834MPD2    H112265   4.675   0.639  12.135  5.1944  0.1151  1.1085
  834MPD2    H212266   4.549   0.430  11.791  0.5370 -0.1618 -1.1954
  834MPD2    H312267   4.510   0.518  12.006  0.2665 -0.6076  1.0920
  834MPD2     N12268   0.197   0.709  12.036  0.1374  0.0138 -0.0371
  834MPD2    H512269   0.278   0.729  11.979 -1.1505  0.5505 -1.6866
  834MPD2    N112270   0.056   0.445  11.652  0.1959  0.3490  0.6206
  834MPD2    H712271   4.709   0.381  11.619  0.4710 -0.5548  1.7627
  835MPD2     C12272   0.126   3.417  11.280 -0.5946 -0.2221 -0.0588
  835MPD2    C112273   0.070   3.542  11.304 -0.1339 -0.4094  0.7342
  835MPD2    C212274   0.059   3.581  11.438  0.5946 -0.0724 -0.3938
  835MPD2    C312275   0.086   3.493  11.550 -0.0309 -0.5572 -0.1823
  835MPD2    C412276   0.144   3.376  11.516  0.7613 -0.5299 -0.2287
  835MPD2    C512277   0.164   3.338  11.385  0.2037 -0.3957 -0.2489
  835MPD2     H12278   0.028   3.683  11.459 -1.4009 -1.4290  3.1614
  835MPD2    H112279   0.179   3.310  11.594  1.5484  1.4494  1.0922
  835MPD2    H212280   0.143   3.386  11.177  0.9544  0.9174 -0.1403
  835MPD2    H312281   0.212   3.241  11.370  0.4017 -0.5139  1.1163
  835MPD2     N12282   0.058   3.519  11.689 -0.4574  0.0797  0.3177
  835MPD2    H512283   0.078   3.447  11.757  3.9557 -0.3101 -1.4324
  835MPD2    N112284   0.008   3.629  11.208  0.0073 -0.1030  0.1676
  835MPD2    H712285   4.707   3.718  11.249  1.9688  0.7543 -0.4681
  836MPD2     C12286   4.052   3.756  11.782  0.1385  0.1875 -0.5318
  836MPD2    C112287   4.123   3.768  11.903  0.2675 -0.1960  0.7829
  836MPD2    C212288   4.057   3.818  12.015 -0.0910  0.0461 -0.0202
  836MPD2    C312289   3.927   3.854  12.001  0.5126 -0.0350  0.0229
  836MPD2    C412290   3.857   3.824  11.881  0.0608  0.5697 -0.1944
  836MPD2    C512291   3.920   3.773  11.775  0.5287 -0.3225 -1.0706
  836MPD2     H12292   4.107   3.821  12.111 -0.8446  0.9196  0.3347
  836MPD2    H112293   3.750   3.838  11.873 -0.1729 -0.2977  1.4203
  836MPD2    H212294   4.105   3.720  11.695 -1.5773 -1.4717 -0.8840
  836MPD2    H312295   3.869   3.763  11.679 -3.0218  0.9917  0.6831
  836MPD2     N12296   3.841   3.901  12.100  0.4362 -0.0934  0.1079
  836MPD2    H512297   3.744   3.902  12.070  0.2994  0.6908  0.5630
  836MPD2    N112298   4.260   3.721  11.913  0.2172  0.8894  0.3239
  836MPD2    H712299   4.286   3.663  11.834 -1.8538  1.8753 -1.0639
  837MPD2     C12300   3.435   2.760  10.289 -0.0599 -0.1543  0.2956
  837MPD2    C112301   3.328   2.829  10.230  0.4391  0.4672 -0.4834
  837MPD2    C212302   3.312   2.961  10.250  0.1052 -0.0195 -0.3567
  837MPD2    C312303   3.407   3.034  10.313 -0.0193 -0.5747 -0.5017
  837MPD2    C412304   3.517   2.969  10.371  1.0325  0.1828  0.2594
  837MPD2    C512305   3.533   2.837  10.362 -0.4678  0.1121  0.1828
  837MPD2     H12306   3.214   3.000  10.227  0.1708 -0.3001 -1.0943
  837MPD2    H112307   3.588   3.024  10.432 -0.7580  1.7327  0.9408
  837MPD2    H212308   3.431   2.652  10.284  0.5226 -0.2951  3.2204
  837MPD2    H312309   3.614   2.785  10.411 -0.7573  1.5045  2.1359
  837MPD2     N12310   3.391   3.174  10.324 -0.0392  0.5734 -0.1140
  837MPD2    H512311   3.461   3.229  10.373 -0.3782 -0.4263  1.4884
  837MPD2    N112312   3.216   2.775  10.164 -0.4831 -0.1872  0.9820
  837MPD2    H712313   3.157   2.847  10.121 -0.3663 -0.5863  0.1587
  838MPD2     C12314   1.832   1.679  12.080 -0.2302  0.1217  0.0355
  838MPD2    C112315   1.707   1.653  12.021  0.6709 -0.9056  0.4947
  838MPD2    C212316   1.598   1.679  12.099 -0.1013 -0.0869  0.0766
  838MPD2    C312317   1.605   1.716  12.232 -0.2253  0.4872 -0.5502
  838MPD2    C412318   1.731   1.728  12.293  0.1390  0.7592  0.3856
  838MPD2    C512319   1.843   1.719  12.210  0.6316  0.2759  0.2446
  838MPD2     H12320   1.498   1.675  12.056 -0.8095 -1.4084  1.8759
  838MPD2    H112321   1.752   1.742  12.398  0.9358 -0.2140  0.3548
  838MPD2    H212322   1.922   1.668  12.022 -0.6410  4.1297 -1.3674
  838MPD2    H312323   1.934   1.733  12.267  0.0105  2.0617  0.7854
  838MPD2     N12324   1.485   1.736  12.308 -0.4904  0.1592 -0.5011
  838MPD2    H512325   1.400   1.745  12.254 -1.0115 -2.8821 -0.1993
  838MPD2    N112326   1.687   1.610  11.888  0.2484 -0.6796  0.4133
  838MPD2    H712327   1.595   1.571  11.871  0.0925  0.3313 -1.0766
  839MPD2     C12328   1.116   1.071  11.867  0.5816  0.2130 -0.2069
  839MPD2    C112329   1.153   1.050  11.736  0.0991 -0.2281 -0.1606
  839MPD2    C212330   1.266   1.106  11.686 -0.8355  0.8494  0.8087
  839MPD2    C312331   1.338   1.193  11.759  0.2376 -0.5981  0.6105
  839MPD2    C412332   1.314   1.204  11.890  0.5973 -0.2651 -0.7973
  839MPD2    C512333   1.198   1.150  11.940 -0.4201 -0.5138  0.8909
  839MPD2     H12334   1.298   1.089  11.584 -0.1632  1.1667  0.9629
  839MPD2    H112335   1.386   1.251  11.955 -0.5551  0.0815  0.2171
  839MPD2    H212336   1.029   1.019  11.905 -0.6025  2.4029  0.0247
  839MPD2    H312337   1.175   1.173  12.044  0.6396  3.6643  0.2206
  839MPD2     N12338   1.460   1.249  11.716 -0.2875 -0.3141  0.3493
  839MPD2    H512339   1.515   1.299  11.784  0.0188  0.3184 -0.3635
  839MPD2    N112340   1.084   0.964  11.655  0.1521 -0.0379  0.1586
  839MPD2    H712341   1.127   0.912  11.579  2.9184  0.3278  1.4835
  840MPD2     C12342   1.615   3.861  10.807  0.0360 -0.2911  0.3861
  840MPD2    C112343   1.576   3.798  10.920 -0.4853  0.4309 -0.1016
  840MPD2    C212344   1.659   3.770  11.020  0.0542 -0.4662 -0.4385
  840MPD2    C312345   1.792   3.817  11.015 -0.1732  0.1053  0.3666
  840MPD2    C412346   1.824   3.903  10.910 -0.7505  0.9222 -0.3395
  840MPD2    C512347   1.738   3.918  10.806  0.5186 -0.1385  0.3875
  840MPD2     H12348   1.629   3.716  11.109 -0.2889 -1.1355 -0.9516
  840MPD2    H112349   1.912   3.965  10.899  0.5682 -0.9295 -0.3159
  840MPD2    H212350   1.555   3.886  10.720 -1.8394 -3.7016  0.6833
  840MPD2    H312351   1.769   3.974  10.719  0.1451  1.1756  1.1016
  840MPD2     N12352   1.894   3.778  11.110 -0.2931  0.2991 -1.4642
  840MPD2    H512353   1.977   3.833  11.092  0.0841  0.3004  0.2121
  840MPD2    N112354   1.438   3.769  10.917  0.0233  0.8086 -0.4153
  840MPD2    H712355   1.384   3.804  10.838  0.9983 -1.2833 -2.0311
  841MPD2     C12356   0.884   3.426  15.400 -0.1678 -0.3111  0.0793
  841MPD2    C112357   0.829   3.428  15.272 -0.3483 -0.2563  0.4595
  841MPD2    C212358   0.793   3.551  15.214  0.0972  0.0073  0.0446
  841MPD2    C312359   0.819   3.673  15.274 -0.3616 -0.4321 -0.5000
  841MPD2    C412360   0.858   3.668  15.405  0.0658  0.0444  0.1347
  841MPD2    C512361   0.896   3.547  15.462  0.0447 -0.2564 -0.2730
  841MPD2     H12362   0.747   3.552  15.115  0.0404 -0.0751  0.0704
  841MPD2    H112363   0.867   3.755  15.468 -0.4061 -0.1118  0.4191
  841MPD2    H212364   0.919   3.338  15.454  1.9576  2.2751  2.9556
  841MPD2    H312365   0.933   3.553  15.564  0.8253  0.0874 -0.5833
  841MPD2     N12366   0.784   3.798  15.214 -0.1348  0.7400 -0.1854
  841MPD2    H512367   0.760   3.792  15.115 -0.0103  0.6208 -0.2078
  841MPD2    N112368   0.792   3.305  15.209 -0.1784 -0.0018 -0.6071
  841MPD2    H712369   0.721   3.310  15.136 -0.5745 -0.0174 -0.2269
  842MPD2     C12370   1.545   0.694  16.978 -0.0368  1.3492  0.3057
  842MPD2    C112371   1.429   0.614  16.996 -0.1060 -0.2119  0.1562
  842MPD2    C212372   1.422   0.539  17.115  0.1623  0.1086 -0.2918
  842MPD2    C312373   1.531   0.545  17.202  0.0151 -0.3872  0.1254
  842MPD2    C412374   1.644   0.618  17.174  0.2206 -0.1334  0.5350
  842MPD2    C512375   1.652   0.687  17.058 -0.3999 -0.6363 -0.2682
  842MPD2     H12376   1.335   0.480  17.142  0.2071  0.9228  1.6645
  842MPD2    H112377   1.730   0.616  17.239  0.5562  2.9205  0.1987
  842MPD2    H212378   1.561   0.755  16.890 -0.9358 -0.1282 -0.8981
  842MPD2    H312379   1.744   0.730  17.019 -1.0509  1.1977  0.2413
  842MPD2     N12380   1.536   0.475  17.327  0.4923  0.6930 -0.0421
  842MPD2    H512381   1.606   0.502  17.396  0.6935  1.6025 -0.6005
  842MPD2    N112382   1.336   0.620  16.890 -0.3399  0.3996 -0.1099
  842MPD2    H712383   1.354   0.676  16.808  2.2222  1.3496  1.1286
  843MPD2     C12384   4.633   0.146   0.630  0.4401 -1.1216 -0.1153
  843MPD2    C112385   4.553   0.260   0.656  0.4192 -0.1624 -0.6463
  843MPD2    C212386   4.522   0.337   0.554  0.9462  0.4420  0.0646
  843MPD2    C312387   4.559   0.310   0.420  0.0959  0.9620 -0.0479
  843MPD2    C412388   4.627   0.197   0.387  0.3984  0.3717  0.1598
  843MPD2    C512389   4.658   0.111   0.496 -0.0303 -0.1227 -0.5037
  843MPD2     H12390   4.462   0.425   0.571  0.6688 -0.0210  1.4982
  843MPD2    H112391   4.636   0.166   0.284  2.8710  0.8100  0.2450
  843MPD2    H212392   4.660   0.072   0.705  2.1481 -1.1406 -0.7508
  843MPD2    H312393   4.709   0.018   0.472 -0.3385 -1.1140  2.6389
  843MPD2     N12394   4.525   0.401   0.314  0.0983  0.7652 -0.1111
  843MPD2    H512395   4.565   0.384   0.223 -1.9034  0.3460 -0.9199
  843MPD2    N112396   4.527   0.292   0.790  0.1160 -0.5120 -0.0591
  843MPD2    H712397   4.575   0.234   0.858 -1.1514 -1.1560  0.2897
  844MPD2     C12398   1.942   0.027  16.859 -0.0138 -0.0910 -0.2072
  844MPD2    C112399   2.067   4.692  16.876  0.5011 -0.7206  0.0653
  844MPD2    C212400   2.164   0.039  16.945  0.4099  0.0715 -0.1684
  844MPD2    C312401   2.145   0.165  17.004 -0.4411  0.2082 -0.2358
  844MPD2    C412402   2.014   0.217  16.996  0.3219  0.0110  0.9759
  844MPD2    C512403   1.926   0.150  16.915  0.0998  0.6304 -0.3257
  844MPD2     H12404   2.261   4.716  16.953  1.5956  2.5739  0.4614
  844MPD2    H112405   1.989   0.311  17.043  0.5594 -0.1567  1.4413
  844MPD2    H212406   1.860   4.702  16.809  0.2984  0.5475 -1.3459
  844MPD2    H312407   1.831   0.201  16.900 -1.3500 -1.9758  0.0862
  844MPD2     N12408   2.251   0.234  17.061 -0.6477 -0.4614  0.6123
  844MPD2    H512409   2.340   0.189  17.044 -1.1987 -0.7842 -1.4872
  844MPD2    N112410   2.096   4.564  16.833 -0.7046 -0.8231  0.1472
  844MPD2    H712411   2.190   4.527  16.839  0.4412  2.0024 -0.0077
  845MPD2     C12412   2.270   1.090  17.607  0.4185  0.4910 -0.0673
  845MPD2    C112413   2.164   1.008  17.567  0.4274  0.3717 -0.0697
  845MPD2    C212414   2.188   0.881  17.511 -0.3081 -0.3279  0.1495
  845MPD2    C312415   2.316   0.848  17.482 -0.3278  0.2230  0.0022
  845MPD2    C412416   2.421   0.937  17.511 -0.2939  1.0491 -0.5023
  845MPD2    C512417   2.393   1.055  17.572  0.2149 -0.7180  0.0940
  845MPD2     H12418   2.112   0.806  17.496  0.4905 -1.0115 -0.4995
  845MPD2    H112419   2.525   0.918  17.484 -0.1778 -0.0746  0.7148
  845MPD2    H212420   2.254   1.181  17.663  0.3279  0.1383  0.4747
  845MPD2    H312421   2.479   1.108  17.611 -0.2831  0.1198  0.0388
  845MPD2     N12422   2.345   0.719  17.441  0.0658 -0.0053 -0.1181
  845MPD2    H512423   2.271   0.665  17.397  0.3405 -1.2908  1.0122
  845MPD2    N112424   2.039   1.051  17.605 -0.3493 -0.2940  0.2057
  845MPD2    H712425   2.027   1.150  17.627 -0.6140 -0.5004  0.9814
  846MPD2     C12426   3.724   0.959  13.660 -0.9576  0.2608 -0.0232
  846MPD2    C112427   3.710   1.095  13.686  0.2446 -0.2276 -1.0605
  846MPD2    C212428   3.669   1.130  13.818  0.0915 -0.3502  0.1481
  846MPD2    C312429   3.680   1.039  13.922  0.2705 -0.4324 -0.8686
  846MPD2    C412430   3.717   0.913  13.887 -0.1731  0.2378  0.5270
  846MPD2    C512431   3.721   0.869  13.762 -0.3842  0.2079  0.0079
  846MPD2     H12432   3.648   1.231  13.849  1.2334  0.1603 -0.7208
  846MPD2    H112433   3.720   0.834  13.962  0.4835 -1.8067 -1.6381
  846MPD2    H212434   3.743   0.924  13.559  2.5060  0.4250  0.5538
  846MPD2    H312435   3.759   0.772  13.732  1.6344  0.4667  1.7258
  846MPD2     N12436   3.663   1.081  14.056  0.3912  0.0042 -0.1544
  846MPD2    H512437   3.627   1.176  14.055  1.1709  0.3037  2.0494
  846MPD2    N112438   3.694   1.195  13.590 -0.0489  0.1876 -0.2736
  846MPD2    H712439   3.690   1.289  13.627  0.1914  1.0280 -2.3744
  847MPD2     C12440   4.040   1.835  14.114  0.1465 -0.1412  0.2603
  847MPD2    C112441   4.142   1.915  14.152 -1.3885  0.6289  0.0055
  847MPD2    C212442   4.241   1.864  14.236  0.0074  0.5173 -0.2658
  847MPD2    C312443   4.244   1.734  14.286 -0.1334  0.3760  0.0476
  847MPD2    C412444   4.135   1.651  14.249 -0.5261 -0.1693 -0.0390
  847MPD2    C512445   4.047   1.700  14.160 -0.3797 -0.1938 -0.5893
  847MPD2     H12446   4.315   1.935  14.272 -0.1346  0.3513  0.3677
  847MPD2    H112447   4.127   1.545  14.270 -0.1657 -0.1337  0.2818
  847MPD2    H212448   3.959   1.860  14.047 -1.0214 -5.2235 -0.2666
  847MPD2    H312449   3.970   1.633  14.125 -0.8996  0.5056 -0.7859
  847MPD2     N12450   4.341   1.704  14.378 -0.2444 -0.3287 -0.1138
  847MPD2    H512451   4.412   1.775  14.387 -0.8475  0.3140 -0.5071
  847MPD2    N112452   4.152   2.055  14.114 -0.0328  0.1328 -0.4250
  847MPD2    H712453   4.223   2.115  14.154  0.2131  0.1013 -0.8114
  848MPD2     C12454   1.519   0.426  16.639  0.2850 -0.9672 -1.4391
  848MPD2    C112455   1.614   0.463  16.735 -0.2659  0.1815  0.5491
  848MPD2    C212456   1.686   0.581  16.713  0.2213  0.0048 -0.0182
  848MPD2    C312457   1.658   0.659  16.602  0.3991 -0.3376  0.6430
  848MPD2    C412458   1.572   0.620  16.509  0.4851  0.9315 -0.2701
  848MPD2    C512459   1.510   0.502  16.530  0.4702  0.3538 -0.4718
  848MPD2     H12460   1.764   0.613  16.781 -1.2285  2.0617  0.6763
  848MPD2    H112461   1.541   0.680  16.424  0.1780  1.1604  0.0110
  848MPD2    H212462   1.463   0.334  16.643 -0.3095 -0.5905 -1.1398
  848MPD2    H312463   1.443   0.471  16.451 -0.1205 -1.3354  0.6891
  848MPD2     N12464   1.700   0.795  16.577 -0.9547  0.3493  0.0765
  848MPD2    H512465   1.661   0.835  16.493 -2.4980  3.2589  2.2162
  848MPD2    N112466   1.634   0.393  16.859  0.3626  0.6859  0.3941
  848MPD2    H712467   1.691   0.437  16.931  0.3270 -0.5176  1.1550
  849MPD2     C12468   0.723   0.278  14.883  0.3806 -0.6085 -0.3342
  849MPD2    C112469   0.856   0.313  14.894  0.0012  0.0774  0.0009
  849MPD2    C212470   0.937   0.250  14.983  0.7161 -0.2150  0.5120
  849MPD2    C312471   0.896   0.135  15.045  0.7042 -0.0789  0.3212
  849MPD2    C412472   0.768   0.082  15.014  0.2201 -0.0730  0.0269
  849MPD2    C512473   0.684   0.160  14.944 -0.3024 -0.3460  1.0007
  849MPD2     H12474   1.039   0.284  14.997 -0.0132  2.5026 -0.8311
  849MPD2    H112475   0.739   4.706  15.042  1.1177 -0.5067 -0.6015
  849MPD2    H212476   0.649   0.345  14.838 -1.7043 -2.2524  0.6527
  849MPD2    H312477   0.583   0.125  14.930  0.3206 -2.0674  0.7898
  849MPD2     N12478   0.977   0.060  15.125  0.5127  0.1456  0.1486
  849MPD2    H512479   0.940   4.694  15.152  2.3219 -1.0119 -1.2529
  849MPD2    N112480   0.916   0.420  14.820  0.4292  0.1480 -0.3889
  849MPD2    H712481   1.016   0.439  14.821  0.6093 -0.8590  0.3368
  850MPD2     C12482   4.054   2.936  15.076 -0.2732 -0.3654  0.2279
  850MPD2    C112483   4.071   2.956  15.209  0.7184 -0.4614  0.0170
  850MPD2    C212484   4.198   2.943  15.262  0.1167  0.3459 -0.1980
  850MPD2    C312485   4.310   2.925  15.185  0.4140  0.1475 -0.0185
  850MPD2    C412486   4.291   2.936  15.047  0.0901 -0.2007  0.0169
  850MPD2    C512487   4.162   2.935  14.994 -0.8821  0.2891  0.6400
  850MPD2     H12488   4.204   2.963  15.369 -0.5798  0.8008 -0.2429
  850MPD2    H112489   4.379   2.926  14.985 -1.3093 -2.3628 -1.6384
  850MPD2    H212490   3.954   2.946  15.036 -0.1218  0.0890 -0.0345
  850MPD2    H312491   4.155   2.939  14.886  0.8811  0.6610  0.5427
  850MPD2     N12492   4.439   2.935  15.227 -0.3810  0.4491  0.0817
  850MPD2    H512493   4.511   2.957  15.159 -0.5871  0.0068 -0.2782
  850MPD2    N112494   3.953   2.963  15.286  0.3532  0.6134 -0.1104
  850MPD2    H712495   3.869   2.974  15.230  0.8610 -1.8080 -1.3190
  851MPD2     C12496   4.341   2.515  15.229  0.3640 -0.5628 -0.0767
  851MPD2    C112497   4.303   2.481  15.356 -0.4282 -0.3133 -0.6056
  851MPD2    C212498   4.304   2.348  15.392 -0.3219 -0.5040  0.1027
  851MPD2    C312499   4.371   2.251  15.319 -0.0862 -0.1673 -0.5742
  851MPD2    C412500   4.414   2.285  15.191  0.0809 -0.3966  0.2053
  851MPD2    C512501   4.397   2.414  15.147 -0.2360 -0.1247 -0.1836
  851MPD2     H12502   4.253   2.324  15.484 -1.0372  0.2356 -0.1007
  851MPD2    H112503   4.463   2.215  15.125  1.9804  0.4719  0.6880
  851MPD2    H212504   4.324   2.616  15.193 -0.4086 -0.9088 -0.6856
  851MPD2    H312505   4.429   2.452  15.051 -1.0576 -2.4339 -1.3711
  851MPD2     N12506   4.373   2.120  15.366  0.2860  0.3063  0.3563
  851MPD2    H512507   4.303   2.094  15.435  0.2744 -0.7226 -0.0317
  851MPD2    N112508   4.236   2.579  15.434 -0.5622 -0.2071 -0.0051
  851MPD2    H712509   4.255   2.676  15.412  1.1153 -0.2648  1.1627
  852MPD2     C12510   4.201   4.643  10.086  0.9194 -0.1960 -0.2296
  852MPD2    C112511   4.223   4.681  10.213 -0.0526 -0.0738  0.4730
  852MPD2    C212512   4.300   0.073  10.232  0.6066  0.2769  0.4510
  852MPD2    C312513   4.345   0.149  10.119 -0.0724  0.1294  0.3880
  852MPD2    C412514   4.306   0.112   9.992  0.2015 -0.4062 -0.3726
  852MPD2    C512515   4.237   4.723   9.982 -0.1505  0.1472 -1.1929
  852MPD2     H12516   4.316   0.108  10.334  2.1491  2.0963 -0.4102
  852MPD2    H112517   4.334   0.170   9.905  0.9705  1.3786  1.0489
  852MPD2    H212518   4.138   4.557  10.067 -1.5095  1.4860  0.2445
  852MPD2    H312519   4.203   4.686   9.886 -1.9186  0.4872 -0.6925
  852MPD2     N12520   4.425   0.263  10.142 -0.3360 -0.1528 -0.7119
  852MPD2    H512521   4.462   0.275  10.235  1.1365  0.8935 -1.4308
  852MPD2    N112522   4.192   4.609  10.322 -1.2154 -0.3619 -0.1868
  852MPD2    H712523   4.226   4.644  10.411  0.8666 -0.6303 -0.8584
  853MPD2     C12524   1.239   0.341  12.544  0.2484  0.0570  0.2632
  853MPD2    C112525   1.105   0.363  12.529 -0.5692 -0.2470 -0.6884
  853MPD2    C212526   1.045   0.322  12.410 -0.0048 -1.0528 -0.8693
  853MPD2    C312527   1.120   0.264  12.306 -0.4654  0.1226 -0.4886
  853MPD2    C412528   1.254   0.233  12.323  0.2702  0.3899  0.3042
  853MPD2    C512529   1.311   0.273  12.442 -0.0515 -0.0388  0.2543
  853MPD2     H12530   0.939   0.344  12.401  0.3260  1.1755  0.5350
  853MPD2    H112531   1.319   0.179  12.255  1.7440  2.0243  0.3816
  853MPD2    H212532   1.292   0.364  12.636 -0.7177  1.3435  0.4894
  853MPD2    H312533   1.413   0.244  12.461 -0.0812 -1.7168 -2.2156
  853MPD2     N12534   1.065   0.215  12.187  0.0250  0.3945  0.3165
  853MPD2    H512535   1.120   0.167  12.116  0.3149 -0.3680  1.0597
  853MPD2    N112536   1.027   0.410  12.635 -0.0567 -0.0796  0.3459
  853MPD2    H712537   1.077   0.417  12.723  1.6317 -1.9050 -0.4619
  854MPD2     C12538   2.497   0.030  12.680 -0.3178  0.3349  0.6046
  854MPD2    C112539   2.525   0.147  12.741 -0.5854 -0.4099  0.5200
  854MPD2    C212540   2.612   0.150  12.842 -0.2995 -0.0492 -0.1967
  854MPD2    C312541   2.671   0.033  12.889 -0.5380 -0.4496  0.0305
  854MPD2    C412542   2.632   4.634  12.833  0.5017  0.2709 -0.0946
  854MPD2    C512543   2.554   4.637  12.721 -0.3540  0.3384  0.8591
  854MPD2     H12544   2.634   0.244  12.891 -0.5928 -0.9494  1.6360
  854MPD2    H112545   2.674   4.541  12.870  0.8231  0.6542  0.4969
  854MPD2    H212546   2.429   0.047  12.597  0.3451  0.0599  0.0054
  854MPD2    H312547   2.517   4.550  12.669 -0.2511 -0.3747  1.9902
  854MPD2     N12548   2.763   0.032  12.998  0.5652 -0.0830  0.1962
  854MPD2    H512549   2.800   4.670  13.035  2.0823  1.2107  1.6739
  854MPD2    N112550   2.444   0.260  12.695  0.7604  0.1202  0.1277
  854MPD2    H712551   2.375   0.237  12.624  0.8952 -0.2560  0.1172
  855MPD2     C12552   2.882   0.427  13.991 -1.2059  0.1073  0.1867
  855MPD2    C112553   2.785   0.360  13.918 -0.3324  1.0736  0.4740
  855MPD2    C212554   2.812   0.319  13.790  0.0906 -0.1363  0.3437
  855MPD2    C312555   2.936   0.331  13.737  0.5434 -0.2320 -0.4722
  855MPD2    C412556   3.030   0.411  13.800  0.3209  0.1825  0.0392
  855MPD2    C512557   3.003   0.454  13.929  0.3657 -0.0564  0.3131
  855MPD2     H12558   2.738   0.261  13.735 -0.3843  0.3581  0.4558
  855MPD2    H112559   3.128   0.443  13.766  0.4872 -0.3671 -0.0017
  855MPD2    H212560   2.859   0.462  14.091 -2.4940  1.6132 -0.6232
  855MPD2    H312561   3.088   0.505  13.973 -0.0574  0.0601  0.9918
  855MPD2     N12562   2.970   0.268  13.614  0.0669 -0.0240 -0.0512
  855MPD2    H512563   3.071   0.268  13.601 -0.0525  3.1843 -1.0643
  855MPD2    N112564   2.656   0.320  13.971 -0.2562 -0.3813 -0.2793
  855MPD2    H712565   2.594   0.262  13.915  2.7016 -0.8645 -3.0184
  856MPD2     C12566   4.501   1.354  14.135  0.0592 -0.3443 -0.7734
  856MPD2    C112567   4.621   1.390  14.079  0.0045 -0.2848  0.5820
  856MPD2    C212568   4.619   1.498  13.995  0.0792 -0.4256 -0.0339
  856MPD2    C312569   4.506   1.582  13.982  0.3226 -0.2161  0.7356
  856MPD2    C412570   4.388   1.547  14.045  0.8349 -0.7578  0.4693
  856MPD2    C512571   4.386   1.435  14.126 -0.3330  0.2279  0.2325
  856MPD2     H12572   4.709   1.516  13.938  2.2600 -1.2850  3.1658
  856MPD2    H112573   4.298   1.606  14.037  0.6386 -0.9191  1.4122
  856MPD2    H212574   4.487   1.268  14.199 -1.9968 -1.0462 -2.1510
  856MPD2    H312575   4.302   1.391  14.179  0.3184 -1.6677 -0.3051
  856MPD2     N12576   4.502   1.702  13.910  0.4006  0.4676 -0.3957
  856MPD2    H512577   4.410   1.725  13.874  0.1844 -0.2115 -0.2857
  856MPD2    N112578   0.024   1.336  14.107  0.2093 -0.0092  0.5068
  856MPD2    H712579   0.107   1.393  14.092  1.6057 -2.0747  0.4193
  857MPD2     C12580   1.377   2.889  13.402 -0.0084  0.4648 -0.5516
  857MPD2    C112581   1.516   2.907  13.397  0.2317 -0.8369 -0.4958
  857MPD2    C212582   1.558   3.037  13.426 -0.1618  0.1678  0.2957
  857MPD2    C312583   1.480   3.144  13.445  0.1855  0.1972 -0.0096
  857MPD2    C412584   1.348   3.118  13.442  0.6839  0.7188  0.4043
  857MPD2    C512585   1.297   2.993  13.430 -0.6136  0.7387 -0.1393
  857MPD2     H12586   1.663   3.059  13.444  0.0848 -0.9854  0.2630
  857MPD2    H112587   1.279   3.202  13.443  0.4110  0.4816  2.1522
  857MPD2    H212588   1.334   2.789  13.404 -0.7924  0.7547 -3.2636
  857MPD2    H312589   1.192   2.969  13.426 -0.2594 -0.8802  0.4430
  857MPD2     N12590   1.534   3.270  13.469 -0.0643 -0.1188  0.1356
  857MPD2    H512591   1.624   3.298  13.431 -0.3383 -2.2770 -2.0726
  857MPD2    N112592   1.591   2.792  13.388 -0.1477  0.4649 -0.5683
  857MPD2    H712593   1.556   2.717  13.329 -0.4179  0.1257  0.0276
  858MPD2     C12594   2.137   2.887  16.966 -0.1555 -0.3792 -0.8727
  858MPD2    C112595   2.236   2.794  16.984 -0.1888 -0.0032  0.4383
  858MPD2    C212596   2.305   2.787  17.104 -0.7199  0.6658 -0.7297
  858MPD2    C312597   2.258   2.862  17.211  0.6627 -0.3836 -0.2896
  858MPD2    C412598   2.151   2.940  17.194  0.8610 -0.0286 -0.1218
  858MPD2    C512599   2.092   2.961  17.072  0.0686  0.4411  0.5219
  858MPD2     H12600   2.388   2.720  17.123 -2.1516 -1.4390 -1.7794
  858MPD2    H112601   2.115   2.996  17.280 -0.8522  0.8023 -1.3989
  858MPD2    H212602   2.094   2.899  16.868 -1.1530 -0.0545 -0.3949
  858MPD2    H312603   1.997   3.013  17.060 -0.4299 -0.9772 -1.6810
  858MPD2     N12604   2.317   2.851  17.342  0.1224 -0.7799 -0.7465
  858MPD2    H512605   2.273   2.909  17.412  1.6995 -1.5242  0.8647
  858MPD2    N112606   2.282   2.707  16.885  0.1900  0.1906  0.0742
  858MPD2    H712607   2.363   2.649  16.906 -0.5423 -0.4022  1.2267
  859MPD2     C12608   0.849   4.523  15.528 -0.3714  0.7245 -0.4506
  859MPD2    C112609   0.974   4.566  15.560  0.4158 -0.0889  0.3704
  859MPD2    C212610   1.065   4.472  15.601  0.2421  0.2912  0.4752
  859MPD2    C312611   1.039   4.335  15.599 -0.1874 -0.4744  0.2431
  859MPD2    C412612   0.911   4.296  15.564  0.6398 -0.5389  0.0950
  859MPD2    C512613   0.816   4.391  15.530  0.3683 -0.2241  0.0642
  859MPD2     H12614   1.164   4.508  15.628 -0.3082  1.6641  0.6472
  859MPD2    H112615   0.883   4.192  15.559  0.2965 -0.5078  1.4758
  859MPD2    H212616   0.766   4.586  15.500 -1.5356  0.3222  2.1025
  859MPD2    H312617   0.716   4.351  15.521 -0.3538  1.6785 -0.2685
  859MPD2     N12618   1.132   4.236  15.631  1.0006  0.1099 -0.2339
  859MPD2    H512619   1.109   4.138  15.616  0.5665 -0.3441  3.4526
  859MPD2    N112620   0.993   4.703  15.572  0.9192  0.2515  0.3118
  859MPD2    H712621   0.911   0.037  15.563  1.7825  1.1127 -2.0774
  860MPD2     C12622   4.097   4.331  11.931  0.5007  0.0897  0.8490
  860MPD2    C112623   4.080   4.464  11.967 -0.3003  0.0620 -0.1109
  860MPD2    C212624   3.966   4.508  12.028 -0.5301  0.2055 -0.2489
  860MPD2    C312625   3.865   4.420  12.060 -0.7533  0.2984  0.5395
  860MPD2    C412626   3.880   4.290  12.027  0.5492 -0.2840  0.3915
  860MPD2    C512627   3.997   4.249  11.969 -0.3355 -0.3058  0.3961
  860MPD2     H12628   3.957   4.615  12.047 -0.1262  0.3645 -0.9491
  860MPD2    H112629   3.801   4.216  12.040  0.2451 -0.1235 -0.5582
  860MPD2    H212630   4.180   4.295  11.872  0.1662  1.9316 -0.7675
  860MPD2    H312631   4.012   4.146  11.939 -2.9697 -1.1940  2.0940
  860MPD2     N12632   3.756   4.477  12.134 -0.6406  0.2860 -0.6871
  860MPD2    H512633   3.747   4.578  12.143  1.9155  0.3557  0.9359
  860MPD2    N112634   4.184   4.566  11.958 -0.0285 -0.2833 -0.1349
  860MPD2    H712635   4.155   4.661  11.977  0.8068 -0.0883  0.1580
  861MPD2     C12636   3.024   2.573  11.431  0.1606  0.3876  0.8570
  861MPD2    C112637   2.921   2.618  11.517 -0.8458 -0.2623 -0.2333
  861MPD2    C212638   2.802   2.667  11.460  0.2002  0.9172 -0.0172
  861MPD2    C312639   2.785   2.665  11.318  0.3158  0.7237  0.1000
  861MPD2    C412640   2.886   2.618  11.246 -0.6235 -0.0692  0.0803
  861MPD2    C512641   2.996   2.569  11.298  0.2834  0.2299  0.2136
  861MPD2     H12642   2.720   2.700  11.523 -0.2470 -0.6224  0.2039
  861MPD2    H112643   2.872   2.618  11.139  1.4216 -1.7848 -0.2020
  861MPD2    H212644   3.123   2.541  11.460 -0.7694 -1.4481  1.9597
  861MPD2    H312645   3.073   2.515  11.243  0.0716 -0.5394  0.6651
  861MPD2     N12646   2.667   2.716  11.251 -0.2249  0.1074 -0.3041
  861MPD2    H512647   2.666   2.731  11.150  1.2448  0.9225 -0.1932
  861MPD2    N112648   2.940   2.608  11.652 -0.0833  1.2556 -0.3396
  861MPD2    H712649   2.872   2.663  11.704 -1.3321  0.7247 -1.4225
  862MPD2     C12650   2.317   2.907  10.662  0.2167 -0.3498  0.5526
  862MPD2    C112651   2.405   2.836  10.734 -0.0674 -0.4811  0.4269
  862MPD2    C212652   2.422   2.704  10.710  0.3214  0.1724 -0.2329
  862MPD2    C312653   2.358   2.648  10.603 -1.2801  0.2509 -1.0646
  862MPD2    C412654   2.274   2.723  10.522  0.4054 -0.3817 -0.5898
  862MPD2    C512655   2.252   2.851  10.557 -0.5794 -0.1895 -0.3208
  862MPD2     H12656   2.485   2.647  10.778  1.1861  0.9880 -0.3497
  862MPD2    H112657   2.229   2.684  10.431  0.5141  0.9859 -1.2328
  862MPD2    H212658   2.286   3.010  10.676  2.3550  0.3494  0.1403
  862MPD2    H312659   2.182   2.914  10.503 -0.3720 -0.4778 -0.9315
  862MPD2     N12660   2.379   2.507  10.588  0.1605 -0.3757 -0.4194
  862MPD2    H512661   2.451   2.471  10.649 -1.5026 -1.2665  1.0378
  862MPD2    N112662   2.462   2.882  10.855 -0.1830  0.9750  0.1241
  862MPD2    H712663   2.515   2.811  10.904 -0.4698  0.3370 -0.4889
  863MPD2     C12664   0.894   1.444  16.795 -0.4954 -0.3900  0.2426
  863MPD2    C112665   0.776   1.476  16.863  0.4276  0.6294 -0.2074
  863MPD2    C212666   0.783   1.518  16.994  0.4636  0.0707 -0.6779
  863MPD2    C312667   0.903   1.528  17.064  0.0950 -0.1230  0.2189
  863MPD2    C412668   1.021   1.495  16.992  0.0450  0.7168 -0.4978
  863MPD2    C512669   1.012   1.461  16.856  0.0228  0.0838 -0.2029
  863MPD2     H12670   0.686   1.541  17.037  0.4548  1.3662 -1.3664
  863MPD2    H112671   1.111   1.509  17.051  0.6137 -3.1743 -0.4432
  863MPD2    H212672   0.898   1.402  16.695  4.9620 -1.1540  0.7486
  863MPD2    H312673   1.098   1.412  16.811 -0.6160 -1.1524 -0.0835
  863MPD2     N12674   0.924   1.574  17.194  0.3857 -0.4428 -0.2695
  863MPD2    H512675   1.018   1.560  17.231  0.0187 -0.5259  0.6116
  863MPD2    N112676   0.661   1.486  16.777 -0.1936  0.2995  0.5613
  863MPD2    H712677   0.674   1.458  16.680 -0.2137 -1.5069  1.0850
  864MPD2     C12678   1.054   2.788   0.050 -0.0904  0.0603 -0.8106
  864MPD2    C112679   1.147   2.747  17.657 -0.6789  0.3365  0.6615
  864MPD2    C212680   1.229   2.841  17.593 -0.7600 -0.0628  0.3859
  864MPD2    C312681   1.212   2.980  17.612 -0.4175  0.2321 -0.2633
  864MPD2    C412682   1.108   3.019  17.688 -0.5633  1.1118  0.7241
  864MPD2    C512683   1.039   2.925   0.066  0.7344  0.8186 -0.6657
  864MPD2     H12684   1.319   2.811  17.539  1.1679  0.1944  3.4566
  864MPD2    H112685   1.078   3.122   0.002  0.9393  1.7600 -1.0716
  864MPD2    H212686   0.987   2.718   0.098 -0.2194  1.1499  0.6240
  864MPD2    H312687   0.961   2.952   0.137 -0.2677  0.5843 -1.6777
  864MPD2     N12688   1.286   3.070  17.536  0.5480 -0.2167 -0.0354
  864MPD2    H512689   1.260   3.166  17.554 -1.8734 -1.3594  2.5624
  864MPD2    N112690   1.145   2.608  17.628  0.1333  0.0995  0.5398
  864MPD2    H712691   1.074   2.553  17.676 -1.3745  1.8392  0.3268
  865MPD2     C12692   1.361   3.333  16.671 -0.7877 -0.1751 -0.2189
  865MPD2    C112693   1.387   3.227  16.744  0.3484 -0.5174 -0.2621
  865MPD2    C212694   1.375   3.229  16.884 -0.5360 -0.2226 -0.6002
  865MPD2    C312695   1.335   3.344  16.956  0.2891 -0.4496 -0.4349
  865MPD2    C412696   1.312   3.455  16.887  0.6366  0.4245 -0.0210
  865MPD2    C512697   1.325   3.448  16.747 -0.4674  0.0371  0.2342
  865MPD2     H12698   1.401   3.140  16.939  0.6817  0.8565  0.5547
  865MPD2    H112699   1.275   3.545  16.935  1.7925  1.0986 -0.4093
  865MPD2    H212700   1.359   3.329  16.563  0.9745 -0.7913 -0.2290
  865MPD2    H312701   1.304   3.534  16.685  1.0137 -0.3536 -0.8296
  865MPD2     N12702   1.323   3.321  17.090  0.1640  0.3823 -0.5911
  865MPD2    H512703   1.352   3.225  17.107 -0.4749  0.4845  1.0050
  865MPD2    N112704   1.416   3.103  16.671  0.5971  0.5326 -0.0871
  865MPD2    H712705   1.428   3.124  16.573  2.0214 -1.4060 -0.3396
  866MPD2     C12706   3.158   2.929  12.217  0.2587  0.1046 -0.4656
  866MPD2    C112707   3.181   2.922  12.081 -0.1612 -0.1343 -0.0823
  866MPD2    C212708   3.076   2.945  11.997  1.1126 -0.2928  0.2608
  866MPD2    C312709   2.951   2.994  12.043  0.0180 -0.5851 -0.2063
  866MPD2    C412710   2.931   3.019  12.178  0.2802 -0.2715 -0.2754
  866MPD2    C512711   3.040   2.984  12.265  0.0121  0.2616 -0.3643
  866MPD2     H12712   3.101   2.941  11.891 -1.0088 -0.0470 -0.2570
  866MPD2    H112713   2.830   3.046  12.205  0.9262  2.1104 -0.2864
  866MPD2    H212714   3.232   2.902  12.291  1.3187 -0.5503 -1.7591
  866MPD2    H312715   3.022   2.981  12.372  0.3705 -0.1534 -0.3164
  866MPD2     N12716   2.837   3.015  11.962 -0.3323 -0.2959 -0.3012
  866MPD2    H512717   2.758   3.065  12.002  0.8344  1.1234  0.2302
  866MPD2    N112718   3.304   2.872  12.030 -0.2781 -0.3832  0.1465
  866MPD2    H712719   3.381   2.844  12.091  0.4774 -1.2687 -1.2054
  867MPD2     C12720   4.714   2.614  16.542 -0.0673 -0.0653  0.0105
  867MPD2    C112721   0.027   2.602  16.673  0.6904  0.8363 -0.4913
  867MPD2    C212722   0.027   2.718  16.748 -0.8746  0.0831  0.8024
  867MPD2    C312723   0.000   2.844  16.693  0.4333  0.0135 -0.3130
  867MPD2    C412724   4.684   2.856  16.563  0.1987  0.4055  0.2964
  867MPD2    C512725   4.678   2.737  16.494 -0.1977 -0.3167  0.1189
  867MPD2     H12726   0.039   2.703  16.855 -0.3374  0.0942  0.7433
  867MPD2    H112727   4.645   2.946  16.517 -0.6587  0.4724  1.1529
  867MPD2    H212728   4.686   2.529  16.482  2.5480 -0.5351 -0.5443
  867MPD2    H312729   4.654   2.742  16.388 -0.7490 -3.7923  0.0753
  867MPD2     N12730   0.008   2.969  16.764 -0.8528  0.5770  0.2038
  867MPD2    H512731   4.706   3.049  16.709 -0.1595 -0.0317 -1.0129
  867MPD2    N112732   0.042   2.472  16.726  0.2105  0.6123  0.1488
  867MPD2    H712733   0.028   2.398  16.658  1.9660  0.8542 -0.4740
  868MPD2     C12734   2.169   0.519  13.086  0.5484 -0.0325 -0.7184
  868MPD2    C112735   2.258   0.621  13.120  0.2041 -0.0320 -0.1767
  868MPD2    C212736   2.207   0.747  13.143 -0.5082  0.2897 -0.3561
  868MPD2    C312737   2.072   0.779  13.147 -0.0780 -0.2959  0.0813
  868MPD2    C412738   1.988   0.673  13.115 -1.2345  0.6256 -0.8928
  868MPD2    C512739   2.038   0.558  13.077 -0.1669  0.2109  0.2216
  868MPD2     H12740   2.271   0.824  13.183 -1.4814  1.2830 -0.6978
  868MPD2    H112741   1.880   0.686  13.110 -1.4563 -0.7886  0.5020
  868MPD2    H212742   2.204   0.420  13.062  1.2097 -0.0299  0.2111
  868MPD2    H312743   1.965   0.485  13.045  0.0426 -0.1204  0.4944
  868MPD2     N12744   2.039   0.904  13.210 -0.4088  0.0765 -0.3457
  868MPD2    H512745   2.108   0.973  13.238 -0.9822  1.4206 -2.1928
  868MPD2    N112746   2.389   0.587  13.141  0.4957  0.2013  0.4861
  868MPD2    H712747   2.403   0.487  13.135 -1.1588 -0.0148  0.2214
  869MPD2     C12748   4.435   0.618   2.338  0.0738 -0.4380  0.4325
  869MPD2    C112749   4.320   0.544   2.370 -0.7684 -0.1015  0.2602
  869MPD2    C212750   4.210   0.566   2.294 -0.5285  0.4077  0.6476
  869MPD2    C312751   4.215   0.649   2.191 -0.3337  0.0166  0.0671
  869MPD2    C412752   4.329   0.714   2.149 -0.7947 -0.2438 -0.8479
  869MPD2    C512753   4.440   0.695   2.220  0.1270  0.3194  0.0731
  869MPD2     H12754   4.111   0.530   2.318 -0.3593 -0.6337 -0.2174
  869MPD2    H112755   4.332   0.768   2.055  2.3691  2.9620  1.0963
  869MPD2    H212756   4.527   0.602   2.394 -0.2737  0.4613  1.2710
  869MPD2    H312757   4.530   0.750   2.196  0.2318  0.7114  1.3408
  869MPD2     N12758   4.099   0.669   2.114  0.0552 -0.6998 -0.0148
  869MPD2    H512759   4.104   0.720   2.026  1.3874  1.8502  1.5362
  869MPD2    N112760   4.323   0.456   2.481  0.4591  0.0518  0.6564
  869MPD2    H712761   4.407   0.453   2.538 -0.1188  0.6399  1.5431
  870MPD2     C12762   3.054   3.917   2.036  1.2359  0.1809  0.0005
  870MPD2    C112763   3.019   3.792   1.992 -0.8510  0.4235  0.2940
  870MPD2    C212764   2.922   3.794   1.891  0.3266 -0.1765 -0.4223
  870MPD2    C312765   2.868   3.916   1.846 -0.3287  0.3433  0.1868
  870MPD2    C412766   2.902   4.036   1.904 -0.2444 -0.2898 -0.5134
  870MPD2    C512767   2.981   4.030   2.014 -0.3212 -0.6292  0.2045
  870MPD2     H12768   2.902   3.705   1.833  2.7989 -1.0584  0.0748
  870MPD2    H112769   2.870   4.133   1.868  1.4567 -0.0480 -1.3592
  870MPD2    H212770   3.134   3.919   2.110  3.2861  1.3027 -2.2464
  870MPD2    H312771   3.010   4.118   2.071 -0.4655  0.5223 -1.5041
  870MPD2     N12772   2.788   3.911   1.734  0.1974  0.2051  0.0576
  870MPD2    H512773   2.783   3.822   1.685 -2.5405  0.4444 -0.0964
  870MPD2    N112774   3.084   3.675   2.032  0.8771  0.6003  0.1772
  870MPD2    H712775   3.165   3.690   2.092  1.7014 -0.6009 -0.6476
  871MPD2     C12776   3.669   2.929  16.904  0.1243  0.4916 -0.1596
  871MPD2    C112777   3.627   2.885  17.025 -0.7958 -0.6052 -0.4490
  871MPD2    C212778   3.578   2.753  17.035  0.7191  0.2535 -0.0210
  871MPD2    C312779   3.581   2.668  16.922 -0.4516 -1.2092 -1.1429
  871MPD2    C412780   3.637   2.720  16.805 -0.5224 -0.0506  0.4929
  871MPD2    C512781   3.682   2.848  16.799 -0.3485  0.2519  0.7156
  871MPD2     H12782   3.537   2.715  17.129 -1.0836 -0.6468 -1.1689
  871MPD2    H112783   3.643   2.667  16.711 -1.4425  0.6521  0.0407
  871MPD2    H212784   3.695   3.034  16.895  1.6691  0.2993  2.1861
  871MPD2    H312785   3.726   2.885  16.707  3.8757 -0.7597  2.3435
  871MPD2     N12786   3.525   2.543  16.939 -0.4334  0.2202 -0.0446
  871MPD2    H512787   3.502   2.516  17.034 -1.7923 -1.5556 -0.8870
  871MPD2    N112788   3.613   2.978  17.129  0.2063  0.2574  0.1726
  871MPD2    H712789   3.627   3.077  17.112 -0.6493  0.2874 -0.3634
  872MPD2     C12790   4.505   0.572  14.384  0.0484 -0.6405 -0.4172
  872MPD2    C112791   4.438   0.662  14.300  0.4547 -0.6767 -0.4707
  872MPD2    C212792   4.304   0.683  14.324 -0.1442 -0.1221  0.6608
  872MPD2    C312793   4.242   0.607  14.423  0.3016  0.1096  0.3467
  872MPD2    C412794   4.309   0.518  14.501 -0.3875  0.2223 -0.1414
  872MPD2    C512795   4.439   0.510  14.484 -0.0927 -0.1139  0.1678
  872MPD2     H12796   4.252   0.762  14.271  2.2224  0.8914 -0.1635
  872MPD2    H112797   4.252   0.461  14.574 -0.4512 -1.5349 -1.5534
  872MPD2    H212798   4.612   0.555  14.380 -0.3196 -2.5584 -1.7337
  872MPD2    H312799   4.491   0.427  14.529  0.8312  0.6114  0.4308
  872MPD2     N12800   4.104   0.626  14.458 -0.1275 -0.1388  0.7984
  872MPD2    H512801   4.070   0.570  14.536  2.1439 -2.2543  0.2376
  872MPD2    N112802   4.506   0.744  14.211  0.2712 -0.1324  0.2412
  872MPD2    H712803   4.446   0.805  14.156 -1.9083 -1.6364  0.9354
  873MPD2     C12804   1.967   1.107   1.269  0.0630 -0.4665  0.1554
  873MPD2    C112805   1.845   1.130   1.331 -0.9955 -0.1201 -0.1454
  873MPD2    C212806   1.742   1.044   1.323  0.5124  0.1132  0.1721
  873MPD2    C312807   1.753   0.928   1.247 -0.4499  0.1147 -0.1153
  873MPD2    C412808   1.872   0.914   1.169 -0.2654  0.2704  0.0557
  873MPD2    C512809   1.980   1.001   1.184  1.0903  0.8411  0.4299
  873MPD2     H12810   1.641   1.061   1.359  1.6171 -0.8485  3.6433
  873MPD2    H112811   1.880   0.831   1.099  1.1961 -0.1520  0.7210
  873MPD2    H212812   2.048   1.179   1.271 -0.9060  0.6046  0.1671
  873MPD2    H312813   2.068   0.975   1.127 -0.0333 -0.2660 -0.7808
  873MPD2     N12814   1.658   0.823   1.221 -0.2857 -0.0844  0.4007
  873MPD2    H512815   1.679   0.761   1.144  1.4659  0.9426  0.0488
  873MPD2    N112816   1.842   1.255   1.400  0.0735 -0.4605 -0.6509
  873MPD2    H712817   1.924   1.314   1.408  0.0849 -0.6825  0.7662
  874MPD2     C12818   1.231   0.982  16.212 -0.7044  0.0059 -0.3214
  874MPD2    C112819   1.249   0.981  16.348  0.4360 -0.0697  0.2365
  874MPD2    C212820   1.361   1.051  16.398  0.9572  0.6165  0.1364
  874MPD2    C312821   1.457   1.095  16.312  0.6866  0.2924  0.6541
  874MPD2    C412822   1.449   1.070  16.173  0.4192 -0.3808 -0.8796
  874MPD2    C512823   1.329   1.020  16.126 -0.4521 -0.3024  0.1119
  874MPD2     H12824   1.370   1.068  16.505 -0.9456  1.0926  0.2269
  874MPD2    H112825   1.518   1.105  16.097  1.0193 -0.6620 -0.4643
  874MPD2    H212826   1.140   0.946  16.165 -0.5722 -2.0304  0.9979
  874MPD2    H312827   1.306   1.023  16.020 -0.4909  0.9578  0.1623
  874MPD2     N12828   1.580   1.128  16.372 -0.4464  0.1340  0.3373
  874MPD2    H512829   1.585   1.143  16.472 -0.2326 -2.9732  0.7834
  874MPD2    N112830   1.165   0.908  16.433  0.1516 -0.9477  0.1654
  874MPD2    H712831   1.076   0.872  16.399  0.0061 -0.3243 -0.1041
  875MPD2     C12832   2.411   3.729  15.044 -0.3986  0.4134  0.2592
  875MPD2    C112833   2.300   3.802  15.085 -0.0979 -0.1728 -0.5792
  875MPD2    C212834   2.301   3.860  15.210 -0.2566 -0.7090  0.3192
  875MPD2    C312835   2.416   3.858  15.282  0.3886 -0.2546 -0.3037
  875MPD2    C412836   2.526   3.785  15.247  0.1662 -0.0728 -0.1672
  875MPD2    C512837   2.512   3.718  15.130  0.2593  0.4905  0.5416
  875MPD2     H12838   2.216   3.918  15.244  0.4077  0.6546 -0.3279
  875MPD2    H112839   2.601   3.765  15.322 -1.0454 -0.3493  0.9682
  875MPD2    H212840   2.414   3.669  14.954  0.0840  1.4990 -0.4498
  875MPD2    H312841   2.595   3.653  15.104 -0.2462 -1.0865  2.8386
  875MPD2     N12842   2.431   3.932  15.398  0.2566 -0.1782  0.5049
  875MPD2    H512843   2.526   3.949  15.431 -0.7001  3.2215  1.4767
  875MPD2    N112844   2.180   3.798  15.007  0.1562 -0.4564  0.0720
  875MPD2    H712845   2.099   3.843  15.049 -0.3351 -0.8928 -0.4289
  876MPD2     C12846   1.132   0.181  16.385 -0.9780  0.0422  0.1958
  876MPD2    C112847   1.270   0.186  16.397  0.1876 -0.0758  0.4038
  876MPD2    C212848   1.336   0.116  16.500 -0.5725 -0.2411  0.4176
  876MPD2    C312849   1.256   0.043  16.591 -0.2062  0.1701  0.3126
  876MPD2    C412850   1.123   0.031  16.568  0.3433 -0.1789 -0.2245
  876MPD2    C512851   1.056   0.108  16.470  0.1950  0.8402 -0.2796
  876MPD2     H12852   1.442   0.099  16.514 -0.2977  2.4049  1.6457
  876MPD2    H112853   1.054   4.705  16.635  0.5398  0.7168  0.6472
  876MPD2    H212854   1.083   0.229  16.301  1.8826  0.0578 -1.4687
  876MPD2    H312855   0.949   0.113  16.457  0.1893 -1.2948 -1.0751
  876MPD2     N12856   1.320   4.688  16.687 -0.8781 -0.4417  0.5168
  876MPD2    H512857   1.422   4.688  16.681 -0.9858  1.1732 -1.3215
  876MPD2    N112858   1.340   0.248  16.292  0.3286  0.5409  0.0228
  876MPD2    H712859   1.283   0.300  16.226 -2.4003 -0.1864  1.8147
  877MPD2     C12860   1.256   0.759  15.790 -0.5527 -0.8645 -0.3996
  877MPD2    C112861   1.390   0.781  15.813  0.0569 -0.3736 -0.4875
  877MPD2    C212862   1.470   0.829  15.712 -0.2328  0.1208  0.1034
  877MPD2    C312863   1.418   0.848  15.585  0.6805 -0.1666 -0.1431
  877MPD2    C412864   1.281   0.842  15.571  0.3390  0.4243  0.7389
  877MPD2    C512865   1.203   0.790  15.667 -0.4398 -0.1872 -0.1279
  877MPD2     H12866   1.573   0.856  15.735  0.2486 -3.4077  2.0384
  877MPD2    H112867   1.235   0.861  15.475 -1.5804 -1.8505  1.2053
  877MPD2    H212868   1.185   0.721  15.863 -1.5091 -0.1182 -0.9355
  877MPD2    H312869   1.098   0.767  15.653  0.1470 -1.4702 -2.2228
  877MPD2     N12870   1.491   0.879  15.470  0.2345  0.3003 -0.6480
  877MPD2    H512871   1.429   0.882  15.389 -0.6115 -1.9187 -0.0870
  877MPD2    N112872   1.459   0.733  15.933  0.3916 -0.0192  0.0223
  877MPD2    H712873   1.559   0.743  15.947  0.5217 -1.1628 -0.1387
  878MPD2     C12874   1.158   0.637  13.821  0.4116  0.2920  0.2860
  878MPD2    C112875   1.272   0.630  13.905  0.7580  0.3336  0.3449
  878MPD2    C212876   1.258   0.626  14.044 -0.1604 -0.4220  0.4410
  878MPD2    C312877   1.134   0.616  14.103  0.0936 -0.0294  0.5729
  878MPD2    C412878   1.028   0.619  14.020  0.0283  0.2396  0.4953
  878MPD2    C512879   1.039   0.640  13.883 -0.1611  0.2001  0.4132
  878MPD2     H12880   1.345   0.629  14.109  0.9120  0.9562 -1.0379
  878MPD2    H112881   0.931   0.634  14.068 -0.2388  2.9914 -0.9291
  878MPD2    H212882   1.159   0.667  13.717  0.2283  2.0981  0.8096
  878MPD2    H312883   0.953   0.638  13.817 -1.3413  0.0533  1.9537
  878MPD2     N12884   1.130   0.602  14.247 -0.7180  0.3707  0.0719
  878MPD2    H512885   1.215   0.639  14.288 -0.4842  0.7528 -0.7492
  878MPD2    N112886   1.398   0.624  13.843  0.1944  0.0175  0.0760
  878MPD2    H712887   1.403   0.621  13.741 -0.6398 -2.9851  0.1327
  879MPD2     C12888   1.341   1.934  17.243 -0.2481  0.0615  0.7605
  879MPD2    C112889   1.416   1.830  17.295 -0.9984  0.0698 -0.5944
  879MPD2    C212890   1.420   1.709  17.223  0.0784  0.3355 -0.0978
  879MPD2    C312891   1.349   1.695  17.105 -0.5856 -0.7099  0.0967
  879MPD2    C412892   1.283   1.805  17.049  0.1242  0.0376  0.6072
  879MPD2    C512893   1.281   1.923  17.119  0.3112 -0.3225 -0.1220
  879MPD2     H12894   1.487   1.627  17.248 -0.5377 -0.1615 -0.0929
  879MPD2    H112895   1.249   1.809  16.946  1.5052 -1.7570  0.0920
  879MPD2    H212896   1.327   2.029  17.294  0.7073  0.2368  0.6964
  879MPD2    H312897   1.226   2.003  17.071 -0.7538 -1.2096 -0.3795
  879MPD2     N12898   1.354   1.577  17.024 -0.0092 -0.2552  0.1563
  879MPD2    H512899   1.331   1.598  16.927  1.1591 -0.8315 -0.2451
  879MPD2    N112900   1.474   1.849  17.425 -0.1648  0.6097  0.0123
  879MPD2    H712901   1.463   1.935  17.478  0.1539  1.2952 -1.0479
  880MPD2     C12902   2.950   2.719   0.591  0.6818  0.2135  0.5133
  880MPD2    C112903   2.909   2.752   0.718  0.4734  0.1796 -0.2037
  880MPD2    C212904   2.976   2.693   0.826 -0.5031  0.2823  0.5017
  880MPD2    C312905   3.069   2.597   0.806  0.2849  0.1202  0.2565
  880MPD2    C412906   3.110   2.566   0.680 -0.5506 -0.4731  0.3700
  880MPD2    C512907   3.051   2.627   0.577  0.1210 -0.4847  0.0439
  880MPD2     H12908   2.945   2.710   0.928 -0.4220  0.0954  0.5586
  880MPD2    H112909   3.192   2.499   0.656 -0.8076 -0.7721  0.3192
  880MPD2    H212910   2.901   2.748   0.499 -0.3343 -0.8313  0.7149
  880MPD2    H312911   3.099   2.604   0.482 -0.0105  0.0985 -0.1646
  880MPD2     N12912   3.129   2.534   0.928  0.1589 -0.3673  0.7889
  880MPD2    H512913   3.093   2.559   1.020 -1.7202  1.9286 -0.5556
  880MPD2    N112914   2.804   2.848   0.715 -1.0107 -0.1091 -0.1546
  880MPD2    H712915   2.758   2.875   0.628 -0.1973 -0.9509 -0.8372
  881MPD2     C12916   2.685   3.725   0.276 -0.5721 -0.6240 -0.7971
  881MPD2    C112917   2.733   3.596   0.254 -0.3231  0.1542 -0.2326
  881MPD2    C212918   2.706   3.492   0.348 -0.0808 -0.1886 -0.2033
  881MPD2    C312919   2.656   3.528   0.472  0.8834  0.2496 -0.3387
  881MPD2    C412920   2.609   3.657   0.500  0.0769 -0.0357 -0.3540
  881MPD2    C512921   2.625   3.749   0.400 -0.5847 -0.5581 -0.8277
  881MPD2     H12922   2.721   3.387   0.325  0.5561 -0.3942  1.1762
  881MPD2    H112923   2.578   3.687   0.599  3.7879 -0.5596  0.9681
  881MPD2    H212924   2.700   3.806   0.205 -0.6645  1.7997  1.9670
  881MPD2    H312925   2.599   3.854   0.412 -0.2709 -0.6977  1.1437
  881MPD2     N12926   2.629   3.431   0.570  0.0973  0.6274 -0.6119
  881MPD2    H512927   2.554   3.443   0.637  0.6170 -0.4075  0.1700
  881MPD2    N112928   2.767   3.563   0.119  0.2693  0.3746  0.0590
  881MPD2    H712929   2.749   3.630   0.045 -1.1527  1.0106  0.9762
  882MPD2     C12930   1.615   0.926  14.656  0.7282 -0.2332 -0.4363
  882MPD2    C112931   1.532   0.895  14.762  0.4396 -0.7595 -0.6162
  882MPD2    C212932   1.396   0.905  14.738 -0.0265 -0.8879  0.5288
  882MPD2    C312933   1.341   0.949  14.619 -0.6899  0.7812  0.1864
  882MPD2    C412934   1.421   0.982  14.520 -0.3212 -0.2609 -0.9998
  882MPD2    C512935   1.555   0.973  14.538  0.4467  0.0679 -0.0802
  882MPD2     H12936   1.322   0.890  14.816  0.0354  0.6033  0.8802
  882MPD2    H112937   1.382   1.015  14.424  2.3886 -0.3172 -2.1146
  882MPD2    H212938   1.723   0.931  14.663  0.8925 -2.6872 -1.1659
  882MPD2    H312939   1.621   1.004  14.458  1.0854 -1.3518 -0.0896
  882MPD2     N12940   1.202   0.964  14.599 -0.4459 -0.5026  0.8390
  882MPD2    H512941   1.175   1.002  14.509 -1.8990 -0.4792  1.2912
  882MPD2    N112942   1.585   0.873  14.890 -0.1736  0.0337 -0.3112
  882MPD2    H712943   1.686   0.862  14.891 -0.0766  1.1861  2.7994
  883MPD2     C12944   3.139   1.293  16.305  0.8031 -0.0936  0.0113
  883MPD2    C112945   3.100   1.184  16.379  0.4821 -0.2057  0.0690
  883MPD2    C212946   3.176   1.138  16.481 -1.2873 -0.2824 -0.4768
  883MPD2    C312947   3.304   1.190  16.504  0.3109  0.2119  0.1236
  883MPD2    C412948   3.351   1.296  16.422 -0.3490 -0.4521 -0.3064
  883MPD2    C512949   3.263   1.350  16.325  0.6215 -0.5756  0.0568
  883MPD2     H12950   3.139   1.052  16.537  0.5454  0.2534  1.5266
  883MPD2    H112951   3.444   1.349  16.434  1.3551 -3.1196 -1.8193
  883MPD2    H212952   3.086   1.335  16.221 -0.7698 -0.0449  1.0171
  883MPD2    H312953   3.292   1.437  16.267  0.8375 -0.0054  1.0360
  883MPD2     N12954   3.390   1.129  16.602  0.0343  0.2521  0.8765
  883MPD2    H512955   3.350   1.053  16.656 -0.7545  0.2202  0.2448
  883MPD2    N112956   2.990   1.100  16.344 -0.1986 -0.2899  0.0849
  883MPD2    H712957   2.973   1.015  16.396 -0.9659 -0.3923 -0.3316
  884MPD2     C12958   0.722   1.203  15.419 -0.7188 -0.8356  0.3992
  884MPD2    C112959   0.652   1.204  15.298 -0.6268  0.1293 -0.4593
  884MPD2    C212960   0.512   1.191  15.305  0.8822  1.1459 -0.0945
  884MPD2    C312961   0.444   1.148  15.416  0.3761 -0.0951  0.0527
  884MPD2    C412962   0.518   1.138  15.536  0.3186  0.0046  0.1335
  884MPD2    C512963   0.652   1.171  15.534 -0.1895  0.2072  0.6143
  884MPD2     H12964   0.459   1.205  15.212 -0.4754  0.0915  0.5077
  884MPD2    H112965   0.478   1.117  15.635 -2.6910  0.3126 -1.0128
  884MPD2    H212966   0.826   1.233  15.427 -1.0204  0.5096 -0.5867
  884MPD2    H312967   0.709   1.167  15.627 -0.2433  0.9444  0.6843
  884MPD2     N12968   0.303   1.132  15.410  0.1286  0.4579  0.2936
  884MPD2    H512969   0.254   1.161  15.326  0.0057 -1.3120 -0.2454
  884MPD2    N112970   0.711   1.234  15.171  0.0416 -0.1521  0.0821
  884MPD2    H712971   0.649   1.223  15.092  2.0512 -0.7864 -1.3925
  885MPD2     C12972   3.253   1.581   0.527  0.1843 -0.4431  0.5683
  885MPD2    C112973   3.381   1.613   0.494  0.9406 -0.4985  0.5784
  885MPD2    C212974   3.412   1.635   0.360 -0.1309 -0.4425 -0.1677
  885MPD2    C312975   3.309   1.650   0.260 -0.0974 -0.3254  0.6951
  885MPD2    C412976   3.177   1.629   0.303  0.4156  0.5043  0.7875
  885MPD2    C512977   3.154   1.598   0.436  0.2270 -0.3525 -0.5640
  885MPD2     H12978   3.515   1.647   0.330 -0.0762  2.1815  1.1043
  885MPD2    H112979   3.089   1.647   0.242  0.4264  0.6731  0.8237
  885MPD2    H212980   3.214   1.559   0.627  0.9607 -0.5175  0.8499
  885MPD2    H312981   3.055   1.581   0.475 -0.5934  2.2708 -1.5222
  885MPD2     N12982   3.332   1.682   0.123 -0.0134  0.5726 -0.0928
  885MPD2    H512983   3.425   1.710   0.091 -0.6382  3.0101  0.2037
  885MPD2    N112984   3.479   1.614   0.594  0.1012 -0.3357  0.5131
  885MPD2    H712985   3.447   1.589   0.687  1.4536  2.2469  1.6759
  886MPD2     C12986   4.413   4.683  15.552 -0.3543  0.4087  0.4909
  886MPD2    C112987   4.549   4.677  15.552  0.8005  0.3215  0.5059
  886MPD2    C212988   4.611   0.020  15.448 -0.1760 -0.0744  0.6146
  886MPD2    C312989   4.544   0.088  15.351 -0.3868 -0.1804  0.8241
  886MPD2    C412990   4.407   0.079  15.350  1.0259  0.3017  0.4470
  886MPD2    C512991   4.340   0.012  15.450 -0.8040 -0.6990 -0.8147
  886MPD2     H12992   4.718   0.036  15.464 -0.3515 -0.3294  2.1104
  886MPD2    H112993   4.348   0.118  15.268  0.0320 -1.3115  0.3906
  886MPD2    H212994   4.350   4.625  15.618 -1.1937  0.4694 -0.2441
  886MPD2    H312995   4.233   4.722  15.450 -0.8238 -0.5585 -2.7744
  886MPD2     N12996   4.609   0.155  15.245 -0.2579  0.3165  0.0353
  886MPD2    H512997   4.551   0.190  15.169  0.5736  1.2872 -0.1523
  886MPD2    N112998   4.629   4.609  15.647 -0.4366 -0.1816 -0.1970
  886MPD2    H712999   0.006   4.615  15.643 -0.4487 -0.1845 -0.5160
  887MPD2     C13000   0.629   4.722  15.816 -0.6122 -0.2694  0.2049
  887MPD2    C113001   0.502   0.052  15.809 -0.4699 -0.3344 -0.8141
  887MPD2    C213002   0.484   0.185  15.766  0.9993 -0.4496  0.1703
  887MPD2    C313003   0.599   0.257  15.730 -0.2047 -0.0848 -0.5439
  887MPD2    C413004   0.727   0.197  15.735  1.0092 -0.1186 -0.4902
  887MPD2    C513005   0.735   0.072  15.782 -0.2666  0.7920  0.6770
  887MPD2     H13006   0.391   0.241  15.766 -0.2497 -2.5141 -1.9387
  887MPD2    H113007   0.811   0.266  15.735  0.0077  1.0970 -0.1325
  887MPD2    H213008   0.656   4.629  15.863 -0.5647 -0.1384  0.4352
  887MPD2    H313009   0.831   0.022  15.782 -0.6677 -0.0072 -1.3310
  887MPD2     N13010   0.565   0.388  15.687 -0.5244  0.1854 -0.1685
  887MPD2    H513011   0.467   0.413  15.691 -0.9044 -1.0055 -1.9776
  887MPD2    N113012   0.398   4.698  15.866 -0.1789 -0.4566 -0.0401
  887MPD2    H713013   0.410   4.601  15.894  1.3561 -0.4129 -0.5551
  888MPD2     C13014   2.818   0.373  15.203  0.4677 -0.5152  0.5181
  888MPD2    C113015   2.697   0.432  15.153 -0.3452  0.7618 -0.3029
  888MPD2    C213016   2.694   0.570  15.143 -0.2268 -0.2107 -0.0500
  888MPD2    C313017   2.809   0.640  15.172  0.7699 -0.5620  0.3085
  888MPD2    C413018   2.929   0.581  15.193 -0.3525  0.1582 -0.5454
  888MPD2    C513019   2.930   0.444  15.213  0.3726 -0.6952 -0.5507
  888MPD2     H13020   2.604   0.617  15.106  1.0050  2.7475  0.7735
  888MPD2    H113021   3.017   0.633  15.228 -1.1908 -0.0777  1.9005
  888MPD2    H213022   2.837   0.267  15.215  1.5296 -0.3259  0.5490
  888MPD2    H313023   3.023   0.396  15.239  1.2747  0.1471 -2.2093
  888MPD2     N13024   2.796   0.780  15.163  0.4177 -0.9230  0.3889
  888MPD2    H513025   2.702   0.818  15.174  0.2823 -1.0417 -0.3231
  888MPD2    N113026   2.582   0.351  15.122  0.0947 -0.1898  0.0184
  888MPD2    H713027   2.506   0.405  15.081 -0.0681 -0.8252 -0.5096
  889MPD2     C13028   1.575   4.093  13.219 -0.0270  0.2147 -0.1458
  889MPD2    C113029   1.662   4.076  13.327 -0.0144  0.1000 -0.6581
  889MPD2    C213030   1.729   4.187  13.383  0.1195  0.6800 -0.5076
  889MPD2    C313031   1.731   4.311  13.324 -0.3566  0.1077 -0.0267
  889MPD2    C413032   1.655   4.323  13.207  0.7607  0.3590  0.1052
  889MPD2    C513033   1.572   4.221  13.165  0.3548  0.0900 -0.1089
  889MPD2     H13034   1.800   4.175  13.464 -0.4748  0.0701 -0.0807
  889MPD2    H113035   1.648   4.413  13.147 -1.2560 -0.4380 -0.8539
  889MPD2    H213036   1.510   4.015  13.180 -2.3173  1.2499  1.6191
  889MPD2    H313037   1.511   4.247  13.080 -0.2880 -1.0240  0.0057
  889MPD2     N13038   1.816   4.413  13.379 -0.1939 -0.3817 -0.0153
  889MPD2    H513039   1.859   4.397  13.469 -1.2699 -2.4016  0.1215
  889MPD2    N113040   1.664   3.961  13.410 -0.6827 -0.8469 -0.3280
  889MPD2    H713041   1.724   3.968  13.491  1.9835 -1.2046 -2.2758
  890MPD2     C13042   1.506   1.366  14.818  0.3121 -0.7484  0.4617
  890MPD2    C113043   1.530   1.482  14.885  0.0401  0.1635 -0.0755
  890MPD2    C213044   1.562   1.481  15.013  0.0691 -0.3889  0.0624
  890MPD2    C313045   1.536   1.366  15.091 -0.1423  0.2957 -0.0050
  890MPD2    C413046   1.514   1.242  15.023 -0.4911  0.3705 -0.1430
  890MPD2    C513047   1.503   1.243  14.882 -0.5523 -0.1217 -0.6448
  890MPD2     H13048   1.588   1.572  15.067 -1.1520 -1.0227  1.7116
  890MPD2    H113049   1.522   1.152  15.082 -0.5298 -0.6420 -1.6652
  890MPD2    H213050   1.483   1.367  14.712  1.4572  0.6015  0.2160
  890MPD2    H313051   1.495   1.152  14.823 -1.8855 -0.7162  0.4658
  890MPD2     N13052   1.533   1.372  15.237 -0.5802  0.1884 -0.0609
  890MPD2    H513053   1.547   1.466  15.274 -0.4070 -0.5068  1.6157
  890MPD2    N113054   1.521   1.607  14.817  1.0089 -0.0206 -0.4971
  890MPD2    H713055   1.484   1.596  14.723 -1.1941  2.3233  0.0824
  891MPD2     C13056   4.160   0.245  16.945  0.2234  0.0728 -0.2099
  891MPD2    C113057   4.068   0.198  17.030  0.1298  0.4663 -0.5707
  891MPD2    C213058   4.106   0.102  17.122  0.2056  0.0551  0.0249
  891MPD2    C313059   4.235   0.050  17.124  0.3649 -0.5578 -0.0165
  891MPD2    C413060   4.322   0.094  17.026 -0.2900  0.1688 -0.4026
  891MPD2    C513061   4.283   0.186  16.929  0.1184  0.0282  0.5533
  891MPD2     H13062   4.029   0.072  17.192  0.7129  1.6195  1.2510
  891MPD2    H113063   4.426   0.064  17.033 -0.1565  0.8986  0.7673
  891MPD2    H213064   4.130   0.331  16.886 -1.8086 -0.5866 -0.1409
  891MPD2    H313065   4.354   0.222  16.856  0.0702  0.5331  0.7554
  891MPD2     N13066   4.264   4.680  17.222  0.7869  0.1139  0.6741
  891MPD2    H513067   4.183   4.641  17.269 -0.2912  3.2208  1.4206
  891MPD2    N113068   3.948   0.267  17.022  0.2640 -0.2079  0.5938
  891MPD2    H713069   3.944   0.320  16.935  0.1481 -1.8267 -0.3951
  892MPD2     C13070   0.442   0.810  15.272 -0.2508  0.3688 -0.1566
  892MPD2    C113071   0.391   0.875  15.170 -0.3940  0.0303  0.1529
  892MPD2    C213072   0.465   0.939  15.070  0.2419  0.4453  0.4041
  892MPD2    C313073   0.601   0.922  15.065  0.4634  0.2312  0.3567
  892MPD2    C413074   0.654   0.851  15.169  0.1146  0.0054 -0.6239
  892MPD2    C513075   0.576   0.807  15.274  0.5814  0.4527 -1.1765
  892MPD2     H13076   0.415   0.986  14.986  0.3589  2.7688  1.6345
  892MPD2    H113077   0.760   0.828  15.166  0.3832  1.1526  0.2204
  892MPD2    H213078   0.379   0.772  15.352 -0.0535  0.7181  0.1688
  892MPD2    H313079   0.617   0.754  15.359 -0.2228  1.7011  0.0025
  892MPD2     N13080   0.680   0.939  14.949  1.1490  0.3360 -0.2497
  892MPD2    H513081   0.772   0.897  14.955  1.7853  1.7047 -0.2531
  892MPD2    N113082   0.251   0.893  15.154  0.0962 -0.3735 -0.0910
  892MPD2    H713083   0.230   0.955  15.077  1.0108 -2.1241 -1.7481
  893MPD2     C13084   3.396   3.990   2.750 -0.2034 -0.2687  0.0710
  893MPD2    C113085   3.351   4.013   2.618 -0.9345 -0.0293 -0.2488
  893MPD2    C213086   3.275   3.909   2.560  0.4923  0.1955 -0.3378
  893MPD2    C313087   3.246   3.787   2.625  0.4658  0.6793 -0.0986
  893MPD2    C413088   3.287   3.779   2.762 -0.0412  0.7848 -1.2629
  893MPD2    C513089   3.382   3.872   2.812  0.2091 -0.0202 -0.1110
  893MPD2     H13090   3.242   3.922   2.457  0.5123 -1.8147 -0.6071
  893MPD2    H113091   3.269   3.688   2.818  1.4018  0.8279 -0.7350
  893MPD2    H213092   3.458   4.066   2.797  1.4486 -0.9399 -1.0239
  893MPD2    H313093   3.427   3.852   2.908  0.4073 -1.2607 -0.4544
  893MPD2     N13094   3.163   3.688   2.569 -0.0656 -0.3912 -0.6389
  893MPD2    H513095   3.152   3.601   2.619 -0.8165 -0.0330 -0.1717
  893MPD2    N113096   3.387   4.135   2.556 -0.3120 -0.3247  0.7498
  893MPD2    H713097   3.453   4.196   2.604  1.6680 -1.8926 -0.0061
  894MPD2     C13098   0.385   2.260   1.373  0.8146  0.5262  0.3493
  894MPD2    C113099   0.513   2.284   1.423 -0.2088 -0.1403 -0.5721
  894MPD2    C213100   0.576   2.402   1.395 -0.2992 -0.0738  0.0292
  894MPD2    C313101   0.516   2.488   1.306 -1.6190 -0.5871 -0.5983
  894MPD2    C413102   0.382   2.461   1.261 -0.3877  0.0971 -0.3007
  894MPD2    C513103   0.315   2.345   1.294  0.1025  0.0761 -0.7761
  894MPD2     H13104   0.676   2.424   1.431  0.2006 -2.2931 -0.0221
  894MPD2    H113105   0.320   2.528   1.203  0.3245  0.9859 -0.0515
  894MPD2    H213106   0.336   2.168   1.404  1.3729  0.1414  0.0927
  894MPD2    H313107   0.215   2.322   1.260  0.2838  2.0962 -2.6561
  894MPD2     N13108   0.579   2.613   1.291 -0.2462 -0.0743 -0.2238
  894MPD2    H513109   0.670   2.628   1.333  0.2987 -0.1729 -1.3644
  894MPD2    N113110   0.574   2.197   1.512  0.4277  0.1409  0.6027
  894MPD2    H713111   0.659   2.235   1.554  0.6138  2.0384 -1.5137
  895MPD2     C13112   0.422   0.126  13.903 -0.3118 -0.5351 -0.2275
  895MPD2    C113113   0.369   0.153  13.779  0.0421  0.5172  0.0354
  895MPD2    C213114   0.286   0.061  13.722  0.2300 -0.4703  0.4760
  895MPD2    C313115   0.265   4.656  13.770 -0.3337 -0.0043 -0.1232
  895MPD2    C413116   0.323   4.626  13.893  0.3666  0.0845 -0.4555
  895MPD2    C513117   0.409   4.723  13.949  0.6971  0.0865 -0.4842
  895MPD2     H13118   0.239   0.087  13.628  2.4365 -0.7624 -0.6930
  895MPD2    H113119   0.311   4.532  13.945 -1.6213  0.2020 -0.6959
  895MPD2    H213120   0.487   0.187  13.964 -0.0721 -0.7293 -0.2913
  895MPD2    H313121   0.451   4.701  14.046 -2.6643 -0.4525  0.8324
  895MPD2     N13122   0.177   4.565  13.719  0.0041  0.7977  0.2131
  895MPD2    H513123   0.170   4.475  13.767  2.1201  0.0110 -0.9638
  895MPD2    N113124   0.388   0.276  13.704  0.3748 -0.3567  0.5560
  895MPD2    H713125   0.330   0.292  13.622 -1.9699 -1.0889  2.0692
  896MPD2     C13126   2.105   3.068   2.213 -0.1374  0.8558 -0.2193
  896MPD2    C113127   2.060   2.980   2.111  0.0030 -0.4442  0.8171
  896MPD2    C213128   1.932   2.992   2.063 -0.0847 -0.4022  0.3714
  896MPD2    C313129   1.851   3.090   2.104 -0.3178 -0.4599  0.2021
  896MPD2    C413130   1.897   3.182   2.199 -0.0034  1.1800  0.1008
  896MPD2    C513131   2.023   3.164   2.255 -0.7290  0.2055  0.3501
  896MPD2     H13132   1.891   2.937   1.979  0.1364  0.6666 -0.4334
  896MPD2    H113133   1.830   3.255   2.244 -2.0712 -0.4487 -0.3105
  896MPD2    H213134   2.205   3.046   2.249 -1.4570 -1.3476  2.1480
  896MPD2    H313135   2.045   3.232   2.337  0.1290  0.2498  0.0827
  896MPD2     N13136   1.731   3.090   2.032 -0.0750  0.0430  0.4037
  896MPD2    H513137   1.728   3.019   1.960 -0.0064  0.8652 -0.3999
  896MPD2    N113138   2.160   2.891   2.066  0.1262 -0.4751 -0.0315
  896MPD2    H713139   2.248   2.888   2.115 -0.4108 -0.9620  0.8989
  897MPD2     C13140   3.691   3.701  11.175 -0.5873  0.0586 -0.7108
  897MPD2    C113141   3.652   3.645  11.055  0.5126  0.1157 -0.4760
  897MPD2    C213142   3.552   3.552  11.058 -0.0111 -0.2067 -0.2065
  897MPD2    C313143   3.486   3.524  11.178 -0.0115 -0.0249 -0.2708
  897MPD2    C413144   3.529   3.577  11.296  0.4679 -0.3164  0.2847
  897MPD2    C513145   3.638   3.663  11.295 -0.5246 -0.3275  0.4810
  897MPD2     H13146   3.505   3.511  10.969  1.7185 -0.2927 -1.0672
  897MPD2    H113147   3.482   3.543  11.387  0.2021  0.3105  0.3842
  897MPD2    H213148   3.776   3.768  11.182  0.8412 -2.1259  2.4442
  897MPD2    H313149   3.671   3.701  11.391 -0.0881  2.5921 -0.8325
  897MPD2     N13150   3.369   3.445  11.184  0.6782 -0.3689  0.1537
  897MPD2    H513151   3.349   3.397  11.272  1.6226 -1.0348  0.0017
  897MPD2    N113152   3.707   3.708  10.938 -0.7357  0.1942 -0.4530
  897MPD2    H713153   3.776   3.781  10.950 -2.2171  1.6251 -0.6137
  898MPD2     C13154   0.394   0.416  17.609 -0.1032 -0.7603 -0.2259
  898MPD2    C113155   0.460   0.545  17.592 -0.1625  1.2135  0.4050
  898MPD2    C213156   0.394   0.638  17.515 -0.1008 -0.5951 -0.2385
  898MPD2    C313157   0.274   0.605  17.450  0.0351 -0.5371 -0.2194
  898MPD2    C413158   0.220   0.477  17.454  0.1032 -0.7371 -0.6344
  898MPD2    C513159   0.275   0.391  17.543  0.0125  0.4336  0.2864
  898MPD2     H13160   0.439   0.735  17.496 -0.1957 -0.2127  1.4988
  898MPD2    H113161   0.141   0.445  17.387 -0.5637 -2.0452  0.7809
  898MPD2    H213162   0.432   0.346  17.682 -1.9901 -3.3148 -1.6997
  898MPD2    H313163   0.225   0.296  17.556 -1.2235  1.2084  1.1028
  898MPD2     N13164   0.213   0.713  17.382  0.8438  0.4543  0.0255
  898MPD2    H513165   0.270   0.791  17.351 -0.6850  0.2721 -3.1612
  898MPD2    N113166   0.578   0.588  17.659 -0.0658 -0.0584 -1.0008
  898MPD2    H713167   0.606   0.685  17.649 -1.2801  0.5167  1.2575
  899MPD2     C13168   0.413   1.532   0.085  0.0078 -0.2554 -0.0415
  899MPD2    C113169   0.531   1.470   0.112  0.3833 -0.0729 -0.0276
  899MPD2    C213170   0.544   1.383   0.218 -0.3429 -0.5504  0.7947
  899MPD2    C313171   0.439   1.377   0.308 -0.6076  0.5406  0.9939
  899MPD2    C413172   0.315   1.430   0.281  0.5548 -1.0579 -0.1416
  899MPD2    C513173   0.311   1.507   0.171  0.1220 -0.5730 -0.2441
  899MPD2     H13174   0.633   1.323   0.231  0.4983  0.4197 -0.5229
  899MPD2    H113175   0.229   1.417   0.346  1.3051  0.6411  1.1722
  899MPD2    H213176   0.406   1.598  17.699 -0.2841  0.9124  0.8889
  899MPD2    H313177   0.221   1.563   0.146  0.8495  0.2756 -0.9237
  899MPD2     N13178   0.457   1.304   0.431  0.3671  0.1248  0.3194
  899MPD2    H513179   0.368   1.268   0.462 -1.5540  2.8790 -1.9095
  899MPD2    N113180   0.637   1.485   0.025 -0.1847  0.5796  0.2963
  899MPD2    H713181   0.619   1.528  17.634  1.2707  0.5897  0.0145
  900MPD2     C13182   0.938   2.406  13.061  0.2890 -0.4933 -0.5562
  900MPD2    C113183   0.923   2.287  12.991  0.4879 -0.4964  0.0381
  900MPD2    C213184   0.852   2.293  12.866  0.1467 -0.4062  0.6300
  900MPD2    C313185   0.797   2.415  12.825 -0.5805 -0.4456 -0.3980
  900MPD2    C413186   0.796   2.518  12.915 -0.0271 -0.3034  0.0889
  900MPD2    C513187   0.867   2.517  13.032 -0.0243 -0.2815  0.0079
  900MPD2     H13188   0.836   2.204  12.805 -0.4269  0.7339 -0.8737
  900MPD2    H113189   0.733   2.604  12.894  3.0419  1.5752 -1.3899
  900MPD2    H213190   0.989   2.409  13.156  0.6884  2.0094 -0.8425
  900MPD2    H313191   0.863   2.603  13.098 -0.9126  0.5913 -1.1609
  900MPD2     N13192   0.752   2.421  12.693 -0.4684  1.1050 -0.6373
  900MPD2    H513193   0.758   2.338  12.635 -0.0846  0.3534  0.4800
  900MPD2    N113194   0.982   2.162  13.026 -0.0497  0.0335 -0.2701
  900MPD2    H713195   0.961   2.085  12.962  0.1051  1.3345 -1.8966
  901MPD2     C13196   0.676   1.241  13.161  0.0818 -0.7606 -0.1075
  901MPD2    C113197   0.809   1.224  13.169 -0.4685 -0.3076  0.4735
  901MPD2    C213198   0.896   1.330  13.172  0.6846 -0.2894 -0.3550
  901MPD2    C313199   0.852   1.462  13.185 -0.0035 -0.3412  0.1824
  901MPD2    C413200   0.718   1.479  13.188  0.3657 -0.4097  0.0784
  901MPD2    C513201   0.628   1.368  13.177  1.3331  0.5117  0.3012
  901MPD2     H13202   1.001   1.309  13.155  0.2676 -2.0577 -0.7233
  901MPD2    H113203   0.677   1.580  13.188 -1.0636 -0.9654  3.2880
  901MPD2    H213204   0.619   1.150  13.147 -0.7021 -0.2792 -0.0591
  901MPD2    H313205   0.521   1.389  13.180  0.7418 -2.9707  3.5091
  901MPD2     N13206   0.951   1.565  13.173  0.6841  0.1899 -0.7766
  901MPD2    H513207   1.048   1.543  13.193 -0.0342 -3.1062 -0.8097
  901MPD2    N113208   0.852   1.088  13.144 -0.9934  0.5303  0.0961
  901MPD2    H713209   0.780   1.025  13.109  1.0149 -1.5944 -0.1678
  902MPD2     C13210   4.666   0.836  13.153  0.0425 -0.4942  0.1641
  902MPD2    C113211   4.600   0.745  13.075 -0.8705 -0.8232  0.4225
  902MPD2    C213212   4.677   0.646  13.009  0.6067  0.6667 -0.1138
  902MPD2    C313213   0.090   0.655  13.012  0.8941  0.1185  0.3328
  902MPD2    C413214   0.156   0.752  13.093 -0.2562  0.3835 -0.0526
  902MPD2    C513215   0.077   0.841  13.165 -0.7468 -0.2101  1.4032
  902MPD2     H13216   4.637   0.568  12.945 -0.7959 -0.9479  2.7213
  902MPD2    H113217   0.262   0.751  13.115 -0.3673 -3.2725  0.3827
  902MPD2    H213218   4.598   0.902  13.207  0.3875  1.0028 -1.2216
  902MPD2    H313219   0.113   0.926  13.222  1.9133  0.1456 -0.8585
  902MPD2     N13220   0.187   0.568  12.946  0.5945 -0.3257  0.2347
  902MPD2    H513221   0.285   0.591  12.948  0.5108 -0.2888  3.5702
  902MPD2    N113222   4.457   0.764  13.064 -0.3054  0.1632  0.2480
  902MPD2    H713223   4.427   0.851  13.108 -0.6334 -0.3211  0.9753
  903MPD2     C13224   0.406   0.308  12.089 -0.3514 -0.1597 -0.0523
  903MPD2    C113225   0.311   0.301  12.181  1.1517 -0.5202  0.1317
  903MPD2    C213226   0.181   0.264  12.148  0.4452  0.3139  0.4865
  903MPD2    C313227   0.151   0.226  12.021  0.0543  0.1168  0.2628
  903MPD2    C413228   0.243   0.251  11.923  0.5727  0.0266 -0.4286
  903MPD2    C513229   0.368   0.289  11.960 -0.1748  0.2563  0.5264
  903MPD2     H13230   0.112   0.240  12.227 -1.2162 -0.1216 -1.1086
  903MPD2    H113231   0.230   0.222  11.819 -1.0950 -1.2603  0.1413
  903MPD2    H213232   0.509   0.329  12.115  0.1646 -3.4622  0.6282
  903MPD2    H313233   0.435   0.308  11.876 -0.7341  0.1271  0.0488
  903MPD2     N13234   0.018   0.183  11.998  0.0928  0.7917  0.2418
  903MPD2    H513235   4.683   0.171  12.079  0.4194  1.2201  0.5449
  903MPD2    N113236   0.345   0.337  12.318  0.2622  0.4811 -0.6547
  903MPD2    H713237   0.443   0.355  12.337  0.1521 -0.2414  0.6465
  904MPD2     C13238   4.220   4.635  13.848  0.2762 -0.4633 -0.3406
  904MPD2    C113239   4.200   4.612  13.986 -0.2831 -0.5916  0.3512
  904MPD2    C213240   4.316   4.608  14.064  0.7219 -1.5266  0.4812
  904MPD2    C313241   4.440   4.641  14.018  0.3621  0.5296  0.6333
  904MPD2    C413242   4.456   4.686  13.888 -0.4636 -0.1877  0.6357
  904MPD2    C513243   4.344   4.675  13.806  0.4838 -0.4557 -0.3129
  904MPD2     H13244   4.299   4.573  14.166  0.5714 -2.5794  0.0937
  904MPD2    H113245   4.550   4.705  13.838 -1.1817  2.8537  0.4627
  904MPD2    H213246   4.128   4.632  13.791 -0.4591  1.3215  0.7330
  904MPD2    H313247   4.362   4.704  13.703  0.8570  1.6151  0.3183
  904MPD2     N13248   4.547   4.618  14.108  0.5536  0.2874  0.5166
  904MPD2    H513249   4.524   4.556  14.185  0.0975  2.9646  2.4998
  904MPD2    N113250   4.079   4.588  14.050 -0.1407 -0.1795 -0.1571
  904MPD2    H713251   4.099   4.538  14.135 -1.8743  0.1140  0.4134
  905MPD2     C13252   4.067   0.066  13.240 -0.6699 -0.4847  0.2474
  905MPD2    C113253   4.058   4.720  13.361  0.8646  0.5404 -0.1136
  905MPD2    C213254   4.157   4.630  13.389  0.2511  0.7496  0.0969
  905MPD2    C313255   4.273   4.606  13.316 -0.5176 -0.1484 -1.2101
  905MPD2    C413256   4.282   4.662  13.195  0.2984  0.5817  0.1237
  905MPD2    C513257   4.185   0.032  13.162 -0.4802 -0.7672  0.1547
  905MPD2     H13258   4.143   4.580  13.484  1.8626 -1.4562 -0.8041
  905MPD2    H113259   4.371   4.644  13.136 -0.1151  2.2960 -1.0449
  905MPD2    H213260   3.992   0.141  13.218  0.7524  0.9581  0.2523
  905MPD2    H313261   4.211   0.089  13.073 -1.0500  2.6627  2.2261
  905MPD2     N13262   4.372   4.524  13.376  0.3207  0.6471 -0.1216
  905MPD2    H513263   4.454   4.509  13.317  0.6621  0.0002  0.5233
  905MPD2    N113264   3.948   0.012  13.447  0.5758  0.4690  0.3949
  905MPD2    H713265   3.886   0.091  13.435 -1.3141 -1.2373 -1.0506
  906MPD2     C13266   2.006   3.646  11.926 -0.7645 -0.4393  0.5200
  906MPD2    C113267   1.957   3.586  11.810  0.0760 -0.0399 -0.3007
  906MPD2    C213268   1.851   3.505  11.823  0.2652  0.0572 -0.0448
  906MPD2    C313269   1.798   3.459  11.944 -0.2037  0.1682 -0.0611
  906MPD2    C413270   1.851   3.519  12.057  0.4562 -0.1461  0.9558
  906MPD2    C513271   1.950   3.609  12.046 -0.4790  0.3258  0.1010
  906MPD2     H13272   1.816   3.475  11.725 -0.5783 -0.9759  0.5714
  906MPD2    H113273   1.812   3.496  12.155  0.8682 -1.2755  0.8486
  906MPD2    H213274   2.083   3.723  11.926 -1.9858  0.7761  1.1097
  906MPD2    H313275   1.984   3.660  12.135  2.2516  0.1894 -0.8459
  906MPD2     N13276   1.689   3.369  11.959 -0.0194 -0.0207 -0.0140
  906MPD2    H513277   1.665   3.332  12.050  2.0962  1.4519  1.1488
  906MPD2    N113278   2.008   3.587  11.681  0.3595  0.0714 -0.0979
  906MPD2    H713279   1.973   3.533  11.602 -0.8483  0.2201  0.3316
  907MPD2     C13280   0.666   3.700  15.894  0.2758 -0.6766  0.7337
  907MPD2    C113281   0.621   3.574  15.876  0.5816  0.0222  0.6648
  907MPD2    C213282   0.611   3.487  15.986 -0.0173  1.0849 -0.5098
  907MPD2    C313283   0.654   3.527  16.114  0.8155 -0.4847  0.6057
  907MPD2    C413284   0.696   3.658  16.123 -0.6225  0.2003  0.2272
  907MPD2    C513285   0.701   3.743  16.018  0.9055  0.0355 -0.1903
  907MPD2     H13286   0.566   3.391  15.962 -0.0149  0.7646  0.7312
  907MPD2    H113287   0.724   3.695  16.221  0.9671 -1.7045  0.4833
  907MPD2    H213288   0.684   3.769  15.812 -1.6132 -1.3924 -0.2749
  907MPD2    H313289   0.732   3.846  16.033 -1.6907  0.8202 -0.2082
  907MPD2     N13290   0.658   3.439  16.226  0.7458  0.1472  0.0373
  907MPD2    H513291   0.642   3.341  16.205  0.6409  0.4165 -1.1938
  907MPD2    N113292   0.579   3.526  15.746  0.1981 -0.0369 -0.1047
  907MPD2    H713293   0.548   3.430  15.751 -2.0341  0.6432 -1.0157
  908MPD2     C13294   3.447   3.475   9.969 -0.0095  0.0155 -0.1633
  908MPD2    C113295   3.537   3.409  10.056 -0.5065 -0.4536  0.4599
  908MPD2    C213296   3.577   3.477  10.169  0.0160  0.3273  0.1023
  908MPD2    C313297   3.540   3.612  10.195  0.2286  0.7802 -0.0103
  908MPD2    C413298   3.461   3.676  10.104  0.7438 -0.5506 -0.4132
  908MPD2    C513299   3.419   3.607   9.995 -0.4455  0.0883 -0.1193
  908MPD2     H13300   3.615   3.421  10.254  1.2406  0.3579 -0.4266
  908MPD2    H113301   3.420   3.776  10.110  0.0838 -1.0182  2.9302
  908MPD2    H213302   3.395   3.422   9.890 -0.5205 -1.1396  0.9454
  908MPD2    H313303   3.359   3.663   9.923 -1.0532  2.0240  1.8681
  908MPD2     N13304   3.580   3.666  10.318  0.4550 -0.2729 -0.0430
  908MPD2    H513305   3.638   3.607  10.377  1.1262 -0.2220 -0.6582
  908MPD2    N113306   3.557   3.272  10.035 -0.6333  0.1112 -0.4072
  908MPD2    H713307   3.519   3.226   9.953  1.3382  1.6583 -2.1854
  909MPD2     C13308   3.869   1.421  11.561 -0.8062 -0.0876  0.4995
  909MPD2    C113309   3.922   1.545  11.576 -0.0354  0.1650  0.6988
  909MPD2    C213310   3.920   1.602  11.697 -0.5191 -0.0958  0.3634
  909MPD2    C313311   3.852   1.547  11.801  0.0466 -0.9512  0.2236
  909MPD2    C413312   3.800   1.423  11.791  0.8482  0.1648  0.1727
  909MPD2    C513313   3.816   1.359  11.669 -0.1024  0.0619  0.5028
  909MPD2     H13314   3.964   1.701  11.705  0.3714 -0.5418  0.9823
  909MPD2    H113315   3.752   1.378  11.876  0.3940  1.4334  0.5883
  909MPD2    H213316   3.868   1.366  11.468 -0.1089 -1.8935  1.5672
  909MPD2    H313317   3.790   1.254  11.663  1.4007 -0.3947  2.1265
  909MPD2     N13318   3.845   1.623  11.919 -0.0191 -0.2276  0.2689
  909MPD2    H513319   3.854   1.724  11.908  3.4944 -0.6301 -0.3556
  909MPD2    N113320   3.987   1.625  11.477 -0.6133 -0.0292 -0.0201
  909MPD2    H713321   4.010   1.720  11.501  0.1246 -0.7063  1.8874
  910MPD2     C13322   4.456   3.978  15.949  0.2286 -0.4285  0.0576
  910MPD2    C113323   4.574   4.019  15.889  0.0363 -0.2941 -0.0297
  910MPD2    C213324   4.562   4.109  15.778  0.8230  0.5437  0.8182
  910MPD2    C313325   4.439   4.168  15.739 -0.0046  0.5789  1.1605
  910MPD2    C413326   4.330   4.131  15.810  0.5012 -0.7221 -0.1416
  910MPD2    C513327   4.335   4.037  15.909 -0.9767  0.2071 -0.4109
  910MPD2     H13328   4.652   4.147  15.731  1.0041 -0.4327  0.3716
  910MPD2    H113329   4.234   4.175  15.786  1.6018  1.6101 -0.3241
  910MPD2    H213330   4.452   3.914  16.036  2.3138 -0.6947 -0.0481
  910MPD2    H313331   4.242   4.003  15.953 -1.0648 -1.0596 -1.5560
  910MPD2     N13332   4.411   4.247  15.619  0.2622  0.5814 -0.2767
  910MPD2    H513333   4.314   4.269  15.598  0.1023 -0.4921 -0.6551
  910MPD2    N113334   4.699   3.992  15.947  0.9435 -0.2360 -0.4466
  910MPD2    H713335   0.060   4.009  15.895  2.2032 -2.5379  0.8433
  911MPD2     C13336   2.493   4.710  16.548  0.9280 -0.3928 -0.3606
  911MPD2    C113337   2.476   0.051  16.667  1.3021  0.5709 -0.2779
  911MPD2    C213338   2.379   0.152  16.680  0.3347  0.3947 -0.1843
  911MPD2    C313339   2.290   0.174  16.575 -0.6597  0.5167 -0.6929
  911MPD2    C413340   2.297   0.098  16.458 -0.4155 -0.3940 -0.3743
  911MPD2    C513341   2.396   4.722  16.447  0.0637 -0.0172  0.4928
  911MPD2     H13342   2.376   0.202  16.776 -1.6783  1.3712 -0.7573
  911MPD2    H113343   2.228   0.111  16.376  0.9777 -1.3430 -1.6830
  911MPD2    H213344   2.570   4.635  16.535  0.7193 -0.4928 -1.0450
  911MPD2    H313345   2.423   4.664  16.360  1.8200  0.4460  0.7279
  911MPD2     N13346   2.181   0.259  16.585 -0.3648  1.1377  1.0718
  911MPD2    H513347   2.112   0.257  16.511  0.1502  0.0824  0.6219
  911MPD2    N113348   2.578   0.035  16.767  0.0821  0.5118 -0.8323
  911MPD2    H713349   2.655   4.698  16.741  0.6171  1.6332 -1.8717
  912MPD2     C13350   1.991   0.109  16.164 -0.3218 -0.2055 -0.3666
  912MPD2    C113351   1.948   0.113  16.293  0.1112 -0.0125  0.3581
  912MPD2    C213352   1.975   0.011  16.381  0.2287 -0.1967  0.3305
  912MPD2    C313353   2.047   4.625  16.338 -0.3487 -0.1931  0.4281
  912MPD2    C413354   2.088   4.628  16.207  0.0007 -0.0425  0.2951
  912MPD2    C513355   2.060   0.003  16.124 -0.4247 -0.1751  0.2159
  912MPD2     H13356   1.942   0.023  16.483 -0.2587  0.6990  0.0634
  912MPD2    H113357   2.154   4.551  16.168 -0.9340 -0.4175 -0.5622
  912MPD2    H213358   1.977   0.192  16.096  0.6203  1.8093  1.8679
  912MPD2    H313359   2.092   0.010  16.021  1.9844  0.4344  1.0114
  912MPD2     N13360   2.092   4.531  16.432 -0.0417  0.1386 -0.1694
  912MPD2    H513361   2.071   4.542  16.531 -1.5076 -1.1819 -0.3217
  912MPD2    N113362   1.894   0.236  16.336  0.4419  0.2659 -0.2257
  912MPD2    H713363   1.913   0.321  16.284  0.9851  1.8723  2.5644
  913MPD2     C13364   3.368   4.227  10.757 -0.2444 -0.5083  0.3468
  913MPD2    C113365   3.347   4.350  10.827  0.0995 -0.3495 -0.1009
  913MPD2    C213366   3.307   4.467  10.760  0.5615  0.0175 -0.3709
  913MPD2    C313367   3.263   4.457  10.630  0.6438 -0.1094  0.6595
  913MPD2    C413368   3.275   4.340  10.566 -0.1614  0.7003 -0.4357
  913MPD2    C513369   3.328   4.231  10.629 -0.0559  1.0966 -0.2341
  913MPD2     H13370   3.295   4.555  10.822 -0.0859 -1.4137  1.5347
  913MPD2    H113371   3.237   4.320  10.466 -0.1889 -0.1163 -0.2670
  913MPD2    H213372   3.393   4.135  10.809 -1.6308 -1.4011 -0.5474
  913MPD2    H313373   3.323   4.132  10.585  0.9139  1.6070 -1.4660
  913MPD2     N13374   3.197   4.557  10.563  0.2937  0.1704 -0.2954
  913MPD2    H513375   3.165   4.540  10.469 -3.4625 -0.9372  1.1630
  913MPD2    N113376   3.381   4.334  10.962  0.9293 -0.0029  0.5578
  913MPD2    H713377   3.408   4.239  10.985 -0.6056 -0.4031  0.7065
  914MPD2     C13378   0.832   1.320  12.369 -0.3032 -0.2476 -0.0066
  914MPD2    C113379   0.918   1.365  12.467  0.5854  0.3752  0.0339
  914MPD2    C213380   0.950   1.278  12.570  0.2056 -0.4143 -0.1857
  914MPD2    C313381   0.910   1.142  12.564 -0.2621 -0.5248 -0.4054
  914MPD2    C413382   0.837   1.102  12.458  0.2773  0.0005 -1.1889
  914MPD2    C513383   0.792   1.188  12.365 -0.0132 -0.0201 -0.2149
  914MPD2     H13384   0.999   1.309  12.661 -2.3800  2.8456  0.1111
  914MPD2    H113385   0.808   1.000  12.437 -1.2195  0.4482 -1.3058
  914MPD2    H213386   0.787   1.395  12.306 -0.1956 -0.3869 -0.2520
  914MPD2    H313387   0.715   1.160  12.294 -1.4247 -1.0969  1.7202
  914MPD2     N13388   0.933   1.057  12.677  0.0866 -0.7168 -0.0964
  914MPD2    H513389   0.971   1.096  12.763 -0.0342  0.5899 -0.6332
  914MPD2    N113390   0.975   1.495  12.450  0.1327 -0.1942 -0.3629
  914MPD2    H713391   0.940   1.556  12.377  1.1775  2.0161  0.9740
  915MPD2     C13392   3.673   1.307  15.993 -0.4948  0.6814  0.1865
  915MPD2    C113393   3.578   1.378  15.921  0.0636 -0.1489 -0.1838
  915MPD2    C213394   3.516   1.488  15.975  0.0274  0.6438 -0.3764
  915MPD2    C313395   3.559   1.531  16.103 -0.5825 -0.4705  0.6984
  915MPD2    C413396   3.668   1.469  16.169  0.3993 -0.5207  0.0037
  915MPD2    C513397   3.725   1.354  16.116  0.1254 -0.5783 -0.1581
  915MPD2     H13398   3.432   1.542  15.933 -1.8277 -2.0533 -0.1792
  915MPD2    H113399   3.721   1.522  16.247 -2.3687 -0.1525  1.6161
  915MPD2    H213400   3.715   1.215  15.953 -1.8872  0.1641 -0.0927
  915MPD2    H313401   3.811   1.317  16.171 -0.7605 -0.8931  0.9961
  915MPD2     N13402   3.485   1.637  16.155  0.0486  0.0999 -0.1793
  915MPD2    H513403   3.412   1.679  16.098 -1.0459  1.0635  1.9491
  915MPD2    N113404   3.540   1.316  15.800  0.1754 -0.0879 -0.9800
  915MPD2    H713405   3.563   1.218  15.788  1.2328 -0.2813  2.5525
  916MPD2     C13406   1.734   4.507  16.371 -0.1014  0.3465  0.1587
  916MPD2    C113407   1.728   4.383  16.431 -0.0156  0.5463 -0.2898
  916MPD2    C213408   1.767   4.268  16.366  0.0389 -0.7184  0.3051
  916MPD2    C313409   1.803   4.277  16.235  0.3696 -0.0085  0.4206
  916MPD2    C413410   1.796   4.398  16.170 -0.4071 -0.6129  0.3389
  916MPD2    C513411   1.762   4.508  16.240  0.3319 -0.0148  0.7140
  916MPD2     H13412   1.766   4.170  16.411  0.4046 -0.7242  0.2992
  916MPD2    H113413   1.802   4.399  16.062 -1.1160  2.3856  0.3303
  916MPD2    H213414   1.702   4.599  16.420 -0.5328 -0.3787  1.2210
  916MPD2    H313415   1.745   4.600  16.185 -0.6013 -0.1659  0.7485
  916MPD2     N13416   1.844   4.157  16.162  0.5598 -0.2120  0.3376
  916MPD2    H513417   1.841   4.071  16.216  3.1471 -0.4932  0.0330
  916MPD2    N113418   1.669   4.396  16.556 -0.0356  0.3409  0.8019
  916MPD2    H713419   1.659   4.490  16.593 -1.3200  0.5896 -0.2034
  917MPD2     C13420   2.376   1.305  11.291 -0.2163 -0.0746  0.0619
  917MPD2    C113421   2.439   1.362  11.399 -0.5235 -0.3775  0.0316
  917MPD2    C213422   2.565   1.411  11.386  0.0741  0.3772  0.1275
  917MPD2    C313423   2.625   1.421  11.259  0.3394 -0.6288 -0.0733
  917MPD2    C413424   2.561   1.366  11.151 -0.1586 -0.1587 -0.1023
  917MPD2    C513425   2.435   1.317  11.167 -0.5854 -0.3066  0.0168
  917MPD2     H13426   2.614   1.456  11.472 -0.8004  0.7571  0.4225
  917MPD2    H113427   2.612   1.369  11.055 -0.3199 -1.0284 -0.2135
  917MPD2    H213428   2.276   1.264  11.301 -0.4954  0.0211 -2.1869
  917MPD2    H313429   2.372   1.281  11.086 -0.8618  2.1726 -0.8641
  917MPD2     N13430   2.756   1.467  11.238  0.0776  0.0346 -0.0594
  917MPD2    H513431   2.780   1.482  11.140 -0.3533  1.8277  0.1134
  917MPD2    N113432   2.369   1.361  11.523  0.0658  0.2542  0.0112
  917MPD2    H713433   2.274   1.324  11.517 -0.3055  0.9871  1.5769
  918MPD2     C13434   2.530   1.690  12.451  0.4143 -0.8839 -0.3123
  918MPD2    C113435   2.603   1.615  12.371  0.4239 -0.9091  0.5097
  918MPD2    C213436   2.558   1.577  12.246 -0.5017  0.1205  0.0835
  918MPD2    C313437   2.431   1.602  12.207 -0.0199 -0.4627 -0.5615
  918MPD2    C413438   2.354   1.685  12.287 -0.2226  0.4612 -0.1962
  918MPD2    C513439   2.404   1.722  12.413 -0.1936 -0.6191 -0.7032
  918MPD2     H13440   2.606   1.504  12.182  0.5575 -1.5689  2.7908
  918MPD2    H113441   2.254   1.719  12.264 -0.4240 -1.7474 -2.5519
  918MPD2    H213442   2.563   1.720  12.550  1.0265 -1.3713 -0.3689
  918MPD2    H313443   2.344   1.783  12.478  0.8876 -1.7805  1.3806
  918MPD2     N13444   2.379   1.550  12.087 -0.5663 -0.8871 -0.1847
  918MPD2    H513445   2.439   1.493  12.029 -0.0535  0.3677 -0.8982
  918MPD2    N113446   2.724   1.553  12.414  0.5659 -0.1847 -0.2834
  918MPD2    H713447   2.763   1.480  12.355  0.5862 -1.9967  1.9732
  919MPD2     C13448   2.906   0.317  11.800 -0.8056  0.6331 -0.1181
  919MPD2    C113449   2.924   0.186  11.762  0.3573 -0.1951  1.0301
  919MPD2    C213450   2.971   0.147  11.638 -0.3630  0.3493  0.5785
  919MPD2    C313451   3.002   0.245  11.548 -0.1762  0.3279 -0.3024
  919MPD2    C413452   2.996   0.380  11.583 -0.1191 -0.0944 -0.2204
  919MPD2    C513453   2.952   0.408  11.710 -0.6426 -0.1354 -0.3560
  919MPD2     H13454   2.972   0.043  11.604  0.3718  0.1879  1.1075
  919MPD2    H113455   3.023   0.457  11.511  0.5630 -1.1661 -1.1055
  919MPD2    H213456   2.882   0.359  11.897 -1.3567  2.0263 -0.8718
  919MPD2    H313457   2.941   0.513  11.736 -0.1439  0.1824 -1.4102
  919MPD2     N13458   3.036   0.208  11.416  0.5377 -0.2985 -0.2704
  919MPD2    H513459   3.026   0.281  11.347  0.4928 -0.1924 -0.1513
  919MPD2    N113460   2.876   0.083  11.848  0.1505 -0.3004  0.2261
  919MPD2    H713461   2.890   4.709  11.826 -0.3967  0.0374 -1.5868
  920MPD2     C13462   2.790   0.348  10.459 -0.1982  0.3825 -0.3750
  920MPD2    C113463   2.737   0.229  10.505 -0.2298  0.1538 -0.0829
  920MPD2    C213464   2.787   0.175  10.620 -0.5436 -0.6766 -0.5426
  920MPD2    C313465   2.873   0.239  10.708 -0.3482 -0.5766 -0.0037
  920MPD2    C413466   2.914   0.368  10.667 -0.4875 -0.5592  0.6648
  920MPD2    C513467   2.880   0.414  10.541 -0.0064  0.7927 -0.6189
  920MPD2     H13468   2.760   0.072  10.642  0.5500 -0.5530  1.4112
  920MPD2    H113469   2.993   0.418  10.722  1.8986 -1.8422 -1.6386
  920MPD2    H213470   2.760   0.404  10.371 -0.1100  0.7007 -0.2012
  920MPD2    H313471   2.901   0.519  10.523  0.0027  1.0709  1.0094
  920MPD2     N13472   2.919   0.169  10.816 -0.3474  0.5204 -0.4242
  920MPD2    H513473   2.892   0.071  10.814 -0.9708  0.6763  0.1970
  920MPD2    N113474   2.644   0.154  10.434 -1.0753  1.1877 -0.2022
  920MPD2    H713475   2.613   0.069  10.480 -0.6554  1.2306  0.1556
  921MPD2     C13476   3.138   0.667  17.176  0.4525 -0.3415  0.9013
  921MPD2    C113477   3.202   0.549  17.168 -0.6940  0.4279 -0.2840
  921MPD2    C213478   3.131   0.430  17.178 -0.3003 -0.3128  0.2507
  921MPD2    C313479   2.993   0.431  17.178 -0.7954  0.0162  0.1585
  921MPD2    C413480   2.935   0.553  17.184 -0.7312  0.2320 -0.1078
  921MPD2    C513481   3.007   0.673  17.190  0.0311  0.5904 -0.3386
  921MPD2     H13482   3.194   0.343  17.169 -0.5711 -0.2535 -2.0268
  921MPD2    H113483   2.828   0.566  17.177 -0.6602  0.4959 -0.7606
  921MPD2    H213484   3.192   0.761  17.172  1.0238 -0.6917  0.3505
  921MPD2    H313485   2.960   0.771  17.194 -1.1146  0.0066  0.4027
  921MPD2     N13486   2.914   0.315  17.163 -0.1035 -0.2101 -0.2790
  921MPD2    H513487   2.818   0.334  17.135  0.4513 -0.2052 -2.1313
  921MPD2    N113488   3.343   0.568  17.151 -0.0034 -0.0977  0.3903
  921MPD2    H713489   3.372   0.655  17.105  0.8483 -0.0118  1.0928
  922MPD2     C13490   3.944   2.386  17.263 -0.1731 -0.5007 -0.2065
  922MPD2    C113491   4.012   2.433  17.377 -0.3489 -0.0191  0.6253
  922MPD2    C213492   3.972   2.397  17.500  1.0605  0.1431 -0.4488
  922MPD2    C313493   3.850   2.338  17.516 -0.2395  0.7996 -0.0079
  922MPD2    C413494   3.778   2.308  17.404 -0.3679  0.2787  0.8244
  922MPD2    C513495   3.825   2.317  17.278  0.3295 -0.2442 -0.0117
  922MPD2     H13496   4.029   2.438  17.583 -1.3271 -2.9972  2.7227
  922MPD2    H113497   3.677   2.269  17.411 -0.0582 -0.9062 -1.6126
  922MPD2    H213498   3.974   2.399  17.160 -1.4948  0.0350 -0.5206
  922MPD2    H313499   3.770   2.279  17.192 -0.3752  0.0084  0.3268
  922MPD2     N13500   3.792   2.307  17.645  0.3423  0.1932  0.3188
  922MPD2    H513501   3.695   2.276  17.648 -0.2022  2.1036  2.1070
  922MPD2    N113502   4.131   2.517  17.369 -0.0232  0.0664 -0.0326
  922MPD2    H713503   4.166   2.544  17.461  0.5129 -0.4751 -0.0777
  923MPD2     C13504   0.474   4.048   8.724 -0.4772  0.2762 -0.0182
  923MPD2    C113505   0.435   4.157   8.798  0.0671 -0.1106 -0.6231
  923MPD2    C213506   0.536   4.222   8.873  0.0869  0.2988 -0.2695
  923MPD2    C313507   0.670   4.177   8.866 -0.2333  0.3312  0.1502
  923MPD2    C413508   0.696   4.061   8.793 -0.2619  0.0436  0.1795
  923MPD2    C513509   0.599   4.000   8.722  0.8963 -1.2852  0.6122
  923MPD2     H13510   0.523   4.314   8.929  1.4812  0.4024 -0.0954
  923MPD2    H113511   0.797   4.027   8.774 -1.0225 -0.7978 -2.3520
  923MPD2    H213512   0.406   4.005   8.651 -0.6313  2.3771 -1.0868
  923MPD2    H313513   0.626   3.918   8.655  1.9740 -0.0732 -0.4511
  923MPD2     N13514   0.783   4.234   8.929  0.4531  0.0377 -0.1219
  923MPD2    H513515   0.866   4.177   8.919 -0.6642 -0.9303 -3.6920
  923MPD2    N113516   0.298   4.190   8.803 -0.6468  0.4602 -0.2857
  923MPD2    H713517   0.238   4.122   8.759  1.5157 -0.3857 -1.9667
  924MPD2     C13518   0.637   2.626  16.175  0.6826 -0.8736  0.4476
  924MPD2    C113519   0.584   2.643  16.297 -0.4345 -0.4811  0.0730
  924MPD2    C213520   0.622   2.762  16.357  0.6486 -0.1801  0.1035
  924MPD2    C313521   0.701   2.862  16.294 -0.1290  0.2317 -0.8678
  924MPD2    C413522   0.761   2.828  16.173 -0.7129 -0.0211 -0.1705
  924MPD2    C513523   0.717   2.715  16.110  0.4307 -0.4105  0.1335
  924MPD2     H13524   0.587   2.772  16.458 -0.3849 -0.2740 -0.2427
  924MPD2    H113525   0.825   2.899  16.123 -1.6702  0.9127 -0.0793
  924MPD2    H213526   0.618   2.533  16.123  1.3620 -0.6632 -0.1767
  924MPD2    H313527   0.761   2.685  16.015  0.0562  0.6015 -0.3599
  924MPD2     N13528   0.739   2.984  16.351 -0.5732 -0.1904  0.2778
  924MPD2    H513529   0.793   3.051  16.298  0.1698  0.0165  1.2941
  924MPD2    N113530   0.507   2.537  16.358  0.0456  0.2917 -0.3527
  924MPD2    H713531   0.507   2.452  16.303  3.1143 -1.3267  2.1135
  925MPD2     C13532   3.824   0.633  15.130  0.4104 -0.0096 -0.4158
  925MPD2    C113533   3.709   0.593  15.065  0.3615 -0.2127  0.2417
  925MPD2    C213534   3.607   0.535  15.131 -0.9245  0.0423  0.0676
  925MPD2    C313535   3.621   0.496  15.264  0.3260 -0.5901  0.0458
  925MPD2    C413536   3.744   0.536  15.328  0.1013 -0.1207 -0.6208
  925MPD2    C513537   3.839   0.606  15.259 -0.8764  0.3710  0.1411
  925MPD2     H13538   3.524   0.496  15.072 -0.9737  2.8597 -1.7204
  925MPD2    H113539   3.769   0.521  15.432  1.5859 -1.0101 -1.1205
  925MPD2    H213540   3.905   0.694  15.092  0.0370 -0.8850 -2.5905
  925MPD2    H313541   3.929   0.631  15.313  0.1563 -1.9864 -0.5099
  925MPD2     N13542   3.530   0.421  15.333 -0.0641  0.3892 -0.4272
  925MPD2    H513543   3.562   0.397  15.426  0.9275  0.2534 -0.8042
  925MPD2    N113544   3.703   0.611  14.923 -0.0066  0.2646  0.2293
  925MPD2    H713545   3.614   0.589  14.879 -0.0289 -2.5635  1.7210
  926MPD2     C13546   2.752   3.684  14.096  0.2748  0.5773  0.3493
  926MPD2    C113547   2.719   3.758  13.984 -0.6352 -0.0066 -0.2489
  926MPD2    C213548   2.809   3.776  13.882 -0.1334  0.4389  0.3709
  926MPD2    C313549   2.942   3.732  13.890 -0.4326  0.1518 -0.1810
  926MPD2    C413550   2.978   3.658  14.003 -0.0547 -0.1981 -0.2913
  926MPD2    C513551   2.883   3.641  14.100  0.1629  0.3186  0.0981
  926MPD2     H13552   2.775   3.839  13.801 -2.8579 -0.6039  0.6959
  926MPD2    H113553   3.078   3.617  14.004 -0.2861 -0.7615 -0.3881
  926MPD2    H213554   2.701   3.656  14.187 -1.7208 -0.7122 -1.1598
  926MPD2    H313555   2.919   3.588  14.187 -0.3951  0.4541  0.4096
  926MPD2     N13556   3.037   3.744  13.791  0.1804 -0.0833 -0.1260
  926MPD2    H513557   3.126   3.699  13.806  0.3221  0.3507  0.3268
  926MPD2    N113558   2.587   3.806  13.975 -0.5439  0.0479  0.0823
  926MPD2    H713559   2.570   3.854  13.887 -0.1940 -2.3720 -1.3098
  927MPD2     C13560   2.627   1.580   0.305  0.4263 -0.3213 -0.2043
  927MPD2    C113561   2.660   1.466   0.373 -0.6063  0.4218  1.0114
  927MPD2    C213562   2.776   1.402   0.333  0.1200  0.5354 -0.2327
  927MPD2    C313563   2.849   1.445   0.223  0.0543 -0.7146 -0.4674
  927MPD2    C413564   2.813   1.562   0.159  0.4557  0.2361  0.6026
  927MPD2    C513565   2.707   1.634   0.207 -0.1077  0.4846 -0.2802
  927MPD2     H13566   2.809   1.319   0.395 -0.1111  1.2099  0.7980
  927MPD2    H113567   2.875   1.606   0.082  0.1589  1.4908  1.0796
  927MPD2    H213568   2.543   1.639   0.341  2.5406  2.3297  0.3473
  927MPD2    H313569   2.687   1.734   0.169  2.3979  0.6813 -1.1061
  927MPD2     N13570   2.972   1.390   0.170  0.3645  0.2091  0.4568
  927MPD2    H513571   3.008   1.434   0.086 -2.5994  0.6791 -0.5776
  927MPD2    N113572   2.580   1.444   0.487  0.0485 -0.1390  0.3205
  927MPD2    H713573   2.503   1.509   0.499  1.3214  1.2725  0.8873
  928MPD2     C13574   0.458   0.300   1.360  0.1804  0.6204 -0.4228
  928MPD2    C113575   0.540   0.409   1.373 -0.3563 -1.0507  0.4566
  928MPD2    C213576   0.669   0.401   1.304  0.3003 -0.6859  0.0925
  928MPD2    C313577   0.706   0.295   1.225  0.5998 -0.7037 -0.1097
  928MPD2    C413578   0.617   0.195   1.217  0.0415 -0.5941  0.0788
  928MPD2    C513579   0.501   0.190   1.294  0.2435 -0.2050 -0.0301
  928MPD2     H13580   0.732   0.488   1.311  0.3125 -0.6924  0.0627
  928MPD2    H113581   0.657   0.104   1.174  0.8976 -0.3663  0.3982
  928MPD2    H213582   0.362   0.284   1.407  0.2317  1.5708  0.0038
  928MPD2    H313583   0.448   0.095   1.294 -0.7824  0.3867 -3.4047
  928MPD2     N13584   0.825   0.293   1.142 -0.3067 -0.0708 -0.2260
  928MPD2    H513585   0.830   0.221   1.071  1.6351  0.3992 -0.5696
  928MPD2    N113586   0.495   0.504   1.460 -0.3824  0.2951 -0.0355
  928MPD2    H713587   0.398   0.492   1.489 -0.3060 -1.0473 -0.3356
  929MPD2     C13588   0.724   4.209   9.934  0.4854  0.3099  0.5760
  929MPD2    C113589   0.666   4.103  10.011 -0.6221  0.0244  0.0957
  929MPD2    C213590   0.559   4.033   9.949  0.3796  0.2350  0.2539
  929MPD2    C313591   0.515   4.071   9.822 -0.3545 -0.7055 -0.1880
  929MPD2    C413592   0.575   4.172   9.751  0.1962 -0.3177 -0.0352
  929MPD2    C513593   0.681   4.244   9.801 -0.4963  0.0927 -0.2278
  929MPD2     H13594   0.501   3.954   9.994  0.9619 -1.1742 -1.4752
  929MPD2    H113595   0.543   4.201   9.651 -0.0414 -2.9886 -0.7321
  929MPD2    H213596   0.800   4.277   9.972 -0.5287 -0.0355  3.2483
  929MPD2    H313597   0.731   4.319   9.739  0.4037 -0.2222  0.1193
  929MPD2     N13598   0.395   4.022   9.759  0.9038 -0.0002 -0.8388
  929MPD2    H513599   0.353   4.075   9.683 -0.5743 -0.1171 -0.1189
  929MPD2    N113600   0.718   4.084  10.143  0.4893  0.1223 -0.1973
  929MPD2    H713601   0.799   4.140  10.163 -0.4447  1.0052  1.1051
  930MPD2     C13602   2.595   1.886  14.233  0.4794  0.1587 -0.2017
  930MPD2    C113603   2.570   1.974  14.128 -0.0180 -0.4160  0.0548
  930MPD2    C213604   2.493   1.931  14.028  0.2044 -0.2105  0.3394
  930MPD2    C313605   2.445   1.804  14.020  0.2515 -0.6808 -0.1709
  930MPD2    C413606   2.471   1.717  14.126 -0.5591  0.2075  0.2010
  930MPD2    C513607   2.544   1.762  14.232 -0.4747 -0.0204 -0.6890
  930MPD2     H13608   2.458   1.998  13.950  0.0201 -1.2637 -0.4766
  930MPD2    H113609   2.434   1.616  14.127  2.2127 -0.7880  3.1916
  930MPD2    H213610   2.657   1.917  14.316 -3.3297  0.3003  2.5566
  930MPD2    H313611   2.574   1.692  14.309 -1.1414 -1.5966 -1.8734
  930MPD2     N13612   2.380   1.751  13.908  0.2362 -0.5880 -0.0503
  930MPD2    H513613   2.371   1.650  13.901 -0.4978 -0.4895 -0.5662
  930MPD2    N113614   2.631   2.106  14.126  0.0735  0.4600  0.4384
  930MPD2    H713615   2.677   2.131  14.213  0.9815  1.0517 -0.2139
  931MPD2     C13616   2.967   1.183   1.060  0.4425 -0.1839  0.3194
  931MPD2    C113617   2.832   1.211   1.108  0.2509  0.6001 -0.1514
  931MPD2    C213618   2.800   1.187   1.241 -0.0394 -0.1227 -0.8077
  931MPD2    C313619   2.897   1.128   1.317  0.7446  0.3278  0.2732
  931MPD2    C413620   3.027   1.111   1.271  0.4561  0.3603  0.3564
  931MPD2    C513621   3.063   1.137   1.148 -0.3219 -0.3237  0.0569
  931MPD2     H13622   2.698   1.189   1.276 -0.3371  0.6846 -1.7187
  931MPD2    H113623   3.113   1.080   1.330 -0.4838 -3.8380 -0.4623
  931MPD2    H213624   2.996   1.194   0.956 -0.7552  0.0718 -0.0007
  931MPD2    H313625   3.169   1.133   1.126 -0.0962  1.8451  0.7880
  931MPD2     N13626   2.882   1.102   1.446  0.0868  0.7103  0.2337
  931MPD2    H513627   2.964   1.064   1.492 -0.2930 -0.3827  0.0104
  931MPD2    N113628   2.734   1.253   1.015 -0.0776 -0.3884 -0.6065
  931MPD2    H713629   2.768   1.275   0.922  0.7836  2.0250  0.2497
  932MPD2     C13630   0.039   4.461  11.462 -0.0402  0.8347  0.1519
  932MPD2    C113631   0.060   4.561  11.557  0.7350 -0.4041  0.3412
  932MPD2    C213632   0.081   4.526  11.683 -0.5801  0.2670  0.3681
  932MPD2    C313633   0.083   4.389  11.724 -0.4445  0.1322 -0.2594
  932MPD2    C413634   0.064   4.295  11.627 -0.5545  0.0110 -0.3792
  932MPD2    C513635   0.048   4.329  11.493  0.0077  0.0606  0.4248
  932MPD2     H13636   0.098   4.607  11.754  0.1796  0.8247 -0.4501
  932MPD2    H113637   0.060   4.191  11.658  1.7701  0.2032  0.5465
  932MPD2    H213638   0.014   4.486  11.360  0.7023  1.5802  0.1466
  932MPD2    H313639   0.034   4.258  11.412 -2.5397 -0.0410  0.9706
  932MPD2     N13640   0.111   4.339  11.854  0.6437 -0.7569  0.2211
  932MPD2    H513641   0.121   4.238  11.853  0.4483 -0.7771  0.3939
  932MPD2    N113642   0.064   4.702  11.527  0.9282  0.4967  0.3951
  932MPD2    H713643   0.076   0.040  11.605  0.2995 -0.4398  1.2378
  933MPD2     C13644   4.649   0.927   1.940 -0.1856  0.1206 -0.2223
  933MPD2    C113645   4.691   0.877   1.822 -0.7308  0.7716 -0.3680
  933MPD2    C213646   4.605   0.885   1.714  0.7506  0.3018  0.5193
  933MPD2    C313647   4.481   0.943   1.722 -0.7029 -0.3571  0.6537
  933MPD2    C413648   4.444   0.997   1.842 -0.4236  1.3775  0.2193
  933MPD2    C513649   4.534   0.992   1.951 -0.2892 -0.1615  0.3792
  933MPD2     H13650   4.640   0.853   1.617 -1.7900 -1.4542  0.1950
  933MPD2    H113651   4.348   1.046   1.855 -1.2725 -0.3173  0.3562
  933MPD2    H213652   4.703   0.903   2.031  0.8391  2.3735 -0.2171
  933MPD2    H313653   4.495   1.041   2.040 -0.7071 -0.6620  0.4678
  933MPD2     N13654   4.391   0.929   1.614 -0.3493 -0.1121  0.8577
  933MPD2    H513655   4.432   0.883   1.533 -0.2376 -0.7322  1.2672
  933MPD2    N113656   0.104   0.837   1.813  0.6738  0.1498  0.3962
  933MPD2    H713657   0.160   0.841   1.898  2.3836 -0.7975 -0.7037
  934MPD2     C13658   1.552   2.589   2.475 -0.4763  0.7484 -0.0457
  934MPD2    C113659   1.635   2.507   2.398 -0.0034  0.5220  0.6029
  934MPD2    C213660   1.588   2.453   2.280  0.0642  0.0036  0.5628
  934MPD2    C313661   1.459   2.493   2.236 -0.1303  0.1619 -0.5586
  934MPD2    C413662   1.382   2.581   2.311 -0.3564  0.1828  0.2455
  934MPD2    C513663   1.429   2.635   2.429  0.3702 -0.2896  0.4031
  934MPD2     H13664   1.656   2.389   2.225 -0.3700  0.1921 -0.1789
  934MPD2    H113665   1.279   2.603   2.284 -0.4828  1.0884  1.4974
  934MPD2    H213666   1.594   2.646   2.557 -1.3460 -0.9854  1.6049
  934MPD2    H313667   1.372   2.719   2.468 -1.7184 -0.6718 -1.8618
  934MPD2     N13668   1.393   2.435   2.125 -0.4229 -0.3219  0.1435
  934MPD2    H513669   1.293   2.447   2.126 -0.2953  0.7248 -0.5441
  934MPD2    N113670   1.770   2.486   2.427  0.6326  0.1633  0.4289
  934MPD2    H713671   1.829   2.439   2.359 -1.3153 -0.7534 -0.6439
  935MPD2     C13672   1.811   1.874   1.419 -0.2177  0.3365 -0.1855
  935MPD2    C113673   1.675   1.849   1.399 -0.4559  0.9458 -0.5732
  935MPD2    C213674   1.585   1.920   1.477  0.7448  0.7309 -0.3162
  935MPD2    C313675   1.629   2.016   1.571 -0.3508 -0.0064 -0.4051
  935MPD2    C413676   1.762   2.023   1.587  0.0635  0.0047 -0.2462
  935MPD2    C513677   1.850   1.957   1.514  0.0887 -0.5306 -1.1111
  935MPD2     H13678   1.484   1.889   1.453  0.1968  0.7675  2.0008
  935MPD2    H113679   1.804   2.096   1.655 -1.8042 -0.4222  1.3514
  935MPD2    H213680   1.894   1.833   1.363 -0.1360  1.1550 -0.6518
  935MPD2    H313681   1.957   1.967   1.526 -0.0664 -0.7504  0.4900
  935MPD2     N13682   1.553   2.107   1.638  0.3992 -0.4796 -1.1821
  935MPD2    H513683   1.598   2.184   1.687 -2.4990 -0.8011  2.0181
  935MPD2    N113684   1.629   1.756   1.298 -0.2534 -0.0545  0.0208
  935MPD2    H713685   1.534   1.754   1.264 -0.6334 -1.0168  1.1665
  936MPD2     C13686   0.347   3.495  12.924 -0.3876 -0.6667  0.1141
  936MPD2    C113687   0.361   3.618  12.973  0.1760  0.3962 -0.5222
  936MPD2    C213688   0.345   3.738  12.902 -0.1392  0.3868 -0.7395
  936MPD2    C313689   0.319   3.724  12.763  0.3113  0.3980  0.8837
  936MPD2    C413690   0.314   3.600  12.705 -0.1362 -0.7534 -0.1659
  936MPD2    C513691   0.323   3.486  12.789  0.2247  0.1273  0.4347
  936MPD2     H13692   0.362   3.832  12.952 -2.3195 -0.3713  1.4545
  936MPD2    H113693   0.284   3.579  12.603 -0.0361  0.5607 -0.4544
  936MPD2    H213694   0.356   3.406  12.986 -1.3264 -0.3503  0.7100
  936MPD2    H313695   0.309   3.385  12.752 -0.0680  0.5100 -0.4995
  936MPD2     N13696   0.311   3.834  12.676  0.0767 -0.8812  0.4147
  936MPD2    H513697   0.320   3.816  12.576 -0.4409  1.7747 -0.1190
  936MPD2    N113698   0.389   3.622  13.109  0.3695  0.1662  0.0591
  936MPD2    H713699   0.412   3.532  13.149  1.2900  1.5026  2.5579
  937MPD2     C13700   3.236   4.220  12.076  0.2091  0.9094  0.4659
  937MPD2    C113701   3.234   4.351  12.041 -0.1874  0.1150 -1.0486
  937MPD2    C213702   3.329   4.396  11.954 -0.2903 -0.4304  0.7761
  937MPD2    C313703   3.446   4.318  11.915 -0.5733  0.1925 -0.1294
  937MPD2    C413704   3.453   4.198  11.977  0.4101 -0.2750  0.0507
  937MPD2    C513705   3.348   4.147  12.048  0.1082  0.5467 -0.5006
  937MPD2     H13706   3.330   4.500  11.924  1.7001 -0.4103  0.8681
  937MPD2    H113707   3.540   4.136  11.959  0.7155  0.2322 -0.2460
  937MPD2    H213708   3.160   4.173  12.137  1.4811  2.3892  3.2047
  937MPD2    H313709   3.351   4.050  12.094 -0.9532  0.1156 -1.3367
  937MPD2     N13710   3.543   4.365  11.833 -0.2022  0.5166  0.3235
  937MPD2    H513711   3.535   4.465  11.818  0.7092  0.6259  0.5569
  937MPD2    N113712   3.115   4.429  12.048 -0.1012  0.1864 -0.2388
  937MPD2    H713713   3.122   4.520  12.004 -0.8422 -0.4099 -1.5823
  938MPD2     C13714   0.827   2.110   0.954 -0.0252  0.4639 -0.2121
  938MPD2    C113715   0.736   2.216   0.950 -0.1337  0.0405 -0.1052
  938MPD2    C213716   0.607   2.197   0.944  0.8464  0.5870 -0.6398
  938MPD2    C313717   0.559   2.067   0.962  0.2127 -0.1773  0.9596
  938MPD2    C413718   0.648   1.963   0.961  0.3465 -0.2941  0.1828
  938MPD2    C513719   0.784   1.984   0.953 -0.1446  0.6615  0.4033
  938MPD2     H13720   0.542   2.284   0.952 -0.3742 -0.3237 -0.6465
  938MPD2    H113721   0.611   1.861   0.960  0.9939 -0.5319  0.4820
  938MPD2    H213722   0.933   2.133   0.951 -0.0505  0.5632 -0.3567
  938MPD2    H313723   0.851   1.906   0.918  0.2052  0.3893  1.6789
  938MPD2     N13724   0.425   2.035   1.004  0.0872  0.3252  0.2171
  938MPD2    H513725   0.404   1.943   1.043 -0.9525  0.9737  1.1821
  938MPD2    N113726   0.770   2.353   0.943 -0.1614  0.1388  0.2511
  938MPD2    H713727   0.693   2.413   0.918 -2.6675 -2.9380  0.6421
  939MPD2     C13728   2.219   3.113   1.195 -0.7783  0.4128 -0.6052
  939MPD2    C113729   2.274   3.034   1.299  0.2749 -0.6054 -0.4599
  939MPD2    C213730   2.345   2.915   1.271 -0.4639 -0.6086  0.1179
  939MPD2    C313731   2.359   2.887   1.137 -0.1252 -0.4424 -0.1603
  939MPD2    C413732   2.306   2.965   1.035  0.0314  0.2337 -0.0739
  939MPD2    C513733   2.232   3.073   1.064  0.8400  0.2815  0.7675
  939MPD2     H13734   2.384   2.851   1.349 -0.5958 -0.3168  0.4215
  939MPD2    H113735   2.325   2.950   0.929  2.6577 -2.1756  0.7498
  939MPD2    H213736   2.158   3.200   1.218 -1.4952 -0.3148  0.2385
  939MPD2    H313737   2.194   3.131   0.980  2.0455  0.4621  0.3429
  939MPD2     N13738   2.427   2.766   1.109 -0.1569  0.1931 -0.4647
  939MPD2    H513739   2.472   2.711   1.181 -1.1382  1.3989  1.0711
  939MPD2    N113740   2.223   3.060   1.427 -0.2233  0.2383  0.6070
  939MPD2    H713741   2.166   3.144   1.436  4.4914  3.6309 -0.5211
  940MPD2     C13742   0.659   3.093  13.481  0.2369 -0.4227 -0.0895
  940MPD2    C113743   0.782   3.061  13.532  0.5365 -0.0922 -0.5981
  940MPD2    C213744   0.864   2.986  13.452  0.6156 -0.4821  0.3292
  940MPD2    C313745   0.827   2.943  13.322 -0.4840 -0.3764  0.6876
  940MPD2    C413746   0.704   2.974  13.277  0.8128  0.6653  0.1865
  940MPD2    C513747   0.623   3.056  13.353 -0.3150 -0.0892  0.2995
  940MPD2     H13748   0.961   2.971  13.496  0.7003 -1.6878 -0.2651
  940MPD2    H113749   0.661   2.946  13.182  1.1129  1.7168 -0.2582
  940MPD2    H213750   0.587   3.159  13.527 -0.9822 -2.1301  0.4528
  940MPD2    H313751   0.529   3.091  13.312 -0.7808 -1.1538  0.4805
  940MPD2     N13752   0.909   2.860  13.240 -0.5417 -0.3199  0.9118
  940MPD2    H513753   0.881   2.852  13.143  2.7806  1.7497 -0.2321
  940MPD2    N113754   0.828   3.095  13.667  0.0379 -0.2228  0.3482
  940MPD2    H713755   0.917   3.061  13.702 -0.3979 -1.5809  0.1541
  941MPD2     C13756   0.510   2.611   9.442 -0.5972 -0.4716 -0.5415
  941MPD2    C113757   0.546   2.600   9.576  0.1882 -0.0038 -0.3021
  941MPD2    C213758   0.450   2.557   9.664  0.1523  0.5868 -0.9908
  941MPD2    C313759   0.323   2.528   9.620  0.3012  0.3028 -0.5499
  941MPD2    C413760   0.284   2.561   9.491 -0.0296 -0.2875 -0.2370
  941MPD2    C513761   0.384   2.603   9.408  0.2230 -0.6245 -0.8635
  941MPD2     H13762   0.490   2.538   9.763  0.4440  1.9859 -0.8500
  941MPD2    H113763   0.186   2.546   9.447  0.5233 -0.3084 -1.4325
  941MPD2    H213764   0.587   2.631   9.368 -1.0486 -0.2350 -0.9489
  941MPD2    H313765   0.359   2.625   9.305 -2.2924  1.0475  0.0990
  941MPD2     N13766   0.223   2.466   9.704  0.2507  0.4631 -0.5350
  941MPD2    H513767   0.126   2.470   9.672  1.2686 -0.4364 -3.6814
  941MPD2    N113768   0.677   2.633   9.632  0.1006  0.3287  0.3024
  941MPD2    H713769   0.678   2.637   9.734 -1.0573 -1.2181  0.3708
  942MPD2     C13770   4.178   4.032   9.525  0.3086  0.7396 -1.1447
  942MPD2    C113771   4.204   3.907   9.464  0.1170 -0.3938  0.5652
  942MPD2    C213772   4.315   3.885   9.384  0.4201 -0.1482  0.6456
  942MPD2    C313773   4.403   3.987   9.355 -0.8432  0.4467  0.6987
  942MPD2    C413774   4.379   4.113   9.408 -0.9792 -0.2791  0.0603
  942MPD2    C513775   4.264   4.132   9.489 -0.1913 -0.0714  0.2857
  942MPD2     H13776   4.343   3.784   9.355  0.8726 -0.1812  1.1732
  942MPD2    H113777   4.431   4.205   9.386 -0.4465 -0.6802 -0.3659
  942MPD2    H213778   4.088   4.049   9.583  0.8292 -2.0645  0.4731
  942MPD2    H313779   4.243   4.230   9.531 -1.5732 -0.7809  1.2431
  942MPD2     N13780   4.520   3.974   9.286 -1.2093 -0.2513 -0.1678
  942MPD2    H513781   4.592   4.045   9.284 -2.6801  1.1850 -1.4179
  942MPD2    N113782   4.128   3.794   9.479 -0.0154  0.1518 -0.2206
  942MPD2    H713783   4.155   3.715   9.421  2.5360  1.7111 -1.1721
  943MPD2     C13784   4.186   0.948   9.603 -0.1271 -1.1938 -0.1826
  943MPD2    C113785   4.096   0.958   9.705 -0.2144 -0.3860  0.0792
  943MPD2    C213786   4.091   1.081   9.768  0.0120  0.0890  0.4865
  943MPD2    C313787   4.178   1.183   9.733 -0.2099 -0.5661  0.2888
  943MPD2    C413788   4.278   1.159   9.645  0.5339  0.2567 -0.1984
  943MPD2    C513789   4.275   1.043   9.571 -0.0008  0.5698 -0.0066
  943MPD2     H13790   4.032   1.092   9.858 -0.9282 -0.6696 -0.0251
  943MPD2    H113791   4.356   1.226   9.614  0.5959  0.6502  0.8327
  943MPD2    H213792   4.202   0.861   9.541  1.9962 -0.2541 -0.9765
  943MPD2    H313793   4.350   1.027   9.495 -1.2274  0.0707 -1.1142
  943MPD2     N13794   4.181   1.306   9.802  0.3186  0.2192 -0.1347
  943MPD2    H513795   4.249   1.373   9.766 -1.0523  2.1733  0.8728
  943MPD2    N113796   4.009   0.851   9.728  0.0374 -0.7349  0.3621
  943MPD2    H713797   4.031   0.763   9.681  4.4629  0.1602  0.8457
  944MPD2     C13798   3.846   0.523  11.330  0.3916  0.6448 -0.1438
  944MPD2    C113799   3.885   0.653  11.325 -0.9943  0.3683 -0.0936
  944MPD2    C213800   3.804   0.750  11.371  0.7445  0.7281 -0.9318
  944MPD2    C313801   3.687   0.713  11.433  0.4412 -0.1563  0.1650
  944MPD2    C413802   3.638   0.585  11.433  0.1510 -0.2128  0.5522
  944MPD2    C513803   3.719   0.488  11.379 -0.4299  0.0055 -0.5064
  944MPD2     H13804   3.831   0.854  11.382 -1.7137  0.9748  3.1224
  944MPD2    H113805   3.537   0.554  11.459  0.0243  0.4291  0.8272
  944MPD2    H213806   3.908   0.442  11.293 -0.3001 -0.0794  0.2873
  944MPD2    H313807   3.677   0.388  11.376  0.1266 -0.2367 -0.3258
  944MPD2     N13808   3.604   0.822  11.467  0.0983 -0.0493 -0.0319
  944MPD2    H513809   3.642   0.916  11.461  2.7902 -1.0869  0.7039
  944MPD2    N113810   4.004   0.677  11.253 -0.1935 -0.6233  0.9319
  944MPD2    H713811   4.056   0.604  11.205 -0.5063 -0.4707  0.3646
    1TCq1    O113812   1.522   2.594  14.406  0.2331 -0.0864  0.3243
    1TCq1    C113813   1.510   2.587  14.542 -0.3548  0.1354 -0.7395
    1TCq1    O213814   1.416   2.612  14.614 -0.0011 -0.0031  0.3490
    1TCq1    C213815   1.647   2.581  14.599 -0.6293  0.4705  0.1373
    1TCq1    C313816   1.724   2.472  14.573  0.0982  0.4175  0.0964
    1TCq1    C413817   1.829   2.452  14.656  0.1027 -0.0747  0.1094
    1TCq1    C513818   1.870   2.544  14.751  0.1135  0.1420  0.0220
    1TCq1    C613819   1.787   2.647  14.782 -0.1528  0.2939 -0.0440
    1TCq1    C713820   1.674   2.668  14.702 -0.4135  0.4161  0.0499
    1TCq1    C813821   1.828   2.750  14.875 -0.0140  0.3059  0.3143
    1TCq1    O413822   1.941   2.733  14.921 -0.2938 -0.3699 -0.0477
    1TCq1    C913823   1.906   2.334  14.636  0.3311 -0.4014  0.3623
    1TCq1    O513824   2.009   2.313  14.706 -0.1038 -0.0022 -0.0358
    1TCq1    O613825   1.878   2.263  14.536  0.1048  0.6565  0.1725
    1TCq1    H113826   1.611   2.575  14.371  0.1595  2.1624 -1.0790
    1TCq1    H213827   1.703   2.403  14.492 -0.2371 -0.7338  1.1773
    1TCq1    H313828   1.959   2.524  14.810 -1.3004  0.9628  2.4257
    1TCq1    H413829   1.602   2.747  14.721  1.0956  1.9679 -0.6466
    2MPD2     C13830   1.767   3.141  15.209  0.8917 -0.1913  0.8595
    2MPD2    C113831   1.682   3.153  15.099 -0.2359  0.4831 -0.4993
    2MPD2    C213832   1.672   3.053  14.999 -0.5416 -0.2515 -0.5642
    2MPD2    C313833   1.753   2.944  15.000  0.4324  0.0585  0.1961
    2MPD2    C413834   1.841   2.933  15.105 -0.4594 -0.9306  0.4633
    2MPD2    C513835   1.841   3.025  15.206 -0.0525  0.5679  0.0307
    2MPD2     H13836   1.604   3.066  14.915 -0.1883 -3.7850 -1.4009
    2MPD2    H113837   1.913   2.853  15.114  0.0647 -0.5780 -0.5124
    2MPD2    H213838   1.785   3.216  15.285  0.6559  0.9912 -0.2626
    2MPD2    H313839   1.909   3.012  15.290 -0.5188 -1.5599  0.0846
    2MPD2     N13840   1.741   2.854  14.891  0.6191  0.2653 -0.5661
    2MPD2    H513841   1.676   2.873  14.816 -0.0906 -0.2881 -0.0853
    2MPD2    N113842   1.609   3.280  15.083  0.5184 -0.6568 -0.3400
    2MPD2    H713843   1.625   3.349  15.156 -0.6345  0.1451 -0.8493
    3TMC2    C113844   1.472   3.457  15.004  0.4918  0.6619 -0.6334
    3TMC2    C213845   1.551   3.534  15.083  0.5782 -0.2972 -0.5288
    3TMC2    C313846   1.539   3.667  15.067 -0.6526  0.6161  0.8704
    3TMC2    C413847   1.398   3.511  14.899  0.8245  1.3366  0.2924
    3TMC2    C513848   1.406   3.645  14.880  0.7131  0.3190  0.3587
    3TMC2    C613849   1.465   3.725  14.968  0.1443  0.6522  0.8880
    3TMC2     C13850   1.518   3.323  14.982 -0.3763 -0.1558  0.0152
    3TMC2     O13851   1.481   3.267  14.881  0.3318 -1.0490 -0.6873
    3TMC2     H13852   1.617   3.497  15.160 -0.2964  1.3212  0.9768
    3TMC2    H113853   1.355   3.443  14.826 -0.1375  0.2674  1.8522
    3TMC2    H213854   1.476   3.831  14.947  1.7884  0.7834  2.4346
    3TMC2    C713855   1.309   3.701  14.788 -0.1169  0.2379  0.3457
    3TMC2    C813856   1.613   3.759  15.154  0.3661 -0.0823 -0.2161
    3TMC2    O113857   1.213   3.629  14.760 -0.2233  0.7661  0.1021
    3TMC2    O213858   1.580   3.867  15.198  0.3079  0.2788 -0.5140
    3TMC2    O513859   1.740   3.714  15.143  0.2963 -0.5762  0.2757
    3TMC2    H513860   1.753   3.640  15.081 -0.5511 -0.2292 -0.3141
    4MPD2     C13861   1.192   4.671  13.640 -0.3644  0.5236 -0.6512
    4MPD2    C113862   1.103   4.660  13.749  0.4047 -0.4620 -0.0390
    4MPD2    C213863   1.161   4.630  13.872 -0.2700  0.0876  0.0157
    4MPD2    C313864   1.299   4.616  13.882 -0.4391  0.0525  0.4504
    4MPD2    C413865   1.374   4.637  13.771 -0.0419  0.6447  0.2143
    4MPD2    C513866   1.325   4.661  13.647  0.1005 -0.3260 -0.4407
    4MPD2     H13867   1.104   4.617  13.963 -3.0272  1.5861 -1.4636
    4MPD2    H113868   1.482   4.626  13.778  0.0972  1.1117 -1.3900
    4MPD2    H213869   1.151   4.690  13.541  0.9144 -4.1756 -2.0467
    4MPD2    H313870   1.388   4.692  13.564  2.4435  1.2110  1.8941
    4MPD2     N13871   1.368   4.598  14.005 -0.4769 -0.0630 -0.2624
    4MPD2    H513872   1.468   4.596  13.990 -0.4449  1.1396 -0.2094
    4MPD2    N113873   0.963   4.661  13.724 -0.4129 -0.6700  0.2584
    4MPD2    H713874   0.931   4.677  13.629 -0.0754 -1.3938  0.0229
    5TCq2    C113875   1.315   4.564  14.131  0.6885  0.0181  0.7580
    5TCq2    O213876   1.200   4.569  14.181 -0.7085  0.1003 -0.2967
    5TCq2    C213877   1.423   4.515  14.212 -0.2605 -0.1489  0.2488
    5TCq2    C313878   1.560   4.528  14.184 -0.0218  0.0047 -0.0403
    5TCq2    C413879   1.651   4.461  14.258 -0.0574  0.4406  0.4122
    5TCq2    C513880   1.609   4.395  14.365 -0.1241  0.4710 -0.1298
    5TCq2    C613881   1.474   4.376  14.394 -0.6782 -0.0503 -1.0006
    5TCq2    C713882   1.380   4.426  14.308 -0.0371 -0.0807  0.3487
    5TCq2    C813883   1.447   4.242  14.441 -0.0395 -0.8530  0.7394
    5TCq2    O413884   1.541   4.159  14.437  0.3778 -0.4774  0.3368
    5TCq2    C913885   1.796   4.471  14.233 -0.0302  0.7542  0.6464
    5TCq2    O513886   1.869   4.417  14.319 -0.1775  0.3046 -0.2724
    5TCq2    O613887   1.834   4.525  14.127  0.4004 -0.3456 -0.4587
    5TCq2    H213888   1.600   4.596  14.109  0.0233  1.8405  1.6304
    5TCq2    H313889   1.690   4.353  14.424  3.2570  4.3643 -1.9858
    5TCq2    H413890   1.277   4.419  14.339 -0.5133  1.8256 -0.7755
    6MPD1     C13891   1.578   3.639  12.744 -0.3208 -0.2285 -1.5202
    6MPD1    C113892   1.485   3.687  12.653  0.0230  0.3867  0.0129
    6MPD1    C213893   1.365   3.747  12.699 -0.4561 -0.1836  0.3473
    6MPD1    C313894   1.349   3.757  12.836 -0.2521  0.0131 -0.2279
    6MPD1    C413895   1.431   3.689  12.924 -0.3259  0.5344 -0.0296
    6MPD1    C513896   1.547   3.636  12.876  0.7107 -0.1348  0.9381
    6MPD1     H13897   1.311   3.798  12.620 -3.8120  0.9064  3.3556
    6MPD1    H113898   1.423   3.687  13.032  0.7839  1.6671  0.0852
    6MPD1    H213899   1.665   3.592  12.700  1.3935  1.3378  0.1892
    6MPD1    H313900   1.620   3.589  12.940  2.6735  1.1583 -0.3499
    6MPD1     N13901   1.239   3.823  12.900  0.0328 -0.4241  0.5555
    6MPD1    H513902   1.249   3.837  13.000  2.0229  1.3746  0.1147
    6MPD1    N113903   1.523   3.703  12.518 -0.1571 -0.0537  0.0530
    6MPD1    H613904   1.579   3.623  12.489 -0.7876  0.3351 -2.2529
    6MPD1    H713905   1.448   3.717  12.451 -0.3044  0.2556  0.2816
    7MPD2     C13906   0.829   4.553  12.990 -0.5189 -0.9889 -0.5535
    7MPD2    C113907   0.784   4.451  13.064 -0.5134  0.1752  0.2046
    7MPD2    C213908   0.714   4.485  13.182 -0.8022 -0.5329 -0.1778
    7MPD2    C313909   0.725   4.612  13.228 -0.2606 -0.7041  0.0308
    7MPD2    C413910   0.785   4.714  13.163 -0.4526 -0.0755  0.2335
    7MPD2    C513911   0.849   4.680  13.049 -0.6598  0.2450 -0.5719
    7MPD2     H13912   0.679   4.404  13.246  1.6054 -1.5053 -0.0892
    7MPD2    H113913   0.786   0.093  13.195  3.1157 -0.0860  0.1599
    7MPD2    H213914   0.875   4.533  12.894 -0.1608 -0.1100 -0.5651
    7MPD2    H313915   0.899   0.034  12.994  1.2118 -0.8521 -0.4401
    7MPD2     N13916   0.672   4.620  13.357 -0.6406 -0.2704  0.6286
    7MPD2    H513917   0.643   4.533  13.400  1.8838 -0.6014  1.6621
    7MPD2    N113918   0.793   4.314  13.033 -0.6533  0.2231  0.0687
    7MPD2    H713919   0.769   4.244  13.102 -0.3777  0.8625  0.8130
    8TMC3    C113920   0.621   4.709  13.571 -0.4247 -0.0619 -0.2189
    8TMC3    C213921   0.715   0.006  13.665  0.3691 -0.1533 -0.3726
    8TMC3    C313922   0.733   4.649  13.772 -0.2468 -0.2299  0.3107
    8TMC3    C413923   0.548   4.598  13.584  0.4164  0.5562 -0.2889
    8TMC3    C513924   0.576   4.506  13.681  0.1400 -0.1148 -0.2917
    8TMC3    C613925   0.663   4.533  13.785  0.2864  0.2545  0.3500
    8TMC3     C13926   0.673   0.013  13.437  0.9034  0.1823 -1.3561
    8TMC3     O13927   0.724   0.123  13.414  0.0564 -0.9082 -0.3764
    8TMC3     H13928   0.777   0.094  13.660 -0.8585  0.8494  2.1822
    8TMC3    H113929   0.482   4.570  13.503 -1.5094  2.2666  0.6828
    8TMC3    H213930   0.686   4.454  13.856 -0.1391  0.5002  0.7653
    8TMC3    C713931   0.609   4.383  13.614 -0.2313 -0.8307 -0.0466
    8TMC3    C813932   0.866   4.642  13.823 -0.4224  0.4130 -0.4966
    8TMC3    O113933   0.624   4.398  13.493 -0.1106  1.0262 -0.3366
    8TMC3    O213934   0.870   4.605  13.940  0.1350 -0.2746  0.3586
    9TMC3    C113935   1.030   3.945  12.907 -1.0378 -0.0838 -0.1550
    9TMC3    C213936   1.008   3.900  13.034 -0.0952 -0.4448  0.4383
    9TMC3    C313937   0.913   3.963  13.113  0.0654  0.7935 -0.7761
    9TMC3    C413938   0.963   4.056  12.853 -0.2539  0.1555 -0.2779
    9TMC3    C513939   0.877   4.121  12.936 -1.0057 -0.0621 -0.0052
    9TMC3    C613940   0.851   4.073  13.064  0.1094  0.7031 -0.2726
    9TMC3     C13941   1.140   3.886  12.827 -0.6276  0.4247 -0.5847
    9TMC3     O13942   1.133   3.906  12.707 -0.0680 -0.8088 -0.7536
    9TMC3     H13943   1.038   3.798  13.054  0.3996  0.1244  2.6198
    9TMC3    H113944   0.992   4.104  12.761 -1.0895  2.4515  0.6636
    9TMC3    H213945   0.764   4.109  13.118  0.9755  0.1190  1.5199
    9TMC3    C713946   0.840   4.260  12.913 -0.3137  0.2218 -0.4285
    9TMC3    C813947   0.863   3.920  13.242 -0.6505  0.0814  0.0802
    9TMC3    O113948   0.868   4.299  12.802 -0.9346 -0.1876 -0.5775
    9TMC3    O213949   0.885   3.804  13.272 -0.0573  0.2040 -0.0207
   10MPD2     C13950   0.694   4.047  13.727  0.0203  0.2810  0.2936
   10MPD2    C113951   0.692   4.155  13.643 -0.4323  1.0469  0.3133
   10MPD2    C213952   0.738   4.144  13.516  0.9539 -0.1419 -0.3008
   10MPD2    C313953   0.791   4.023  13.459 -0.1484  0.4899 -0.4223
   10MPD2    C413954   0.787   3.912  13.543 -0.1671  0.2546  0.2986
   10MPD2    C513955   0.733   3.932  13.673  0.0624 -0.3554 -0.0110
   10MPD2     H13956   0.748   4.231  13.452  2.6824 -0.6669 -0.7504
   10MPD2    H113957   0.812   3.814  13.503  1.1301  1.3100 -1.4802
   10MPD2    H213958   0.665   4.048  13.831 -0.7710  0.6600  0.0691
   10MPD2    H313959   0.719   3.839  13.725 -0.7845 -1.1636 -1.6738
   10MPD2     N13960   0.828   4.026  13.323  0.2891 -0.1800 -0.4598
   10MPD2    H513961   0.838   4.118  13.281  0.8490  0.1609  0.4212
   10MPD2    N113962   0.635   4.275  13.697  0.5993  0.0207 -0.1910
   10MPD2    H713963   0.610   4.274  13.796  1.9093 -4.9276  0.0814
   11MPD2     C13964   1.141   3.883  14.631  0.2830 -0.4044 -0.3944
   11MPD2    C113965   1.269   3.898  14.651 -0.4113  0.6241  0.1073
   11MPD2    C213966   1.334   3.993  14.574  0.3842  0.2652  0.1569
   11MPD2    C313967   1.264   4.098  14.518 -0.5768  0.3687 -0.0483
   11MPD2    C413968   1.130   4.097  14.529  0.5757 -0.7875 -0.1454
   11MPD2    C513969   1.066   3.983  14.573  0.0520  0.4407 -0.0858
   11MPD2     H13970   1.442   3.995  14.588  0.4167 -0.8768  0.0901
   11MPD2    H113971   1.073   4.175  14.479  1.6157  0.4102  0.5599
   11MPD2    H213972   1.087   3.796  14.668  2.8210 -1.6146  0.4988
   11MPD2    H313973   0.962   3.956  14.564 -0.0069  0.4897  0.4649
   11MPD2     N13974   1.317   4.215  14.469  0.0456 -0.2548 -0.1092
   11MPD2    H513975   1.255   4.293  14.448  2.9965  1.6389 -1.8246
   11MPD2    N113976   1.351   3.818  14.731  0.3891 -0.5364 -0.7847
   11MPD2    H713977   1.446   3.845  14.755  0.5912  0.4423 -2.7289
    1MPD1     C13978   3.696   0.699  17.459 -0.3870  0.9145 -0.6554
    1MPD1    C113979   3.750   0.574  17.483  0.0776 -0.8745  0.5962
    1MPD1    C213980   3.855   0.544  17.407 -0.1057 -0.5745  0.0315
    1MPD1    C313981   3.913   0.637  17.324 -0.1273  0.2526  0.4187
    1MPD1    C413982   3.871   0.766  17.317 -0.1186 -0.9621 -0.4576
    1MPD1    C513983   3.757   0.797  17.382 -0.1711  0.3271  0.3028
    1MPD1     H13984   3.889   0.441  17.397  1.3435 -0.0884 -0.1119
    1MPD1    H113985   3.918   0.846  17.260 -0.7126  0.5966  1.2650
    1MPD1    H213986   3.604   0.726  17.508 -0.0667 -1.8862  1.4398
    1MPD1    H313987   3.721   0.899  17.380 -0.3704  0.2841  1.8682
    1MPD1     N13988   4.023   0.610  17.240  0.1926  0.0004  0.2178
    1MPD1    H513989   4.042   0.681  17.170 -1.3268 -1.2827 -1.5038
    1MPD1    N113990   3.687   0.483  17.565 -0.4484 -0.2172  0.0058
    1MPD1    H613991   3.740   0.402  17.596 -0.0535  0.6410  1.5648
    1MPD1    H713992   3.650   0.532  17.645 -4.9472 -1.0154 -1.5543
    2MPD1     C13993   4.668   4.713  17.595 -0.3881  0.6336 -0.2892
    2MPD1    C113994   4.571   0.076  17.644 -0.6027 -0.9762 -0.9655
    2MPD1    C213995   4.540   0.178  17.551  0.6541 -0.3742 -0.3111
    2MPD1    C313996   4.573   0.185  17.417  0.4426  0.1786 -0.5065
    2MPD1    C413997   4.654   0.084  17.368  0.1839 -0.0426  0.3339
    2MPD1    C513998   4.698   4.714  17.458  0.3185 -0.2606  0.5797
    2MPD1     H13999   4.485   0.266  17.584 -0.6236 -0.4137 -2.3122
    2MPD1    H114000   4.680   0.079  17.263  0.7403  1.9004  0.3812
    2MPD1    H214001   4.713   4.629  17.647 -0.4830  2.5381  2.8893
    2MPD1    H314002   0.039   4.632  17.430 -0.6516  0.3544 -3.4920
    2MPD1     N14003   4.520   0.288  17.338 -0.1095  0.6388  0.0388
    2MPD1    H514004   4.458   0.352  17.386  1.4544  2.1805  0.0006
    2MPD1    N114005   4.540   0.081   0.081 -0.2447  0.0308 -0.2853
    2MPD1    H614006   4.542   4.714   0.127  0.2178  0.7654  1.1313
    2MPD1    H714007   4.453   0.130   0.100 -0.8702 -1.2751  0.2630
    3TMC3    C114008   4.448   0.402  17.157  0.1064  0.5612  0.2466
    3TMC3    C214009   4.477   0.491  17.067  0.9836  0.8474 -0.6258
    3TMC3    C314010   4.384   0.581  17.020 -0.9782  0.6275 -0.0362
    3TMC3    C414011   4.315   0.391  17.204  0.4391  0.3598  0.0974
    3TMC3    C514012   4.223   0.484  17.164 -0.3447  0.4562  0.5380
    3TMC3    C614013   4.259   0.582  17.070 -0.5111  0.0890 -0.4357
    3TMC3     C14014   4.551   0.317  17.210  0.2090  0.7596  0.5932
    3TMC3     O14015   4.633   0.270  17.130 -0.4327 -0.0065 -0.1844
    3TMC3     H14016   4.580   0.490  17.035  0.6278 -0.3547 -1.7424
    3TMC3    H114017   4.294   0.308  17.272  2.7852 -0.1696  0.1791
    3TMC3    H214018   4.185   0.657  17.045 -0.0409  0.2400 -1.3670
    3TMC3    C714019   4.101   0.495  17.238 -0.3024  0.1977 -0.0386
    3TMC3    C814020   4.434   0.711  16.972 -0.6243 -0.1715  0.1641
    3TMC3    O114021   4.090   0.397  17.313 -0.7209  0.2191  0.0102
    3TMC3    O214022   4.547   0.747  17.012  0.0483  0.1382 -0.3867
    4MPD1     C14023   4.370   1.151  16.731 -0.1041  0.6719 -0.5138
    4MPD1    C114024   4.299   1.054  16.660 -0.2150 -0.0465 -0.3945
    4MPD1    C214025   4.291   0.930  16.717 -0.7423 -0.2594  0.0357
    4MPD1    C314026   4.373   0.890  16.820  0.6105  0.4450  0.5194
    4MPD1    C414027   4.454   0.987  16.885  0.5727 -0.6355 -0.5774
    4MPD1    C514028   4.444   1.117  16.843 -0.0705  0.2791 -0.1511
    4MPD1     H14029   4.233   0.846  16.680 -1.7980 -0.1418  1.4199
    4MPD1    H114030   4.507   0.972  16.979 -0.1005 -2.4555 -0.4845
    4MPD1    H214031   4.377   1.254  16.699 -0.5362  0.4471 -1.3158
    4MPD1    H314032   4.496   1.200  16.889 -2.2411  1.1550  0.7299
    4MPD1     N14033   4.353   0.766  16.879 -0.4380 -0.0609  0.3566
    4MPD1    H514034   4.275   0.716  16.839 -0.8081  1.7153 -1.1410
    4MPD1    N114035   4.212   1.095  16.554 -0.3195 -0.2939  0.5016
    4MPD1    H614036   4.228   1.186  16.514  0.4671 -0.0016  1.4575
    4MPD1    H714037   4.197   1.025  16.482 -1.2128  1.5540 -1.0647
    1TCq1    O114038   1.465   4.410  12.237 -0.1467 -0.0769  0.2883
    1TCq1    C114039   1.379   4.503  12.198  0.2378 -0.0019 -0.2346
    1TCq1    O214040   1.395   4.618  12.236 -0.3639 -0.1459 -0.3460
    1TCq1    C214041   1.252   4.427  12.208  0.1129 -0.1049  0.5259
    1TCq1    C314042   1.240   4.305  12.144  0.3210  0.4837 -0.4272
    1TCq1    C414043   1.111   4.260  12.141 -0.2320  0.0118 -0.6629
    1TCq1    C514044   1.008   4.316  12.212 -0.0579  0.5090 -0.2977
    1TCq1    C614045   1.027   4.432  12.280 -0.0386 -0.0618 -0.4998
    1TCq1    C714046   1.153   4.496  12.277 -1.0507 -0.3326 -0.2614
    1TCq1    C814047   0.913   4.515  12.303 -0.6996  0.1712 -0.0775
    1TCq1    O414048   0.934   4.616  12.372  0.2670  0.5355  0.4133
    1TCq1    C914049   1.090   4.125  12.117 -0.1748  0.1688  0.0296
    1TCq1    O514050   1.182   4.050  12.127  0.2323 -0.5668  0.5557
    1TCq1    O614051   0.966   4.098  12.112 -0.1311  0.1444 -0.2897
    1TCq1    H114052   1.431   4.322  12.211  1.3332 -0.5389 -0.0928
    1TCq1    H214053   1.311   4.255  12.078  0.8314  1.7274 -0.8142
    1TCq1    H314054   0.908   4.273  12.220  0.6703 -0.8217  1.5762
    1TCq1    H414055   1.174   4.587  12.332 -3.8629 -0.1435  0.5212
    2MPD1     C14056   0.467   4.699  12.153  0.5668  0.1538  0.2981
    2MPD1    C114057   0.487   4.590  12.068 -1.0962 -0.0647 -0.2724
    2MPD1    C214058   0.603   4.517  12.091  0.1629 -0.2608 -0.3689
    2MPD1    C314059   0.688   4.548  12.198  0.4400 -0.7102 -0.4004
    2MPD1    C414060   0.659   4.653  12.281  0.4205  0.0746 -0.3541
    2MPD1    C514061   0.545   4.720  12.260  0.7354 -0.2666 -0.3105
    2MPD1     H14062   0.638   4.438  12.026 -1.0286  0.4047 -1.8253
    2MPD1    H114063   0.722   4.681  12.364 -0.2241 -0.0707  0.1789
    2MPD1    H214064   0.386   0.045  12.137 -0.9226 -1.7440 -0.4663
    2MPD1    H314065   0.532   0.080  12.327 -1.9961  0.3440 -1.5937
    2MPD1     N14066   0.813   4.483  12.209  0.0074  0.1547  0.7990
    2MPD1    H514067   0.836   4.416  12.137 -2.8833 -1.2524  1.1904
    2MPD1    N114068   0.412   4.573  11.953 -0.0734 -0.3316  0.4181
    2MPD1    H614069   0.411   4.480  11.912  3.0338  0.6678 -1.9633
    2MPD1    H714070   0.317   4.608  11.962  1.1652  2.6804  1.5392
    1TCq1    O114071   3.136   0.407   0.370 -0.0665 -0.3488 -0.3887
    1TCq1    C114072   3.207   0.511   0.323  0.2039  0.0222 -0.7849
    1TCq1    O214073   3.292   0.495   0.239  0.5088 -0.0462  0.1861
    1TCq1    C214074   3.208   0.615   0.423  0.2336 -0.4206  0.7968
    1TCq1    C314075   3.107   0.706   0.435 -0.4661 -0.7636  0.3918
    1TCq1    C414076   3.141   0.829   0.472  0.2816  0.2544 -0.2538
    1TCq1    C514077   3.260   0.854   0.534  1.0388  0.2018  0.1000
    1TCq1    C614078   3.364   0.761   0.523  0.0934 -0.4860  0.2954
    1TCq1    C714079   3.338   0.642   0.457 -0.3316 -0.3700  0.1061
    1TCq1    C814080   3.498   0.815   0.552 -0.5104 -0.1299  0.3522
    1TCq1    O414081   3.520   0.934   0.586  0.2786 -0.2605 -0.6388
    1TCq1    C914082   3.032   0.923   0.503 -0.2904 -0.1839  0.1202
    1TCq1    O514083   3.041   1.007   0.598 -0.7569 -0.1980 -0.5095
    1TCq1    O614084   2.924   0.910   0.438 -0.1221  0.4735 -0.7092
    1TCq1    H114085   3.070   0.431   0.438  1.5858 -1.4963  1.6220
    1TCq1    H214086   3.014   0.687   0.384 -0.2630  1.3697 -0.7749
    1TCq1    H314087   3.272   0.946   0.590 -1.1427  1.1964 -1.0514
    1TCq1    H414088   3.411   0.571   0.422  0.6776 -0.1440  1.7536
    2MPD1     C14089   4.010   0.767   0.506 -0.2374  0.0820  0.0200
    2MPD1    C114090   3.958   0.640   0.507  0.2698 -0.1822 -0.0595
    2MPD1    C214091   3.819   0.632   0.525  0.3055 -0.1548 -0.5616
    2MPD1    C314092   3.734   0.741   0.527 -0.4664  0.7329  0.4443
    2MPD1    C414093   3.787   0.870   0.529  0.0922 -0.1473  0.4828
    2MPD1    C514094   3.923   0.876   0.518 -0.7119  0.6863  0.0161
    2MPD1     H14095   3.784   0.529   0.531  0.2155 -0.1639 -1.2038
    2MPD1    H114096   3.735   0.965   0.527 -0.5726 -0.5069  0.6004
    2MPD1    H214097   4.118   0.773   0.502 -0.2729  1.8096  1.5186
    2MPD1    H314098   3.960   0.977   0.505  0.7824  0.2384  0.7815
    2MPD1     N14099   3.595   0.722   0.533  0.5342  0.1794  0.6761
    2MPD1    H514100   3.557   0.629   0.524  2.0427 -0.3701 -0.0272
    2MPD1    N114101   4.038   0.530   0.511  0.0658 -0.0558  0.2732
    2MPD1    H614102   4.135   0.534   0.479 -0.4843  2.6921 -1.0814
    2MPD1    H714103   3.998   0.438   0.496 -0.6740  0.5318 -1.3442
    1MPD1     C14104   1.666   4.252  11.472  0.3036 -0.0604 -0.3082
    1MPD1    C114105   1.746   4.348  11.416 -0.1671  0.2866 -0.7022
    1MPD1    C214106   1.836   4.408  11.501 -0.1320 -0.0055  0.9332
    1MPD1    C314107   1.861   4.367  11.630 -0.2680 -0.0398  0.3892
    1MPD1    C414108   1.778   4.273  11.688  0.3162  0.0235 -0.7384
    1MPD1    C514109   1.687   4.211  11.602  0.2317 -0.2669 -0.1911
    1MPD1     H14110   1.887   4.499  11.471  1.7800 -0.9209  1.4023
    1MPD1    H114111   1.790   4.231  11.787 -0.4107 -0.5326 -0.8866
    1MPD1    H214112   1.593   4.198  11.412  0.0263 -1.6466  1.4315
    1MPD1    H314113   1.625   4.132  11.645 -0.5225 -0.1740 -1.1097
    1MPD1     N14114   1.963   4.439  11.693 -0.1150  0.9556 -0.3892
    1MPD1    H514115   2.012   4.504  11.631  0.5184 -0.3791 -1.2927
    1MPD1    N114116   1.692   4.421  11.308  0.3417  0.2217  0.3990
    1MPD1    H614117   1.642   4.367  11.238 -1.0977 -0.1911  1.7501
    1MPD1    H714118   1.767   4.466  11.255 -0.3842  0.5434 -0.3645
    2MPD1     C14119   1.876   3.866  12.367  0.2352 -0.4521  0.8639
    2MPD1    C114120   2.011   3.898  12.354  0.0315 -0.0317  0.2292
    2MPD1    C214121   2.060   3.933  12.227  0.0343 -0.4108  0.3836
    2MPD1    C314122   1.963   3.963  12.126 -1.0560 -0.9721  0.0014
    2MPD1    C414123   1.826   3.940  12.149 -0.2389  0.3098 -0.3555
    2MPD1    C514124   1.786   3.897  12.273  0.3710  1.0918 -0.3109
    2MPD1     H14125   2.165   3.939  12.203 -0.0883  2.3043  0.6042
    2MPD1    H114126   1.755   3.981  12.077 -1.2882  0.3211  0.6896
    2MPD1    H214127   1.836   3.838  12.463 -0.8256  2.7831  1.3778
    2MPD1    H314128   1.678   3.887  12.285  0.2681  2.8011  0.1884
    2MPD1     N14129   2.002   4.017  12.000 -0.6975  0.1617 -0.7784
    2MPD1    H514130   1.929   4.018  11.930 -0.1051  0.3946 -1.3923
    2MPD1    N114131   2.092   3.889  12.466  0.2919  0.2086 -0.2219
    2MPD1    H614132   2.183   3.856  12.435  0.2004 -0.6244  0.4172
    2MPD1    H714133   2.045   3.832  12.536  2.0476  1.2896  1.8242
    3MPD1     C14134   1.511   3.747  11.372  0.4196 -0.5017  0.0805
    3MPD1    C114135   1.561   3.679  11.482  0.3544  0.3499 -0.5397
    3MPD1    C214136   1.664   3.734  11.547  0.1235  0.1609 -0.0818
    3MPD1    C314137   1.723   3.859  11.502 -0.4476 -0.1553 -0.4001
    3MPD1    C414138   1.673   3.915  11.386  0.4179 -0.9954 -0.0939
    3MPD1    C514139   1.557   3.866  11.325  0.2923  0.7481  0.6912
    3MPD1     H14140   1.705   3.674  11.627  0.8654  1.3664  0.4321
    3MPD1    H114141   1.729   3.991  11.332 -0.0554  0.7759  1.9149
    3MPD1    H214142   1.425   3.703  11.322 -0.7043 -0.2885  1.8224
    3MPD1    H314143   1.513   3.904  11.234  1.9775  0.0286 -0.4120
    3MPD1     N14144   1.847   3.911  11.564  0.0087  0.0157  0.5073
    3MPD1    H514145   1.868   3.872  11.656 -0.6859  1.4724  1.2792
    3MPD1    N114146   1.528   3.546  11.514  0.4714  0.2452  0.0311
    3MPD1    H614147   1.549   3.518  11.610 -1.3474 -1.5380 -0.0853
    3MPD1    H714148   1.437   3.520  11.476 -0.1533  1.8055  0.4343
    4MPD2     C14149   2.486   0.089  11.463 -0.4927 -0.2033  0.0844
    4MPD2    C114150   2.513   0.024  11.585  0.6773  0.1433 -0.7274
    4MPD2    C214151   2.630   4.683  11.601 -0.0141  0.2192  0.3009
    4MPD2    C314152   2.722   4.671  11.494  0.4478  0.8972  0.2735
    4MPD2    C414153   2.690   0.014  11.376  0.7657 -0.0227 -0.0415
    4MPD2    C514154   2.574   0.073  11.358  0.3572  0.3284  0.3814
    4MPD2     H14155   2.641   4.628  11.694 -0.8649 -0.8296 -0.2103
    4MPD2    H114156   2.751   0.005  11.287 -1.1213  0.6723 -1.4022
    4MPD2    H214157   2.386   0.127  11.444 -0.2726  0.5858  0.5213
    4MPD2    H314158   2.548   0.121  11.265 -0.9245  1.8851  1.5413
    4MPD2     N14159   2.838   4.594  11.504 -0.1160  0.3126 -0.0247
    4MPD2    H514160   2.886   4.579  11.416  0.9720  1.9385  0.2899
    4MPD2    N114161   2.427   0.014  11.691 -0.0543 -0.1843  0.7915
    4MPD2    H714162   2.461   4.693  11.775 -0.2048 -1.2950  0.2477
    5TMC3    C114163   2.230   4.723  11.809 -0.3511 -0.2229  0.4918
    5TMC3    C214164   2.135   4.628  11.777  0.4451  0.1147 -0.3724
    5TMC3    C314165   2.119   4.513  11.854 -0.8521 -0.0399 -0.2913
    5TMC3    C414166   2.319   4.689  11.905 -0.3332  0.5752  0.0206
    5TMC3    C514167   2.317   4.572  11.976 -0.5027  0.2234  0.0861
    5TMC3    C614168   2.213   4.479  11.952 -0.3226 -0.0996  0.1618
    5TMC3     C14169   2.298   0.056  11.690 -0.6063  0.2096 -0.4233
    5TMC3     O14170   2.218   0.093  11.601  0.5163  0.5583 -0.5797
    5TMC3     H14171   2.074   4.654  11.691  0.4627  2.0877  0.2250
    5TMC3    H114172   2.396   0.037  11.927 -0.6333  0.9737 -0.2332
    5TMC3    H214173   2.208   4.382  12.000  1.3492 -0.4536 -0.3988
    5TMC3    C714174   2.448   4.521  11.984 -0.0710  0.3693 -1.0643
    5TMC3    C814175   2.010   4.417  11.821 -0.1103 -0.6422 -0.2486
    5TMC3    O114176   2.531   4.579  11.916 -0.6026  0.1496 -0.2609
    5TMC3    O214177   1.981   4.322  11.892 -0.7212  0.1469  0.4277
    6TMC3    C114178   2.138   4.051  11.819  0.0428 -0.4642  0.3897
    6TMC3    C214179   2.023   4.042  11.737 -0.1115 -0.0550 -0.6278
    6TMC3    C314180   2.042   4.028  11.599  0.3809  1.0393 -0.3260
    6TMC3    C414181   2.260   4.059  11.763  1.2241  0.2418 -0.3211
    6TMC3    C514182   2.268   4.044  11.628  0.1431 -0.8363 -0.2878
    6TMC3    C614183   2.167   4.032  11.544 -0.2843 -0.4151  0.2310
    6TMC3     C14184   2.131   4.041  11.965 -0.0198  0.3269  0.7171
    6TMC3     O14185   2.235   4.031  12.027 -0.3895 -0.2423  0.1857
    6TMC3     H14186   1.922   4.055  11.773  0.1132 -1.1157  0.3883
    6TMC3    H114187   2.351   4.071  11.821  0.2326 -1.1086  1.4859
    6TMC3    H214188   2.182   4.023  11.437  2.2692 -2.7256  0.7956
    6TMC3    C714189   2.410   4.026  11.587 -0.2893 -0.1655  0.2017
    6TMC3    C814190   1.938   4.003  11.512 -0.1062  0.8558 -1.1087
    6TMC3    O114191   2.452   4.074  11.487 -0.2078  0.4366 -0.2176
    6TMC3    O214192   1.949   4.028  11.392  0.5150 -0.6030 -0.7979
    7MPD2     C14193   2.758   4.119  11.972 -0.2966  0.8671 -0.2649
    7MPD2    C114194   2.783   4.239  11.924 -0.4712  0.1441  0.0640
    7MPD2    C214195   2.686   4.332  11.936 -0.0752  0.8034  0.0607
    7MPD2    C314196   2.564   4.299  12.001  0.5270  0.0292  0.1982
    7MPD2    C414197   2.537   4.173  12.032 -0.5149  0.8616  0.5838
    7MPD2    C514198   2.643   4.086  12.039  0.0113 -0.9819 -0.0222
    7MPD2     H14199   2.703   4.436  11.910 -1.5546  0.8079 -0.8694
    7MPD2    H114200   2.443   4.149  12.080 -1.0662  0.7839 -0.5179
    7MPD2    H214201   2.835   4.043  11.980 -1.8351 -0.8952 -2.0786
    7MPD2    H314202   2.623   3.986  12.075 -2.2185  0.0921  1.7115
    7MPD2     N14203   2.458   4.387  12.020  0.6332 -0.0094 -0.5227
    7MPD2    H514204   2.382   4.342  12.070 -0.8296  1.3694 -1.4956
    7MPD2    N114205   2.904   4.282  11.861 -0.1744 -0.3042 -0.2646
    7MPD2    H714206   2.901   4.379  11.832 -1.2771 -0.3899 -0.4303
    8TMC3    C114207   3.079   4.269  11.726 -0.3645 -0.1046  0.3205
    8TMC3    C214208   3.084   4.191  11.617  0.3020 -0.4611 -0.0960
    8TMC3    C314209   3.022   4.228  11.497  0.4724  0.0874  0.5168
    8TMC3    C414210   3.051   4.401  11.709  0.7024  0.0507 -0.1696
    8TMC3    C514211   2.996   4.442  11.593 -0.3053  0.0167  0.7376
    8TMC3    C614212   2.970   4.357  11.492 -0.3991  0.5143  0.1752
    8TMC3     C14213   3.012   4.202  11.831  0.1040  0.3116  0.1740
    8TMC3     O14214   3.037   4.080  11.852 -0.4965 -0.4311 -0.6158
    8TMC3     H14215   3.107   4.088  11.640  0.9336 -0.4892 -0.8366
    8TMC3    H114216   3.060   4.471  11.791 -0.5946 -1.4094  1.2075
    8TMC3    H214217   2.929   4.392  11.398  1.8023  0.9431 -0.6437
    8TMC3    C714218   2.883   4.529  11.619 -1.2209  0.3630  0.1185
    8TMC3    C814219   2.921   4.130  11.442 -0.1591  0.5954 -0.4056
    8TMC3    O114220   2.859   4.544  11.736  0.0606  0.0703 -0.1168
    8TMC3    O214221   2.823   4.175  11.386  0.6932  0.3727 -0.1526
    9MPD2     C14222   2.883   3.837  11.640  0.0061 -0.4101 -0.4390
    9MPD2    C114223   2.832   3.936  11.562  0.2417  0.3775 -0.0637
    9MPD2    C214224   2.700   3.961  11.560 -0.5917 -0.1257  0.0008
    9MPD2    C314225   2.612   3.897  11.646 -0.1534  0.3252  0.4604
    9MPD2    C414226   2.659   3.801  11.730  0.1852  0.0174 -0.2176
    9MPD2    C514227   2.792   3.766  11.719  0.1391 -0.4129  0.1769
    9MPD2     H14228   2.676   4.041  11.491 -1.0172  0.1094  0.4195
    9MPD2    H114229   2.603   3.765  11.815 -0.2326  1.0544 -0.0568
    9MPD2    H214230   2.989   3.817  11.647  0.2470  0.4777 -1.5997
    9MPD2    H314231   2.831   3.716  11.807 -0.9931 -1.6161 -0.0269
    9MPD2     N14232   2.476   3.934  11.667  0.3336  0.2080  0.3365
    9MPD2    H514233   2.424   3.895  11.745  1.2196  0.3250  0.9863
    9MPD2    N114234   2.934   4.017  11.510 -0.4107 -0.1904  0.6203
    9MPD2    H714235   3.030   3.992  11.531 -0.6882 -1.8610 -0.0697
    1MPD1     C14236   2.376   4.471  17.071  0.6422 -1.3088  0.8042
    1MPD1    C114237   2.342   4.373  16.981  0.2292  0.6725 -0.0393
    1MPD1    C214238   2.220   4.312  17.011  0.6976  0.4759  0.5209
    1MPD1    C314239   2.141   4.338  17.123 -0.5865 -0.3626  0.1104
    1MPD1    C414240   2.192   4.420  17.217 -0.2520  0.4400 -0.3024
    1MPD1    C514241   2.305   4.485  17.190 -0.1465  0.7675  0.1478
    1MPD1     H14242   2.184   4.228  16.952  1.1516 -0.1888  1.1786
    1MPD1    H114243   2.136   4.447  17.306  0.1380  0.7368 -0.1460
    1MPD1    H214244   2.454   4.542  17.047 -0.6832 -0.7617 -1.8508
    1MPD1    H314245   2.335   4.552  17.271  0.0590  0.5713  0.2343
    1MPD1     N14246   2.024   4.268  17.157  0.9079 -0.2501 -0.1513
    1MPD1    H514247   1.973   4.296  17.240  1.2835 -1.2533  0.4148
    1MPD1    N114248   2.395   4.370  16.854  0.2175 -0.1659  0.3197
    1MPD1    H614249   2.373   4.288  16.798 -2.9014 -0.3445  1.7761
    1MPD1    H714250   2.496   4.375  16.846 -0.0417  0.2688 -2.8761
    2MPD1     C14251   1.230   3.785  16.766 -0.4504  0.4785  1.4115
    2MPD1    C114252   1.355   3.817  16.700  0.1221  0.5046 -0.4357
    2MPD1    C214253   1.471   3.836  16.771  0.0960 -0.8230  0.2726
    2MPD1    C314254   1.462   3.839  16.904 -0.1100 -0.1187  0.0919
    2MPD1    C414255   1.343   3.832  16.971 -0.3359 -0.1318  0.0954
    2MPD1    C514256   1.226   3.804  16.900 -0.6502  0.5206 -0.2414
    2MPD1     H14257   1.569   3.844  16.726 -0.3405  0.2993 -0.4888
    2MPD1    H114258   1.333   3.846  17.078 -2.0821 -1.0629  0.0624
    2MPD1    H214259   1.134   3.776  16.717  0.6717 -0.1433 -0.6552
    2MPD1    H314260   1.130   3.782  16.944  0.7901 -1.5445  1.8754
    2MPD1     N14261   1.582   3.869  16.974 -0.2625 -0.6482 -0.3796
    2MPD1    H514262   1.665   3.885  16.917  0.9541 -1.2591  1.2063
    2MPD1    N114263   1.359   3.792  16.559  0.1559  0.6781  0.0859
    2MPD1    H614264   1.425   3.854  16.514  1.9765 -0.5138  1.1319
    2MPD1    H714265   1.270   3.815  16.516 -0.7409  0.9402  2.0430
    3TCq2    C114266   1.597   3.857  17.116  0.5939 -0.0418 -0.5259
    3TCq2    O214267   1.528   3.822  17.207  0.1257  0.3895  0.5746
    3TCq2    C214268   1.724   3.918  17.162 -0.7466  0.3671 -0.1233
    3TCq2    C314269   1.747   3.886  17.295 -0.0030 -0.2624 -0.1316
    3TCq2    C414270   1.844   3.959  17.355 -0.1761 -0.1354 -0.3239
    3TCq2    C514271   1.892   4.075  17.296 -0.0949  1.1231  0.5336
    3TCq2    C614272   1.871   4.090  17.161  0.5419 -0.1651 -0.5477
    3TCq2    C714273   1.784   4.007  17.084  0.3085  0.5030 -0.0435
    3TCq2    C814274   1.964   4.167  17.082 -0.6797 -0.1329  0.9184
    3TCq2    O414275   1.994   4.117  16.973 -0.6081 -0.2643  0.4061
    3TCq2    C914276   1.891   3.906  17.491 -0.6829  0.5635  0.7700
    3TCq2    O514277   1.852   3.798  17.538 -0.2556 -0.0801 -0.2504
    3TCq2    O614278   1.990   3.970  17.534 -0.5417  0.0787  0.0598
    3TCq2    H214279   1.702   3.798  17.338 -2.7877  1.0133 -0.4204
    3TCq2    H314280   1.967   4.131  17.351  1.3956 -0.6373  0.3109
    3TCq2    H414281   1.770   4.034  16.980 -0.0957  1.6378  0.2972
    1TCq1    O114282   0.144   4.037  13.081 -0.2952  0.5824  0.1895
    1TCq1    C114283   0.085   3.929  13.143 -0.4757  0.1298 -0.0625
    1TCq1    O214284   0.043   3.914  13.257  0.6001  0.5477  0.5435
    1TCq1    C214285   0.050   3.831  13.038  0.3140  0.1276  0.0183
    1TCq1    C314286   4.718   3.874  12.921  0.2314 -0.1575  0.3644
    1TCq1    C414287   4.670   3.788  12.831  0.0133 -0.2352  0.3334
    1TCq1    C514288   4.661   3.654  12.861 -0.3158  0.1631 -0.5584
    1TCq1    C614289   4.705   3.612  12.982 -0.2988  0.6333 -0.0303
    1TCq1    C714290   0.042   3.702  13.068 -0.7965 -0.3793  0.1991
    1TCq1    C814291   4.718   3.467  13.013 -0.3469 -0.2370  0.2151
    1TCq1    O414292   4.702   3.389  12.918  0.2461 -0.2659 -0.1221
    1TCq1    C914293   4.633   3.833  12.705  0.0449  0.0136 -0.4719
    1TCq1    O514294   4.589   3.750  12.625  0.4118 -0.4525 -0.3010
    1TCq1    O614295   4.669   3.946  12.667 -0.5400 -0.3114  0.5793
    1TCq1    H114296   0.198   4.005  13.005 -2.4476  0.2979 -1.2215
    1TCq1    H214297   4.717   3.980  12.899 -0.4446 -0.3036 -0.2868
    1TCq1    H314298   4.618   3.582  12.792  0.5854 -2.6422  1.8134
    1TCq1    H414299   0.069   3.666  13.167  0.8945  0.2809 -0.0184
    2MPD2     C14300   0.147   3.227  13.094  0.2350  0.8106 -0.1396
    2MPD2    C114301   0.095   3.322  13.184 -0.0079 -0.9688 -0.3450
    2MPD2    C214302   0.121   3.303  13.321 -0.6376 -0.2260 -0.0050
    2MPD2    C314303   0.188   3.195  13.367  0.3170 -0.3861 -0.3578
    2MPD2    C414304   0.218   3.098  13.284 -0.2858 -0.3218 -0.8461
    2MPD2    C514305   0.193   3.113  13.149 -0.2595  0.5752 -0.6868
    2MPD2     H14306   0.080   3.369  13.397 -0.5776 -2.2965  1.7956
    2MPD2    H114307   0.250   2.999  13.314  1.2634  0.1913 -0.8484
    2MPD2    H214308   0.149   3.243  12.987 -0.3458 -0.7953 -0.3949
    2MPD2    H314309   0.216   3.037  13.075  1.1220 -1.0490  1.4056
    2MPD2     N14310   0.212   3.190  13.503  0.1490 -0.5698 -0.0473
    2MPD2    H514311   0.169   3.262  13.560  1.0220  0.2655 -0.4433
    2MPD2    N114312   0.043   3.443  13.141 -0.7111  0.3467  0.4070
    2MPD2    H714313   0.027   3.508  13.217 -0.2670  0.2423  0.5879
    3TCq1    O114314   0.121   3.437  13.902  0.4993 -0.5209 -0.1209
    3TCq1    C114315   0.235   3.389  13.957  0.3751 -0.3081 -0.8539
    3TCq1    O214316   0.299   3.437  14.052 -0.5599  0.8434  0.1568
    3TCq1    C214317   0.275   3.261  13.895 -0.2879  0.0122  0.1860
    3TCq1    C314318   0.321   3.160  13.972 -0.7205  0.2015  0.3111
    3TCq1    C414319   0.365   3.041  13.915  0.7511  0.9039 -0.0663
    3TCq1    C514320   0.375   3.029  13.780  0.1287  0.7267  0.1089
    3TCq1    C614321   0.321   3.129  13.702 -0.0665 -0.5094 -0.4519
    3TCq1    C714322   0.279   3.252  13.753  0.3221  0.2814  0.2159
    3TCq1    C814323   0.289   3.097  13.567 -0.0286 -0.1865  0.3966
    3TCq1    O414324   0.339   2.992  13.524 -0.3501  0.3832 -0.4894
    3TCq1    C914325   0.413   2.939  14.006 -0.0546 -0.1113 -0.3942
    3TCq1    O514326   0.477   2.849  13.954 -0.1953 -0.6513 -0.5362
    3TCq1    O614327   0.399   2.965  14.130 -0.0496 -0.3502  0.3341
    3TCq1    H114328   0.096   3.381  13.826 -0.8532 -0.3838  0.2087
    3TCq1    H214329   0.331   3.183  14.078  1.4503 -1.7507  0.5169
    3TCq1    H314330   0.418   2.939  13.738 -1.8756  0.3383 -1.1709
    3TCq1    H414331   0.264   3.342  13.695 -1.7290  0.5506  1.1886
    1MPD2     C14332   4.116   3.269  15.606  0.0826 -0.0432 -0.4700
    1MPD2    C114333   4.019   3.301  15.516 -0.7913 -0.4368  0.2560
    1MPD2    C214334   4.060   3.317  15.384  0.1103  0.4556  0.4846
    1MPD2    C314335   4.190   3.298  15.351  0.0407  0.2000 -0.5536
    1MPD2    C414336   4.284   3.271  15.442 -0.3345  0.1286  0.2222
    1MPD2    C514337   4.247   3.249  15.567  0.8256  0.2706  0.2680
    1MPD2     H14338   3.994   3.336  15.301  2.3065  0.8524 -1.1680
    1MPD2    H114339   4.390   3.274  15.420 -0.0946  0.5931  1.4288
    1MPD2    H214340   4.084   3.256  15.708  2.2461  1.3604  0.3790
    1MPD2    H314341   4.321   3.234  15.645  1.3642 -0.6744 -0.4249
    1MPD2     N14342   4.222   3.327  15.215 -0.0599 -0.2570  0.2781
    1MPD2    H514343   4.140   3.354  15.163 -0.1306 -0.1030  0.4688
    1MPD2    N114344   3.882   3.297  15.547 -0.0905 -0.0514  0.5303
    1MPD2    H714345   3.865   3.275  15.645 -0.7170  0.6621  0.5873
    2TMC3    C114346   3.655   3.251  15.518  0.3770  0.4660  0.6115
    2TMC3    C214347   3.590   3.165  15.427 -0.1191  0.1600 -0.2698
    2TMC3    C314348   3.468   3.200  15.377 -0.5673 -0.1482  0.0833
    2TMC3    C414349   3.596   3.362  15.563 -0.3004  1.3260 -0.0137
    2TMC3    C514350   3.481   3.397  15.495  0.5351  0.3550 -0.5104
    2TMC3    C614351   3.412   3.319  15.412 -0.5731  0.7266  0.9369
    2TMC3     C14352   3.781   3.292  15.459 -0.1941  0.4416 -0.7816
    2TMC3     O14353   3.783   3.286  15.337 -0.1186  0.0830 -0.0353
    2TMC3     H14354   3.629   3.065  15.414  0.0826  0.3260 -0.9726
    2TMC3    H114355   3.649   3.430  15.630 -0.5832  1.9659 -0.4330
    2TMC3    H214356   3.320   3.352  15.365 -0.5622 -1.3389 -0.5414
    2TMC3    C714357   3.445   3.538  15.514  0.4468 -0.5885 -0.0801
    2TMC3    C814358   3.449   3.170  15.242 -0.7840 -0.0133 -0.8794
    2TMC3    O114359   3.457   3.589  15.626  0.1835 -0.4626 -0.1434
    2TMC3    O214360   3.337   3.148  15.201 -0.2232 -0.1547  0.3896
    3TCq1    O114361   3.370   4.119  14.534  0.0086  0.0626  0.1274
    3TCq1    C114362   3.308   4.225  14.591  0.7931 -0.0521  0.0182
    3TCq1    O214363   3.365   4.332  14.610  1.0569  0.1835 -0.4377
    3TCq1    C214364   3.228   4.157  14.689  0.1628 -0.3099 -0.3046
    3TCq1    C314365   3.119   4.085  14.650 -0.0510 -0.0223 -0.6746
    3TCq1    C414366   3.070   3.982  14.729 -0.8753  0.0920 -0.3565
    3TCq1    C514367   3.125   3.964  14.850 -0.0114 -0.5743 -0.1866
    3TCq1    C614368   3.235   4.035  14.889 -1.0669  0.5702 -0.3838
    3TCq1    C714369   3.287   4.140  14.813  0.5059  0.1859 -0.6628
    3TCq1    C814370   3.263   4.048  15.027 -0.3156 -0.0716 -0.2886
    3TCq1    O414371   3.267   4.164  15.067 -0.2483  0.1820  0.1030
    3TCq1    C914372   2.949   3.908  14.697 -0.9035  0.2527 -0.0336
    3TCq1    O514373   2.946   3.787  14.740 -0.0268 -0.0373 -0.1579
    3TCq1    O614374   2.882   3.950  14.601  0.7557 -0.2000  0.2922
    3TCq1    H114375   3.304   4.047  14.540 -1.6307  1.5017 -0.5821
    3TCq1    H214376   3.070   4.100  14.555 -1.6102  1.0700  0.3195
    3TCq1    H314377   3.083   3.897  14.924  2.1647  1.0698  2.5516
    3TCq1    H414378   3.381   4.192  14.835  0.0100  0.3745  1.0280
    4MPD2     C14379   3.292   3.997  15.322  0.1909 -0.0014  0.1160
    4MPD2    C114380   3.307   3.905  15.224  0.1853 -0.1187  0.1614
    4MPD2    C214381   3.342   3.777  15.255  0.0177  0.3604  0.0058
    4MPD2    C314382   3.369   3.736  15.383 -0.4878 -0.7353 -0.3334
    4MPD2    C414383   3.348   3.820  15.486  0.1481 -0.1368  0.7340
    4MPD2    C514384   3.313   3.947  15.451 -0.7353 -0.2646 -0.5613
    4MPD2     H14385   3.343   3.693  15.187  0.8748  1.3219 -1.1475
    4MPD2    H114386   3.368   3.800  15.591 -3.6437  0.6996  1.6124
    4MPD2    H214387   3.260   4.099  15.304 -0.0712 -0.0702  0.1865
    4MPD2    H314388   3.308   4.021  15.531 -2.5779 -1.7677  0.7046
    4MPD2     N14389   3.401   3.602  15.400  0.1700  0.0719  0.4654
    4MPD2    H514390   3.412   3.543  15.318  0.1550  0.6756  0.0302
    4MPD2    N114391   3.289   3.930  15.089  0.0338 -0.3996 -0.3341
    4MPD2    H714392   3.297   3.849  15.028  1.1079  0.7729 -1.7670
    5TMC2    C114393   4.136   3.313  14.888 -0.1259  0.3967  0.3755
    5TMC2    C214394   4.197   3.211  14.819 -0.3632 -0.0257 -0.2340
    5TMC2    C314395   4.335   3.196  14.835  0.7310 -0.2679 -0.2221
    5TMC2    C414396   4.208   3.386  14.983 -0.1664  0.2416  0.4080
    5TMC2    C514397   4.338   3.348  15.016  0.0577 -0.2319  0.6349
    5TMC2    C614398   4.409   3.255  14.939 -0.6424 -0.3604 -0.2425
    5TMC2     C14399   4.005   3.276  14.933 -0.1289 -0.2440  0.3012
    5TMC2     O14400   3.980   3.348  15.029 -0.4858  0.0135 -0.4840
    5TMC2     H14401   4.158   3.185  14.721 -0.8254  0.6978 -0.2484
    5TMC2    H114402   4.169   3.471  15.039  1.7626  1.7475 -0.5319
    5TMC2    H214403   4.510   3.221  14.957  0.0194  0.7237 -1.8623
    5TMC2    C714404   4.343   3.314  15.152 -0.5825 -0.2867  0.6181
    5TMC2    C814405   4.411   3.136  14.725  0.2414  0.0586 -0.0140
    5TMC2    O114406   4.448   3.278  15.206  0.0331  0.0131  0.6414
    5TMC2    O214407   4.530   3.144  14.718 -0.6018  0.4212 -0.2958
    5TMC2    O514408   4.339   3.055  14.643 -0.6034 -0.5967 -0.1960
    5TMC2    H514409   4.248   3.027  14.662 -1.6537  1.1840 -2.6054
    6MPD2     C14410   3.524   3.090  14.959  0.3430 -0.4186 -0.7760
    6MPD2    C114411   3.605   3.144  15.056  0.2792  0.9962  0.2458
    6MPD2    C214412   3.737   3.180  15.019 -0.1157  0.1345  0.1593
    6MPD2    C314413   3.790   3.156  14.898  0.1287 -0.5556 -0.3827
    6MPD2    C414414   3.706   3.101  14.798 -0.2009 -0.4657  0.4364
    6MPD2    C514415   3.572   3.077  14.828  0.0424 -0.1195 -0.0761
    6MPD2     H14416   3.805   3.226  15.089  2.8274 -0.0578 -2.5641
    6MPD2    H114417   3.736   3.099  14.693 -1.1174 -2.0106  0.1966
    6MPD2    H214418   3.419   3.078  14.979  0.6000 -2.4062 -0.5700
    6MPD2    H314419   3.504   3.045  14.750 -0.8837  0.0809  0.6455
    6MPD2     N14420   3.923   3.189  14.863 -0.3525  0.3225  0.1128
    6MPD2    H514421   3.962   3.161  14.773  0.5283 -0.9496  0.8870
    6MPD2    N114422   3.564   3.183  15.183  0.5226  0.0608 -0.4742
    6MPD2    H714423   3.643   3.221  15.233 -0.0091  1.1430 -0.4579
  945NH4     N114424   4.566   2.480  10.283  0.0052  0.2170  0.5213
  945NH4     H214425   4.546   2.565  10.338 -0.8986 -0.7895  1.7406
  945NH4     H314426   4.662   2.472  10.243  0.0695  1.0808  0.5209
  945NH4     H414427   4.504   2.466  10.201 -1.8104 -2.8471  2.4259
  945NH4     H514428   4.561   2.399  10.348  0.2118  0.2757  0.6105
  946SOD     NA14429   4.496   1.940  10.241 -0.1965 -0.0680 -0.0539
  947SOD     NA14430   0.938   4.213  16.669  0.2880  0.5240 -0.1812
  948SOD     NA14431   1.189   1.626   7.910  0.2194 -0.0185 -0.6531
  949SOD     NA14432   0.055   1.250   8.016  0.3575  0.2100 -0.1527
  950SOD     NA14433   2.061   0.061   3.409  0.6557 -0.2821 -0.2735
  951SOD     NA14434   2.552   2.292   1.487  0.4533 -0.4878 -0.3546
  952SOD     NA14435   3.614   3.337   4.924  0.0105 -0.2385  0.2416
  953SOD     NA14436   4.599   3.908  12.459 -0.2719  0.1964 -0.0560
  954SOD     NA14437   4.507   0.657  12.507 -0.5623 -0.2656 -0.2305
  955SOD     NA14438   2.161   2.847   3.309 -0.0436  0.0620 -0.3783
  956SOD     NA14439   4.623   4.521  16.989 -0.1772 -0.2784  0.3052
  957SOD     NA14440   2.473   0.985  14.625  0.0033 -0.1934  0.2538
  958SOD     NA14441   4.314   2.240  10.201 -0.3051  0.0829  0.1838
  959SOD     NA14442   1.603   2.380  11.646  0.2935  0.0369 -0.1536
  960SOD     NA14443   0.532   3.349   9.088 -0.5556 -0.4178 -0.2925
  961SOD     NA14444   3.696   4.375   4.120  0.6150 -0.1227 -0.1971
  962SOD     NA14445   2.668   4.561   1.790 -0.1830 -0.4582  0.4516
  963SOD     NA14446   2.015   3.868   0.257 -0.3406  0.2854  0.3612
  964SOD     NA14447   4.707   0.492   4.056 -0.0338 -0.2952 -0.3936
  965SOD     NA14448   4.021   1.294   2.935  0.1871 -0.2919 -0.0149
  966SOD     NA14449   1.308   2.125   1.075 -0.0881  0.2801  0.1959
  967SOD     NA14450   0.587   3.908  11.930 -0.3874  0.7355  0.5838
  968SOD     NA14451   2.060   3.754  15.462  0.0663  0.0260 -0.3356
  969SOD     NA14452   0.498   2.360  11.203 -0.0689  0.0279  0.3893
  970SOD     NA14453   3.825   1.140  10.000  0.3816 -0.1738  0.4035
  971SOD     NA14454   4.630   3.274  11.053 -0.3511 -0.2046 -0.2936
  972SOD     NA14455   1.789   1.585  13.592  0.1235 -0.3486 -0.4501
  973SOD     NA14456   4.258   2.440   9.897  0.1064  0.1465  0.7399
  974SOD     NA14457   3.478   1.044   9.339  0.4713  0.1254  0.2590
  975SOD     NA14458   2.416   1.089  13.563  0.1757  0.5624  0.1874
  976SOD     NA14459   3.489   2.169  15.524 -0.1833 -0.1773 -0.1754
  977SOD     NA14460   0.543   2.430  15.217  0.1372  0.4119 -0.1551
  978SOD     NA14461   1.175   1.149   0.107 -0.2842  0.2518 -0.2667
  979SOD     NA14462   0.291   2.015  11.141  0.2405  0.2392 -0.1495
  980SOD     NA14463   0.672   2.761  13.958  0.3027 -0.3235  0.0162
  981SOD     NA14464   1.550   3.179  14.673 -0.5053  0.1909 -0.1825
  982SOD     NA14465   3.292   1.767  11.764  0.3143  0.3583 -0.5513
  983SOD     NA14466   4.452   1.821   2.247 -0.8062 -0.0221 -0.0249
  984SOD     NA14467   2.005   1.361   0.709  0.1382 -0.1684  0.4391
  985SOD     NA14468   3.625   4.416   5.918 -0.1434  0.0479  0.2011
  986SOD     NA14469   3.689   1.632  15.611 -0.0467 -0.0506 -0.1904
  987SOD     NA14470   2.064   2.130  14.598  0.7338  0.2998  0.4594
  988SOD     NA14471   3.557   4.412  14.635  0.0554  0.1455  0.0190
  989SOD     NA14472   0.001   0.690   1.408 -0.0565  0.1346 -0.0005
  990SOD     NA14473   1.353   2.707  10.636  0.1008  0.0508 -0.5913
  991SOD     NA14474   3.029   2.065  11.665 -0.2558 -0.1097  0.2380
  992SOD     NA14475   2.895   3.062  13.100 -0.1443 -0.2087  0.1275
  993SOD     NA14476   4.003   4.162  15.526 -0.0761  0.0277  0.0007
  994SOD     NA14477   1.057   3.239  13.027  0.3995 -0.1887  0.2090
  995SOD     NA14478   3.607   1.319  10.781 -0.3651 -0.4303  0.3666
  996SOD     NA14479   3.308   3.308  10.812  0.3519  0.3859 -0.3385
  997SOD     NA14480   2.384   4.242  16.169  0.0903 -0.0403 -0.1652
  998SOD     NA14481   4.449   3.594  12.582 -0.0045  0.5637  0.1167
  999SOD     NA14482   0.136   2.558  12.416 -0.2862 -0.5538  0.4641
 1000SOD     NA14483   1.549   3.296   2.326 -0.3222 -0.3208 -0.8381
 1001SOD     NA14484   1.563   3.687  13.909 -0.1010  0.3449  0.4050
 1002SOD     NA14485   2.250   0.578  10.980 -0.3495  0.3489 -0.2286
 1003SOD     NA14486   0.402   2.885   0.775  0.2265  0.2652 -0.1654
 1004SOD     NA14487   3.370   2.443   8.259 -0.0254  0.1499 -0.3888
 1005SOD     NA14488   0.643   0.378  17.071 -0.5834 -0.0852 -0.3466
 1006SOD     NA14489   0.677   3.869  12.256  0.3917  0.1346  0.3763
 1007SOD     NA14490   1.549   3.855  16.211  0.5639 -0.5576  0.0043
 1008SOD     NA14491   2.557   3.063   2.139 -0.4631 -0.0864  0.4337
 1009SOD     NA14492   1.718   3.480  11.388 -0.0055  0.3870  0.1247
 1010SOD     NA14493   3.439   0.668  16.263 -0.2588 -0.6990  0.2859
 1011SOL     OW14494   0.193   2.634  14.810 -0.2273 -0.3254  0.2942
 1011SOL    HW114495   0.281   2.659  14.837 -0.4069  0.3857  0.2145
 1011SOL    HW214496   0.205   2.562  14.747 -0.5881  0.2395 -0.4230
 1012SOL     OW14497   4.169   4.152  10.993 -0.0259  0.1732 -0.6722
 1012SOL    HW114498   4.118   4.191  11.064 -1.8096 -1.0531 -1.2666
 1012SOL    HW214499   4.256   4.189  11.001  0.2867 -0.4781 -1.0773
 1013SOL     OW14500   3.022   1.290   2.183 -0.1726  0.2134 -0.3180
 1013SOL    HW114501   3.036   1.203   2.148 -1.3359 -0.7125  1.4791
 1013SOL    HW214502   3.113   1.317   2.192 -0.4357  1.4139 -1.2697
 1014SOL     OW14503   0.216   2.021   1.708 -0.3853 -0.2984 -0.3504
 1014SOL    HW114504   0.145   1.972   1.750  0.2295 -0.4387  0.5230
 1014SOL    HW214505   0.175   2.045   1.625  0.3696 -0.3662 -0.7436
 1015SOL     OW14506   2.976   4.282   4.532  0.7864 -0.0439  0.1770
 1015SOL    HW114507   2.975   4.274   4.628  0.0106 -0.1002  0.1604
 1015SOL    HW214508   2.925   4.361   4.516  0.3040 -0.5787 -0.8988
 1016SOL     OW14509   2.870   1.697  15.234  0.4015  0.5497 -0.4446
 1016SOL    HW114510   2.858   1.741  15.150  0.3370  0.8526 -0.2740
 1016SOL    HW214511   2.902   1.769  15.288 -2.7525  0.8721  1.0358
 1017SOL     OW14512   0.468   1.733   1.128  0.1488 -0.1252  0.7112
 1017SOL    HW114513   0.434   1.651   1.165  1.2571 -0.9827 -0.1968
 1017SOL    HW214514   0.524   1.697   1.060 -0.9168 -2.0326  0.8213
 1018SOL     OW14515   1.580   3.113   9.912 -0.2868  0.6004  0.2406
 1018SOL    HW114516   1.510   3.048   9.906 -0.1427  0.7893 -3.4697
 1018SOL    HW214517   1.628   3.068   9.981 -0.2610  1.2519  0.6421
 1019SOL     OW14518   2.465   4.618   1.529  0.1920 -0.0952 -0.1656
 1019SOL    HW114519   2.398   4.572   1.581 -0.4864  1.6742  0.5296
 1019SOL    HW214520   2.438   4.709   1.536  0.5253  0.0459 -0.7363
 1020SOL     OW14521   2.421   1.393   5.618  0.1408  0.1823  0.4887
 1020SOL    HW114522   2.361   1.417   5.688 -2.2400 -0.1554 -1.4337
 1020SOL    HW214523   2.440   1.481   5.584 -2.3969  1.4001  2.2788
 1021SOL     OW14524   4.679   3.572  15.902  0.2984 -0.6040 -0.3445
 1021SOL    HW114525   4.698   3.555  15.809 -1.6456  0.3656 -0.9206
 1021SOL    HW214526   4.585   3.578  15.884  0.2029 -1.3229 -0.0947
 1022SOL     OW14527   3.428   4.618  14.542 -0.0999 -0.1797 -0.1747
 1022SOL    HW114528   3.343   4.590  14.510 -0.1863  0.9555 -0.9125
 1022SOL    HW214529   3.483   4.569  14.481 -1.9089 -0.2290 -1.7536
 1023SOL     OW14530   3.930   3.655   2.777 -0.0646  0.5685  0.7206
 1023SOL    HW114531   3.835   3.661   2.774 -0.2267 -1.8223  0.6719
 1023SOL    HW214532   3.954   3.691   2.863  0.2731  0.3671  0.7119
 1024SOL     OW14533   4.378   2.771   3.370 -0.5929  0.6147  0.1822
 1024SOL    HW114534   4.320   2.707   3.329 -1.2181  2.1536 -1.3439
 1024SOL    HW214535   4.465   2.735   3.351 -0.8179  0.5118 -0.6600
 1025SOL     OW14536   1.778   4.477  10.688  0.2506  0.1082 -0.0698
 1025SOL    HW114537   1.799   4.569  10.674 -1.1439  0.0819 -2.3180
 1025SOL    HW214538   1.858   4.446  10.731  0.6647  0.2731 -0.7370
 1026SOL     OW14539   2.896   0.374   2.965 -0.2926 -0.4237  0.3164
 1026SOL    HW114540   2.920   0.407   2.879  2.1862 -1.7658  0.5045
 1026SOL    HW214541   2.986   0.368   2.997 -0.3283 -2.7302 -0.0024
 1027SOL     OW14542   0.485   4.402   8.622  0.1966  0.9184 -1.0961
 1027SOL    HW114543   0.464   4.342   8.551 -0.3719 -0.7402  0.4809
 1027SOL    HW214544   0.480   4.345   8.698 -2.4585  1.8946 -0.5272
 1028SOL     OW14545   3.725   4.276   8.154 -0.9009  0.9226  0.1522
 1028SOL    HW114546   3.728   4.222   8.074  0.4430  3.2063 -1.3360
 1028SOL    HW214547   3.640   4.319   8.155 -1.3688  0.0361 -1.1425
 1029SOL     OW14548   0.391   2.242  15.283 -0.2498 -0.1644  0.1490
 1029SOL    HW114549   0.310   2.259  15.332 -1.9121  1.2690 -3.0811
 1029SOL    HW214550   0.352   2.234  15.196  0.5504 -1.1392 -0.1200
 1030SOL     OW14551   0.740   2.441   4.525  0.2498  0.1625  0.6229
 1030SOL    HW114552   0.696   2.501   4.585 -2.2796 -0.7871 -0.2870
 1030SOL    HW214553   0.736   2.358   4.573  1.6433 -1.2097 -1.6259
 1031SOL     OW14554   1.327   0.887  13.180 -0.2452  0.4536 -0.1255
 1031SOL    HW114555   1.412   0.917  13.213  0.2948 -3.1599  1.7667
 1031SOL    HW214556   1.264   0.899  13.250  0.4509 -3.5552  1.1903
 1032SOL     OW14557   2.378   0.549   5.640 -0.2544  0.0467  0.1045
 1032SOL    HW114558   2.466   0.588   5.643 -0.2467  0.0237  0.1987
 1032SOL    HW214559   2.329   0.612   5.588 -0.9335  0.0584  0.7541
 1033SOL     OW14560   3.455   2.344   8.700  0.3065 -0.2320 -0.2925
 1033SOL    HW114561   3.361   2.351   8.720  0.5035  0.1164  0.5331
 1033SOL    HW214562   3.490   2.432   8.688  0.3493  0.0048  1.4786
 1034SOL     OW14563   0.597   1.998   9.892 -0.1220  0.4245 -0.3701
 1034SOL    HW114564   0.569   1.907   9.902 -2.1215  1.2905  1.9462
 1034SOL    HW214565   0.643   2.009   9.975  0.1373  0.7777 -0.5575
 1035SOL     OW14566   1.059   2.378  10.280  0.2000 -0.7985 -0.3201
 1035SOL    HW114567   0.998   2.387  10.353  1.8261  0.1974  0.9124
 1035SOL    HW214568   1.000   2.370  10.205 -0.7086  0.4249  0.2568
 1036SOL     OW14569   0.324   2.917   7.037 -0.1417 -0.2996  0.3381
 1036SOL    HW114570   0.249   2.901   6.980 -0.8905  0.0802  1.2112
 1036SOL    HW214571   0.381   2.974   6.985 -1.1356  0.3741 -0.0109
 1037SOL     OW14572   2.107   4.169  10.842  1.0488  0.3004  0.7091
 1037SOL    HW114573   2.058   4.250  10.837  2.9488  1.3692 -0.9864
 1037SOL    HW214574   2.193   4.200  10.813  1.3897  0.4213  1.8735
 1038SOL     OW14575   0.751   1.101   8.815  0.1046 -0.5515 -0.2593
 1038SOL    HW114576   0.695   1.091   8.892  1.1042  0.8969  0.6739
 1038SOL    HW214577   0.782   1.011   8.809 -0.1238 -0.5752 -1.0803
 1039SOL     OW14578   4.498   3.240  17.580 -0.5390 -0.0364 -0.0064
 1039SOL    HW114579   4.592   3.224  17.574 -0.7542 -1.3151  0.0102
 1039SOL    HW214580   4.503   3.336  17.581  0.0938 -0.0921  1.7353
 1040SOL     OW14581   3.681   4.706   5.647 -0.2855  0.4686 -0.4112
 1040SOL    HW114582   3.684   0.036   5.726 -0.1766 -0.9025  0.5323
 1040SOL    HW214583   3.663   0.047   5.580  2.1823  1.2713 -0.2773
 1041SOL     OW14584   2.620   3.225   1.838 -0.1835 -0.1985  0.1495
 1041SOL    HW114585   2.542   3.212   1.891  0.5465 -0.0793  1.2587
 1041SOL    HW214586   2.633   3.320   1.833  0.1490 -0.3022 -0.9242
 1042SOL     OW14587   3.555   4.501  15.597  0.3338 -0.0659  0.3085
 1042SOL    HW114588   3.520   4.588  15.618 -1.2767  0.7310 -5.7195
 1042SOL    HW214589   3.640   4.525  15.559  0.1501  0.5816  0.2968
 1043SOL     OW14590   3.121   1.135   4.859  1.0447 -0.2347 -0.3149
 1043SOL    HW114591   3.176   1.181   4.796 -1.3716  3.6655  0.4510
 1043SOL    HW214592   3.044   1.186   4.882 -0.5161 -2.1032 -1.3717
 1044SOL     OW14593   3.559   3.439   2.949 -0.0725  0.8373 -0.1347
 1044SOL    HW114594   3.481   3.430   2.894  0.0212  0.0312 -0.1355
 1044SOL    HW214595   3.599   3.353   2.936 -0.6174  0.3469  1.4917
 1045SOL     OW14596   4.041   0.201   7.275  0.2675 -0.4889  0.2391
 1045SOL    HW114597   4.108   0.210   7.206  1.6382  1.8029  1.8613
 1045SOL    HW214598   4.094   0.147   7.333  0.9405 -1.4463 -1.2649
 1046SOL     OW14599   4.366   4.496   8.601 -0.0949 -0.4119 -0.5101
 1046SOL    HW114600   4.459   4.489   8.620  0.2958  1.3213 -1.8128
 1046SOL    HW214601   4.373   4.544   8.519  2.0561  0.5252  0.2331
 1047SOL     OW14602   0.354   2.601   3.977 -0.4092 -0.7213  0.4466
 1047SOL    HW114603   0.334   2.541   3.905 -0.1427  0.9050 -0.9824
 1047SOL    HW214604   0.289   2.671   3.968  1.6842  0.7248 -3.2614
 1048SOL     OW14605   1.432   0.825   3.883 -0.1307 -0.8202 -0.1132
 1048SOL    HW114606   1.487   0.747   3.880  1.2262  0.1359 -0.0527
 1048SOL    HW214607   1.350   0.793   3.845 -0.8485  0.3714  0.4221
 1049SOL     OW14608   4.606   2.871   4.290 -0.5760  0.1301 -0.1540
 1049SOL    HW114609   4.598   2.781   4.258 -0.2280 -0.7895  2.3399
 1049SOL    HW214610   4.522   2.874   4.335  0.1019  1.8234  0.9721
 1050SOL     OW14611   1.690   2.131  14.415  0.2471  0.4998 -0.1236
 1050SOL    HW114612   1.745   2.196  14.459 -0.6471  0.9770  0.2747
 1050SOL    HW214613   1.743   2.054  14.435 -1.0879 -0.4041 -0.0296
 1051SOL     OW14614   2.393   3.457   8.999 -0.1951  0.9193 -0.2511
 1051SOL    HW114615   2.331   3.490   9.065 -1.0246  1.6550 -1.3977
 1051SOL    HW214616   2.454   3.531   8.993 -0.7790  1.4535  0.3516
 1052SOL     OW14617   3.038   0.877   4.087  0.3002 -0.2752 -0.3620
 1052SOL    HW114618   3.120   0.848   4.126 -0.0579  0.8930  1.2356
 1052SOL    HW214619   3.034   0.827   4.005  0.6542 -0.6965 -0.1246
 1053SOL     OW14620   0.932   0.678   1.947  0.3428 -0.1992 -0.3923
 1053SOL    HW114621   0.863   0.724   1.899 -1.2467 -1.5379  0.6029
 1053SOL    HW214622   0.989   0.658   1.872  1.1431  0.2714  0.1015
 1054SOL     OW14623   2.553   1.582   9.143  0.4751 -0.9956 -0.4743
 1054SOL    HW114624   2.570   1.504   9.196 -1.9283 -1.1811  0.0178
 1054SOL    HW214625   2.459   1.580   9.158  0.3654 -1.0764 -1.1530
 1055SOL     OW14626   2.594   4.133   2.204 -0.2339 -0.0007  0.3076
 1055SOL    HW114627   2.502   4.146   2.229 -0.9901 -1.9941 -1.4242
 1055SOL    HW214628   2.592   4.160   2.112  1.7869  1.1462  0.6021
 1056SOL     OW14629   2.464   2.964   2.715  0.2883  0.4875  0.1800
 1056SOL    HW114630   2.413   2.986   2.637 -0.0762 -0.8461  0.0497
 1056SOL    HW214631   2.475   2.870   2.705 -1.6481  0.2372  0.4223
 1057SOL     OW14632   0.700   2.874   1.852  0.5277 -0.1289  0.1612
 1057SOL    HW114633   0.679   2.892   1.944  1.8800  1.6209  0.1243
 1057SOL    HW214634   0.794   2.890   1.844  0.6920 -2.1909 -1.9608
 1058SOL     OW14635   4.338   2.028  10.110  0.2497 -0.1591  0.0534
 1058SOL    HW114636   4.358   2.056  10.020  1.8050  0.2481  0.5199
 1058SOL    HW214637   4.257   1.981  10.091  0.6608  0.3388 -2.9932
 1059SOL     OW14638   1.052   2.802   2.971 -0.0622 -0.8868 -0.5081
 1059SOL    HW114639   1.107   2.731   3.004 -0.5994 -1.6744 -1.3175
 1059SOL    HW214640   0.973   2.791   3.024 -0.6676 -2.5740 -1.7694
 1060SOL     OW14641   4.510   4.385  12.919 -0.7052  0.2659 -0.0474
 1060SOL    HW114642   4.489   4.454  12.856  2.2172  1.2347  0.0795
 1060SOL    HW214643   4.507   4.313  12.855  0.3395  0.7110 -0.5920
 1061SOL     OW14644   3.754   0.539   6.458  0.1653  0.2555  0.3555
 1061SOL    HW114645   3.807   0.526   6.537 -0.3833 -0.4534  0.5999
 1061SOL    HW214646   3.683   0.594   6.491  2.0087  2.4127  0.7436
 1062SOL     OW14647   1.653   2.055   9.263 -0.1157  0.1356 -0.0255
 1062SOL    HW114648   1.567   2.043   9.302 -0.1187  1.6044  0.4170
 1062SOL    HW214649   1.636   1.988   9.197  0.0664  0.3462 -0.2918
 1063SOL     OW14650   3.538   3.381   7.158 -0.0337  0.0207  0.1321
 1063SOL    HW114651   3.545   3.286   7.156 -0.4881 -0.0568  2.3681
 1063SOL    HW214652   3.531   3.404   7.251  0.1358  1.7828 -0.2788
 1064SOL     OW14653   2.650   0.250   7.843  0.1029  0.4320  0.1306
 1064SOL    HW114654   2.621   0.167   7.807  4.0032 -0.4997 -0.9334
 1064SOL    HW214655   2.723   0.266   7.782 -0.9252 -0.3767 -1.3136
 1065SOL     OW14656   0.782   4.669   0.789 -0.5102 -0.5321 -0.0741
 1065SOL    HW114657   0.845   0.013   0.765 -0.8244 -0.0630  0.4339
 1065SOL    HW214658   0.804   4.667   0.882  0.8688  0.2599 -0.3870
 1066SOL     OW14659   2.237   1.811  12.780 -0.1847  0.2099  0.5295
 1066SOL    HW114660   2.205   1.881  12.837  1.2977  0.6208  0.8445
 1066SOL    HW214661   2.165   1.781  12.724  0.6277  1.2734 -1.0664
 1067SOL     OW14662   2.239   1.171   2.719  0.5921  0.4864  0.4025
 1067SOL    HW114663   2.210   1.165   2.628  1.8936  0.2475  0.0040
 1067SOL    HW214664   2.296   1.247   2.714  0.5725  0.5264  0.8312
 1068SOL     OW14665   1.376   0.227   1.796  0.0710 -0.0868 -0.0065
 1068SOL    HW114666   1.436   0.170   1.748  0.6868  0.9556 -0.4740
 1068SOL    HW214667   1.419   0.311   1.809  1.1052 -0.4797 -0.8897
 1069SOL     OW14668   3.306   2.715  15.179 -0.3047  0.1209  0.5207
 1069SOL    HW114669   3.225   2.671  15.204  1.7336 -1.6401  3.9245
 1069SOL    HW214670   3.329   2.774  15.250  0.6016  1.7656 -1.1264
 1070SOL     OW14671   1.249   4.039   7.684 -0.0529 -0.1424  0.0663
 1070SOL    HW114672   1.180   4.013   7.622  1.8742 -1.5894 -1.4529
 1070SOL    HW214673   1.300   3.960   7.699 -0.0958 -0.2062 -0.1229
 1071SOL     OW14674   2.392   2.635   6.685 -0.0892  0.9423 -0.5678
 1071SOL    HW114675   2.445   2.635   6.606 -1.1018  1.1418 -1.2549
 1071SOL    HW214676   2.457   2.604   6.748  0.0662 -1.5824 -1.9774
 1072SOL     OW14677   2.298   0.262   7.939 -0.6481 -0.4606  0.1481
 1072SOL    HW114678   2.245   0.253   8.017 -0.0935 -0.6612  0.5027
 1072SOL    HW214679   2.295   0.168   7.920 -0.3980  0.2554 -3.5046
 1073SOL     OW14680   2.907   3.750   6.373  0.4323 -0.9635 -0.4606
 1073SOL    HW114681   2.969   3.725   6.441  1.5399 -1.3277 -1.5972
 1073SOL    HW214682   2.881   3.834   6.410  0.0280 -1.0467 -0.5474
 1074SOL     OW14683   2.623   3.827   7.121 -0.2645 -0.4671 -0.2115
 1074SOL    HW114684   2.630   3.829   7.216  0.3475  0.7374 -0.2811
 1074SOL    HW214685   2.627   3.920   7.098  0.2826 -0.7311 -1.1827
 1075SOL     OW14686   3.585   0.296   7.340  0.3089  0.2467  0.0825
 1075SOL    HW114687   3.633   0.219   7.308 -1.9712 -0.6570 -1.1476
 1075SOL    HW214688   3.505   0.256   7.374  1.1847 -0.8713  0.8483
 1076SOL     OW14689   0.634   2.380   9.885 -0.3730  0.9224  0.5147
 1076SOL    HW114690   0.559   2.321   9.896  0.2227  0.2060  0.7086
 1076SOL    HW214691   0.677   2.341   9.810  1.2790  1.0662  1.3929
 1077SOL     OW14692   1.608   0.859  17.394 -0.1509  0.6387  0.3727
 1077SOL    HW114693   1.669   0.795  17.430 -1.2663  1.2811  3.4097
 1077SOL    HW214694   1.523   0.834  17.429  0.3321  0.3860  1.3519
 1078SOL     OW14695   4.418   0.098  10.780  0.0657 -0.1090 -0.4610
 1078SOL    HW114696   4.451   0.187  10.769 -0.6441  0.6766  4.0178
 1078SOL    HW214697   4.495   0.052  10.814 -0.0324 -1.5568 -2.1820
 1079SOL     OW14698   3.492   0.403   8.971  0.3530 -0.1056 -0.6574
 1079SOL    HW114699   3.445   0.323   8.994  0.2308  0.3197  0.5189
 1079SOL    HW214700   3.428   0.448   8.915  0.8794 -1.0915 -2.0601
 1080SOL     OW14701   0.700   2.716   0.248  0.0721  0.3751  0.0046
 1080SOL    HW114702   0.638   2.692   0.317  2.0168 -1.5505  1.0913
 1080SOL    HW214703   0.781   2.673   0.275  0.4884  0.7044 -0.7306
 1081SOL     OW14704   3.962   3.428   3.961  0.3957 -0.3062  0.0234
 1081SOL    HW114705   3.874   3.403   3.989 -1.1803  0.3321 -4.3512
 1081SOL    HW214706   3.949   3.518   3.991 -1.3586  0.0513 -1.7519
 1082SOL     OW14707   2.118   2.501   7.415 -0.2777  0.5684 -0.0087
 1082SOL    HW114708   2.198   2.543   7.384  0.7956 -1.0535  0.5491
 1082SOL    HW214709   2.159   2.414   7.422 -2.8675 -0.5989  0.6025
 1083SOL     OW14710   3.586   0.820  15.593  0.6952 -0.3728 -0.5543
 1083SOL    HW114711   3.651   0.788  15.655  0.4249 -0.1069 -0.1392
 1083SOL    HW214712   3.507   0.769  15.606  1.2613 -1.0444  0.2408
 1084SOL     OW14713   2.918   2.497  15.550 -0.5743 -0.0784 -0.5654
 1084SOL    HW114714   2.856   2.539  15.491 -1.4992  0.7272  0.9751
 1084SOL    HW214715   2.982   2.462  15.488  0.7035 -0.6716  1.0977
 1085SOL     OW14716   2.793   2.970   7.480 -0.5774 -0.1481 -0.8815
 1085SOL    HW114717   2.725   2.939   7.420 -1.5090 -2.2009  1.2018
 1085SOL    HW214718   2.839   2.892   7.512 -2.1569 -0.4838  0.6046
 1086SOL     OW14719   1.373   1.153   9.383  0.3461  0.4825  0.3509
 1086SOL    HW114720   1.392   1.135   9.291  3.1141  0.8974  0.8396
 1086SOL    HW214721   1.453   1.195   9.413 -0.6291  1.5000  1.5227
 1087SOL     OW14722   2.174   2.701   6.816 -0.3445  0.3972 -0.1717
 1087SOL    HW114723   2.246   2.658   6.770  0.2329 -1.5927  2.6236
 1087SOL    HW214724   2.223   2.768   6.864  0.6329 -0.7580  0.4362
 1088SOL     OW14725   3.908   1.361   5.155  0.2565  0.1838  0.0445
 1088SOL    HW114726   3.938   1.324   5.238  0.4783  2.8349  1.1345
 1088SOL    HW214727   3.962   1.437   5.136 -2.7198  1.9732 -1.2304
 1089SOL     OW14728   4.082   1.709  16.377  0.1594 -0.6477 -0.3707
 1089SOL    HW114729   3.987   1.697  16.378 -0.2511  2.4453 -0.2915
 1089SOL    HW214730   4.088   1.768  16.452 -0.3440  1.0989 -1.6945
 1090SOL     OW14731   2.996   4.202  10.383  0.0484 -0.3866  0.1566
 1090SOL    HW114732   2.948   4.147  10.320  0.9385 -2.0385  0.9065
 1090SOL    HW214733   3.087   4.201  10.352 -0.2746 -0.1782 -0.8138
 1091SOL     OW14734   4.616   2.062   0.209 -0.0693 -0.3428  0.1391
 1091SOL    HW114735   4.605   2.088   0.117 -0.3225  2.7324  1.0279
 1091SOL    HW214736   4.579   1.974   0.205  0.3924 -0.5362  0.2054
 1092SOL     OW14737   3.238   0.488   7.919  0.1138 -0.2329 -0.1534
 1092SOL    HW114738   3.180   0.416   7.894  0.6103 -0.9319  0.7170
 1092SOL    HW214739   3.273   0.454   8.001  1.9745  0.3832 -0.6727
 1093SOL     OW14740   1.429   2.988   9.393 -0.4572  0.0404 -0.1969
 1093SOL    HW114741   1.482   2.912   9.368 -1.4344 -0.5422 -0.4724
 1093SOL    HW214742   1.353   2.939   9.425 -0.9480 -0.5531 -2.2981
 1094SOL     OW14743   1.534   1.092   3.815  0.5518 -0.6882 -0.1276
 1094SOL    HW114744   1.513   0.998   3.821 -1.3800 -0.1055  2.4299
 1094SOL    HW214745   1.582   1.110   3.896 -2.5206  2.4154  0.9974
 1095SOL     OW14746   1.463   1.121   9.114 -0.1148  0.4470  0.0991
 1095SOL    HW114747   1.425   1.081   9.035 -0.4559 -0.7678  0.8868
 1095SOL    HW214748   1.540   1.166   9.079 -1.4605  3.5306  1.1346
 1096SOL     OW14749   1.318   1.721  10.053  0.3583  0.2037  0.3418
 1096SOL    HW114750   1.296   1.706  10.145 -0.3830  1.4969  0.3834
 1096SOL    HW214751   1.246   1.778  10.024  1.4804  0.8850 -1.1266
 1097SOL     OW14752   4.650   0.692   5.727  0.7214 -0.0619 -0.2369
 1097SOL    HW114753   4.712   0.622   5.747 -0.3359 -0.0033  3.1688
 1097SOL    HW214754   4.677   0.712   5.637  3.3132  0.3810  0.6480
 1098SOL     OW14755   1.417   2.411   6.967  0.3129  0.2965  0.4505
 1098SOL    HW114756   1.461   2.493   6.989  0.2712  0.3365  0.3863
 1098SOL    HW214757   1.435   2.388   6.876 -0.5921  0.1769  0.3026
 1099SOL     OW14758   0.367   4.316   7.138 -0.1189  0.1159 -0.3018
 1099SOL    HW114759   0.451   4.360   7.153 -0.2864  0.7980 -1.3489
 1099SOL    HW214760   0.338   4.300   7.227  0.0534 -1.7645 -0.5683
 1100SOL     OW14761   1.506   0.018   2.664 -0.3028  0.1716  0.4155
 1100SOL    HW114762   1.496   0.077   2.589 -2.2743  0.4625  0.9124
 1100SOL    HW214763   1.458   4.667   2.630  1.6412 -1.1440  0.5954
 1101SOL     OW14764   1.317   1.990  10.578 -0.8529 -0.5319  0.4240
 1101SOL    HW114765   1.288   2.057  10.640 -0.2264 -0.4765  0.6586
 1101SOL    HW214766   1.325   1.905  10.622 -0.1398 -0.3208  0.7085
 1102SOL     OW14767   1.561   0.486  12.545  0.4677  0.5822  0.1236
 1102SOL    HW114768   1.477   0.521  12.575  0.7894  1.4922 -0.0644
 1102SOL    HW214769   1.620   0.560  12.553  0.7834  0.4413 -0.9127
 1103SOL     OW14770   3.366   3.665   8.376 -0.1015 -0.5928  0.5007
 1103SOL    HW114771   3.309   3.592   8.400 -0.6210 -0.7709 -1.2569
 1103SOL    HW214772   3.436   3.650   8.440 -0.2515 -1.9769  0.3256
 1104SOL     OW14773   0.273   1.443   4.593  0.3581 -0.0212  0.1537
 1104SOL    HW114774   0.297   1.368   4.648 -0.6554 -1.1900 -0.9991
 1104SOL    HW214775   0.178   1.439   4.586  0.4555 -0.9995 -0.6261
 1105SOL     OW14776   0.719   3.456   6.841  0.1099  0.0138 -0.4583
 1105SOL    HW114777   0.698   3.478   6.932  1.8209 -0.3963  0.0262
 1105SOL    HW214778   0.637   3.486   6.802 -0.3340  0.7986  1.0857
 1106SOL     OW14779   0.067   4.079   2.113 -0.1043  0.6407  0.5256
 1106SOL    HW114780   0.046   4.025   2.036  2.8784  0.8156 -0.4177
 1106SOL    HW214781   0.143   4.029   2.142  0.2432  1.0660  0.3449
 1107SOL     OW14782   0.208   4.650  15.573 -0.0909  0.5459  0.1935
 1107SOL    HW114783   0.292   4.628  15.534 -0.8421  0.0801 -1.1564
 1107SOL    HW214784   0.190   0.016  15.548  0.2115  1.0768  1.8972
 1108SOL     OW14785   0.338   2.147   5.573 -0.4259  0.7843  0.1592
 1108SOL    HW114786   0.343   2.119   5.482 -1.9406 -3.7432  1.4760
 1108SOL    HW214787   0.301   2.235   5.570 -1.4926  0.2848 -1.2596
 1109SOL     OW14788   2.651   4.074  16.797  0.5769  0.2360 -0.2606
 1109SOL    HW114789   2.621   3.997  16.844  0.8423 -0.5931 -1.4365
 1109SOL    HW214790   2.569   4.123  16.800  1.1227  1.2378 -1.6424
 1110SOL     OW14791   2.203   2.424   6.958  0.9123 -0.0456 -0.7903
 1110SOL    HW114792   2.115   2.458   6.972  1.0374  0.7864 -2.0628
 1110SOL    HW214793   2.259   2.489   7.001  0.1952  0.3199 -0.4196
 1111SOL     OW14794   4.110   1.269   8.662  0.8894 -0.1252 -0.3864
 1111SOL    HW114795   4.167   1.214   8.716  1.0344 -1.5513 -1.9980
 1111SOL    HW214796   4.056   1.198   8.628 -2.4547  1.7275  1.0113
 1112SOL     OW14797   1.169   0.966   9.455 -0.4216 -0.2064 -0.3461
 1112SOL    HW114798   1.172   1.030   9.384 -0.0758 -1.5564 -1.5263
 1112SOL    HW214799   1.210   0.899   9.402 -0.2028 -0.7903  0.5689
 1113SOL     OW14800   4.555   3.093   2.401  0.5424  0.9248 -0.4815
 1113SOL    HW114801   4.500   3.170   2.388 -0.4661  0.2519 -0.1845
 1113SOL    HW214802   4.552   3.086   2.496  0.8024 -0.2661 -0.5556
 1114SOL     OW14803   0.043   2.309   9.009  0.2313  0.3690  0.1398
 1114SOL    HW114804   0.030   2.307   9.103 -1.3657 -0.7152 -0.1062
 1114SOL    HW214805   0.071   2.400   8.993  1.2734 -0.1238 -0.8180
 1115SOL     OW14806   2.691   4.357  16.833  0.4459 -0.2461 -0.1968
 1115SOL    HW114807   2.727   4.308  16.907 -2.2708  1.8236  2.4903
 1115SOL    HW214808   2.776   4.388  16.800 -0.3430  0.1908 -1.8389
 1116SOL     OW14809   1.060   0.536   3.438 -0.1016 -0.2294 -0.1450
 1116SOL    HW114810   1.094   0.520   3.526 -2.5957 -1.7098  0.5444
 1116SOL    HW214811   1.108   0.465   3.394  1.7397  1.7376 -1.3228
 1117SOL     OW14812   2.889   0.043   5.095  0.0611 -0.4727 -0.0175
 1117SOL    HW114813   2.926   0.027   5.008  1.3833  1.3782  0.2089
 1117SOL    HW214814   2.877   0.137   5.096  2.1099 -0.1849 -2.9498
 1118SOL     OW14815   2.075   1.063   1.648  0.1825 -0.4836 -0.4590
 1118SOL    HW114816   2.055   1.128   1.581 -0.3568  1.1858  1.3505
 1118SOL    HW214817   1.985   1.039   1.669 -0.1874  1.2191 -0.1179
 1119SOL     OW14818   1.623   3.675   5.865 -0.4982  0.6427 -0.7016
 1119SOL    HW114819   1.709   3.680   5.824  0.0134 -1.0731  0.1708
 1119SOL    HW214820   1.569   3.618   5.810  4.1540 -2.0763 -2.4254
 1120SOL     OW14821   1.829   4.585   3.807  0.3028  0.5222  0.6420
 1120SOL    HW114822   1.806   4.584   3.714 -1.7584 -2.0378  1.2028
 1120SOL    HW214823   1.749   4.596   3.858 -2.2482  1.8521 -3.5813
 1121SOL     OW14824   4.319   3.710   7.143  0.6573 -0.1202  0.1526
 1121SOL    HW114825   4.341   3.683   7.232 -2.7347  1.1155  1.3579
 1121SOL    HW214826   4.288   3.630   7.102  0.4225 -0.6039  1.2773
 1122SOL     OW14827   3.140   2.529   7.366 -0.3696 -0.0855  0.0434
 1122SOL    HW114828   3.114   2.538   7.274 -0.7537  0.7419  0.2323
 1122SOL    HW214829   3.195   2.607   7.376  0.1781 -0.4213 -0.3403
 1123SOL     OW14830   0.975   4.087   6.509  0.7495  0.6216 -0.3924
 1123SOL    HW114831   1.050   4.030   6.493 -0.0296  0.2979 -2.8479
 1123SOL    HW214832   0.990   4.148   6.437 -1.2357  2.1584  0.4810
 1124SOL     OW14833   1.265   0.624   9.121 -0.0167 -0.6006  0.1199
 1124SOL    HW114834   1.240   0.715   9.102 -0.6078 -0.4423  1.6395
 1124SOL    HW214835   1.332   0.600   9.057  0.8451  0.9065  0.4330
 1125SOL     OW14836   3.992   0.583  11.870 -0.3038  0.1402  0.2546
 1125SOL    HW114837   3.947   0.657  11.912 -1.2809 -1.3340  1.8373
 1125SOL    HW214838   4.039   0.641  11.810  0.3308 -0.0504  0.5648
 1126SOL     OW14839   0.228   1.239   6.745 -0.5620 -0.7160  0.2852
 1126SOL    HW114840   0.274   1.291   6.679  0.5804  0.1337  1.7560
 1126SOL    HW214841   0.245   1.288   6.825  2.4050 -2.1759  0.5460
 1127SOL     OW14842   2.245   0.942   9.633 -0.5409 -0.5113  0.2968
 1127SOL    HW114843   2.256   1.028   9.593  0.6139 -1.1348 -0.6949
 1127SOL    HW214844   2.158   0.949   9.673 -0.0755  0.4968  1.1467
 1128SOL     OW14845   3.010   0.897   5.702  0.7101  0.1486  0.1606
 1128SOL    HW114846   2.924   0.856   5.693  0.2892  1.4247 -1.7159
 1128SOL    HW214847   2.993   0.908   5.795  1.1011 -2.4257  0.5282
 1129SOL     OW14848   3.019   1.024   4.411  0.1215 -0.2489  0.3115
 1129SOL    HW114849   2.931   1.054   4.390  0.3667 -0.3877 -0.9323
 1129SOL    HW214850   3.024   0.930   4.391 -6.5598 -0.5165 -0.0276
 1130SOL     OW14851   2.206   3.841   4.133  0.2427 -0.8801 -0.0339
 1130SOL    HW114852   2.286   3.790   4.116  0.2910  0.2255 -3.2418
 1130SOL    HW214853   2.201   3.840   4.228  1.3709  1.5194  0.0541
 1131SOL     OW14854   0.196   2.770   7.232 -0.2147  0.0197 -0.6129
 1131SOL    HW114855   0.240   2.740   7.153 -0.9710 -2.6978 -0.0320
 1131SOL    HW214856   0.248   2.845   7.262  1.7288 -1.3845 -0.4488
 1132SOL     OW14857   3.212   1.970   7.737 -0.2799 -0.5611  0.4801
 1132SOL    HW114858   3.141   1.918   7.774 -1.6233  0.2644 -0.9080
 1132SOL    HW214859   3.280   1.933   7.792  0.8060  1.5164  0.5650
 1133SOL     OW14860   3.613   0.073   9.912  0.0253 -0.2121  0.4709
 1133SOL    HW114861   3.626   4.705   9.891  2.4380  0.4498 -1.0166
 1133SOL    HW214862   3.659   0.119   9.841 -1.6593  0.9951  0.1652
 1134SOL     OW14863   4.196   4.642  16.078 -0.3366  0.4371 -0.2010
 1134SOL    HW114864   4.123   4.688  16.037 -0.7471 -1.1038 -1.2235
 1134SOL    HW214865   4.268   4.691  16.039  0.0228  2.4043  2.9848
 1135SOL     OW14866   0.786   2.067  16.548 -0.6987  0.1434  0.2262
 1135SOL    HW114867   0.780   2.112  16.632  0.8842  0.6125  0.0908
 1135SOL    HW214868   0.809   1.980  16.581  0.1468  0.6117  0.8777
 1136SOL     OW14869   3.238   3.457   6.444 -0.4965 -0.9761  0.4945
 1136SOL    HW114870   3.314   3.468   6.500 -0.5873  1.3383  0.1725
 1136SOL    HW214871   3.198   3.544   6.449  0.1377 -0.6380 -0.5535
 1137SOL     OW14872   3.335   0.647   9.446  0.0843  0.1117  0.3660
 1137SOL    HW114873   3.373   0.567   9.410 -1.6370  0.6470 -2.6803
 1137SOL    HW214874   3.250   0.642   9.402 -0.0038  0.8334  0.4596
 1138SOL     OW14875   4.078   0.479  15.089  0.0034  0.0252  0.5741
 1138SOL    HW114876   4.024   0.543  15.043 -0.0854 -0.7310 -0.3600
 1138SOL    HW214877   4.024   0.401  15.086 -1.6538  1.2771 -2.0529
 1139SOL     OW14878   1.450   1.670   7.306 -0.0732 -0.0863 -0.1712
 1139SOL    HW114879   1.524   1.711   7.262  1.8711 -1.6495  1.6276
 1139SOL    HW214880   1.446   1.583   7.265  0.8144 -0.0158 -0.4105
 1140SOL     OW14881   2.876   4.140   9.538  0.6305  0.2191  0.1205
 1140SOL    HW114882   2.841   4.229   9.536 -2.3788 -0.9771 -1.0519
 1140SOL    HW214883   2.916   4.133   9.451  0.8658  0.5641  0.2015
 1141SOL     OW14884   0.166   1.917  11.523  0.6731  0.0551 -0.5615
 1141SOL    HW114885   0.212   1.865  11.588 -0.7809  0.5847  0.8925
 1141SOL    HW214886   0.211   1.905  11.439  0.0425 -0.1084 -0.8760
 1142SOL     OW14887   3.992   2.509   1.095  0.1432  0.0174 -0.0761
 1142SOL    HW114888   3.914   2.560   1.071  0.0246  0.6370  1.6694
 1142SOL    HW214889   3.981   2.501   1.189 -0.5266 -1.7094 -0.3074
 1143SOL     OW14890   2.780   4.582   9.662 -0.1638 -0.4254 -0.1692
 1143SOL    HW114891   2.872   4.591   9.688 -0.2609  0.1326 -0.0059
 1143SOL    HW214892   2.737   4.605   9.744 -0.1854 -0.6898 -0.1066
 1144SOL     OW14893   1.176   0.826  12.543  0.0185  0.4886  0.6668
 1144SOL    HW114894   1.081   0.814  12.541  0.2049 -0.8648 -0.3283
 1144SOL    HW214895   1.198   0.821  12.450 -0.4238 -3.0735  0.7390
 1145SOL     OW14896   2.505   0.502   6.205 -0.0424  0.0375 -0.0968
 1145SOL    HW114897   2.439   0.558   6.247  0.1432  0.8580 -0.8775
 1145SOL    HW214898   2.579   0.515   6.263  0.4201 -1.0500 -0.4474
 1146SOL     OW14899   2.470   2.740  13.709  0.3136  0.3427 -0.2571
 1146SOL    HW114900   2.478   2.814  13.649 -0.4972  1.0317  0.4806
 1146SOL    HW214901   2.554   2.695  13.703  0.0882 -0.2005  0.7369
 1147SOL     OW14902   3.683   2.882   7.865  0.7518  0.1497 -0.0598
 1147SOL    HW114903   3.707   2.975   7.857  0.2532  0.3908  1.1940
 1147SOL    HW214904   3.757   2.847   7.816  0.4183 -1.7212  0.8024
 1148SOL     OW14905   2.920   3.267   5.743 -0.6271 -0.2895 -0.0670
 1148SOL    HW114906   2.871   3.260   5.661 -1.0709 -1.4425  0.2918
 1148SOL    HW214907   2.849   3.288   5.804 -0.2897  0.5613  0.0315
 1149SOL     OW14908   4.360   0.156  14.704 -0.6927  0.6963  0.4641
 1149SOL    HW114909   4.276   0.168  14.747  0.2389  2.2892  1.7982
 1149SOL    HW214910   4.403   0.234  14.738  0.4474  0.1736  0.2131
 1150SOL     OW14911   4.429   1.765   6.209 -0.5694 -0.0730  0.0377
 1150SOL    HW114912   4.426   1.678   6.248  1.3953  0.0097  0.3987
 1150SOL    HW214913   4.376   1.746   6.131 -0.3020 -0.0326 -0.1571
 1151SOL     OW14914   1.980   1.114   5.242  0.0976  0.2756 -0.0754
 1151SOL    HW114915   1.927   1.060   5.184 -1.8604 -0.2414  2.1965
 1151SOL    HW214916   1.923   1.125   5.319 -0.5664  0.7851 -0.6423
 1152SOL     OW14917   0.501   1.460   2.388  0.1805 -0.0293 -0.3227
 1152SOL    HW114918   0.440   1.390   2.415 -0.3046  0.6747  0.4018
 1152SOL    HW214919   0.573   1.437   2.446  0.3881  1.1663 -0.1161
 1153SOL     OW14920   2.744   2.381   8.215  0.3682 -0.1401 -0.0852
 1153SOL    HW114921   2.728   2.401   8.122 -2.6425  0.6064  0.5861
 1153SOL    HW214922   2.675   2.318   8.236  2.0446 -1.8803  0.1812
 1154SOL     OW14923   4.035   3.776   7.464  0.1479  0.2572 -0.4292
 1154SOL    HW114924   4.015   3.782   7.370 -1.7116 -0.0658 -0.0473
 1154SOL    HW214925   4.029   3.866   7.496  0.7260  0.1109  0.0928
 1155SOL     OW14926   4.281   2.508   6.912  0.2081  0.6732  0.0700
 1155SOL    HW114927   4.300   2.549   6.828  2.8950 -2.3791 -0.8046
 1155SOL    HW214928   4.352   2.444   6.918 -0.9586 -0.4417  2.2634
 1156SOL     OW14929   4.251   3.385   4.646 -0.3081  0.0318 -0.0553
 1156SOL    HW114930   4.304   3.315   4.608  0.1453 -0.2094  1.0339
 1156SOL    HW214931   4.262   3.453   4.579 -1.2053 -0.5188 -0.7713
 1157SOL     OW14932   3.013   0.934   9.292 -0.0058 -0.4478 -0.0167
 1157SOL    HW114933   2.992   0.850   9.333 -2.0488  0.1111  0.0341
 1157SOL    HW214934   2.988   0.916   9.201  1.4766  2.1387 -0.9386
 1158SOL     OW14935   4.329   2.985   1.337 -0.2714 -0.1867  0.1810
 1158SOL    HW114936   4.280   2.903   1.325  0.6644 -0.4078 -2.1985
 1158SOL    HW214937   4.340   2.985   1.432  0.5144  0.8686  0.0820
 1159SOL     OW14938   4.658   1.944   7.968 -0.1888  0.2503 -0.2916
 1159SOL    HW114939   4.580   1.973   8.015 -0.4451  1.5289 -1.4840
 1159SOL    HW214940   4.695   2.033   7.972 -2.8528  1.2156  2.6501
 1160SOL     OW14941   4.610   1.532  17.076  0.5936 -0.0573 -0.6769
 1160SOL    HW114942   4.622   1.584  17.155 -0.4939 -1.2166  0.2557
 1160SOL    HW214943   4.590   1.444  17.110 -1.7516  0.7150 -0.0352
 1161SOL     OW14944   3.678   2.211   4.496  0.3326  0.1457 -0.3227
 1161SOL    HW114945   3.605   2.155   4.470  0.2418 -0.7142  1.7159
 1161SOL    HW214946   3.749   2.147   4.497 -0.1528 -0.4139 -2.0693
 1162SOL     OW14947   2.610   0.521   5.335  0.0255  0.5117  0.2983
 1162SOL    HW114948   2.667   0.588   5.297 -1.3009  3.5772  3.7212
 1162SOL    HW214949   2.638   0.535   5.425 -0.7990  0.6585  0.5237
 1163SOL     OW14950   1.700   3.665   8.890 -0.1793 -0.6780 -0.1589
 1163SOL    HW114951   1.672   3.674   8.981 -0.9678  0.2899 -0.4900
 1163SOL    HW214952   1.641   3.718   8.836 -0.1679 -0.0196  0.4799
 1164SOL     OW14953   0.286   4.720   1.471 -0.0367  0.4689 -0.1644
 1164SOL    HW114954   0.330   4.653   1.525 -0.8530  0.4985  0.5419
 1164SOL    HW214955   0.273   0.058   1.542 -0.0923  0.3977 -0.1124
 1165SOL     OW14956   2.236   1.491   0.325 -0.1990 -0.1574 -0.2435
 1165SOL    HW114957   2.282   1.408   0.311  0.8041  0.1614  1.1951
 1165SOL    HW214958   2.194   1.466   0.408 -2.0578 -0.4600 -1.2601
 1166SOL     OW14959   3.184   0.422   6.423  0.2087 -0.0919 -0.0039
 1166SOL    HW114960   3.145   0.507   6.444 -0.1273  0.3145 -2.2473
 1166SOL    HW214961   3.101   0.376   6.414  0.3591 -0.0352 -1.7440
 1167SOL     OW14962   3.009   0.742   4.344  0.5363  0.4070 -0.0629
 1167SOL    HW114963   3.080   0.681   4.325  1.9442  1.8346  0.7081
 1167SOL    HW214964   2.993   0.781   4.259  0.6533  1.0422  0.2083
 1168SOL     OW14965   4.184   4.307   9.088  0.2327 -0.2735  0.2173
 1168SOL    HW114966   4.279   4.295   9.078  0.6724  3.1134  0.1998
 1168SOL    HW214967   4.177   4.345   9.176 -1.8097  0.0544 -0.0902
 1169SOL     OW14968   2.349   3.133   2.505 -0.3075  0.1473 -0.4868
 1169SOL    HW114969   2.382   3.154   2.418  3.0362 -2.8896  0.0526
 1169SOL    HW214970   2.296   3.209   2.530 -0.1076 -0.0007  0.4196
 1170SOL     OW14971   1.488   4.641  11.167 -0.1754 -0.5211 -0.1367
 1170SOL    HW114972   1.472   4.659  11.075  2.0371  2.8738  0.1473
 1170SOL    HW214973   1.574   4.598  11.167 -0.2984 -0.7587  1.3721
 1171SOL     OW14974   1.484   2.654   3.301  0.3150  0.9460  0.5872
 1171SOL    HW114975   1.551   2.595   3.335 -0.1534 -0.4993 -0.9888
 1171SOL    HW214976   1.497   2.631   3.209  0.7018  0.4433  0.7724
 1172SOL     OW14977   1.382   3.082   5.337  0.7232  0.4793  0.0178
 1172SOL    HW114978   1.344   3.145   5.275  1.3188 -1.1140 -1.9340
 1172SOL    HW214979   1.321   3.009   5.328  0.2387  0.8541  0.2298
 1173SOL     OW14980   0.510   1.713   4.380 -0.4441 -0.3299  0.3498
 1173SOL    HW114981   0.510   1.677   4.469 -0.0486  1.0876  0.9379
 1173SOL    HW214982   0.525   1.805   4.401 -0.5632 -0.2033 -0.1191
 1174SOL     OW14983   4.202   3.601   3.585  0.2856 -0.1778 -0.7512
 1174SOL    HW114984   4.179   3.509   3.572 -2.9239  0.7407 -1.6501
 1174SOL    HW214985   4.199   3.615   3.680  1.5136 -0.3901 -0.6796
 1175SOL     OW14986   3.845   3.774   7.202 -0.5540  0.0416 -0.3337
 1175SOL    HW114987   3.764   3.824   7.198  0.2737  1.4918  1.1362
 1175SOL    HW214988   3.918   3.836   7.200 -0.6299  0.1008 -1.3862
 1176SOL     OW14989   3.986   1.077   2.993  0.2106 -1.1708  0.0430
 1176SOL    HW114990   4.044   1.028   3.051 -0.1464 -1.7530 -0.0916
 1176SOL    HW214991   3.965   1.000   2.939 -0.9567 -0.9989  0.2659
 1177SOL     OW14992   0.405   0.371  14.789  0.3848  0.1728 -0.5807
 1177SOL    HW114993   0.375   0.413  14.708  0.7644 -0.3550 -1.0000
 1177SOL    HW214994   0.492   0.408  14.808  0.3975 -0.2235  0.1356
 1178SOL     OW14995   2.294   4.318   3.353  0.2402  0.3444  0.2911
 1178SOL    HW114996   2.219   4.259   3.345  0.5077 -0.3111  2.6052
 1178SOL    HW214997   2.330   4.306   3.265  1.0175 -0.4124  0.7174
 1179SOL     OW14998   2.321   3.295   4.311  0.1298 -0.0154 -0.4174
 1179SOL    HW114999   2.392   3.329   4.365 -1.7383  0.3588  1.8144
 1179SOL    HW215000   2.256   3.365   4.314  0.4177  0.2536 -0.4787
 1180SOL     OW15001   0.533   2.994   6.843 -0.1704  0.6311 -0.0043
 1180SOL    HW115002   0.545   2.899   6.835 -0.4187  0.5747  0.3250
 1180SOL    HW215003   0.626   3.018   6.843 -0.2823  1.0695  0.3333
 1181SOL     OW15004   4.055   1.524   3.354 -0.2269 -0.2565 -0.4398
 1181SOL    HW115005   4.020   1.576   3.427 -1.5669 -1.3309 -0.3221
 1181SOL    HW215006   4.095   1.593   3.301 -1.0576  0.2345 -0.4190
 1182SOL     OW15007   4.408   1.541  11.322 -0.1929  0.5832 -0.2082
 1182SOL    HW115008   4.460   1.565  11.245  1.1862 -0.9266  0.2679
 1182SOL    HW215009   4.394   1.447  11.311 -2.2906  0.7831  0.7262
 1183SOL     OW15010   4.601   2.198   7.752  0.3080  0.7365  0.3177
 1183SOL    HW115011   4.680   2.239   7.719 -0.3528  1.4288 -0.4039
 1183SOL    HW215012   4.617   2.199   7.846 -2.3133 -2.0717  0.8074
 1184SOL     OW15013   1.779   4.216   6.707 -0.4121 -0.6085  0.0722
 1184SOL    HW115014   1.769   4.132   6.751  1.7462 -0.4211  0.9114
 1184SOL    HW215015   1.851   4.204   6.645 -1.1077 -1.3609 -0.5813
 1185SOL     OW15016   4.097   4.155  15.303  0.2969  0.1119  0.1649
 1185SOL    HW115017   4.187   4.130  15.281 -0.5344 -2.6729 -0.1023
 1185SOL    HW215018   4.107   4.250  15.293 -0.4132  0.2453  0.7833
 1186SOL     OW15019   0.210   0.607   7.760 -0.3862  0.4579 -0.4139
 1186SOL    HW115020   0.139   0.544   7.744 -0.3672 -0.2924  2.5153
 1186SOL    HW215021   0.276   0.572   7.700 -1.7979 -1.2577 -0.9787
 1187SOL     OW15022   3.022   1.351  10.623  0.6086  0.0901  0.4644
 1187SOL    HW115023   3.091   1.307  10.672  0.3580 -1.9112 -0.9551
 1187SOL    HW215024   3.072   1.425  10.587 -0.6885  0.2599 -0.9583
 1188SOL     OW15025   2.179   2.170   9.995  0.4506  0.8325  0.0107
 1188SOL    HW115026   2.087   2.144   9.999  0.1290  1.7070 -1.9796
 1188SOL    HW215027   2.173   2.265   9.988  2.6653  1.1395  2.1080
 1189SOL     OW15028   1.739   1.272   3.123  0.2492 -0.4421  0.0636
 1189SOL    HW115029   1.681   1.210   3.079  0.3727 -0.6572  0.2021
 1189SOL    HW215030   1.706   1.268   3.213 -2.5021 -0.2939 -0.9470
 1190SOL     OW15031   4.463   3.311   5.991  0.3835  0.1293 -0.6452
 1190SOL    HW115032   4.528   3.380   5.983  2.2055 -1.4155  0.9841
 1190SOL    HW215033   4.389   3.364   6.022  0.9430 -0.6247  1.9932
 1191SOL     OW15034   0.237   3.049  11.619 -0.3396 -1.3164 -0.1503
 1191SOL    HW115035   0.164   2.997  11.585 -0.3049 -0.7267 -1.1597
 1191SOL    HW215036   0.294   2.982  11.654  1.2806  0.2026  0.1229
 1192SOL     OW15037   0.240   0.993   7.538 -0.4827  0.8027 -0.0409
 1192SOL    HW115038   0.218   1.086   7.541  0.5180  0.9729  1.9741
 1192SOL    HW215039   0.330   1.007   7.508 -1.1407 -1.8963 -3.2497
 1193SOL     OW15040   3.177   3.748   3.675  0.0666  0.3363  0.4385
 1193SOL    HW115041   3.194   3.831   3.631 -1.2438 -0.9059 -2.3954
 1193SOL    HW215042   3.255   3.695   3.665 -0.4670 -0.0662 -1.5551
 1194SOL     OW15043   1.485   4.667  12.517 -0.2070 -0.6545 -0.2413
 1194SOL    HW115044   1.432   4.647  12.440 -1.4400  3.1976 -0.4028
 1194SOL    HW215045   1.529   4.583  12.533 -2.1899 -1.8221 -0.8593
 1195SOL     OW15046   2.411   1.543   6.222 -0.8550  0.9749 -0.0348
 1195SOL    HW115047   2.398   1.452   6.196  0.0140  1.8320 -3.5237
 1195SOL    HW215048   2.450   1.540   6.309  1.0238  0.9492 -0.8710
 1196SOL     OW15049   2.579   1.065   3.507 -0.8222  0.6519 -0.4055
 1196SOL    HW115050   2.539   0.980   3.527  1.0165 -0.0020  0.4698
 1196SOL    HW215051   2.527   1.125   3.561  1.2861  1.7128  0.4385
 1197SOL     OW15052   1.104   2.427   2.203 -0.7430 -0.1755 -0.5238
 1197SOL    HW115053   1.142   2.397   2.286 -1.4828  0.2053 -0.0494
 1197SOL    HW215054   1.050   2.498   2.237 -0.8462  0.1788 -1.4128
 1198SOL     OW15055   1.662   1.848   6.556  0.0589 -0.3921 -0.6044
 1198SOL    HW115056   1.692   1.780   6.496  0.5081  0.7822 -1.7004
 1198SOL    HW215057   1.607   1.904   6.501  1.6597  0.1970 -1.5884
 1199SOL     OW15058   0.097   0.204   1.952 -0.5440  0.0206 -0.0626
 1199SOL    HW115059   0.155   0.276   1.926 -0.0295 -0.9459 -1.5795
 1199SOL    HW215060   0.132   0.182   2.039  0.8448  1.4159 -0.2714
 1200SOL     OW15061   2.185   0.815   3.371  0.1191  0.1201 -0.2575
 1200SOL    HW115062   2.123   0.879   3.404 -1.7421 -2.0504  0.4466
 1200SOL    HW215063   2.251   0.869   3.327 -0.5868  1.7779  0.7387
 1201SOL     OW15064   2.753   3.401   7.890  1.1212 -0.4306  0.0227
 1201SOL    HW115065   2.696   3.455   7.945  0.7072 -0.5992 -0.2390
 1201SOL    HW215066   2.839   3.441   7.902  1.7443 -1.8219  0.1926
 1202SOL     OW15067   0.277   0.175   0.944  0.0494  0.0551 -0.2300
 1202SOL    HW115068   0.206   0.158   1.005 -0.7952  0.7890 -1.0124
 1202SOL    HW215069   0.296   0.262   0.977  0.6915  0.0818 -0.6580
 1203SOL     OW15070   4.145   4.242  17.360  0.3990  0.6771  0.3814
 1203SOL    HW115071   4.076   4.194  17.406  0.4945  2.5776  2.5559
 1203SOL    HW215072   4.097   4.303  17.304 -3.2732  0.2191  3.0049
 1204SOL     OW15073   1.589   4.025   8.310 -0.6044  0.2336  0.6325
 1204SOL    HW115074   1.612   4.113   8.282 -0.7222  0.5657  1.5792
 1204SOL    HW215075   1.502   4.054   8.340 -1.8169 -2.5253 -0.1917
 1205SOL     OW15076   4.326   3.304   2.665 -0.6967  0.1137  0.6266
 1205SOL    HW115077   4.262   3.374   2.677  0.2051  1.2944 -1.3404
 1205SOL    HW215078   4.407   3.352   2.648 -1.2025  0.1496 -1.6672
 1206SOL     OW15079   0.287   3.280   3.247  0.2108  0.6520 -0.1635
 1206SOL    HW115080   0.343   3.342   3.199  0.9658 -0.7681 -1.0987
 1206SOL    HW215081   0.244   3.245   3.169 -0.0393 -0.1318  0.3341
 1207SOL     OW15082   0.981   1.783   5.565  0.2420  0.6102  0.2148
 1207SOL    HW115083   1.072   1.784   5.593  0.0510  0.4571  0.8472
 1207SOL    HW215084   0.983   1.694   5.528  1.3351  1.3068 -1.3882
 1208SOL     OW15085   0.657   4.144  17.595 -0.5028 -0.5717 -0.0151
 1208SOL    HW115086   0.611   4.163  17.513 -1.4033  0.5715  0.7626
 1208SOL    HW215087   0.723   4.082  17.565 -0.6412 -0.4922 -0.4827
 1209SOL     OW15088   3.287   3.952   5.839 -0.0138 -0.2769  0.1116
 1209SOL    HW115089   3.311   3.920   5.752 -0.5765 -3.0297  0.9981
 1209SOL    HW215090   3.256   3.875   5.885 -0.1290 -0.5167 -0.3740
 1210SOL     OW15091   1.121   1.617  10.635 -0.0564 -0.3057 -0.1737
 1210SOL    HW115092   1.104   1.523  10.627  0.4449 -0.4087 -0.0665
 1210SOL    HW215093   1.054   1.656  10.579  0.0550  0.5739  0.3169
 1211SOL     OW15094   2.322   1.702   3.325  0.2634  0.2756 -0.1995
 1211SOL    HW115095   2.279   1.780   3.358 -1.7036 -1.1182  0.5411
 1211SOL    HW215096   2.378   1.752   3.266 -0.7468  1.0409 -0.4990
 1212SOL     OW15097   3.255   0.071  10.004 -0.2890  0.0044 -0.3567
 1212SOL    HW115098   3.337   0.106  10.038  0.1282 -0.3063 -1.0412
 1212SOL    HW215099   3.277   4.702   9.998 -0.0802  0.0372 -0.0949
 1213SOL     OW15100   0.015   1.653   8.322  0.5031  0.4937  0.3780
 1213SOL    HW115101   0.076   1.614   8.385  0.3833  1.3924  1.0571
 1213SOL    HW215102   4.705   1.728   8.370 -1.1341 -0.8079  1.2022
 1214SOL     OW15103   1.671   0.233   4.376  0.0657  0.2926  0.2826
 1214SOL    HW115104   1.728   0.240   4.299 -0.5730 -0.8622 -0.2904
 1214SOL    HW215105   1.730   0.265   4.445  0.5715 -1.1178  0.5254
 1215SOL     OW15106   0.879   0.288   8.960 -0.6926  0.5624 -0.8202
 1215SOL    HW115107   0.861   0.275   9.053 -1.4657  1.9221 -0.7774
 1215SOL    HW215108   0.844   0.208   8.921  0.5850 -1.4694  2.2234
 1216SOL     OW15109   1.067   4.360  10.892 -0.5924 -0.9343  0.6809
 1216SOL    HW115110   0.972   4.367  10.879 -0.3208  0.0115 -0.6710
 1216SOL    HW215111   1.099   4.384  10.806 -0.8116 -1.9889  0.2978
 1217SOL     OW15112   3.311   2.278   5.695  0.0047  0.3849 -0.1984
 1217SOL    HW115113   3.253   2.211   5.658 -1.4497  1.2908  0.4911
 1217SOL    HW215114   3.249   2.348   5.714  0.8320  0.9069  0.5861
 1218SOL     OW15115   3.732   0.901   7.613  0.1798 -0.8748  0.0093
 1218SOL    HW115116   3.775   0.824   7.649 -2.1343 -2.1114  0.1242
 1218SOL    HW215117   3.702   0.945   7.692  3.1579  0.4354  0.4000
 1219SOL     OW15118   3.482   3.239   5.271 -0.1929  0.1462 -0.2708
 1219SOL    HW115119   3.456   3.262   5.182 -0.8815 -0.7605 -0.3083
 1219SOL    HW215120   3.423   3.166   5.290 -0.4177  0.5667  0.6493
 1220SOL     OW15121   3.729   3.730   4.850 -0.9687  0.5614 -0.0237
 1220SOL    HW115122   3.804   3.772   4.806 -0.2613 -0.1392  0.5171
 1220SOL    HW215123   3.737   3.762   4.940  1.1259 -0.2533  0.0778
 1221SOL     OW15124   3.177   0.608   6.826  0.5843  0.0909 -0.3548
 1221SOL    HW115125   3.236   0.609   6.902  1.2888  0.6698 -0.9181
 1221SOL    HW215126   3.233   0.569   6.759 -1.2226 -1.7718 -0.7725
 1222SOL     OW15127   0.028   1.688   3.555  0.0945 -0.1190 -0.1459
 1222SOL    HW115128   0.035   1.651   3.467 -0.9028 -1.4152  0.3149
 1222SOL    HW215129   4.676   1.642   3.591  0.2815  0.5711  1.1350
 1223SOL     OW15130   1.642   3.245   0.846 -0.3451 -0.4132 -0.2328
 1223SOL    HW115131   1.617   3.302   0.919  0.5100  2.4242 -2.1447
 1223SOL    HW215132   1.710   3.191   0.886 -0.9486 -1.4467 -0.6192
 1224SOL     OW15133   1.660   4.566   5.345 -0.1437  0.2155  0.8485
 1224SOL    HW115134   1.576   4.579   5.303 -0.6658 -0.2214  1.7581
 1224SOL    HW215135   1.709   4.544   5.265 -0.6020 -2.1661  1.2430
 1225SOL     OW15136   4.546   4.562  12.695  0.1467  0.5044  0.3719
 1225SOL    HW115137   4.532   4.613  12.616 -2.5317  0.0148  0.5300
 1225SOL    HW215138   4.636   4.530  12.695  0.3842  1.2009 -0.6436
 1226SOL     OW15139   0.783   0.962   9.487 -0.0110 -0.1483 -0.3732
 1226SOL    HW115140   0.867   0.925   9.512  1.8918  3.7276 -0.9589
 1226SOL    HW215141   0.750   0.993   9.572 -0.0312 -1.7954  0.2079
 1227SOL     OW15142   1.429   4.395  16.321 -0.1221  0.3154 -0.0869
 1227SOL    HW115143   1.449   4.487  16.306 -0.4141  0.6166  1.3078
 1227SOL    HW215144   1.469   4.357  16.243  0.0711  0.6122 -0.1335
 1228SOL     OW15145   2.610   0.716   9.086 -0.5907  0.4345 -0.6880
 1228SOL    HW115146   2.552   0.712   9.163 -0.9811  2.7309 -0.8708
 1228SOL    HW215147   2.605   0.809   9.064 -0.0014  0.3795 -1.0348
 1229SOL     OW15148   3.871   2.784   3.759 -0.4491  0.1142 -0.4137
 1229SOL    HW115149   3.892   2.831   3.679  0.5577  0.5736  0.1288
 1229SOL    HW215150   3.808   2.720   3.725 -0.4022  0.1375 -0.5435
 1230SOL     OW15151   1.036   1.792   9.944  0.1281  0.0535  0.4559
 1230SOL    HW115152   1.026   1.873   9.994  0.3477  1.0730 -1.1680
 1230SOL    HW215153   1.022   1.716  10.001 -1.2216 -0.5928 -0.7669
 1231SOL     OW15154   1.688   0.826   8.270 -0.5120  0.0005 -0.2932
 1231SOL    HW115155   1.617   0.767   8.243 -1.2562 -0.2281  2.1383
 1231SOL    HW215156   1.675   0.894   8.205  1.7974  1.1367  0.4057
 1232SOL     OW15157   3.868   4.602   9.494 -0.2230 -0.2022  0.6266
 1232SOL    HW115158   3.884   4.617   9.401 -3.7283  0.0432  0.0566
 1232SOL    HW215159   3.899   4.513   9.510  0.3711 -0.3039 -1.1405
 1233SOL     OW15160   2.441   4.291   8.801  0.0878 -0.0048 -0.6219
 1233SOL    HW115161   2.502   4.353   8.762  1.0229 -0.2896  0.3994
 1233SOL    HW215162   2.471   4.210   8.761 -0.1574 -0.6279  0.4656
 1234SOL     OW15163   2.191   0.380   1.165 -0.3634  0.5845  0.1537
 1234SOL    HW115164   2.119   0.402   1.224 -0.7136 -1.2028  0.3816
 1234SOL    HW215165   2.267   0.383   1.224  1.3395 -0.8176 -1.9590
 1235SOL     OW15166   2.354   4.352   6.316 -0.2654  0.0804 -0.4720
 1235SOL    HW115167   2.355   4.407   6.237  1.3641 -0.2011 -0.6555
 1235SOL    HW215168   2.398   4.410   6.378 -0.5857 -0.7492  0.5098
 1236SOL     OW15169   4.418   0.731   4.348  0.1813 -0.2621 -0.9734
 1236SOL    HW115170   4.422   0.797   4.278  0.0307 -0.1877 -0.9116
 1236SOL    HW215171   4.345   0.675   4.320  0.4523 -0.8373 -0.5274
 1237SOL     OW15172   4.531   3.973   5.101 -0.3692 -0.8584 -0.0094
 1237SOL    HW115173   4.595   4.021   5.049 -1.3073  0.4190  0.0070
 1237SOL    HW215174   4.540   3.885   5.065 -3.4183 -1.0244 -0.3857
 1238SOL     OW15175   0.448   3.245   2.734  0.1888 -0.1661 -0.3558
 1238SOL    HW115176   0.483   3.232   2.646 -0.0307 -1.2212 -0.2889
 1238SOL    HW215177   0.407   3.331   2.732 -0.9378 -0.6317  2.9549
 1239SOL     OW15178   1.680   2.856   9.369  0.4951  0.1971  0.0476
 1239SOL    HW115179   1.684   2.833   9.461  2.3301  2.3471  0.5196
 1239SOL    HW215180   1.771   2.839   9.344 -0.1448 -0.6411 -1.7518
 1240SOL     OW15181   3.095   0.780  12.723  0.5972  0.4533  0.2440
 1240SOL    HW115182   3.136   0.866  12.720  1.9262 -0.1716  0.2697
 1240SOL    HW215183   3.164   0.732  12.768  0.4179  0.2466  0.3001
 1241SOL     OW15184   2.024   2.383  12.096  0.7388  0.0891  0.6667
 1241SOL    HW115185   1.971   2.303  12.088  0.1281  0.6985 -1.3819
 1241SOL    HW215186   1.958   2.448  12.119 -0.8599 -1.7204  1.3029
 1242SOL     OW15187   3.067   0.626   4.617 -0.2665 -0.2171  0.6653
 1242SOL    HW115188   3.031   0.695   4.673 -0.5114  0.4729 -0.3607
 1242SOL    HW215189   3.124   0.592   4.686  0.1703  0.1068  0.4634
 1243SOL     OW15190   0.160   2.455   2.610 -0.0974  0.3189  0.2912
 1243SOL    HW115191   0.225   2.402   2.564  0.1308  0.3745  0.5543
 1243SOL    HW215192   0.127   2.392   2.674 -2.1370  0.2382 -0.8433
 1244SOL     OW15193   0.966   1.507   8.717  0.3187 -0.3283  0.2625
 1244SOL    HW115194   0.917   1.573   8.668 -0.4731 -0.4693  0.8700
 1244SOL    HW215195   0.946   1.531   8.807 -0.7357  0.3437 -0.1533
 1245SOL     OW15196   2.521   3.701   7.940 -0.4125 -0.2408  0.2638
 1245SOL    HW115197   2.495   3.785   7.979  0.2743 -0.3413  0.9250
 1245SOL    HW215198   2.463   3.646   7.993 -1.9416 -0.2789 -1.4311
 1246SOL     OW15199   4.261   0.002  10.576  0.0075  1.0477 -0.2167
 1246SOL    HW115200   4.219   0.082  10.543 -0.1388  1.1818  0.2981
 1246SOL    HW215201   4.296   0.038  10.657  0.3914  2.3244 -0.9441
 1247SOL     OW15202   0.531   3.779   0.211  0.0562 -0.2133 -0.0619
 1247SOL    HW115203   0.462   3.719   0.184  0.7739 -1.8637  1.7369
 1247SOL    HW215204   0.520   3.770   0.306 -2.4566 -1.0043 -0.4165
 1248SOL     OW15205   0.861   4.617   6.934  0.2239 -0.5786  0.4614
 1248SOL    HW115206   0.936   4.592   6.879  0.3666 -0.8830  0.7953
 1248SOL    HW215207   0.903   4.694   6.972 -0.5949  0.1475 -0.1077
 1249SOL     OW15208   2.003   2.804  10.858 -0.0258 -0.0664 -0.1774
 1249SOL    HW115209   1.936   2.854  10.905 -0.3949 -1.8580  1.1714
 1249SOL    HW215210   1.994   2.830  10.766 -0.2720  0.7138  0.0633
 1250SOL     OW15211   0.536   0.312   4.504  0.4200  0.3499  0.4245
 1250SOL    HW115212   0.581   0.367   4.569  0.6945  0.2878  0.2869
 1250SOL    HW215213   0.608   0.257   4.475 -0.0664  1.1134 -2.2242
 1251SOL     OW15214   2.479   0.592  14.767 -0.2321 -0.0815  0.2263
 1251SOL    HW115215   2.439   0.513  14.729 -0.7996 -0.8444  2.3646
 1251SOL    HW215216   2.571   0.581  14.743 -0.3305 -0.6492  0.0901
 1252SOL     OW15217   1.078   4.345   6.441  0.0111 -0.5269  0.3824
 1252SOL    HW115218   1.041   4.433   6.426  3.3981  0.5089 -1.9676
 1252SOL    HW215219   1.117   4.357   6.527 -0.3266 -1.6765  0.6821
 1253SOL     OW15220   2.722   0.008   1.643 -0.2467 -0.1239  0.3662
 1253SOL    HW115221   2.653   0.067   1.615 -0.3751 -0.6323 -0.3696
 1253SOL    HW215222   2.786   0.073   1.673 -0.9934 -0.0284  1.7900
 1254SOL     OW15223   2.556   4.168  14.060  0.4731 -0.0143  0.1232
 1254SOL    HW115224   2.613   4.179  13.983 -0.0093 -2.9191 -0.6543
 1254SOL    HW215225   2.607   4.200  14.135 -0.4456  1.0453  0.2974
 1255SOL     OW15226   1.035   2.047   5.826 -0.0835 -0.1608  0.1573
 1255SOL    HW115227   1.089   2.108   5.776  1.1468 -0.7323  0.7851
 1255SOL    HW215228   1.027   1.971   5.769  0.6697  0.7956 -1.2360
 1256SOL     OW15229   2.253   2.481  12.142  0.0405 -0.3977  0.0113
 1256SOL    HW115230   2.284   2.409  12.197 -0.5821 -0.1666  0.6555
 1256SOL    HW215231   2.166   2.447  12.121  0.8906 -1.9357 -0.9661
 1257SOL     OW15232   3.247   0.177   1.370 -0.2104  1.1520  0.0337
 1257SOL    HW115233   3.334   0.146   1.394 -1.1230 -0.4055  1.3545
 1257SOL    HW215234   3.256   0.156   1.277 -0.9385 -0.6228  0.3508
 1258SOL     OW15235   3.270   2.832  11.399  0.0792  0.3355  0.0161
 1258SOL    HW115236   3.310   2.774  11.463  2.3560  1.7579 -0.1571
 1258SOL    HW215237   3.192   2.847  11.453 -0.5466 -0.0668 -0.7712
 1259SOL     OW15238   0.442   3.957   7.148  0.7722  0.0184 -0.3826
 1259SOL    HW115239   0.445   3.956   7.053  0.5732  0.3646 -0.3942
 1259SOL    HW215240   0.347   3.961   7.164  0.6645  0.6013 -1.1625
 1260SOL     OW15241   2.782   0.259   4.322 -0.1505  0.4633  0.0478
 1260SOL    HW115242   2.748   0.222   4.404 -2.1318 -0.3253 -1.1133
 1260SOL    HW215243   2.804   0.350   4.341 -1.4202  0.8832 -0.4191
 1261SOL     OW15244   0.918   3.226  12.441 -0.0529  0.5714 -0.4863
 1261SOL    HW115245   0.942   3.133  12.435 -0.0129  0.6233 -1.1458
 1261SOL    HW215246   0.898   3.227  12.534  0.7075  1.1108 -0.3229
 1262SOL     OW15247   2.277   3.248   8.526  0.3410  0.0232 -0.2451
 1262SOL    HW115248   2.320   3.291   8.599 -1.1292 -2.2506  1.9503
 1262SOL    HW215249   2.348   3.259   8.462  1.6508  1.2892  1.4431
 1263SOL     OW15250   4.080   3.471   2.116  0.2189  0.2856 -0.1818
 1263SOL    HW115251   4.122   3.476   2.202  0.3354  0.0400 -0.2248
 1263SOL    HW215252   4.158   3.459   2.062 -0.4823 -0.9500 -0.9282
 1264SOL     OW15253   0.463   3.346   8.652 -0.0982  0.0484 -0.0930
 1264SOL    HW115254   0.439   3.258   8.683  3.2715 -0.8877 -0.2279
 1264SOL    HW215255   0.498   3.320   8.567  0.6117  0.0829  0.1938
 1265SOL     OW15256   4.211   3.266   1.325 -0.1914 -0.1352  0.1717
 1265SOL    HW115257   4.167   3.182   1.312 -1.1386  0.1640  1.3850
 1265SOL    HW215258   4.169   3.296   1.406 -0.9668  0.7557 -0.5538
 1266SOL     OW15259   0.697   3.256   5.203  0.1126  0.3812 -0.4891
 1266SOL    HW115260   0.677   3.235   5.112  1.6022 -2.3731 -0.1661
 1266SOL    HW215261   0.610   3.258   5.244 -0.1177 -0.3035 -0.9373
 1267SOL     OW15262   4.460   4.493  10.493 -0.6243  0.4814 -0.6041
 1267SOL    HW115263   4.407   4.479  10.572  0.3617 -0.1210 -0.0496
 1267SOL    HW215264   4.474   4.587  10.503  1.5946  0.1393 -0.5306
 1268SOL     OW15265   3.777   3.800   8.069 -0.5180 -0.1988  0.3971
 1268SOL    HW115266   3.776   3.721   8.124 -3.4786 -0.8183 -0.5328
 1268SOL    HW215267   3.688   3.822   8.099 -1.0862 -2.9787  0.7665
 1269SOL     OW15268   4.668   0.044  10.575  0.6971 -0.2892  0.2126
 1269SOL    HW115269   0.019   0.092  10.608  1.0376  0.6595 -1.9380
 1269SOL    HW215270   4.708   4.685  10.550 -1.5273 -1.2037 -0.2840
 1270SOL     OW15271   0.453   3.189   5.328  0.0257  0.0983 -0.4534
 1270SOL    HW115272   0.437   3.140   5.409  2.3494 -0.3303 -0.2421
 1270SOL    HW215273   0.436   3.130   5.254  1.9394 -1.0553  0.0208
 1271SOL     OW15274   2.567   0.328   8.353 -0.5863 -0.3788  0.0559
 1271SOL    HW115275   2.548   0.345   8.261  0.2804 -4.9722 -0.9992
 1271SOL    HW215276   2.602   0.410   8.387  0.2242 -1.5435  2.0366
 1272SOL     OW15277   2.102   0.993  10.017  0.1148  0.0474 -0.2348
 1272SOL    HW115278   2.109   0.990  10.113 -0.9568 -4.2275 -0.2658
 1272SOL    HW215279   2.116   0.900   9.997  2.0677  0.3478 -0.2285
 1273SOL     OW15280   0.613   4.588   0.204  0.3928 -0.3636  0.2914
 1273SOL    HW115281   0.568   4.505   0.219 -0.3930  0.1726  0.9432
 1273SOL    HW215282   0.553   4.628   0.142 -1.8514  1.7751  3.8217
 1274SOL     OW15283   4.023   3.736   4.799  0.0786  0.0162 -0.1586
 1274SOL    HW115284   4.064   3.701   4.720 -0.0025  1.2467 -0.7463
 1274SOL    HW215285   4.034   3.670   4.867  0.3976  1.5691  1.2956
 1275SOL     OW15286   3.124   4.515   2.519 -0.2387  0.1819  0.2165
 1275SOL    HW115287   3.038   4.552   2.499  0.0233  0.4837 -0.3410
 1275SOL    HW215288   3.189   4.584   2.507  2.9479 -3.2100 -2.1307
 1276SOL     OW15289   2.381   4.149   6.148  0.1898  0.6387 -0.2648
 1276SOL    HW115290   2.324   4.082   6.187 -1.4571  1.5464 -1.1474
 1276SOL    HW215291   2.376   4.221   6.211  0.8964 -0.2512  0.8080
 1277SOL     OW15292   4.111   0.047   1.854 -0.3584  0.0148  0.4138
 1277SOL    HW115293   4.049   0.094   1.798  0.1211  0.0804 -0.0678
 1277SOL    HW215294   4.197   0.089   1.850 -0.0982 -0.7049 -1.4771
 1278SOL     OW15295   4.619   0.706   8.031  0.1537  0.0283 -0.3854
 1278SOL    HW115296   4.621   0.652   8.111 -0.2197  1.1286  0.3537
 1278SOL    HW215297   4.706   0.746   8.028 -0.3686  0.9627 -2.9338
 1279SOL     OW15298   4.477   0.595   2.863 -0.3277 -0.3241 -0.3317
 1279SOL    HW115299   4.392   0.572   2.902 -0.9190  0.2182 -1.2857
 1279SOL    HW215300   4.515   0.508   2.863 -0.9825 -0.6054  0.6071
 1280SOL     OW15301   3.049   2.113   8.661 -0.6628 -0.3179 -0.1165
 1280SOL    HW115302   3.138   2.083   8.642 -0.5531 -0.3542  0.4535
 1280SOL    HW215303   3.044   2.105   8.756  0.5314 -0.2572 -0.0513
 1281SOL     OW15304   2.524   1.227   4.238  0.0125  0.2898  0.0070
 1281SOL    HW115305   2.474   1.192   4.164 -0.3951  1.7702 -0.4240
 1281SOL    HW215306   2.581   1.285   4.188 -0.6054  0.1841 -0.8332
 1282SOL     OW15307   3.750   1.189   1.617  0.2380  0.2080 -0.3310
 1282SOL    HW115308   3.788   1.275   1.629  0.1479  0.2146 -0.0876
 1282SOL    HW215309   3.810   1.137   1.670  1.8106  2.4552  0.0852
 1283SOL     OW15310   3.712   0.719   4.183  0.0325 -0.0937  0.6189
 1283SOL    HW115311   3.802   0.742   4.162  0.1181 -1.7741 -0.8762
 1283SOL    HW215312   3.680   0.701   4.094  0.0779 -0.8955  0.7601
 1284SOL     OW15313   0.374   0.946   5.521 -0.0629 -0.3084 -0.5418
 1284SOL    HW115314   0.312   0.879   5.493  0.1765 -0.4882 -0.6367
 1284SOL    HW215315   0.340   1.025   5.479 -0.6009  0.7743  1.9260
 1285SOL     OW15316   1.922   3.602   3.104 -0.3112 -0.6792 -0.5985
 1285SOL    HW115317   1.986   3.556   3.050  1.4476  0.8459  0.1985
 1285SOL    HW215318   1.918   3.540   3.177 -3.6825  0.0067 -0.2123
 1286SOL     OW15319   0.844   4.684   5.677  0.1664  0.3012  0.1541
 1286SOL    HW115320   0.760   0.005   5.676 -0.0275 -0.0222  1.2053
 1286SOL    HW215321   0.848   4.632   5.597  0.7869  1.9948 -0.9031
 1287SOL     OW15322   4.065   2.973  14.660  0.0880  0.1528 -0.1167
 1287SOL    HW115323   4.096   2.905  14.600  0.2241 -1.3296  1.6069
 1287SOL    HW215324   3.972   2.949  14.664  0.3303 -0.5856  1.1932
 1288SOL     OW15325   0.871   4.013   2.994 -0.2607  0.0356  0.1255
 1288SOL    HW115326   0.849   3.942   3.055 -0.4552 -0.7277 -0.8281
 1288SOL    HW215327   0.966   4.005   2.994 -0.0931  2.0722 -0.9959
 1289SOL     OW15328   3.402   4.700   7.650  0.8998  0.1341  0.1657
 1289SOL    HW115329   3.469   0.044   7.662  1.5613 -0.7570  1.4794
 1289SOL    HW215330   3.430   4.631   7.710  0.3289 -2.3135 -2.3843
 1290SOL     OW15331   0.265   1.791   3.832  0.0976 -0.4613  0.2438
 1290SOL    HW115332   0.228   1.851   3.897  1.7139 -0.1735  0.9228
 1290SOL    HW215333   0.356   1.790   3.864 -0.3970  1.6183  1.7412
 1291SOL     OW15334   1.083   0.127   8.663 -0.2930 -0.2131 -0.7265
 1291SOL    HW115335   1.071   0.107   8.570  0.5862  1.4911 -1.1926
 1291SOL    HW215336   1.038   0.053   8.704  2.0612 -0.5562  1.2492
 1292SOL     OW15337   3.933   0.331  11.775 -1.0192 -0.3200 -0.2972
 1292SOL    HW115338   3.848   0.308  11.810  0.3435 -4.4885  0.1918
 1292SOL    HW215339   3.955   0.413  11.819 -0.0902 -1.6190  1.6264
 1293SOL     OW15340   2.742   3.362  17.369 -0.6751 -0.0992 -0.3459
 1293SOL    HW115341   2.698   3.289  17.412 -0.3068  0.5178  1.0852
 1293SOL    HW215342   2.687   3.440  17.377 -1.8520 -0.8754 -0.8937
 1294SOL     OW15343   2.747   1.857   8.229 -0.5167  0.1354  0.2609
 1294SOL    HW115344   2.774   1.824   8.315  0.4058  0.2702  0.0208
 1294SOL    HW215345   2.756   1.952   8.234 -1.3836  0.0494  3.3723
 1295SOL     OW15346   0.444   4.204   4.294 -0.3200  0.1824 -0.0951
 1295SOL    HW115347   0.488   4.284   4.266 -2.1450  1.2168 -0.0446
 1295SOL    HW215348   0.413   4.224   4.382 -0.2871 -1.3754  0.2637
 1296SOL     OW15349   3.242   4.186   8.252 -0.3502 -0.0638 -0.0573
 1296SOL    HW115350   3.321   4.240   8.245  1.7477 -2.9180  1.1718
 1296SOL    HW215351   3.287   4.107   8.283  0.7464  0.9836  0.9969
 1297SOL     OW15352   3.058   2.209   1.162  0.2149  0.0034 -0.3057
 1297SOL    HW115353   2.970   2.248   1.155 -0.2987 -1.0618  0.2874
 1297SOL    HW215354   3.057   2.155   1.083  4.6483  0.2960 -0.5472
 1298SOL     OW15355   0.107   1.782  16.216  0.6430  0.1016 -0.0370
 1298SOL    HW115356   0.080   1.869  16.244  1.0893  0.1210  0.3339
 1298SOL    HW215357   0.091   1.732  16.296 -2.2219 -0.8682 -1.2125
 1299SOL     OW15358   3.311   3.144   6.712 -0.1078  0.4368  0.1893
 1299SOL    HW115359   3.248   3.142   6.785  0.1864  1.5400  0.4799
 1299SOL    HW215360   3.261   3.188   6.643 -0.3904  0.9830  0.7392
 1300SOL     OW15361   2.936   4.335   1.039  0.1156 -0.5346  0.3535
 1300SOL    HW115362   2.939   4.370   1.128 -0.2286  0.5230 -0.0490
 1300SOL    HW215363   2.844   4.307   1.036 -0.4446  1.2602  1.0066
 1301SOL     OW15364   2.529   1.326   7.930 -0.5686 -0.5931 -0.0304
 1301SOL    HW115365   2.496   1.269   7.999  0.0959 -1.0952 -0.1318
 1301SOL    HW215366   2.456   1.388   7.936  0.9978  1.1809  0.6677
 1302SOL     OW15367   3.842   3.204   0.833  0.5186  0.4114 -0.1562
 1302SOL    HW115368   3.895   3.167   0.903  0.9585  2.9475  0.8403
 1302SOL    HW215369   3.898   3.200   0.755  2.0212 -2.8316  1.0739
 1303SOL     OW15370   2.793   1.954   8.942 -0.2673  0.1878  0.2112
 1303SOL    HW115371   2.880   1.922   8.918  0.3492  1.1694  1.1087
 1303SOL    HW215372   2.765   1.894   9.011  2.4734  0.3252  1.4650
 1304SOL     OW15373   3.247   4.096  16.804 -0.2297 -0.1361  0.8177
 1304SOL    HW115374   3.152   4.102  16.803 -0.2294 -0.1411  0.6795
 1304SOL    HW215375   3.272   4.182  16.770  2.2505 -0.9933  0.4395
 1305SOL     OW15376   3.371   1.271   6.221  0.1521 -0.2358  0.3010
 1305SOL    HW115377   3.392   1.202   6.283 -3.0070  0.7140  2.4419
 1305SOL    HW215378   3.418   1.245   6.142 -2.9285 -0.2030 -1.5627
 1306SOL     OW15379   1.791   0.774  12.857 -0.0962  0.3663  0.5817
 1306SOL    HW115380   1.757   0.687  12.877  0.3998 -0.3576 -1.8039
 1306SOL    HW215381   1.878   0.772  12.896  0.1442  3.0242  0.1915
 1307SOL     OW15382   2.197   0.230   1.721 -0.1481 -0.1474 -0.1444
 1307SOL    HW115383   2.278   0.279   1.706 -0.0528  0.4871  2.5092
 1307SOL    HW215384   2.161   0.273   1.798  0.3937  1.0036 -0.5321
 1308SOL     OW15385   0.621   2.210  13.813 -0.1172  0.7281  0.2269
 1308SOL    HW115386   0.588   2.214  13.903 -1.8332  1.8710 -0.4610
 1308SOL    HW215387   0.606   2.301  13.787  0.1963  0.9210  0.7141
 1309SOL     OW15388   1.956   1.984   5.463  0.2014  0.6389  0.1487
 1309SOL    HW115389   1.885   1.924   5.442 -0.2155  1.0467  0.3820
 1309SOL    HW215390   1.925   2.019   5.547 -4.1379 -0.2916 -1.0958
 1310SOL     OW15391   4.480   0.618   6.572  0.1421  0.4543  0.0126
 1310SOL    HW115392   4.522   0.540   6.534  0.3455 -0.2188  1.6144
 1310SOL    HW215393   4.413   0.633   6.506 -1.1783  0.3404  1.3118
 1311SOL     OW15394   3.156   4.104   6.743  0.5086  0.0215 -0.3392
 1311SOL    HW115395   3.184   4.178   6.689 -0.2373  0.4137 -0.2016
 1311SOL    HW215396   3.168   4.031   6.682 -0.9693 -0.8619  0.4287
 1312SOL     OW15397   4.247   2.209   0.141  0.1200  0.1335  0.5151
 1312SOL    HW115398   4.249   2.259   0.222  0.1971 -0.1429  0.6844
 1312SOL    HW215399   4.166   2.243   0.103 -1.1701 -1.6606  1.6753
 1313SOL     OW15400   3.354   2.733   6.372 -0.0111 -0.7294  0.9263
 1313SOL    HW115401   3.283   2.672   6.389 -1.0786  0.0709 -0.5661
 1313SOL    HW215402   3.306   2.816   6.381  0.8136  0.2065 -2.8997
 1314SOL     OW15403   0.511   0.720   8.512  0.2791  0.0677  0.2324
 1314SOL    HW115404   0.465   0.701   8.430  0.6774 -0.5335  0.1446
 1314SOL    HW215405   0.444   0.697   8.576  1.3397 -0.3154  1.2261
 1315SOL     OW15406   1.754   0.090   5.497  0.0298  0.0839 -0.0684
 1315SOL    HW115407   1.845   0.080   5.470 -0.4440 -2.7500 -0.6688
 1315SOL    HW215408   1.720   0.020   5.441  0.6398  0.9616 -1.5555
 1316SOL     OW15409   2.023   1.619   7.812  0.1282 -0.1935  0.2728
 1316SOL    HW115410   2.098   1.560   7.800  0.3705  0.2154 -0.1913
 1316SOL    HW215411   2.039   1.678   7.739 -1.8676 -0.4684 -0.3957
 1317SOL     OW15412   4.040   3.993   8.220  0.1363  0.4247 -0.5656
 1317SOL    HW115413   4.065   4.081   8.191 -0.2338  0.5614 -0.4682
 1317SOL    HW215414   3.956   4.005   8.265  0.3958  3.0219 -0.7812
 1318SOL     OW15415   3.204   4.552  13.854 -0.3085  0.3307 -0.7450
 1318SOL    HW115416   3.182   4.466  13.889  1.0660 -0.4405 -1.7931
 1318SOL    HW215417   3.278   4.557  13.915 -1.4529  0.1980  0.6720
 1319SOL     OW15418   1.184   3.497   8.148  0.0431  0.3892  0.0843
 1319SOL    HW115419   1.255   3.544   8.192 -1.4515  2.0207  0.7483
 1319SOL    HW215420   1.106   3.521   8.198 -0.9480  1.4766 -1.9797
 1320SOL     OW15421   4.128   1.247   6.749  0.4554 -0.6141 -0.4756
 1320SOL    HW115422   4.141   1.173   6.808 -0.2599 -0.0317  0.4098
 1320SOL    HW215423   4.081   1.207   6.675 -0.0871 -0.4815 -0.2012
 1321SOL     OW15424   4.017   4.207   3.663  0.1854  0.1256  0.2445
 1321SOL    HW115425   3.924   4.198   3.645  0.0472 -1.6993  1.9036
 1321SOL    HW215426   4.061   4.133   3.621  1.7044  0.4650  1.2316
 1322SOL     OW15427   1.029   1.519   6.780 -0.2170 -0.3388 -0.0864
 1322SOL    HW115428   1.010   1.595   6.836 -2.0631  1.0919 -2.6663
 1322SOL    HW215429   1.086   1.561   6.716 -1.4073 -0.0456 -0.9550
 1323SOL     OW15430   3.060   3.622  12.295  0.5377 -0.5865  0.6437
 1323SOL    HW115431   3.074   3.696  12.236  0.4609  0.7234  2.2660
 1323SOL    HW215432   3.081   3.668  12.376 -1.1593  1.2223  0.0414
 1324SOL     OW15433   2.190   2.071  16.145 -0.6001  0.0256  0.7671
 1324SOL    HW115434   2.127   2.105  16.081 -0.1492 -0.1721  0.2216
 1324SOL    HW215435   2.232   2.152  16.174  0.7762 -1.0016  1.6227
 1325SOL     OW15436   0.720   2.192  10.366 -0.1294  0.0349 -0.3708
 1325SOL    HW115437   0.673   2.267  10.330  0.6516  1.1486  0.9446
 1325SOL    HW215438   0.760   2.226  10.445  3.3002 -2.0100 -1.2302
 1326SOL     OW15439   1.257   2.934  10.675  0.2029  0.0844 -0.4196
 1326SOL    HW115440   1.269   2.992  10.749 -0.2851 -0.5320  0.1411
 1326SOL    HW215441   1.282   2.985  10.598  2.4238 -0.5621 -0.0997
 1327SOL     OW15442   0.381   4.612   8.973  0.1037  0.5385  0.2776
 1327SOL    HW115443   0.347   4.524   8.953  0.1352  0.5234  0.2915
 1327SOL    HW215444   0.406   4.634   8.883 -0.9125  2.0048  0.3495
 1328SOL     OW15445   1.916   2.565   4.223  0.1333  0.2674 -0.0956
 1328SOL    HW115446   1.925   2.655   4.193  1.5261  1.0913  2.8530
 1328SOL    HW215447   1.827   2.551   4.190 -0.5548 -1.4916  2.4518
 1329SOL     OW15448   0.371   3.655  17.214 -0.2946  0.0161 -0.2549
 1329SOL    HW115449   0.369   3.578  17.158 -1.0368 -0.8864  1.0216
 1329SOL    HW215450   0.359   3.609  17.297  0.4425  2.0900  1.0016
 1330SOL     OW15451   0.058   2.550   7.852  0.0369 -0.3167 -0.4105
 1330SOL    HW115452   4.696   2.525   7.819  0.1726 -0.7923 -0.4152
 1330SOL    HW215453   0.038   2.533   7.944  1.1930  1.4874  0.1653
 1331SOL     OW15454   0.289   4.366  14.842 -0.2586 -0.0512  0.2671
 1331SOL    HW115455   0.240   4.293  14.881  1.4125 -1.6277 -0.5856
 1331SOL    HW215456   0.241   4.441  14.877  1.9414  0.8946  1.2634
 1332SOL     OW15457   1.906   2.645   8.015  0.1487 -0.8370  0.6415
 1332SOL    HW115458   1.965   2.716   7.992 -1.7723  0.0212 -1.7317
 1332SOL    HW215459   1.905   2.654   8.110  2.9531  1.4199  0.4323
 1333SOL     OW15460   2.690   3.784   5.744 -0.1074  0.0764 -0.4035
 1333SOL    HW115461   2.678   3.858   5.802  0.8778 -0.7204  0.8211
 1333SOL    HW215462   2.777   3.798   5.706 -0.0176 -1.4360 -0.7858
 1334SOL     OW15463   4.640   2.041  16.159 -0.2247  0.6793 -0.2766
 1334SOL    HW115464   4.668   2.092  16.235  1.2472 -1.5637  0.6913
 1334SOL    HW215465   4.715   2.053  16.099  1.3927  0.5622  1.7260
 1335SOL     OW15466   1.498   2.421  12.047 -0.3064 -0.2179  0.2946
 1335SOL    HW115467   1.530   2.408  11.958  2.1698  1.2404  0.9685
 1335SOL    HW215468   1.518   2.515  12.052  3.6206 -1.1004  0.3670
 1336SOL     OW15469   2.920   4.059   3.083  0.1728  0.4122 -0.3434
 1336SOL    HW115470   2.888   4.144   3.052  0.3979  0.3122 -0.8465
 1336SOL    HW215471   2.951   4.016   3.004 -0.4208  0.8845 -0.8462
 1337SOL     OW15472   3.969   3.172  12.868 -0.8090 -0.3982  0.0856
 1337SOL    HW115473   3.902   3.240  12.875 -1.0861 -0.7770  1.1463
 1337SOL    HW215474   3.922   3.105  12.818 -0.5843  0.1113 -0.8088
 1338SOL     OW15475   3.544   2.867   3.500 -0.6971  0.4482 -0.0079
 1338SOL    HW115476   3.490   2.796   3.532  0.8826 -1.6312 -1.9202
 1338SOL    HW215477   3.482   2.929   3.461 -0.4668  1.8750  1.8962
 1339SOL     OW15478   1.081   0.281   3.336  0.4840 -0.5387  0.2801
 1339SOL    HW115479   1.165   0.237   3.329 -0.6494 -3.0570  2.4011
 1339SOL    HW215480   1.042   0.238   3.412 -0.4988 -0.7465 -0.3347
 1340SOL     OW15481   2.079   1.310   8.847  0.1358 -0.2505  0.0590
 1340SOL    HW115482   2.085   1.215   8.836  1.2408 -0.1690 -0.0273
 1340SOL    HW215483   2.030   1.333   8.768  1.3815  4.2081  0.6044
 1341SOL     OW15484   2.274   2.109   5.517 -0.6824 -0.0968  0.1393
 1341SOL    HW115485   2.321   2.080   5.596  3.0032 -2.0457 -2.7672
 1341SOL    HW215486   2.345   2.163   5.483 -1.0103 -0.3720 -0.9629
 1342SOL     OW15487   0.661   2.755   5.972  0.4983  0.5891 -0.3732
 1342SOL    HW115488   0.723   2.771   6.043  0.5314  2.3109 -0.7955
 1342SOL    HW215489   0.579   2.790   6.006 -0.6972 -2.3414 -0.2533
 1343SOL     OW15490   0.130   4.255   4.765 -0.1428 -0.1772 -0.0543
 1343SOL    HW115491   0.181   4.331   4.739 -2.0118  0.8810 -0.5716
 1343SOL    HW215492   0.171   4.191   4.707  1.3197  2.1994 -1.6021
 1344SOL     OW15493   0.863   3.743  12.300  0.0770 -0.5609 -0.3195
 1344SOL    HW115494   0.909   3.693  12.367  2.4065 -0.0828 -1.5892
 1344SOL    HW215495   0.936   3.789  12.258  0.1390 -1.4402 -1.1593
 1345SOL     OW15496   1.155   0.858   8.518  0.0491 -0.8973  0.0449
 1345SOL    HW115497   1.191   0.820   8.599  0.9658  0.5700  0.3229
 1345SOL    HW215498   1.061   0.840   8.521 -0.1670  0.2398  0.0998
 1346SOL     OW15499   2.636   3.475   2.682 -0.1140  0.1203 -0.4639
 1346SOL    HW115500   2.629   3.380   2.694  0.2461 -0.0492 -1.6447
 1346SOL    HW215501   2.603   3.478   2.592  1.3867  1.4025 -0.9722
 1347SOL     OW15502   3.529   2.481  10.066  0.7632 -0.4185  0.1922
 1347SOL    HW115503   3.523   2.548   9.998  3.5920  1.3358  1.6465
 1347SOL    HW215504   3.440   2.482  10.101  0.3663 -0.9529 -0.8270
 1348SOL     OW15505   1.563   4.544   7.746 -0.2452  0.0616  0.0800
 1348SOL    HW115506   1.532   4.545   7.656 -1.1456 -3.5406  0.3449
 1348SOL    HW215507   1.619   4.467   7.745 -1.1554 -0.5836 -0.8600
 1349SOL     OW15508   3.810   4.152   7.528 -0.3413 -0.4280  0.0971
 1349SOL    HW115509   3.793   4.245   7.542 -1.5547 -0.7531  0.7429
 1349SOL    HW215510   3.748   4.108   7.585 -0.9368  1.6624  1.0741
 1350SOL     OW15511   2.845   4.024   9.918  0.8250 -0.0826  0.2318
 1350SOL    HW115512   2.763   4.032   9.870  1.2370  2.0428 -0.1038
 1350SOL    HW215513   2.891   4.094   9.871  1.5528 -0.2230  0.7315
 1351SOL     OW15514   0.732   4.181   4.353 -0.1084 -0.5296 -0.7633
 1351SOL    HW115515   0.690   4.221   4.429  1.5732 -1.6744  0.7815
 1351SOL    HW215516   0.812   4.150   4.397  0.6003 -0.9240 -2.3433
 1352SOL     OW15517   3.389   0.094   0.866  0.1769 -0.3619  0.0255
 1352SOL    HW115518   3.450   0.168   0.867  1.0076 -1.0714  1.6856
 1352SOL    HW215519   3.398   0.069   0.774  0.0420 -3.4494  0.8430
 1353SOL     OW15520   2.706   3.414  13.896  0.5329  0.3800 -0.2008
 1353SOL    HW115521   2.656   3.482  13.941  0.1450  0.5356 -0.8572
 1353SOL    HW215522   2.774   3.384  13.956 -0.0118  0.6010  0.5180
 1354SOL     OW15523   0.422   3.948  15.250  0.2452 -0.1142 -0.2682
 1354SOL    HW115524   0.360   3.933  15.321  0.1473  0.7780 -0.1544
 1354SOL    HW215525   0.406   3.868  15.201  1.1813 -0.4147 -0.0846
 1355SOL     OW15526   4.255   2.526  16.623  0.0203 -0.0910  0.8813
 1355SOL    HW115527   4.274   2.532  16.717  1.8853 -1.5831  0.5985
 1355SOL    HW215528   4.265   2.432  16.610 -0.8714 -0.0167 -0.2969
 1356SOL     OW15529   0.339   3.623   0.168  0.1178  0.8927 -0.0088
 1356SOL    HW115530   0.276   3.618   0.240 -1.7278 -1.1287 -1.7518
 1356SOL    HW215531   0.293   3.571   0.102  1.4768 -0.8844  0.4562
 1357SOL     OW15532   1.128   2.893   7.936  0.3017  0.1955  0.5785
 1357SOL    HW115533   1.073   2.946   7.878  1.5103 -1.4991 -2.1004
 1357SOL    HW215534   1.123   2.938   8.020 -1.2096  1.0443  0.0330
 1358SOL     OW15535   2.601   2.405   6.167  0.0374  0.1825  0.1396
 1358SOL    HW115536   2.546   2.390   6.090  0.2507 -1.5230  0.3167
 1358SOL    HW215537   2.581   2.496   6.187  0.3000  0.3959 -0.5757
 1359SOL     OW15538   4.478   0.013   5.452 -0.7139 -0.4626 -0.3565
 1359SOL    HW115539   4.396   0.022   5.502 -0.8825  2.8299 -1.2265
 1359SOL    HW215540   4.449   4.674   5.387 -3.6442 -0.7264  1.2020
 1360SOL     OW15541   0.105   2.433   2.997 -0.1679  0.0483 -0.2459
 1360SOL    HW115542   0.121   2.385   3.078 -0.4991  0.7092  0.2067
 1360SOL    HW215543   0.118   2.360   2.936  1.2939  1.4456 -1.5906
 1361SOL     OW15544   2.215   3.837   0.380 -0.6477  0.4375  0.1682
 1361SOL    HW115545   2.285   3.881   0.333 -1.3732  0.4150 -0.9208
 1361SOL    HW215546   2.250   3.821   0.468  1.5376 -2.6453 -1.3167
 1362SOL     OW15547   0.099   3.294   0.448  0.1863  0.1424  1.0404
 1362SOL    HW115548   0.122   3.244   0.526 -1.7278 -1.3471  0.6670
 1362SOL    HW215549   0.004   3.280   0.448  0.1279  0.5954 -1.3794
 1363SOL     OW15550   2.339   4.445  14.326 -0.5341  0.1385 -0.8126
 1363SOL    HW115551   2.340   4.484  14.239 -0.9224 -0.2618 -0.9921
 1363SOL    HW215552   2.272   4.381  14.305 -2.2878  1.4219  0.8397
 1364SOL     OW15553   4.396   3.628  15.913 -0.0196  0.8330  0.2201
 1364SOL    HW115554   4.340   3.686  15.966 -1.2928  0.2185 -0.4599
 1364SOL    HW215555   4.327   3.565  15.894 -0.7960  1.8459 -0.3443
 1365SOL     OW15556   3.102   0.649  10.342  0.0252 -0.6791 -0.5161
 1365SOL    HW115557   3.045   0.635  10.267  1.3689 -0.7278 -1.5141
 1365SOL    HW215558   3.161   0.576  10.325  0.7612 -0.1191 -0.3491
 1366SOL     OW15559   3.962   2.820  10.531 -0.7210  0.1894 -1.0059
 1366SOL    HW115560   3.924   2.852  10.613 -0.7768 -0.7707 -0.6530
 1366SOL    HW215561   3.972   2.902  10.482  0.6790  1.6267  1.7006
 1367SOL     OW15562   0.134   3.133  10.811  0.5289 -0.0711 -0.4752
 1367SOL    HW115563   0.201   3.160  10.748  1.7933 -1.9805  0.0493
 1367SOL    HW215564   0.062   3.178  10.767 -0.9435  1.6644  3.7316
 1368SOL     OW15565   1.948   3.990   3.136 -0.2751 -0.5945  0.0784
 1368SOL    HW115566   2.014   3.951   3.078  0.0448  0.4196 -0.2331
 1368SOL    HW215567   1.871   3.966   3.085 -0.7151  1.9260 -0.4230
 1369SOL     OW15568   3.953   1.052   3.446  0.1224 -0.0053 -0.3207
 1369SOL    HW115569   3.934   0.959   3.461 -0.4637  0.7990  3.8557
 1369SOL    HW215570   4.040   1.057   3.485 -0.6960 -1.2542  1.6823
 1370SOL     OW15571   3.593   0.509  11.042  0.2831 -0.0645 -0.2021
 1370SOL    HW115572   3.525   0.529  10.978 -1.3174  1.4810  1.9679
 1370SOL    HW215573   3.547   0.548  11.116 -1.5138  1.4702 -2.1313
 1371SOL     OW15574   3.362   1.608   8.384  0.2205 -0.2528  0.2844
 1371SOL    HW115575   3.427   1.577   8.448  0.5515 -1.0365 -0.4387
 1371SOL    HW215576   3.284   1.563   8.417 -0.1288  1.3833  1.7175
 1372SOL     OW15577   0.696   2.402   7.580 -0.2587  0.1547  0.2059
 1372SOL    HW115578   0.680   2.456   7.502  0.8291  0.3881  0.1524
 1372SOL    HW215579   0.607   2.366   7.579  0.5577 -1.9152  1.6274
 1373SOL     OW15580   0.290   3.346   8.992  0.5823  0.8957 -0.3403
 1373SOL    HW115581   0.285   3.441   8.984 -2.1989  0.6872 -1.0809
 1373SOL    HW215582   0.252   3.323   8.908 -0.9983 -0.2357  0.6748
 1374SOL     OW15583   3.794   0.295   6.102 -0.1301 -0.1630 -0.3559
 1374SOL    HW115584   3.829   0.301   6.013  2.2091 -2.2691  0.4153
 1374SOL    HW215585   3.870   0.254   6.145 -0.5143  0.6676  1.1009
 1375SOL     OW15586   1.658   1.097   6.266 -0.0445 -0.0492  0.1646
 1375SOL    HW115587   1.596   1.169   6.255 -0.3710 -0.0991  1.7336
 1375SOL    HW215588   1.658   1.084   6.361  2.2166 -1.2018  0.0128
 1376SOL     OW15589   2.079   4.005   2.287  0.0956 -0.9667  0.5720
 1376SOL    HW115590   2.048   4.023   2.198  1.0877 -1.3336  0.1502
 1376SOL    HW215591   2.107   3.915   2.299  1.6328 -0.5990 -0.3020
 1377SOL     OW15592   2.427   3.197   5.298 -0.4537 -0.0363 -0.2285
 1377SOL    HW115593   2.438   3.283   5.257  0.4122 -0.3872 -0.7249
 1377SOL    HW215594   2.521   3.180   5.303 -0.6158 -0.7218  0.4498
 1378SOL     OW15595   3.351   3.313   2.577 -0.1411  0.1213  0.2545
 1378SOL    HW115596   3.421   3.292   2.515 -1.1118  0.8296 -1.0695
 1378SOL    HW215597   3.274   3.270   2.542  1.3801  0.5202 -3.5514
 1379SOL     OW15598   2.757   1.104  13.856 -0.2741  0.6185 -0.0591
 1379SOL    HW115599   2.786   1.025  13.811 -0.9928  0.6512 -0.5894
 1379SOL    HW215600   2.840   1.150  13.868 -0.1383  0.4178 -0.2485
 1380SOL     OW15601   1.057   0.315   7.541  0.2894 -0.3904 -0.0766
 1380SOL    HW115602   0.989   0.382   7.537  1.7529  1.0618 -0.5920
 1380SOL    HW215603   1.126   0.376   7.566  0.8012 -1.4304  1.0455
 1381SOL     OW15604   2.111   2.070  11.279  0.3712 -0.3393  0.5744
 1381SOL    HW115605   2.206   2.073  11.271  0.0096  0.4013 -3.4955
 1381SOL    HW215606   2.103   2.042  11.188 -1.2454  1.0532  0.2959
 1382SOL     OW15607   3.442   1.604  11.935  0.5738  0.5247 -0.0521
 1382SOL    HW115608   3.386   1.527  11.924  0.2393  0.8103 -0.3590
 1382SOL    HW215609   3.474   1.608  11.845  0.3257 -2.3669 -0.2558
 1383SOL     OW15610   3.858   0.567   3.901  0.5005 -0.7560 -0.3497
 1383SOL    HW115611   3.950   0.593   3.895  0.9403 -2.5926 -1.6669
 1383SOL    HW215612   3.855   0.474   3.879 -0.9243 -0.5298 -1.1189
 1384SOL     OW15613   3.099   4.460   3.336  0.2692  0.6600  0.7715
 1384SOL    HW115614   3.085   4.455   3.241  3.0969 -1.1884  0.4543
 1384SOL    HW215615   3.151   4.540   3.341  1.0128  0.2812 -0.7466
 1385SOL     OW15616   3.517   1.727  16.971 -0.1924 -0.2948 -0.4416
 1385SOL    HW115617   3.522   1.723  17.066 -0.4148 -0.5473 -0.4428
 1385SOL    HW215618   3.582   1.661  16.946  0.3172  1.0108 -2.6081
 1386SOL     OW15619   1.992   4.042   0.398 -0.1388  0.5664 -0.0896
 1386SOL    HW115620   1.911   4.086   0.423 -1.4734 -1.5767 -0.6285
 1386SOL    HW215621   2.043   4.058   0.478 -1.0535 -1.1740  0.8468
 1387SOL     OW15622   1.385   1.550   5.200  0.8389 -0.2100  0.2957
 1387SOL    HW115623   1.470   1.508   5.191 -0.2642 -2.3208 -0.3515
 1387SOL    HW215624   1.332   1.478   5.166 -2.0244  0.8922  2.4595
 1388SOL     OW15625   2.202   3.300   3.541 -0.1254 -0.3519 -0.1724
 1388SOL    HW115626   2.126   3.271   3.591 -0.4218 -0.9197 -0.9589
 1388SOL    HW215627   2.164   3.371   3.489  0.5284 -1.6511 -2.4043
 1389SOL     OW15628   4.098   2.469   5.747  0.3258  0.0628  0.2769
 1389SOL    HW115629   4.102   2.437   5.657 -1.0707  0.3777  0.1118
 1389SOL    HW215630   4.189   2.465   5.778  0.1028 -0.7275  0.8362
 1390SOL     OW15631   3.965   4.355   8.352  0.6096  0.3073  0.2845
 1390SOL    HW115632   3.902   4.336   8.282  1.3782  0.6085 -0.4895
 1390SOL    HW215633   3.914   4.406   8.415  2.3091 -0.6067  2.3835
 1391SOL     OW15634   0.146   2.909  14.735  0.5398  0.2647 -0.1468
 1391SOL    HW115635   0.218   2.897  14.797  1.1160  1.7449 -0.5027
 1391SOL    HW215636   0.115   2.822  14.712 -0.6622 -0.7718  5.3646
 1392SOL     OW15637   4.379   3.817   3.302  0.2302 -0.0102  0.5215
 1392SOL    HW115638   4.367   3.788   3.393 -1.2321 -0.1804  0.2737
 1392SOL    HW215639   4.337   3.903   3.304 -0.3681 -0.2445 -1.9653
 1393SOL     OW15640   3.013   1.086   6.461  0.7471 -0.0957  0.0679
 1393SOL    HW115641   2.975   1.101   6.547 -0.0706 -0.6944 -0.1935
 1393SOL    HW215642   3.018   1.176   6.429 -0.5671  0.6130  1.8632
 1394SOL     OW15643   4.055   1.264   4.592  0.1412 -0.7207 -0.2093
 1394SOL    HW115644   4.108   1.327   4.543  1.1651 -1.4479 -0.0305
 1394SOL    HW215645   3.989   1.233   4.529  0.5278 -0.7375 -0.6113
 1395SOL     OW15646   0.911   3.082   5.303  0.5501  0.3276 -0.4421
 1395SOL    HW115647   0.847   3.136   5.258  0.5884  1.1442  0.4904
 1395SOL    HW215648   0.888   2.998   5.264 -0.5044  0.9168 -1.0726
 1396SOL     OW15649   0.359   3.593  11.809 -0.3280 -0.0995 -0.2287
 1396SOL    HW115650   0.350   3.646  11.730  0.6296  1.6039  0.7974
 1396SOL    HW215651   0.328   3.658  11.872  0.1150 -1.4423  1.3515
 1397SOL     OW15652   2.840   0.662   4.913 -0.3555 -0.1661  0.1340
 1397SOL    HW115653   2.927   0.640   4.945 -1.0173 -0.5216  1.6922
 1397SOL    HW215654   2.860   0.755   4.898 -0.3327  0.2661  2.8790
 1398SOL     OW15655   2.209   3.052   0.375  0.2271  0.2857  0.3667
 1398SOL    HW115656   2.265   3.130   0.372 -0.1791  0.4983 -1.5789
 1398SOL    HW215657   2.227   3.032   0.467  0.0639  0.3050  0.4026
 1399SOL     OW15658   3.568   0.894   5.904 -0.3313  0.3468 -0.0704
 1399SOL    HW115659   3.534   0.836   5.837 -1.2150  3.2386 -2.1244
 1399SOL    HW215660   3.500   0.961   5.908  0.4447  1.0909  0.8663
 1400SOL     OW15661   4.709   0.743  12.448  0.1058  0.1282 -0.1347
 1400SOL    HW115662   0.031   0.693  12.382  1.5890 -0.4719  1.3703
 1400SOL    HW215663   0.050   0.756  12.516 -1.7047  0.6827  1.5125
 1401SOL     OW15664   4.173   2.307   8.620  0.3697 -0.0134  0.2589
 1401SOL    HW115665   4.092   2.354   8.599  0.8245 -0.0359 -1.4787
 1401SOL    HW215666   4.151   2.262   8.702  0.2961 -0.1007  0.1927
 1402SOL     OW15667   0.620   1.455  10.995 -0.0278  0.0458 -0.0822
 1402SOL    HW115668   0.534   1.496  11.005 -0.2482 -1.1191  2.6864
 1402SOL    HW215669   0.675   1.526  10.963  0.3533 -0.5901 -0.8146
 1403SOL     OW15670   3.069   3.816  11.921 -0.5928 -0.3188 -0.6407
 1403SOL    HW115671   3.058   3.817  12.016  2.1251  2.6265 -0.3963
 1403SOL    HW215672   3.040   3.904  11.897  0.3211  0.1831  0.1306
 1404SOL     OW15673   1.221   3.293   3.892  0.5647  0.2226 -0.0789
 1404SOL    HW115674   1.241   3.312   3.984  1.0208  1.4371 -0.4202
 1404SOL    HW215675   1.162   3.363   3.863 -1.6504 -0.3432  3.0871
 1405SOL     OW15676   2.882   2.464   4.387 -0.2100  0.1968  0.0309
 1405SOL    HW115677   2.901   2.401   4.317  0.8892  1.4475 -0.7860
 1405SOL    HW215678   2.955   2.439   4.443 -0.6290 -1.9647 -0.3902
 1406SOL     OW15679   3.251   1.135   3.776 -0.3063 -0.1102 -0.3157
 1406SOL    HW115680   3.170   1.185   3.763 -0.2345 -0.4687 -2.1048
 1406SOL    HW215681   3.244   1.123   3.871 -0.8035 -3.4562 -0.7975
 1407SOL     OW15682   2.690   1.829   5.591 -0.8310 -0.3808  0.2934
 1407SOL    HW115683   2.685   1.925   5.593  2.4741 -0.2585  1.9923
 1407SOL    HW215684   2.757   1.811   5.525 -1.4167 -1.2496 -0.0613
 1408SOL     OW15685   3.315   3.581   6.190 -0.0738 -0.1125  0.2308
 1408SOL    HW115686   3.362   3.501   6.165 -1.0906 -0.8536  0.7006
 1408SOL    HW215687   3.264   3.545   6.262  0.7416 -2.5866 -0.4053
 1409SOL     OW15688   0.125   2.036  15.172 -0.5473 -0.7573  0.1121
 1409SOL    HW115689   0.087   2.124  15.162  1.2819 -0.2070 -1.8412
 1409SOL    HW215690   0.154   2.036  15.263 -2.9959  0.7005  0.9174
 1410SOL     OW15691   1.675   1.698   7.944  0.7476 -0.1767  0.4257
 1410SOL    HW115692   1.749   1.747   7.908  2.0239 -2.7838 -0.4933
 1410SOL    HW215693   1.660   1.754   8.020  1.0437 -1.7759  1.6500
 1411SOL     OW15694   2.133   3.850   6.999  0.0627 -0.3487  0.2665
 1411SOL    HW115695   2.163   3.913   7.065 -0.7337  0.8089 -0.4670
 1411SOL    HW215696   2.208   3.791   6.995  0.1107 -0.2568 -0.1826
 1412SOL     OW15697   4.112   2.664  16.453 -0.7630  0.1905  0.6447
 1412SOL    HW115698   4.043   2.610  16.415  0.2251  2.0873 -3.8004
 1412SOL    HW215699   4.166   2.604  16.504 -1.3183  0.0181  1.0384
 1413SOL     OW15700   3.333   3.808   1.200 -0.1842 -0.0302 -0.3806
 1413SOL    HW115701   3.321   3.716   1.226 -0.3673  1.2821  4.2219
 1413SOL    HW215702   3.363   3.840   1.285  0.5965 -0.3694 -0.5247
 1414SOL     OW15703   4.094   4.670   7.967  0.2004 -0.2115 -0.2247
 1414SOL    HW115704   4.168   4.609   7.971  3.0891  3.2695  0.5364
 1414SOL    HW215705   4.029   4.604   7.988  0.2905  0.2382  1.5427
 1415SOL     OW15706   1.039   3.476   6.522 -0.4733 -0.3231  0.1048
 1415SOL    HW115707   1.061   3.558   6.564 -1.0239  0.1795 -0.5778
 1415SOL    HW215708   1.063   3.508   6.435  0.7772 -1.2539  0.0991
 1416SOL     OW15709   4.236   3.392   6.536  0.5276  0.6119  0.4006
 1416SOL    HW115710   4.199   3.459   6.477  0.8777  1.0847  0.7147
 1416SOL    HW215711   4.246   3.322   6.472  2.0423  1.5779 -0.4329
 1417SOL     OW15712   2.383   2.904   9.339  0.5138 -0.4437  0.0650
 1417SOL    HW115713   2.469   2.865   9.325  0.3427 -1.1471  0.9882
 1417SOL    HW215714   2.344   2.859   9.413 -2.3094  0.4100 -0.9102
 1418SOL     OW15715   0.570   3.217   4.932  0.2199 -0.0350 -0.5045
 1418SOL    HW115716   0.527   3.233   4.849  2.3434  1.1547 -1.3646
 1418SOL    HW215717   0.573   3.303   4.973 -1.4159 -0.2047 -0.0407
 1419SOL     OW15718   4.337   3.287  10.187  0.4943 -0.1909  0.4157
 1419SOL    HW115719   4.351   3.219  10.252  0.0717  0.2958  1.0203
 1419SOL    HW215720   4.282   3.351  10.233 -2.7789 -0.9754 -2.3994
 1420SOL     OW15721   0.725   2.000  11.204  0.2485  0.8289 -0.2001
 1420SOL    HW115722   0.636   1.964  11.205  0.7677 -0.4914 -1.1628
 1420SOL    HW215723   0.709   2.072  11.143 -1.3199  0.0231 -0.7347
 1421SOL     OW15724   0.358   2.031   5.298 -0.2049 -0.2431 -0.2330
 1421SOL    HW115725   0.286   1.971   5.321  1.5733 -1.8697  1.1093
 1421SOL    HW215726   0.432   1.974   5.280 -0.7471 -0.2354 -2.5201
 1422SOL     OW15727   2.259   1.989   7.333  0.0529  0.1772 -0.2434
 1422SOL    HW115728   2.275   2.046   7.257  1.7165 -0.5229 -0.4058
 1422SOL    HW215729   2.199   1.924   7.297 -0.2995 -0.6733  1.9079
 1423SOL     OW15730   1.416   4.472   5.229  0.7349  0.0577 -0.1231
 1423SOL    HW115731   1.349   4.531   5.263 -0.4921 -0.5506 -1.5039
 1423SOL    HW215732   1.369   4.388   5.230 -0.7914  0.9130 -0.2574
 1424SOL     OW15733   4.430   3.760   3.794  0.3381  0.2724  0.5057
 1424SOL    HW115734   4.352   3.708   3.812 -2.9413  4.4075 -1.6574
 1424SOL    HW215735   4.407   3.844   3.835 -2.4716 -0.5611  0.6439
 1425SOL     OW15736   0.160   3.313   5.658 -0.0391  0.2016 -0.0909
 1425SOL    HW115737   0.206   3.396   5.667 -0.5495  0.2472  2.3612
 1425SOL    HW215738   0.084   3.343   5.608 -2.6512 -0.8697  3.2047
 1426SOL     OW15739   4.258   2.581   2.225  0.3102  0.5095 -0.5919
 1426SOL    HW115740   4.224   2.601   2.312 -1.8844 -1.1832 -1.0701
 1426SOL    HW215741   4.234   2.662   2.181 -3.4443 -0.4093 -0.2024
 1427SOL     OW15742   2.340   0.610   2.315  0.0908 -0.0804  0.1268
 1427SOL    HW115743   2.330   0.658   2.233  0.6231 -1.1370 -0.5421
 1427SOL    HW215744   2.326   0.676   2.384  2.0980  1.3575 -0.8537
 1428SOL     OW15745   1.197   1.785  14.897  0.0635  0.3229 -0.8115
 1428SOL    HW115746   1.217   1.697  14.929  1.4647  0.8552 -0.2080
 1428SOL    HW215747   1.191   1.771  14.803 -3.4816 -0.6738 -0.4299
 1429SOL     OW15748   2.610   1.111   5.046  0.7408  0.1900  0.1920
 1429SOL    HW115749   2.626   1.187   4.989 -3.1132  0.0605 -1.0506
 1429SOL    HW215750   2.526   1.148   5.073  0.2815 -0.2529 -0.6209
 1430SOL     OW15751   0.622   1.855   4.727 -0.1244  0.4517 -0.4910
 1430SOL    HW115752   0.701   1.818   4.689  1.1189 -0.5471  3.0259
 1430SOL    HW215753   0.600   1.789   4.793  2.2764 -0.6379 -0.8092
 1431SOL     OW15754   4.436   4.670   7.644  0.4245  0.4404 -0.2571
 1431SOL    HW115755   4.433   4.619   7.725 -0.9833  0.5562 -0.2426
 1431SOL    HW215756   4.454   4.601   7.580 -0.8398  1.4315 -1.6757
 1432SOL     OW15757   2.688   0.976   0.540 -0.1004  0.1451  0.0304
 1432SOL    HW115758   2.710   1.068   0.557  0.4228 -0.3368  2.0133
 1432SOL    HW215759   2.776   0.960   0.505 -0.1373 -0.1625  0.0834
 1433SOL     OW15760   2.748   0.718   0.420 -0.2091  0.1195  0.0121
 1433SOL    HW115761   2.821   0.779   0.419  0.9648 -1.3366 -1.7186
 1433SOL    HW215762   2.712   0.745   0.335 -0.1755 -0.1249 -0.0801
 1434SOL     OW15763   4.256   1.903   1.930 -0.0506 -0.2710  0.1657
 1434SOL    HW115764   4.205   1.822   1.925 -0.3622 -0.1655  1.4999
 1434SOL    HW215765   4.192   1.949   1.984  2.4684  0.5123  2.5018
 1435SOL     OW15766   1.288   0.691  11.165  0.5371  0.2265 -0.1295
 1435SOL    HW115767   1.249   0.676  11.251 -2.6899 -1.2028 -1.8929
 1435SOL    HW215768   1.287   0.787  11.167  2.2303  0.2378  0.8301
 1436SOL     OW15769   1.466   0.064   4.418  0.8837 -0.0070  0.6484
 1436SOL    HW115770   1.441   0.081   4.509  0.7224 -2.1074  0.9825
 1436SOL    HW215771   1.536   0.129   4.413 -0.8201  1.5243 -2.9106
 1437SOL     OW15772   2.315   3.779   9.547 -0.2970  0.4493  0.4445
 1437SOL    HW115773   2.223   3.778   9.573 -0.7968 -0.0346 -1.3519
 1437SOL    HW215774   2.315   3.838   9.471  1.2600 -0.1323  0.0054
 1438SOL     OW15775   4.332   2.130   6.159  0.1895 -0.2642 -0.5844
 1438SOL    HW115776   4.427   2.140   6.163  0.2977 -0.7638 -1.9418
 1438SOL    HW215777   4.325   2.036   6.149  1.1686 -0.3416 -0.6091
 1439SOL     OW15778   0.010   2.937   3.604  0.1352 -0.4449  0.5940
 1439SOL    HW115779   4.715   3.030   3.618 -1.3915 -0.5696 -0.7174
 1439SOL    HW215780   0.057   2.925   3.522 -1.2725 -0.7887 -0.1790
 1440SOL     OW15781   4.345   3.482   1.773  0.2524  0.1539 -0.4689
 1440SOL    HW115782   4.340   3.418   1.702  3.6633 -1.6248  0.9076
 1440SOL    HW215783   4.266   3.535   1.761  1.3140  1.3576 -2.1807
 1441SOL     OW15784   4.657   2.552  15.194  0.0569  0.4411  1.2360
 1441SOL    HW115785   4.562   2.547  15.199 -0.1106  1.8644 -0.7584
 1441SOL    HW215786   4.681   2.517  15.108 -1.0466  1.2422  0.6035
 1442SOL     OW15787   4.263   1.932   4.212  0.3985 -0.2036  0.7936
 1442SOL    HW115788   4.176   1.893   4.222 -0.6638  1.7770 -0.6546
 1442SOL    HW215789   4.279   1.929   4.118 -1.8973  2.4822  0.3369
 1443SOL     OW15790   0.998   4.584   4.285  0.1497  0.0869  0.1371
 1443SOL    HW115791   0.927   4.580   4.349  1.2418 -1.7218  1.2613
 1443SOL    HW215792   1.074   4.609   4.338  0.0723 -1.2280  0.8893
 1444SOL     OW15793   0.314   1.765  13.237  0.2783 -0.0560  0.1415
 1444SOL    HW115794   0.382   1.830  13.217 -1.6295  2.9485  3.3040
 1444SOL    HW215795   0.296   1.736  13.148  1.2277 -0.8356  0.1973
 1445SOL     OW15796   2.785   1.777   2.875  0.2643 -0.3315  0.2545
 1445SOL    HW115797   2.689   1.779   2.876  0.1896 -1.8490 -2.1369
 1445SOL    HW215798   2.814   1.861   2.910 -0.1834 -0.4194  0.8371
 1446SOL     OW15799   1.772   3.900   7.369 -0.5427  0.0871 -0.5724
 1446SOL    HW115800   1.848   3.954   7.392 -0.2636 -0.5972  0.1268
 1446SOL    HW215801   1.805   3.849   7.295 -0.5059  0.0947 -0.5613
 1447SOL     OW15802   1.484   0.331   3.020  0.0953 -0.1135  0.0773
 1447SOL    HW115803   1.479   0.409   2.965  1.3758  0.3932  0.7017
 1447SOL    HW215804   1.579   0.321   3.030  0.1998  0.1115 -0.6593
 1448SOL     OW15805   2.389   1.257   5.113  0.9109 -0.1975 -1.2255
 1448SOL    HW115806   2.412   1.334   5.165  1.5907 -1.2104 -0.0234
 1448SOL    HW215807   2.335   1.309   5.053 -0.4876 -1.6362 -1.2109
 1449SOL     OW15808   3.078   2.177  12.989  0.5444  0.3238  0.1671
 1449SOL    HW115809   3.012   2.244  13.007 -1.5972 -1.0493 -2.4729
 1449SOL    HW215810   3.050   2.111  13.052 -1.8896  2.1000  0.9326
 1450SOL     OW15811   2.769   3.260   3.312  0.0326  0.0185 -0.3553
 1450SOL    HW115812   2.792   3.317   3.386  1.9642  1.1156 -1.8071
 1450SOL    HW215813   2.748   3.319   3.240  1.3971  0.4604 -0.3898
 1451SOL     OW15814   0.490   4.132   0.380 -0.0320 -0.9135 -0.2986
 1451SOL    HW115815   0.420   4.128   0.445 -0.4745  0.3231 -0.7017
 1451SOL    HW215816   0.454   4.070   0.316 -2.1199  0.1657 -0.1555
 1452SOL     OW15817   3.045   2.322  11.051 -0.1983 -0.2582 -0.3200
 1452SOL    HW115818   3.097   2.256  11.096 -0.3551  0.3554  0.7426
 1452SOL    HW215819   3.112   2.371  11.004  0.0139  1.7614  2.0844
 1453SOL     OW15820   2.998   3.337  16.904 -0.1991 -0.0140 -0.9328
 1453SOL    HW115821   2.997   3.431  16.888  2.6633  0.3741  1.0999
 1453SOL    HW215822   2.983   3.330  16.998  1.6677 -1.3209 -0.7293
 1454SOL     OW15823   0.675   4.691  11.164  0.3926  0.0571 -0.3334
 1454SOL    HW115824   0.718   4.661  11.083  2.6638  2.4594 -0.0129
 1454SOL    HW215825   0.584   4.701  11.138 -0.2314 -1.7961  1.1620
 1455SOL     OW15826   3.939   3.727  17.295  0.4204  0.0558  0.8389
 1455SOL    HW115827   4.019   3.757  17.339 -0.0835  0.7867  1.2536
 1455SOL    HW215828   3.910   3.811  17.260  1.6112 -0.1546 -0.6255
 1456SOL     OW15829   4.295   1.473   5.956  0.0067  0.1860  0.1597
 1456SOL    HW115830   4.375   1.443   5.999 -0.8873  0.0242  1.7088
 1456SOL    HW215831   4.235   1.404   5.983  3.2823 -2.7154 -0.0076
 1457SOL     OW15832   3.012   4.601   9.815  0.2398 -0.2057 -0.1553
 1457SOL    HW115833   3.025   4.694   9.836  0.6611 -0.4250  0.5498
 1457SOL    HW215834   3.029   4.562   9.901 -0.1359 -1.3131 -0.5899
 1458SOL     OW15835   4.561   4.171   3.190  0.1650  0.0729 -0.1523
 1458SOL    HW115836   4.553   4.264   3.213  2.6683  0.3525 -0.5100
 1458SOL    HW215837   4.497   4.157   3.120  1.8619  0.6603 -1.7826
 1459SOL     OW15838   4.433   1.397   4.735 -0.1274 -0.9958 -0.2719
 1459SOL    HW115839   4.343   1.423   4.716  0.4044  0.0235 -1.4491
 1459SOL    HW215840   4.430   1.311   4.692 -0.1388 -2.2568  2.2701
 1460SOL     OW15841   0.795   1.338   7.126  0.5474  0.6602 -0.8255
 1460SOL    HW115842   0.821   1.257   7.081 -2.0387 -0.0905 -1.0269
 1460SOL    HW215843   0.715   1.361   7.077 -0.1869  1.3623  0.7164
 1461SOL     OW15844   0.545   1.425  14.358  0.1986  0.0194  0.4068
 1461SOL    HW115845   0.641   1.418  14.363  0.3043  0.8927 -0.2334
 1461SOL    HW215846   0.533   1.506  14.308  0.2677 -0.4685 -0.4152
 1462SOL     OW15847   2.365   2.858   6.988 -0.5505 -0.4556  0.0471
 1462SOL    HW115848   2.445   2.858   6.935 -1.7084 -0.7641 -1.7092
 1462SOL    HW215849   2.371   2.947   7.023 -0.9324  0.6121 -2.6205
 1463SOL     OW15850   4.120   3.581   1.698  0.4073  0.0971 -0.6698
 1463SOL    HW115851   4.052   3.642   1.728 -1.7774 -1.4533 -2.5056
 1463SOL    HW215852   4.067   3.542   1.629 -0.9538 -0.5226  0.7101
 1464SOL     OW15853   2.875   4.342   3.456  0.1334  0.1069  0.5029
 1464SOL    HW115854   2.959   4.374   3.425 -0.5853  1.4913 -0.0389
 1464SOL    HW215855   2.823   4.346   3.376 -1.5999 -1.2443  1.5445
 1465SOL     OW15856   2.697   4.584   6.568  0.1240 -0.4995 -0.2260
 1465SOL    HW115857   2.703   4.662   6.623 -3.5054  0.2774 -0.9606
 1465SOL    HW215858   2.791   4.573   6.556 -0.1408 -0.1681 -2.4684
 1466SOL     OW15859   3.354   2.589   2.461 -0.1405  0.5205 -0.1531
 1466SOL    HW115860   3.259   2.596   2.459 -0.2128 -0.3424  0.2997
 1466SOL    HW215861   3.377   2.596   2.554 -3.2481  1.6494  0.5259
 1467SOL     OW15862   0.738   4.368   6.964 -0.4530  0.1885  0.1070
 1467SOL    HW115863   0.766   4.301   6.902  0.1495  0.5532 -0.0077
 1467SOL    HW215864   0.773   4.447   6.925  1.7291 -0.7448  0.1470
 1468SOL     OW15865   4.110   1.166  10.209  0.1792  0.0516 -0.2467
 1468SOL    HW115866   4.015   1.175  10.213  0.4093  2.1449  0.2407
 1468SOL    HW215867   4.114   1.083  10.160  1.8937  0.4211 -0.7449
 1469SOL     OW15868   2.898   3.719   9.952 -0.3752  0.4973 -0.3745
 1469SOL    HW115869   2.841   3.795   9.940 -0.3852  0.0206 -3.3843
 1469SOL    HW215870   2.834   3.675  10.009  0.5668 -0.1943  0.1498
 1470SOL     OW15871   2.144   1.013   8.872  0.0606  0.0084 -0.5645
 1470SOL    HW115872   2.130   0.984   8.962  0.6366  1.5395  0.0077
 1470SOL    HW215873   2.237   1.036   8.875  0.3564 -1.3881  0.8801
 1471SOL     OW15874   3.120   1.616  12.067 -0.1649  0.1379  0.1279
 1471SOL    HW115875   3.123   1.568  12.150  0.9258 -0.4539 -0.2621
 1471SOL    HW215876   3.180   1.564  12.014 -0.4402  0.7774 -0.7960
 1472SOL     OW15877   1.213   3.239   5.196  0.7243  0.2257  0.3041
 1472SOL    HW115878   1.156   3.269   5.125  0.3758  1.6135  1.1717
 1472SOL    HW215879   1.168   3.264   5.277 -0.0126  0.1910 -0.0978
 1473SOL     OW15880   4.211   1.115   7.972 -0.0724 -0.3106 -0.1208
 1473SOL    HW115881   4.138   1.174   7.952 -0.2101 -0.6237 -0.5531
 1473SOL    HW215882   4.287   1.153   7.929  0.3019 -1.0703 -0.1290
 1474SOL     OW15883   0.783   3.009  10.608 -0.0678 -0.2749  0.1408
 1474SOL    HW115884   0.716   2.942  10.619  1.0487 -1.5216 -0.6726
 1474SOL    HW215885   0.854   2.946  10.608  1.4319  1.4125  0.1994
 1475SOL     OW15886   0.257   2.774   5.560  0.1914  0.6306 -0.0924
 1475SOL    HW115887   0.246   2.707   5.627  1.4332  0.2913 -0.2301
 1475SOL    HW215888   0.176   2.762   5.510  0.3296  1.8804 -0.6221
 1476SOL     OW15889   2.549   0.285   6.016  0.2316 -0.2847  0.0923
 1476SOL    HW115890   2.514   0.353   6.074 -1.6120 -0.2834 -1.0266
 1476SOL    HW215891   2.607   0.334   5.958  2.2308 -1.7532  0.8482
 1477SOL     OW15892   0.364   2.774  11.241 -0.4650 -0.2200  0.6442
 1477SOL    HW115893   0.304   2.805  11.173  0.5794  1.8580  0.6915
 1477SOL    HW215894   0.409   2.855  11.265 -0.9783  0.0191  0.8020
 1478SOL     OW15895   1.415   0.406  14.350 -0.2771 -0.0906  0.4880
 1478SOL    HW115896   1.496   0.363  14.378  0.2914  0.6261 -0.0159
 1478SOL    HW215897   1.431   0.400  14.255  0.7574  1.9311  0.5290
 1479SOL     OW15898   0.851   0.727  10.240 -0.3242 -0.5277  0.3376
 1479SOL    HW115899   0.848   0.730  10.144 -1.2323 -0.9937  0.3530
 1479SOL    HW215900   0.759   0.717  10.261 -0.2971 -0.7993  0.3312
 1480SOL     OW15901   0.810   4.025   3.468 -0.5418 -0.4588 -0.2567
 1480SOL    HW115902   0.877   4.093   3.463 -1.2873  0.2459 -0.7124
 1480SOL    HW215903   0.866   3.949   3.451 -0.4375 -0.5894  0.6572
 1481SOL     OW15904   2.526   3.531  10.265 -0.3273 -0.1967 -0.2631
 1481SOL    HW115905   2.484   3.610  10.299  1.1719  0.9960 -1.2128
 1481SOL    HW215906   2.449   3.478  10.246 -0.3084 -0.5460  0.6223
 1482SOL     OW15907   4.222   1.491   8.919  0.1486 -0.9455  0.1580
 1482SOL    HW115908   4.149   1.544   8.887  0.0876 -1.9469 -1.3353
 1482SOL    HW215909   4.292   1.531   8.867 -0.7212  1.1755  0.6010
 1483SOL     OW15910   0.803   1.882  13.907  0.3021 -0.3142 -0.6540
 1483SOL    HW115911   0.738   1.914  13.844 -3.0959 -1.3082  2.3457
 1483SOL    HW215912   0.760   1.803  13.940 -0.5459  0.3213 -0.2323
 1484SOL     OW15913   1.497   3.616   4.435 -0.1014 -0.0761 -0.5068
 1484SOL    HW115914   1.582   3.658   4.419 -0.0018 -0.6786 -1.5009
 1484SOL    HW215915   1.520   3.523   4.440  0.6344  0.0525 -1.5115
 1485SOL     OW15916   3.330   2.627   7.803 -0.5706  0.7979 -0.0690
 1485SOL    HW115917   3.403   2.574   7.770 -1.1047  1.6879 -2.6791
 1485SOL    HW215918   3.268   2.608   7.732  0.3144 -1.1652 -0.3211
 1486SOL     OW15919   2.232   0.447   0.898 -0.1027 -0.3030  0.2711
 1486SOL    HW115920   2.219   0.413   0.986 -3.5049 -1.1411 -0.5559
 1486SOL    HW215921   2.323   0.418   0.906  1.0024  3.1255  0.0611
 1487SOL     OW15922   1.811   3.522   2.015 -0.2618  0.1306  0.2683
 1487SOL    HW115923   1.860   3.467   1.954  1.4716  1.3039  0.5817
 1487SOL    HW215924   1.793   3.460   2.086 -1.8976  0.4518  0.1417
 1488SOL     OW15925   0.307   1.010  10.079 -0.0926  0.6143 -0.6797
 1488SOL    HW115926   0.369   0.977  10.145 -0.7943 -1.5148 -1.0887
 1488SOL    HW215927   0.252   1.076  10.121 -2.0619 -0.7736 -1.1342
 1489SOL     OW15928   4.241   2.372   1.082 -0.0934 -0.2971 -0.8912
 1489SOL    HW115929   4.156   2.414   1.067 -0.4912 -0.8903 -0.2441
 1489SOL    HW215930   4.259   2.340   0.994  1.1929  1.1886 -1.1742
 1490SOL     OW15931   1.147   4.136  16.710  0.2224  0.0460  0.0355
 1490SOL    HW115932   1.161   4.049  16.674  0.7785  1.0625 -2.1812
 1490SOL    HW215933   1.203   4.187  16.652 -0.4964  1.4075  0.5396
 1491SOL     OW15934   1.415   4.436   4.080  0.1416 -0.2185  0.5421
 1491SOL    HW115935   1.365   4.518   4.086 -0.3982 -0.4360 -0.8511
 1491SOL    HW215936   1.340   4.380   4.056  0.9246 -1.3236  0.6741
 1492SOL     OW15937   1.440   0.324   5.380 -0.6530 -0.1145  0.4716
 1492SOL    HW115938   1.423   0.289   5.468  0.5047 -0.4060  0.5747
 1492SOL    HW215939   1.517   0.279   5.345 -0.5173  1.4911 -1.2753
 1493SOL     OW15940   4.082   0.654  13.434  0.3811  0.5696  0.4920
 1493SOL    HW115941   3.990   0.674  13.423  0.5992 -0.3366 -2.8710
 1493SOL    HW215942   4.098   0.637  13.527 -1.3390 -0.8211  0.5366
 1494SOL     OW15943   1.338   1.291   4.705 -0.6335 -0.1589  0.3240
 1494SOL    HW115944   1.300   1.258   4.623  0.9405 -2.2815  0.4325
 1494SOL    HW215945   1.391   1.364   4.676 -2.4189  1.8283  2.1073
 1495SOL     OW15946   4.256   3.424   0.061 -0.5243  0.7064 -0.8602
 1495SOL    HW115947   4.303   3.420  17.677 -0.1248  2.5860 -0.7115
 1495SOL    HW215948   4.250   3.517   0.081 -1.2433  0.3441  0.6693
 1496SOL     OW15949   0.711   3.553  10.390 -0.2544  0.2451 -0.0246
 1496SOL    HW115950   0.616   3.550  10.386 -0.2114  0.1198 -1.1442
 1496SOL    HW215951   0.742   3.556  10.480  1.7431 -0.3102 -0.6877
 1497SOL     OW15952   0.571   3.316   8.413 -0.0429 -0.1475 -0.3443
 1497SOL    HW115953   0.515   3.335   8.338 -1.6808 -0.5824  0.7757
 1497SOL    HW215954   0.658   3.349   8.391 -0.2213 -0.0658 -0.9173
 1498SOL     OW15955   1.836   2.658   1.682 -0.6634  0.1481  0.0268
 1498SOL    HW115956   1.883   2.591   1.732 -0.4236  0.5916  0.3938
 1498SOL    HW215957   1.800   2.599   1.615  0.0126 -0.2452  0.0122
 1499SOL     OW15958   1.690   0.466   6.619 -0.5285 -0.0884 -0.0131
 1499SOL    HW115959   1.600   0.488   6.595 -0.3598 -1.9772 -2.3259
 1499SOL    HW215960   1.706   0.511   6.703 -0.0453 -1.5991  0.7087
 1500SOL     OW15961   1.739   3.951  15.549  0.1708 -0.3491 -0.1331
 1500SOL    HW115962   1.834   3.940  15.548  0.2910  0.5448  1.4637
 1500SOL    HW215963   1.708   3.886  15.611  2.1753 -1.9650 -0.8289
 1501SOL     OW15964   2.601   1.012   7.042 -0.5143 -0.2388  0.0422
 1501SOL    HW115965   2.560   0.965   7.114  0.4538  1.0520  1.4322
 1501SOL    HW215966   2.657   0.942   7.008 -0.8808 -1.5894  2.2638
 1502SOL     OW15967   0.350   2.512  11.302  0.0590  0.1464  0.3812
 1502SOL    HW115968   0.317   2.524  11.391  1.1657  1.3730  0.6174
 1502SOL    HW215969   0.361   2.605  11.284  3.2346 -0.3878 -0.4621
 1503SOL     OW15970   3.877   0.854   5.427 -0.3736 -0.1901 -0.1712
 1503SOL    HW115971   3.813   0.909   5.472 -0.1342  1.4288 -1.8003
 1503SOL    HW215972   3.813   0.819   5.365 -0.6413  0.3523 -0.2063
 1504SOL     OW15973   3.296   3.555   3.085 -0.6085  0.2074 -0.4808
 1504SOL    HW115974   3.293   3.490   3.015  2.0257 -2.2327  1.6019
 1504SOL    HW215975   3.387   3.553   3.116 -0.4315 -0.0672 -1.0063
 1505SOL     OW15976   2.184   0.358   2.214 -0.3663 -0.3656 -0.2713
 1505SOL    HW115977   2.121   0.413   2.261 -0.2255 -2.1269  1.9497
 1505SOL    HW215978   2.140   0.357   2.129 -0.2636  0.2064 -0.3281
 1506SOL     OW15979   2.965   2.611   5.014 -0.2066 -0.0243  0.6463
 1506SOL    HW115980   2.871   2.606   4.997 -0.2693  1.2557  0.6106
 1506SOL    HW215981   3.001   2.635   4.928  0.9735 -1.1939  0.8168
 1507SOL     OW15982   2.630   2.053  11.105  0.3764  0.3414  0.0977
 1507SOL    HW115983   2.656   2.000  11.030 -3.2579 -2.5983  0.8965
 1507SOL    HW215984   2.656   2.140  11.076  1.3402  0.7764  2.2365
 1508SOL     OW15985   1.274   0.873   6.157  0.3756  0.2474 -0.1952
 1508SOL    HW115986   1.309   0.896   6.071 -0.6135  0.9068 -0.4279
 1508SOL    HW215987   1.331   0.807   6.196  1.8918 -0.5763 -3.8397
 1509SOL     OW15988   1.369   1.523  11.910  0.0912 -0.2058  0.6148
 1509SOL    HW115989   1.284   1.514  11.866 -0.5036  1.4283  1.4382
 1509SOL    HW215990   1.345   1.507  12.001  1.7743 -2.4550  0.6736
 1510SOL     OW15991   1.446   0.800   6.425 -0.6286  0.1717 -0.2167
 1510SOL    HW115992   1.458   0.748   6.346  0.2310  1.2244 -0.7759
 1510SOL    HW215993   1.361   0.845   6.419 -0.7494  0.1519  1.2577
 1511SOL     OW15994   1.555   2.096  12.247  0.0667  0.0784 -0.2779
 1511SOL    HW115995   1.642   2.108  12.286  0.9373 -3.8057 -1.0669
 1511SOL    HW215996   1.493   2.103  12.320 -0.4457  1.0496 -0.8056
 1512SOL     OW15997   1.083   1.815   0.474  0.1916 -0.2259 -0.7127
 1512SOL    HW115998   1.107   1.742   0.417 -1.4404 -1.4141  0.1322
 1512SOL    HW215999   1.109   1.898   0.435  1.2577 -0.5672 -0.7388
 1513SOL     OW16000   4.058   2.934   7.407  0.3832  0.2501  0.4055
 1513SOL    HW116001   4.074   2.961   7.317 -1.9717  1.3816  0.3411
 1513SOL    HW216002   4.115   2.857   7.417  2.0329  1.5761  1.2695
 1514SOL     OW16003   4.411   2.748   6.068  0.2781  0.5969  0.2482
 1514SOL    HW116004   4.389   2.826   6.118 -0.4393  1.8544 -2.0564
 1514SOL    HW216005   4.335   2.718   6.019 -0.0733  1.1730  0.4490
 1515SOL     OW16006   2.054   4.315   8.414 -0.0205  0.0274 -0.4108
 1515SOL    HW116007   1.979   4.269   8.452  0.1505 -2.0073 -2.5170
 1515SOL    HW216008   2.061   4.388   8.475  0.6087 -0.1803 -0.2315
 1516SOL     OW16009   1.540   2.560  11.778  0.0560 -0.2454  0.1496
 1516SOL    HW116010   1.571   2.645  11.746  0.1542  0.3846  1.9449
 1516SOL    HW216011   1.447   2.579  11.783 -0.4256 -2.3634 -0.8584
 1517SOL     OW16012   4.560   1.815  16.009 -0.0231 -0.0573 -0.5951
 1517SOL    HW116013   4.647   1.796  15.975  0.7189 -0.4368  1.4887
 1517SOL    HW216014   4.565   1.907  16.037  1.8840  0.1846 -1.7298
 1518SOL     OW16015   0.026   1.643  10.059 -0.5700  0.2176  0.0381
 1518SOL    HW116016   4.669   1.675  10.020 -0.6234  0.8871  0.7015
 1518SOL    HW216017   4.723   1.634  10.151  0.4280 -1.0160  0.2130
 1519SOL     OW16018   0.337   0.760   3.842 -0.4877  0.2745 -0.2355
 1519SOL    HW116019   0.388   0.715   3.776 -0.3648 -0.7624  0.5666
 1519SOL    HW216020   0.399   0.827   3.873  0.5979  0.3074 -2.5319
 1520SOL     OW16021   0.127   1.340   7.015 -0.0243  0.6289 -0.2080
 1520SOL    HW116022   0.211   1.301   7.040 -1.0021 -0.7091  0.9463
 1520SOL    HW216023   0.129   1.415   7.074 -2.6887  0.1314  0.5081
 1521SOL     OW16024   0.577   4.172  14.382  0.5586  0.0639 -0.6669
 1521SOL    HW116025   0.530   4.190  14.463  1.8860  1.7305 -0.2581
 1521SOL    HW216026   0.594   4.263  14.356  1.2095  0.4380  1.1205
 1522SOL     OW16027   4.512   2.906  10.007  0.1319  0.0706  0.2077
 1522SOL    HW116028   4.513   2.843  10.080 -1.0235  2.8412  2.6362
 1522SOL    HW216029   4.482   2.853   9.933 -0.3760  1.5300 -0.6480
 1523SOL     OW16030   4.343   3.421   4.917  0.3140 -0.4509 -0.4026
 1523SOL    HW116031   4.322   3.432   4.824 -0.8987 -0.8984 -0.1891
 1523SOL    HW216032   4.438   3.421   4.916  0.3073  1.8553 -1.1668
 1524SOL     OW16033   3.451   0.834   9.186 -0.0943  0.2748 -0.3018
 1524SOL    HW116034   3.489   0.771   9.248 -3.0823 -0.1465  1.0905
 1524SOL    HW216035   3.515   0.837   9.115 -0.7603  0.3878 -0.9014
 1525SOL     OW16036   1.801   4.267   9.143  0.6154  0.0517  0.0808
 1525SOL    HW116037   1.877   4.230   9.098  0.7447  1.6077 -0.9946
 1525SOL    HW216038   1.749   4.190   9.167  1.5605 -1.2669 -2.0607
 1526SOL     OW16039   1.160   1.489   6.331  0.2976  0.0916 -0.4276
 1526SOL    HW116040   1.231   1.483   6.267 -0.3697 -1.0915 -1.0381
 1526SOL    HW216041   1.101   1.552   6.289 -3.0846 -3.1156 -0.3999
 1527SOL     OW16042   3.316   2.014   4.595 -0.1113  0.5039  0.3783
 1527SOL    HW116043   3.228   1.988   4.623 -0.3022  0.6516 -0.0823
 1527SOL    HW216044   3.327   2.094   4.646 -2.4234  1.9127 -1.3273
 1528SOL     OW16045   3.918   3.126   2.321 -0.5044 -0.0989  0.4847
 1528SOL    HW116046   3.879   3.056   2.372 -1.9083  1.7567  1.9203
 1528SOL    HW216047   3.847   3.150   2.262 -0.2155  2.0315  1.0108
 1529SOL     OW16048   1.853   3.626  13.005  0.2906 -0.0166 -0.2337
 1529SOL    HW116049   1.940   3.645  12.969 -0.3106 -0.0006 -1.6923
 1529SOL    HW216050   1.831   3.714  13.033  1.1831  0.7414 -1.9211
 1530SOL     OW16051   3.293   2.153   1.304  0.2356  0.0078 -0.4669
 1530SOL    HW116052   3.304   2.058   1.298  0.2121  0.1145 -2.2207
 1530SOL    HW216053   3.227   2.172   1.238 -1.8610  0.1853  1.6847
 1531SOL     OW16054   2.572   3.778  16.867 -0.3605  0.1360  0.0103
 1531SOL    HW116055   2.618   3.718  16.808  2.4450  1.2502  1.0341
 1531SOL    HW216056   2.580   3.736  16.953  2.4190 -0.3266 -0.4620
 1532SOL     OW16057   3.841   1.564   4.631 -0.0527  0.4068 -0.3627
 1532SOL    HW116058   3.891   1.484   4.648  1.2056  0.7641 -2.4420
 1532SOL    HW216059   3.846   1.610   4.715  1.1927 -0.2606 -0.0641
 1533SOL     OW16060   0.972   4.261  16.149  0.2589 -0.3670 -0.1817
 1533SOL    HW116061   1.052   4.312  16.162  0.8936 -1.1411 -0.9788
 1533SOL    HW216062   0.917   4.326  16.107  0.4774 -1.4240 -2.1031
 1534SOL     OW16063   1.576   2.661  12.231 -0.5112 -0.1459  0.1023
 1534SOL    HW116064   1.482   2.654  12.251 -0.7413 -0.6994 -1.1795
 1534SOL    HW216065   1.610   2.688  12.317  0.3693  0.7057 -0.5125
 1535SOL     OW16066   0.357   1.709  12.496 -0.0526  0.1687  0.7188
 1535SOL    HW116067   0.395   1.678  12.414 -1.5608 -0.9289  0.4264
 1535SOL    HW216068   0.426   1.774  12.513  0.0871  0.1102  0.3731
 1536SOL     OW16069   0.522   0.231   6.655  0.2905 -0.0931 -0.2775
 1536SOL    HW116070   0.494   0.196   6.570  1.1117 -1.1877 -0.0987
 1536SOL    HW216071   0.596   0.287   6.632  0.1072  0.0287 -0.5703
 1537SOL     OW16072   0.872   3.968   5.464 -0.2575  0.8249 -0.6278
 1537SOL    HW116073   0.931   3.894   5.481 -1.0439  0.3347 -0.0365
 1537SOL    HW216074   0.915   4.030   5.522 -0.4458  0.9521 -0.6274
 1538SOL     OW16075   4.274   0.406   5.353  0.1104  0.0488  0.4261
 1538SOL    HW116076   4.338   0.391   5.423  0.2297 -1.2877  0.0361
 1538SOL    HW216077   4.230   0.489   5.370  1.9181  1.3022 -0.9642
 1539SOL     OW16078   1.023   1.562   7.563 -0.4169  0.0441  0.0010
 1539SOL    HW116079   1.108   1.556   7.520  0.0267 -0.8142  0.9782
 1539SOL    HW216080   1.019   1.655   7.585  0.3650 -0.4231  2.1325
 1540SOL     OW16081   1.802   4.077   6.408  0.1323  0.0485  0.2619
 1540SOL    HW116082   1.875   4.021   6.436 -0.4515 -1.5349 -1.3378
 1540SOL    HW216083   1.845   4.118   6.333 -0.1475 -0.5602 -0.2400
 1541SOL     OW16084   0.646   2.135  15.267 -0.1155  0.4225  0.0954
 1541SOL    HW116085   0.566   2.176  15.298 -0.5148  0.2239 -0.6746
 1541SOL    HW216086   0.628   2.126  15.174 -3.0240 -0.1452  0.7057
 1542SOL     OW16087   2.302   4.514   8.619  0.2516 -0.3451  0.0722
 1542SOL    HW116088   2.273   4.595   8.661  1.4465 -0.7837  1.7327
 1542SOL    HW216089   2.378   4.486   8.670 -1.0176 -0.0583  2.1181
 1543SOL     OW16090   4.364   1.639   8.734 -0.1742 -0.1161 -0.1827
 1543SOL    HW116091   4.305   1.663   8.663 -1.6081 -0.3305  0.9271
 1543SOL    HW216092   4.419   1.577   8.687 -2.5753 -3.2654  1.2247
 1544SOL     OW16093   3.145   2.520  15.425 -0.3693  0.1532  0.0490
 1544SOL    HW116094   3.236   2.507  15.449  0.0005 -2.1162 -2.5451
 1544SOL    HW216095   3.149   2.470  15.343 -1.3576 -0.6154  0.4611
 1545SOL     OW16096   0.245   3.998   1.786 -0.0636 -0.2200 -0.6695
 1545SOL    HW116097   0.158   3.986   1.825 -0.3612  1.1130 -0.9368
 1545SOL    HW216098   0.299   3.945   1.846  1.0052  0.2790 -1.1959
 1546SOL     OW16099   2.651   1.418   6.876  0.0516 -0.1237 -0.2848
 1546SOL    HW116100   2.675   1.326   6.888  1.0548  0.0910 -0.6479
 1546SOL    HW216101   2.730   1.457   6.838  0.8590 -0.5782  0.9202
 1547SOL     OW16102   2.254   0.582   1.875 -0.6540  0.1414  0.1555
 1547SOL    HW116103   2.255   0.620   1.787  1.4674 -0.1398  0.0505
 1547SOL    HW216104   2.268   0.653   1.938 -1.4595  0.3138  0.1371
 1548SOL     OW16105   0.073   3.543   7.834  0.0243  0.1202  0.8825
 1548SOL    HW116106   0.126   3.466   7.817 -1.6075 -0.7581 -0.1756
 1548SOL    HW216107   0.012   3.512   7.902 -1.8736 -1.2632 -1.4640
 1549SOL     OW16108   1.510   4.183   9.775 -0.8919 -0.4590 -0.5315
 1549SOL    HW116109   1.458   4.256   9.740 -2.0243 -0.3906  1.3239
 1549SOL    HW216110   1.446   4.114   9.790  0.5717 -1.2030  2.1868
 1550SOL     OW16111   2.780   1.688   7.033  0.5350  0.2448 -0.7030
 1550SOL    HW116112   2.801   1.722   6.947  0.5244  3.1511  0.4382
 1550SOL    HW216113   2.685   1.686   7.042  0.5649  0.6755 -0.2707
 1551SOL     OW16114   3.856   0.508   7.409  0.3319  0.0305  0.3478
 1551SOL    HW116115   3.770   0.551   7.405 -0.0446 -0.5916  1.8019
 1551SOL    HW216116   3.844   0.436   7.470 -1.3017 -0.4926 -0.6123
 1552SOL     OW16117   2.115   3.748  16.519  0.0579 -0.3628 -0.2022
 1552SOL    HW116118   2.063   3.815  16.563 -0.4804 -0.6637 -0.3849
 1552SOL    HW216119   2.092   3.759  16.427  1.0714 -0.4298 -0.4685
 1553SOL     OW16120   0.085   2.814   9.480  0.0916  0.3471 -0.4017
 1553SOL    HW116121   0.053   2.876   9.545  0.3543  1.8322 -1.6769
 1553SOL    HW216122   0.140   2.766   9.542 -0.3073 -1.2338 -1.2712
 1554SOL     OW16123   0.354   4.176  10.220 -0.7450  0.4220 -0.4019
 1554SOL    HW116124   0.408   4.097  10.207  2.6595  2.2040  2.8317
 1554SOL    HW216125   0.337   4.199  10.129 -0.5303  0.5969 -0.3985
 1555SOL     OW16126   1.338   3.563  14.471 -0.1233  0.0522 -0.5556
 1555SOL    HW116127   1.325   3.658  14.475  2.2032  0.3945 -1.0994
 1555SOL    HW216128   1.292   3.543  14.389 -0.3456 -1.0655 -0.1518
 1556SOL     OW16129   0.962   1.789  11.643  0.0839 -0.4231 -0.0689
 1556SOL    HW116130   0.904   1.835  11.582  0.8850 -0.7447 -1.0739
 1556SOL    HW216131   1.016   1.737  11.584  0.7192 -1.2427  1.2430
 1557SOL     OW16132   0.382   3.162   5.757  0.3853 -0.5116 -0.1812
 1557SOL    HW116133   0.423   3.243   5.726  0.9632  0.4980  3.2353
 1557SOL    HW216134   0.289   3.185   5.764  0.2283 -1.2567  0.1345
 1558SOL     OW16135   1.335   2.678  15.762 -0.3909  0.1465 -0.1289
 1558SOL    HW116136   1.355   2.596  15.805  0.4779  0.6544  0.4279
 1558SOL    HW216137   1.262   2.657  15.703  0.6568  0.0172 -1.3780
 1559SOL     OW16138   0.370   3.567   5.136  0.6338 -0.0829  0.2947
 1559SOL    HW116139   0.333   3.491   5.091  0.3419  0.4684 -0.3912
 1559SOL    HW216140   0.346   3.641   5.079 -0.3944 -0.5950  0.0583
 1560SOL     OW16141   1.851   2.400  11.122 -0.7229  0.0633 -0.2405
 1560SOL    HW116142   1.862   2.422  11.030  0.4149  1.1349  0.1423
 1560SOL    HW216143   1.933   2.432  11.160 -1.4529  1.4456  0.2010
 1561SOL     OW16144   3.934   1.975   3.277  0.4371  0.2353  0.1607
 1561SOL    HW116145   3.935   1.944   3.186 -0.6613  1.1650 -0.1727
 1561SOL    HW216146   4.028   1.967   3.290  0.6116  1.5935 -0.3050
 1562SOL     OW16147   0.148   3.994   0.920 -0.0857 -0.1333  0.0525
 1562SOL    HW116148   0.203   3.938   0.975  1.5081  1.5714  0.1969
 1562SOL    HW216149   0.209   4.049   0.870 -0.1357 -1.1900 -1.1845
 1563SOL     OW16150   3.933   0.772   5.039 -0.6225 -0.0125 -0.1619
 1563SOL    HW116151   3.866   0.835   5.065 -0.4938 -0.0136  0.1654
 1563SOL    HW216152   3.955   0.824   4.962 -0.8232 -3.2522 -2.4418
 1564SOL     OW16153   2.891   0.904  10.081 -0.2938 -0.8937  0.2602
 1564SOL    HW116154   2.829   0.876  10.014  0.7287 -0.8743 -0.6990
 1564SOL    HW216155   2.904   0.812  10.107  2.5192 -0.1480  1.5355
 1565SOL     OW16156   2.401   1.779   5.260  0.2331 -0.1279 -0.4397
 1565SOL    HW116157   2.451   1.860   5.270  0.6271 -0.2744 -1.2512
 1565SOL    HW216158   2.318   1.819   5.285 -0.2501 -3.0773  2.7195
 1566SOL     OW16159   3.517   3.898   8.096  0.2557 -0.1645 -0.0279
 1566SOL    HW116160   3.456   3.922   8.026 -1.0866 -0.8114  0.9196
 1566SOL    HW216161   3.458   3.896   8.172 -1.6899 -0.5130 -1.5320
 1567SOL     OW16162   4.174   2.952   7.941  0.0298 -0.4106 -0.1868
 1567SOL    HW116163   4.143   2.986   7.857  0.2689  0.8535  0.2397
 1567SOL    HW216164   4.092   2.965   7.989 -0.1701  2.0518 -1.2124
 1568SOL     OW16165   0.593   4.332  17.200  0.2989 -0.3265  0.2198
 1568SOL    HW116166   0.572   4.256  17.254 -0.7402  0.2940  0.7054
 1568SOL    HW216167   0.616   4.406  17.257  2.1977 -0.6017 -0.2009
 1569SOL     OW16168   3.495   1.749  12.664 -0.7872 -0.2541 -0.2120
 1569SOL    HW116169   3.544   1.831  12.668 -1.2059 -0.0542  0.6847
 1569SOL    HW216170   3.466   1.747  12.572  3.1717  2.1453 -1.5323
 1570SOL     OW16171   1.618   2.305  12.911  0.4867  0.1336  0.3200
 1570SOL    HW116172   1.559   2.299  12.986 -0.3036 -0.4268 -0.3487
 1570SOL    HW216173   1.668   2.386  12.922  0.3664  0.4875 -1.7173
 1571SOL     OW16174   4.291   1.660   2.190 -0.7642 -0.7217  0.1095
 1571SOL    HW116175   4.255   1.621   2.110 -0.3620  0.6079 -0.7208
 1571SOL    HW216176   4.250   1.609   2.260 -2.3004  1.1101  0.5532
 1572SOL     OW16177   3.838   4.306   9.369  0.7043 -0.5699  0.3602
 1572SOL    HW116178   3.798   4.240   9.426  1.1333 -0.5150  0.7301
 1572SOL    HW216179   3.893   4.345   9.437  0.5647  2.0561 -1.0290
 1573SOL     OW16180   2.275   1.341   4.091  0.6594  0.1486  0.2469
 1573SOL    HW116181   2.312   1.429   4.086  0.3582  0.2162 -0.8447
 1573SOL    HW216182   2.199   1.357   4.147 -0.0699  0.6066 -0.8659
 1574SOL     OW16183   1.553   1.709   9.412 -0.2758 -0.1019  0.1829
 1574SOL    HW116184   1.536   1.682   9.502 -0.4264 -2.4305 -0.5383
 1574SOL    HW216185   1.487   1.778   9.407  0.1206  0.2910  0.4318
 1575SOL     OW16186   1.645   0.702   5.573  0.4947 -0.1125  0.5747
 1575SOL    HW116187   1.570   0.762   5.566  1.1350  0.4278 -1.5505
 1575SOL    HW216188   1.627   0.639   5.504  1.0106  1.1571 -0.7077
 1576SOL     OW16189   0.501   1.948  13.231  0.0822  0.3598 -0.1890
 1576SOL    HW116190   0.567   1.991  13.177 -0.6655  2.6818  0.7380
 1576SOL    HW216191   0.455   2.026  13.262 -2.5121 -1.5062  0.7483
 1577SOL     OW16192   1.296   4.220  16.515 -0.2923  0.8488  0.0883
 1577SOL    HW116193   1.292   4.175  16.431 -2.7431 -0.0137  0.6512
 1577SOL    HW216194   1.300   4.310  16.484  2.4081  0.7115  0.0346
 1578SOL     OW16195   3.372   0.409   0.762  0.3958 -0.3238  0.6811
 1578SOL    HW116196   3.284   0.375   0.780  1.0523 -0.3313  3.8789
 1578SOL    HW216197   3.359   0.499   0.791  0.8260 -0.0335 -0.0322
 1579SOL     OW16198   0.162   4.723   0.172  0.0827  0.1035  0.3116
 1579SOL    HW116199   0.070   0.014   0.151  0.0501 -0.2369  0.2052
 1579SOL    HW216200   0.195   0.087   0.190  1.6897 -0.5895  0.8256
 1580SOL     OW16201   0.573   2.852   7.121  0.2183 -0.4941 -0.0135
 1580SOL    HW116202   0.480   2.860   7.097  0.4896  1.8387 -0.2754
 1580SOL    HW216203   0.606   2.941   7.108 -2.6925  0.9646  2.4488
 1581SOL     OW16204   0.068   0.279  10.645 -0.3657  0.4256 -0.2962
 1581SOL    HW116205   0.010   0.299  10.718  0.3395 -1.1668  0.7132
 1581SOL    HW216206   0.040   0.346  10.583 -1.7375  0.6971  0.6302
 1582SOL     OW16207   1.806   0.436   4.984 -0.5538  0.0150  0.6897
 1582SOL    HW116208   1.867   0.369   5.015  0.1957  1.4524  2.3208
 1582SOL    HW216209   1.849   0.504   5.035  2.0518 -0.5426 -0.7504
 1583SOL     OW16210   3.169   4.532  17.192 -0.3249 -0.2580  0.3350
 1583SOL    HW116211   3.090   4.516  17.244 -0.1866  0.7816  0.8451
 1583SOL    HW216212   3.235   4.512  17.258 -0.0919 -1.4395 -0.2456
 1584SOL     OW16213   1.907   2.488   6.150 -0.6266  0.1806  0.3005
 1584SOL    HW116214   1.876   2.565   6.102 -0.5481 -0.3194 -0.5534
 1584SOL    HW216215   2.000   2.502   6.166 -0.2757  0.8927 -2.4105
 1585SOL     OW16216   2.055   3.041   6.108 -0.1522 -0.1416  0.5290
 1585SOL    HW116217   2.131   3.011   6.059  1.4574  1.5944  1.9493
 1585SOL    HW216218   2.047   2.966   6.167 -1.9080 -1.1280 -0.9571
 1586SOL     OW16219   4.723   0.347   5.985  0.1263  0.3876  0.3707
 1586SOL    HW116220   0.031   0.257   5.991 -1.5178 -0.1457  1.3968
 1586SOL    HW216221   4.635   0.347   6.024 -0.8853 -0.2721 -1.8856
 1587SOL     OW16222   4.440   0.195   3.901  0.0015  0.2165 -0.3635
 1587SOL    HW116223   4.437   0.110   3.858  0.5307 -0.2742  0.5670
 1587SOL    HW216224   4.432   0.169   3.993  1.3152  0.1470 -0.2680
 1588SOL     OW16225   1.723   4.570  13.905  0.2314  0.1505 -0.0445
 1588SOL    HW116226   1.733   4.480  13.874  1.1321 -0.2445  1.4015
 1588SOL    HW216227   1.790   4.555  13.971  0.8517  0.2316 -0.6615
 1589SOL     OW16228   1.921   0.866   5.668  0.0020  0.0114 -0.1571
 1589SOL    HW116229   1.848   0.925   5.688 -0.3203 -1.0149  1.6681
 1589SOL    HW216230   1.944   0.833   5.755 -0.5759  0.5714  0.2077
 1590SOL     OW16231   3.462   2.178  13.355  0.0954  0.1732  0.7003
 1590SOL    HW116232   3.475   2.217  13.269  1.2244  0.9020  1.1993
 1590SOL    HW216233   3.535   2.207  13.409  1.6577 -0.6636 -0.9515
 1591SOL     OW16234   2.599   0.035   6.286 -0.4236 -0.0959  0.5462
 1591SOL    HW116235   2.524   0.094   6.293 -0.6857 -0.2130 -1.1200
 1591SOL    HW216236   2.612   0.036   6.191 -0.7849  1.2500  0.5051
 1592SOL     OW16237   1.362   3.654   7.463 -0.1047 -0.6808  0.1560
 1592SOL    HW116238   1.382   3.592   7.533  0.4512 -0.2202  0.4087
 1592SOL    HW216239   1.364   3.604   7.382  2.8488  0.6856 -0.6462
 1593SOL     OW16240   1.003   2.852  15.807 -0.6824 -0.0796  0.0572
 1593SOL    HW116241   1.011   2.885  15.718  2.9584  0.7019  0.6449
 1593SOL    HW216242   0.916   2.812  15.813 -0.9064  0.5213  0.8618
 1594SOL     OW16243   2.827   2.839  16.961  0.4159  0.3105  0.1621
 1594SOL    HW116244   2.914   2.813  16.930  0.5517  1.3783 -0.3577
 1594SOL    HW216245   2.783   2.754  16.964 -2.7864  2.0423  1.4059
 1595SOL     OW16246   1.077   4.007   2.155  0.0251 -0.4344  0.1600
 1595SOL    HW116247   1.164   4.039   2.134 -0.3307  0.7131  0.4220
 1595SOL    HW216248   1.076   4.026   2.249  2.3298 -2.5319  0.5841
 1596SOL     OW16249   0.008   0.395   7.202 -0.4944 -0.4601 -0.2471
 1596SOL    HW116250   0.063   0.345   7.262 -0.7496 -2.6903 -1.8694
 1596SOL    HW216251   4.688   0.452   7.265  2.3720  1.5543 -0.0442
 1597SOL     OW16252   0.258   4.604   1.226 -0.1481 -0.4615  0.1484
 1597SOL    HW116253   0.284   4.647   1.308 -0.7772  0.4939 -0.1568
 1597SOL    HW216254   0.208   4.679   1.195  0.2598 -0.4892 -0.5700
 1598SOL     OW16255   3.992   1.295   2.444  0.0796  0.2233  0.2400
 1598SOL    HW116256   4.064   1.245   2.406 -0.3329 -1.5356  1.7838
 1598SOL    HW216257   3.984   1.354   2.368 -0.0401  1.6393  1.3556
 1599SOL     OW16258   4.478   4.114   0.471  0.5580 -0.0294  0.3106
 1599SOL    HW116259   4.487   4.050   0.542 -0.2376 -0.8080 -0.2933
 1599SOL    HW216260   4.391   4.099   0.434  0.2440  2.3460  0.0955
 1600SOL     OW16261   3.865   2.214   4.873  0.6940 -0.2464 -0.3768
 1600SOL    HW116262   3.947   2.264   4.874  0.0768  0.7747 -0.5024
 1600SOL    HW216263   3.815   2.273   4.817  2.3220  1.7868  0.3193
 1601SOL     OW16264   1.116   2.227  14.811 -0.3787 -0.4199  0.0247
 1601SOL    HW116265   1.126   2.174  14.732  1.0622  0.4184 -0.3576
 1601SOL    HW216266   1.191   2.286  14.811 -0.3066 -0.5042 -0.8384
 1602SOL     OW16267   3.232   4.289   8.586  0.1397  0.2358 -0.4720
 1602SOL    HW116268   3.158   4.242   8.548 -0.8486  1.1997  0.2266
 1602SOL    HW216269   3.190   4.338   8.657 -0.2770  0.3378 -0.7863
 1603SOL     OW16270   2.513   1.687   7.072  0.0313 -0.2264 -0.7916
 1603SOL    HW116271   2.444   1.621   7.066 -0.7032  0.6806 -2.3279
 1603SOL    HW216272   2.493   1.726   6.987  0.6248 -1.9702 -1.7242
 1604SOL     OW16273   2.098   4.249   4.144  0.0887  0.1773  0.0774
 1604SOL    HW116274   2.037   4.276   4.075  0.5669  0.1477 -0.3589
 1604SOL    HW216275   2.183   4.232   4.103  0.5205  0.1359  0.9912
 1605SOL     OW16276   0.139   3.639   4.694 -0.8656  0.0623 -0.3094
 1605SOL    HW116277   0.097   3.583   4.629  1.7655  0.1016 -2.0623
 1605SOL    HW216278   0.061   3.677   4.735 -1.2455 -0.6764 -0.3513
 1606SOL     OW16279   1.674   0.400   9.645  0.1280 -0.3880  0.5502
 1606SOL    HW116280   1.686   0.318   9.596  0.1496  1.4343 -2.4951
 1606SOL    HW216281   1.592   0.378   9.688  2.1187 -2.1695  3.4363
 1607SOL     OW16282   2.050   3.899   0.681 -0.2360  0.1014  0.2578
 1607SOL    HW116283   2.120   3.864   0.737 -1.6165 -1.5726  0.9620
 1607SOL    HW216284   2.086   3.985   0.661 -0.3586  0.7437  2.7228
 1608SOL     OW16285   2.323   4.245   8.546 -0.0643 -0.4600 -0.3866
 1608SOL    HW116286   2.283   4.331   8.554 -2.3150 -1.4956 -0.5577
 1608SOL    HW216287   2.260   4.194   8.597 -1.4961  0.3777 -1.3069
 1609SOL     OW16288   1.932   4.154  13.882 -0.1556  0.0840  0.0043
 1609SOL    HW116289   1.926   4.241  13.922 -0.7588  0.5958 -1.1687
 1609SOL    HW216290   1.991   4.113  13.944 -1.0936 -1.7191 -0.2902
 1610SOL     OW16291   2.694   1.697   5.843 -0.3123  0.0777 -0.7647
 1610SOL    HW116292   2.723   1.757   5.774  0.8804  1.5285  0.9901
 1610SOL    HW216293   2.715   1.611   5.807  1.0893  0.7887 -1.6392
 1611SOL     OW16294   4.168   3.822  17.381  0.4663 -0.5118 -0.4341
 1611SOL    HW116295   4.218   3.741  17.387  1.7283  0.1752 -1.6704
 1611SOL    HW216296   4.236   3.885  17.404  1.3786 -1.8029  0.3750
 1612SOL     OW16297   1.661   2.570   8.231 -0.3379  0.4327  0.0217
 1612SOL    HW116298   1.716   2.647   8.240  1.2319 -0.5735 -0.7982
 1612SOL    HW216299   1.704   2.518   8.299 -0.6761 -0.6577 -0.5947
 1613SOL     OW16300   3.103   0.975  10.929 -0.7121 -0.1975 -0.1513
 1613SOL    HW116301   3.183   1.027  10.941 -0.6146 -0.3069 -0.3392
 1613SOL    HW216302   3.081   0.950  11.019  2.2947 -2.0537  0.0696
 1614SOL     OW16303   2.948   4.173   5.532 -0.2570  0.1584  0.1088
 1614SOL    HW116304   2.856   4.193   5.514  0.6865  3.6882 -0.7095
 1614SOL    HW216305   2.973   4.251   5.580  0.9169  0.4248 -0.9314
 1615SOL     OW16306   4.547   3.843   6.037  0.5536 -0.5610  0.1786
 1615SOL    HW116307   4.510   3.931   6.039  2.6261  0.3459 -1.9451
 1615SOL    HW216308   4.610   3.841   6.109  3.5433  1.3135 -2.3820
 1616SOL     OW16309   3.296   1.947  11.095  0.4693  0.5140  0.3795
 1616SOL    HW116310   3.309   2.019  11.158  0.3761  0.0868  0.8882
 1616SOL    HW216311   3.385   1.923  11.067  0.9953  1.5419  1.1382
 1617SOL     OW16312   1.051   3.720   2.079 -0.3816  0.2990 -0.3816
 1617SOL    HW116313   1.015   3.802   2.114  2.0066  0.7067  1.1810
 1617SOL    HW216314   1.083   3.746   1.993 -0.0574 -0.0857 -0.3771
 1618SOL     OW16315   1.455   4.271   1.154 -0.0032 -0.4379  0.4271
 1618SOL    HW116316   1.433   4.361   1.128 -1.2590 -0.5818  0.9982
 1618SOL    HW216317   1.392   4.255   1.224 -0.4728 -1.0613 -0.1460
 1619SOL     OW16318   0.104   4.177   3.739  0.3235  0.4757 -0.5076
 1619SOL    HW116319   0.062   4.096   3.769  0.2834  0.6913  0.0161
 1619SOL    HW216320   0.140   4.157   3.652  0.1184  0.6999 -0.6456
 1620SOL     OW16321   2.163   4.198  17.526  0.1775 -0.2086 -0.2077
 1620SOL    HW116322   2.104   4.124  17.537  0.6205 -0.4576  0.5043
 1620SOL    HW216323   2.102   4.267  17.500  0.5757 -0.8194 -2.7328
 1621SOL     OW16324   4.330   2.854   4.818  0.5738  0.1623  0.0548
 1621SOL    HW116325   4.417   2.876   4.784  0.6291 -2.5885 -1.5598
 1621SOL    HW216326   4.297   2.796   4.750 -1.7627  2.5398 -0.8670
 1622SOL     OW16327   3.032   1.443   5.582 -0.2164  0.1461 -0.0004
 1622SOL    HW116328   3.086   1.472   5.509  0.3168 -1.4964 -0.2543
 1622SOL    HW216329   2.996   1.358   5.559  1.8041 -0.2395 -1.6552
 1623SOL     OW16330   3.953   3.234  10.567 -0.3127  0.1408 -0.0287
 1623SOL    HW116331   3.947   3.299  10.636  1.8272 -0.8403  1.0991
 1623SOL    HW216332   3.879   3.176  10.585 -2.2916  2.9210  0.8010
 1624SOL     OW16333   0.183   0.756  11.252  0.1586 -0.1746 -0.3969
 1624SOL    HW116334   0.104   0.759  11.306 -0.1025 -0.1152 -0.7779
 1624SOL    HW216335   0.171   0.844  11.216  0.5344 -0.6175 -1.6105
 1625SOL     OW16336   4.162   3.593   3.196 -0.7037  0.6365  0.4487
 1625SOL    HW116337   4.227   3.578   3.127 -0.7971 -1.6240  0.8547
 1625SOL    HW216338   4.143   3.503   3.224  2.3963 -1.2415 -3.5286
 1626SOL     OW16339   0.645   0.374   6.330 -0.0433 -0.7620  0.4425
 1626SOL    HW116340   0.654   0.372   6.425  1.2139 -2.8429  0.2774
 1626SOL    HW216341   0.594   0.454   6.318  0.4568 -0.2770  1.5353
 1627SOL     OW16342   2.904   2.151   4.452 -0.1898 -0.2958  0.1766
 1627SOL    HW116343   2.901   2.135   4.547  1.8577  0.7068  0.3917
 1627SOL    HW216344   2.979   2.096   4.431 -0.3886 -0.6853  0.4788
 1628SOL     OW16345   0.227   3.883   6.173 -0.5024 -0.1193  0.2667
 1628SOL    HW116346   0.257   3.813   6.116  0.5564  0.8666 -0.3861
 1628SOL    HW216347   0.131   3.877   6.177 -0.3842 -0.3236  3.0176
 1629SOL     OW16348   1.653   1.098   7.407  0.1583 -0.2126 -0.3084
 1629SOL    HW116349   1.720   1.124   7.343  0.0023  1.8656  0.3801
 1629SOL    HW216350   1.693   1.117   7.491 -0.8692  1.0186 -0.0836
 1630SOL     OW16351   1.965   3.624   9.048  0.7369  0.0645  0.0545
 1630SOL    HW116352   1.998   3.622   8.958 -0.1951 -1.8646 -0.2539
 1630SOL    HW216353   1.905   3.549   9.049  2.0853 -0.9767  2.1803
 1631SOL     OW16354   2.085   1.990   9.050  0.2469 -0.4969  0.3115
 1631SOL    HW116355   2.156   2.011   8.990 -0.0656 -2.5310 -0.7727
 1631SOL    HW216356   2.104   1.898   9.072  1.2934 -0.1138  1.0265
 1632SOL     OW16357   0.191   0.720   5.533 -0.3668 -0.1664 -0.1616
 1632SOL    HW116358   0.186   0.705   5.628  2.1926 -0.3301 -0.0472
 1632SOL    HW216359   0.205   0.634   5.493  0.5655 -1.2524  2.4835
 1633SOL     OW16360   1.615   1.414   5.156  0.4503 -0.1598 -0.1027
 1633SOL    HW116361   1.573   1.368   5.083  0.1830  1.2912 -0.8590
 1633SOL    HW216362   1.696   1.365   5.171 -1.0063 -1.4606  3.5110
 1634SOL     OW16363   2.317   1.201   0.377  0.1648  0.5969  0.0579
 1634SOL    HW116364   2.391   1.168   0.326 -0.3848  0.4807 -0.6540
 1634SOL    HW216365   2.243   1.187   0.319  0.6812 -0.2859 -0.3817
 1635SOL     OW16366   4.070   4.518  11.158 -0.0182 -0.1135  0.0862
 1635SOL    HW116367   4.044   4.523  11.066  2.4749  0.1773 -0.6006
 1635SOL    HW216368   4.124   4.597  11.163 -0.3940  0.0100  2.2628
 1636SOL     OW16369   2.071   1.273  10.548 -0.0314  1.0437  0.0061
 1636SOL    HW116370   2.133   1.250  10.618 -1.5507 -0.2573  0.9165
 1636SOL    HW216371   2.127   1.311  10.481 -1.5952  2.4497 -0.4859
 1637SOL     OW16372   3.912   3.624   6.020  0.1085  0.0228  0.5396
 1637SOL    HW116373   3.971   3.556   6.052 -2.1212 -2.8625 -1.5294
 1637SOL    HW216374   3.958   3.702   6.052 -0.2470 -0.3853  2.0030
 1638SOL     OW16375   1.354   3.493   3.538 -0.7819  0.2916 -0.2797
 1638SOL    HW116376   1.395   3.483   3.624 -0.4362 -0.6472 -0.5597
 1638SOL    HW216377   1.354   3.589   3.531 -0.1380  0.2134 -1.3521
 1639SOL     OW16378   0.646   3.983   2.828  0.1407 -0.2330  0.5529
 1639SOL    HW116379   0.723   3.986   2.884  0.7522 -2.2714 -0.1798
 1639SOL    HW216380   0.581   3.956   2.892  2.0252 -2.7940  1.3775
 1640SOL     OW16381   0.188   4.485   5.283 -0.1219  0.1417  0.0650
 1640SOL    HW116382   0.191   4.566   5.231 -0.0080  0.7188  0.9584
 1640SOL    HW216383   0.278   4.456   5.285 -0.8948 -2.2498 -0.4568
 1641SOL     OW16384   3.839   2.681   8.719 -0.3223 -0.0054 -0.5967
 1641SOL    HW116385   3.919   2.631   8.705 -0.3009 -0.6289  1.7655
 1641SOL    HW216386   3.865   2.745   8.786 -0.1013  0.3703 -1.0344
 1642SOL     OW16387   3.233   1.722  12.725 -0.1173 -0.4796  0.0424
 1642SOL    HW116388   3.230   1.813  12.753 -2.2669 -0.8114  0.8905
 1642SOL    HW216389   3.328   1.712  12.723  0.2514  2.7600  1.4787
 1643SOL     OW16390   3.798   0.627  13.429 -0.4898 -0.5371 -0.5491
 1643SOL    HW116391   3.757   0.579  13.501  1.0917  0.9108  1.3096
 1643SOL    HW216392   3.766   0.570  13.359 -0.0863 -0.7194 -0.5839
 1644SOL     OW16393   4.143   2.536   3.609  0.9178 -0.0260  0.0562
 1644SOL    HW116394   4.077   2.594   3.570  1.5072 -0.1659 -1.1539
 1644SOL    HW216395   4.141   2.468   3.542  1.1876 -0.7402  0.7724
 1645SOL     OW16396   1.250   4.463   7.058  0.3831 -0.3924 -0.0101
 1645SOL    HW116397   1.338   4.500   7.060 -0.5257  1.7953 -1.2095
 1645SOL    HW216398   1.260   4.380   7.011 -2.2886  1.7973 -4.4050
 1646SOL     OW16399   1.525   1.032  16.692  0.1379 -0.2372 -0.4499
 1646SOL    HW116400   1.450   0.981  16.663 -1.4625  2.2701 -0.7549
 1646SOL    HW216401   1.537   1.010  16.784 -0.6235 -1.6941 -0.7031
 1647SOL     OW16402   3.216   4.525   1.313 -0.0288  0.2315  0.0183
 1647SOL    HW116403   3.126   4.548   1.334 -0.2526 -0.5207 -0.1390
 1647SOL    HW216404   3.209   4.532   1.218  0.8107 -1.0483 -0.1411
 1648SOL     OW16405   1.136   3.661   2.863 -0.1722 -0.4285 -0.3658
 1648SOL    HW116406   1.143   3.754   2.838 -0.4866 -0.0997  0.7719
 1648SOL    HW216407   1.070   3.642   2.797 -0.4969  2.7401 -0.9774
 1649SOL     OW16408   4.221   1.100   5.740  0.3135 -0.1735 -0.7265
 1649SOL    HW116409   4.243   1.026   5.684 -1.1443 -0.1168 -1.3788
 1649SOL    HW216410   4.209   1.167   5.673  1.0592 -1.0793 -1.7691
 1650SOL     OW16411   3.462   4.178   4.397  0.2908 -0.1077  0.2356
 1650SOL    HW116412   3.482   4.261   4.439  0.5455  0.4185 -0.9411
 1650SOL    HW216413   3.457   4.207   4.306  1.3755 -0.8223 -0.0556
 1651SOL     OW16414   4.161   4.488   1.853  0.1955 -0.1874 -0.0602
 1651SOL    HW116415   4.139   4.576   1.821 -0.8753  0.1757  1.6465
 1651SOL    HW216416   4.229   4.464   1.791 -0.3668 -1.3463 -0.2196
 1652SOL     OW16417   2.612   4.372   4.023  0.6106 -0.4249 -0.2305
 1652SOL    HW116418   2.621   4.288   3.978 -1.1882  0.1850 -1.7309
 1652SOL    HW216419   2.694   4.375   4.071  0.6484  0.5492 -0.3567
 1653SOL     OW16420   0.714   4.638  14.164  0.1971 -0.3933  0.3564
 1653SOL    HW116421   0.789   4.622  14.107 -0.5905  0.2144 -0.8549
 1653SOL    HW216422   0.685   4.724  14.134  0.3397  0.4449  2.6757
 1654SOL     OW16423   4.029   4.211  16.435 -0.2414 -0.8914 -0.3783
 1654SOL    HW116424   4.098   4.220  16.501 -0.5812  1.0724 -0.2875
 1654SOL    HW216425   4.071   4.247  16.357 -0.0228  0.4162  0.3564
 1655SOL     OW16426   0.928   4.605  10.221  0.0203 -0.3993 -0.0876
 1655SOL    HW116427   0.985   4.543  10.175 -2.2379 -1.5533 -1.2873
 1655SOL    HW216428   0.844   4.570  10.192  0.2182  0.8613 -2.1209
 1656SOL     OW16429   4.373   3.089   2.823  0.4830 -0.1601 -0.6835
 1656SOL    HW116430   4.449   3.098   2.765  1.4987  0.7719  0.7954
 1656SOL    HW216431   4.326   3.169   2.797  2.5151  1.5753  1.0558
 1657SOL     OW16432   3.767   4.226   5.870  0.1795 -0.2846  0.3531
 1657SOL    HW116433   3.730   4.224   5.782  0.0440 -0.1435  0.4071
 1657SOL    HW216434   3.847   4.174   5.863 -0.9223 -1.6063 -2.1684
 1658SOL     OW16435   0.092   2.368   3.984 -0.3211 -0.5403  0.4723
 1658SOL    HW116436   0.112   2.419   4.063  0.6820  1.3075 -1.0069
 1658SOL    HW216437   0.011   2.326   4.013 -0.4224 -0.5519  0.1666
 1659SOL     OW16438   0.544   0.874   6.599 -0.5472 -0.0495 -0.0186
 1659SOL    HW116439   0.473   0.812   6.577 -1.0927  0.6173 -0.1508
 1659SOL    HW216440   0.498   0.958   6.600 -1.4089 -0.5209  0.1519
 1660SOL     OW16441   2.703   1.703   1.709  0.4080  0.3316 -0.2154
 1660SOL    HW116442   2.711   1.716   1.614 -0.9179 -3.1659 -0.8071
 1660SOL    HW216443   2.681   1.790   1.741  0.5461  0.5904 -0.8293
 1661SOL     OW16444   3.355   2.871   6.698  0.5197 -0.2260 -0.1441
 1661SOL    HW116445   3.348   2.966   6.702 -5.2226 -0.6511  1.1711
 1661SOL    HW216446   3.276   2.851   6.749 -0.9739 -0.2471 -2.4762
 1662SOL     OW16447   2.684   3.950   4.599 -0.3618 -0.4863 -0.2234
 1662SOL    HW116448   2.742   3.891   4.551 -1.1015 -1.2314 -0.2023
 1662SOL    HW216449   2.612   3.969   4.540 -0.4018 -1.1323 -0.3888
 1663SOL     OW16450   3.161   0.352   7.443 -0.0125 -0.2055 -0.0371
 1663SOL    HW116451   3.252   0.354   7.473  1.2111 -0.1117 -3.7252
 1663SOL    HW216452   3.126   0.268   7.471  1.1525 -0.1324  1.6413
 1664SOL     OW16453   4.705   2.383   0.779  0.6145  0.0220 -0.0937
 1664SOL    HW116454   4.642   2.331   0.729 -2.1456  2.1348  1.2049
 1664SOL    HW216455   4.651   2.461   0.785 -0.7938 -0.9513 -0.0077
 1665SOL     OW16456   4.436   0.325   5.623 -0.6075  0.5818 -0.4870
 1665SOL    HW116457   4.489   0.257   5.664 -0.8290  0.1755 -0.8752
 1665SOL    HW216458   4.393   0.361   5.700 -0.9693  1.9669 -1.3373
 1666SOL     OW16459   2.974   0.916   8.952  0.2778  0.1554 -0.4644
 1666SOL    HW116460   3.006   0.860   8.881 -1.3738 -0.9797 -0.3068
 1666SOL    HW216461   3.048   0.975   8.966 -0.6366  1.1408  0.2366
 1667SOL     OW16462   4.645   3.112   1.871 -0.3650  0.2088 -0.1066
 1667SOL    HW116463   4.671   3.029   1.910  0.5263  0.9360  0.8519
 1667SOL    HW216464   4.652   3.166   1.950  0.1804 -1.4280  0.9650
 1668SOL     OW16465   0.322   3.359   7.968 -0.3754  0.1582  0.0817
 1668SOL    HW116466   0.298   3.332   7.879  0.5136  1.2431 -0.4815
 1668SOL    HW216467   0.360   3.280   8.005  1.7670  1.6154  1.0067
 1669SOL     OW16468   2.383   3.555   8.180 -0.0923 -0.1021 -0.0529
 1669SOL    HW116469   2.305   3.572   8.128 -1.0066  0.2701  1.4408
 1669SOL    HW216470   2.350   3.583   8.265 -1.3702 -3.5282  0.5961
 1670SOL     OW16471   1.192   2.789   7.048 -0.4700  0.2565 -0.4355
 1670SOL    HW116472   1.241   2.729   7.104  0.3959  1.4300  0.0716
 1670SOL    HW216473   1.155   2.720   6.993 -0.6580  0.1936 -0.2311
 1671SOL     OW16474   0.873   2.429  15.812 -0.5339  0.3650  0.5166
 1671SOL    HW116475   0.825   2.362  15.860 -2.0753  1.2945  0.2600
 1671SOL    HW216476   0.814   2.504  15.822  0.9182  1.6458 -0.4076
 1672SOL     OW16477   2.111   1.888   4.952 -0.0668 -0.1763 -0.3535
 1672SOL    HW116478   2.162   1.916   4.877  0.5751  0.0552  0.1712
 1672SOL    HW216479   2.170   1.842   5.012 -0.4424  0.4539  0.5124
 1673SOL     OW16480   3.031   1.479   2.408 -0.1637  0.1035 -0.5866
 1673SOL    HW116481   3.109   1.429   2.433  0.0472  0.7294  0.0263
 1673SOL    HW216482   2.999   1.441   2.326 -0.2563 -0.9765 -0.0513
 1674SOL     OW16483   2.488   0.973  12.101 -0.1246 -0.5052  0.3259
 1674SOL    HW116484   2.410   0.961  12.155  0.8279 -2.0813  1.3376
 1674SOL    HW216485   2.524   1.054  12.137  0.4681 -1.1890  1.2833
 1675SOL     OW16486   0.212   2.396   3.746  0.2306 -0.2905  0.0793
 1675SOL    HW116487   0.148   2.375   3.678  0.4634 -1.1499  0.1153
 1675SOL    HW216488   0.152   2.390   3.821 -0.0971  0.8800 -0.0946
 1676SOL     OW16489   4.071   4.715   4.156  0.7194  0.1412 -0.3382
 1676SOL    HW116490   4.116   4.639   4.119  1.1441  0.6344 -0.8334
 1676SOL    HW216491   4.124   0.058   4.114 -0.8352  1.5278 -0.0263
 1677SOL     OW16492   2.206   0.694  11.165  0.3287  0.2513  0.3507
 1677SOL    HW116493   2.132   0.669  11.220  0.0458 -2.0567 -1.0803
 1677SOL    HW216494   2.238   0.767  11.218 -2.5465  1.4459  0.4756
 1678SOL     OW16495   1.582   0.388   7.238 -0.2662 -0.1968 -0.6924
 1678SOL    HW116496   1.529   0.310   7.218 -0.3038 -0.7836  1.7314
 1678SOL    HW216497   1.634   0.392   7.158  0.2295  1.4086 -0.2846
 1679SOL     OW16498   0.373   2.394  16.097  0.6412  0.1530 -0.1402
 1679SOL    HW116499   0.349   2.472  16.049 -1.1747 -0.0896  0.3599
 1679SOL    HW216500   0.366   2.331  16.025  1.9462  1.2465 -1.2007
 1680SOL     OW16501   2.276   1.150   1.303  0.3175  0.0640 -0.3132
 1680SOL    HW116502   2.327   1.231   1.297 -1.3875  1.2964  1.5513
 1680SOL    HW216503   2.340   1.100   1.354  0.5003  0.8137  0.2019
 1681SOL     OW16504   2.389   1.749   0.498  0.1743  0.2216  0.5576
 1681SOL    HW116505   2.301   1.728   0.466  0.6868  0.1184 -0.7950
 1681SOL    HW216506   2.408   1.827   0.446 -2.4105  1.5990  1.6808
 1682SOL     OW16507   0.321   2.245   3.413  0.1666  0.1100 -0.0846
 1682SOL    HW116508   0.344   2.158   3.381  2.8395  0.3421  1.1979
 1682SOL    HW216509   0.370   2.302   3.353  2.2159  0.9782  2.3966
 1683SOL     OW16510   0.861   3.859   5.846  0.0894 -0.0219 -0.3563
 1683SOL    HW116511   0.951   3.890   5.858  1.5454 -4.0368 -0.8255
 1683SOL    HW216512   0.814   3.942   5.851  1.9966  0.9124  2.4761
 1684SOL     OW16513   1.311   1.433  12.821  0.2781  0.0286  0.4590
 1684SOL    HW116514   1.321   1.494  12.895 -0.4838 -2.1621  2.3590
 1684SOL    HW216515   1.260   1.481  12.756  0.6866  0.6814  0.6159
 1685SOL     OW16516   1.515   1.765   7.558 -0.3525 -0.1881 -0.2732
 1685SOL    HW116517   1.491   1.742   7.468  0.4912 -2.9747  0.2163
 1685SOL    HW216518   1.563   1.684   7.575  0.1381  0.2690  0.5058
 1686SOL     OW16519   3.737   2.338   6.459  0.0734 -0.3645 -0.1294
 1686SOL    HW116520   3.781   2.322   6.376 -2.0716  0.8781 -1.5239
 1686SOL    HW216521   3.800   2.339   6.531 -1.5106 -0.6148  1.2634
 1687SOL     OW16522   3.305   2.267  13.788  0.0117  1.0897 -0.2770
 1687SOL    HW116523   3.288   2.173  13.786  0.0858  1.0717  0.0224
 1687SOL    HW216524   3.386   2.267  13.840  0.5968  0.5722 -1.1694
 1688SOL     OW16525   3.410   3.712   7.878  0.4424 -0.0612 -0.4155
 1688SOL    HW116526   3.373   3.666   7.953  1.5805 -1.1727 -0.5362
 1688SOL    HW216527   3.374   3.797   7.902 -3.7191 -2.3494  1.3813
 1689SOL     OW16528   2.562   2.185   6.557 -0.0027  0.4967 -0.6071
 1689SOL    HW116529   2.605   2.260   6.598  0.0515  0.7591 -1.1462
 1689SOL    HW216530   2.585   2.191   6.465 -0.5110  1.4668 -0.6781
 1690SOL     OW16531   0.492   4.303  13.992  0.1697  0.3059 -0.3254
 1690SOL    HW116532   0.578   4.262  13.999  1.0285  2.3790  1.2027
 1690SOL    HW216533   0.449   4.264  14.068 -0.4105 -0.0436 -0.8264
 1691SOL     OW16534   2.789   0.899   3.371 -0.1852 -0.0330  0.3116
 1691SOL    HW116535   2.724   0.955   3.413 -0.5173  0.7627 -1.2632
 1691SOL    HW216536   2.824   0.965   3.312  0.3641 -0.8583 -0.2879
 1692SOL     OW16537   2.639   1.996   9.268  0.0312  0.2547  0.9755
 1692SOL    HW116538   2.648   1.909   9.308 -0.0232  0.8749  2.3383
 1692SOL    HW216539   2.617   2.045   9.348 -0.5907 -0.4971  1.2737
 1693SOL     OW16540   0.082   4.706  12.428  0.2336  0.9568  0.0433
 1693SOL    HW116541   0.083   4.715  12.333  1.8396  0.0560 -0.0288
 1693SOL    HW216542   0.142   4.634  12.449  0.9878  1.2289 -1.1655
 1694SOL     OW16543   2.497   0.031   5.111  0.1161  0.5609 -0.3126
 1694SOL    HW116544   2.533   0.094   5.174 -1.1354 -1.3682  2.3058
 1694SOL    HW216545   2.476   0.099   5.047  0.7975  0.4325 -0.6704
 1695SOL     OW16546   3.602   3.042   1.394  0.1752 -0.6370  0.0507
 1695SOL    HW116547   3.527   3.044   1.335 -0.9377 -1.8567  1.4358
 1695SOL    HW216548   3.549   3.083   1.462  1.0315  2.1863 -0.9601
 1696SOL     OW16549   4.218   0.281   4.433  0.0844  0.4040  0.1431
 1696SOL    HW116550   4.262   0.197   4.445  0.0499  0.2313 -0.9342
 1696SOL    HW216551   4.299   0.333   4.429  0.7001 -0.5083  0.7873
 1697SOL     OW16552   1.279   3.911  13.212  0.2900 -0.0804 -0.2761
 1697SOL    HW116553   1.368   3.887  13.238  0.9023  0.6963 -1.6265
 1697SOL    HW216554   1.260   3.995  13.254 -0.9119 -0.5188  0.0609
 1698SOL     OW16555   0.637   4.572  17.328  0.4489 -0.0898 -0.6234
 1698SOL    HW116556   0.700   4.576  17.399  0.1699 -1.7293 -0.2741
 1698SOL    HW216557   0.669   4.636  17.264 -1.0057  1.5065  0.2424
 1699SOL     OW16558   2.825   4.087   3.527 -0.5336 -0.1926  0.2760
 1699SOL    HW116559   2.737   4.067   3.557 -0.9828  0.0658 -0.8795
 1699SOL    HW216560   2.820   4.181   3.511  0.4879 -0.3078 -0.7197
 1700SOL     OW16561   2.968   3.141   3.693  0.3703  0.2809  0.5293
 1700SOL    HW116562   2.874   3.127   3.681  0.5174  0.4165 -0.7673
 1700SOL    HW216563   2.986   3.195   3.616  0.4255  0.1234  0.4302
 1701SOL     OW16564   2.827   0.385  10.039  0.3299 -0.0792  0.4788
 1701SOL    HW116565   2.836   0.297  10.074  0.1269 -1.3190 -2.5646
 1701SOL    HW216566   2.799   0.355   9.952 -1.7563  0.5843  0.9061
 1702SOL     OW16567   1.721   1.373   9.821 -0.0563  0.0280  0.5196
 1702SOL    HW116568   1.681   1.285   9.821  0.7346 -0.3331 -1.6607
 1702SOL    HW216569   1.808   1.344   9.848 -0.0554 -2.0983 -1.7960
 1703SOL     OW16570   3.534   4.632  11.849  0.5501  0.1758 -0.0051
 1703SOL    HW116571   3.459   4.637  11.790  0.1943  1.2066  0.5246
 1703SOL    HW216572   3.504   4.694  11.916 -1.2610  0.4501 -1.0825
 1704SOL     OW16573   1.379   0.599   6.792  0.3972 -0.1226 -0.4395
 1704SOL    HW116574   1.421   0.519   6.823 -0.0947  0.1180  0.8417
 1704SOL    HW216575   1.399   0.654   6.867  0.7893  1.0153 -1.3775
 1705SOL     OW16576   2.132   0.593   4.953 -0.0770 -0.3835  0.5064
 1705SOL    HW116577   2.163   0.505   4.974 -1.1817 -1.2022 -1.2354
 1705SOL    HW216578   2.127   0.643   5.034  2.0932  1.1623 -0.3230
 1706SOL     OW16579   1.765   3.747   4.516 -0.6893  0.2874  0.7747
 1706SOL    HW116580   1.794   3.827   4.559 -1.4653  0.8751  0.1881
 1706SOL    HW216581   1.802   3.757   4.428 -0.2537  0.0364  0.9251
 1707SOL     OW16582   1.449   2.210   8.745 -0.3396  0.3755  0.4696
 1707SOL    HW116583   1.388   2.144   8.777 -0.9412  0.6223 -0.1753
 1707SOL    HW216584   1.431   2.216   8.651 -2.8755 -1.4062  0.8534
 1708SOL     OW16585   0.631   2.262   7.953 -0.5013  0.1794 -0.1653
 1708SOL    HW116586   0.640   2.168   7.941  1.4940  0.2798  0.5882
 1708SOL    HW216587   0.582   2.270   8.034  1.8168 -1.4024  1.3721
 1709SOL     OW16588   2.348   2.364   3.515 -0.4701 -0.3647 -0.1524
 1709SOL    HW116589   2.370   2.388   3.605 -0.0108  0.0562 -0.3822
 1709SOL    HW216590   2.266   2.315   3.528 -0.9177  0.1855 -0.9345
 1710SOL     OW16591   0.981   2.761   5.890 -0.2751  0.0097  0.0119
 1710SOL    HW116592   0.930   2.831   5.848 -1.8102 -1.0449  0.1041
 1710SOL    HW216593   0.974   2.795   5.979 -0.4998 -1.4566  0.5646
 1711SOL     OW16594   3.068   4.606   3.826  0.1532  0.3914  0.1437
 1711SOL    HW116595   2.998   4.602   3.761  0.2314 -0.5784  0.1113
 1711SOL    HW216596   3.142   4.574   3.774 -0.9031 -1.2843 -0.3297
 1712SOL     OW16597   0.877   2.936   8.992 -0.1867 -0.4353 -0.2339
 1712SOL    HW116598   0.862   2.905   8.902  0.1725 -2.0439  0.2621
 1712SOL    HW216599   0.826   2.878   9.048 -1.2241 -0.4641 -1.2111
 1713SOL     OW16600   1.528   2.663  15.564 -0.0587 -0.7447  0.1733
 1713SOL    HW116601   1.462   2.600  15.536 -2.3317  1.5490  0.3785
 1713SOL    HW216602   1.484   2.699  15.642  1.9279 -1.1794  1.5055
 1714SOL     OW16603   4.122   4.066   6.359  0.0550  0.1196 -0.0360
 1714SOL    HW116604   4.179   3.998   6.323  2.2665  2.5411 -1.2044
 1714SOL    HW216605   4.117   4.036   6.449  0.4786 -0.0471 -0.0693
 1715SOL     OW16606   4.487   4.174  12.751  0.1904  0.3863  0.0461
 1715SOL    HW116607   4.442   4.108  12.803  1.3578 -1.4960 -1.3198
 1715SOL    HW216608   4.571   4.133  12.728  1.3334  1.4712  2.3498
 1716SOL     OW16609   1.927   2.913  10.307 -0.5294 -0.4848  0.2665
 1716SOL    HW116610   1.934   2.864  10.389 -1.5240 -2.9286 -1.0978
 1716SOL    HW216611   2.006   2.872  10.270 -0.2637  1.4027 -1.2830
 1717SOL     OW16612   3.372   2.384   5.047 -0.4835 -0.0162 -0.1226
 1717SOL    HW116613   3.369   2.456   4.984 -2.0105 -1.0155 -1.1923
 1717SOL    HW216614   3.288   2.399   5.091 -0.5505  0.9776 -0.6086
 1718SOL     OW16615   2.193   3.696   6.125  0.6790 -0.0870  0.1117
 1718SOL    HW116616   2.199   3.770   6.185  1.7661 -0.3002  0.2667
 1718SOL    HW216617   2.142   3.738   6.055 -1.6383 -3.4496 -0.2066
 1719SOL     OW16618   1.040   3.537   5.686  0.2790 -0.3510  0.0924
 1719SOL    HW116619   0.967   3.479   5.708 -0.6137  0.4325 -0.7730
 1719SOL    HW216620   1.122   3.490   5.689 -0.0624 -1.1163 -2.4148
 1720SOL     OW16621   3.478   1.174   8.843 -0.6678  0.0100  0.2208
 1720SOL    HW116622   3.508   1.203   8.929  2.0942  0.5637 -0.9332
 1720SOL    HW216623   3.418   1.244   8.817 -2.0359 -1.0615  0.4563
 1721SOL     OW16624   4.097   1.010  10.863 -0.0102  0.0282  0.6011
 1721SOL    HW116625   4.062   0.957  10.792  1.3125  0.9985 -0.7729
 1721SOL    HW216626   4.092   1.094  10.818 -1.0059 -0.1480  0.3963
 1722SOL     OW16627   1.817   2.367   3.269  0.0655  0.6606  0.4095
 1722SOL    HW116628   1.861   2.377   3.184 -0.7509  1.9559  0.1321
 1722SOL    HW216629   1.777   2.280   3.263  1.1252  0.1660  0.3517
 1723SOL     OW16630   3.341   1.116  10.964  0.8282  0.5421 -0.5139
 1723SOL    HW116631   3.341   1.139  11.057 -0.9899 -0.7535 -0.1980
 1723SOL    HW216632   3.400   1.041  10.962 -0.9885 -0.9221  0.6156
 1724SOL     OW16633   1.595   4.171  12.365 -0.2959 -0.1266 -0.1412
 1724SOL    HW116634   1.543   4.115  12.308 -0.2891 -0.1298 -0.1443
 1724SOL    HW216635   1.571   4.143  12.453 -2.2208 -1.6316 -1.1558
 1725SOL     OW16636   0.438   2.706   7.611 -0.3119 -0.2135  0.5381
 1725SOL    HW116637   0.356   2.677   7.571  0.6397 -0.5212 -1.1661
 1725SOL    HW216638   0.454   2.651   7.688  0.2810 -0.6845  0.0704
 1726SOL     OW16639   3.065   2.119   8.950 -0.2024 -0.5993  0.3792
 1726SOL    HW116640   2.984   2.126   8.999 -0.4375 -0.1977 -0.0611
 1726SOL    HW216641   3.060   2.025   8.933 -0.5144 -0.2926 -1.2176
 1727SOL     OW16642   3.207   4.507  14.415 -0.1971 -0.2729  0.4421
 1727SOL    HW116643   3.151   4.552  14.353  0.3382 -1.2946 -0.7870
 1727SOL    HW216644   3.154   4.427  14.427  1.0605 -1.3014 -0.9041
 1728SOL     OW16645   1.502   3.637   6.448  0.1655 -0.1324  0.0638
 1728SOL    HW116646   1.415   3.652   6.412  1.4712  1.5933 -2.3646
 1728SOL    HW216647   1.570   3.641   6.380  1.0702 -0.5815  0.9351
 1729SOL     OW16648   4.531   1.140   5.857  0.5958 -0.1021  0.2659
 1729SOL    HW116649   4.556   1.048   5.846 -0.3999 -0.2560 -0.7873
 1729SOL    HW216650   4.435   1.130   5.859  0.2994  2.3753 -1.5219
 1730SOL     OW16651   4.206   2.697   0.938 -0.0874 -0.0802  0.2228
 1730SOL    HW116652   4.225   2.788   0.959 -0.0897  0.5518 -2.4767
 1730SOL    HW216653   4.149   2.671   1.010 -0.6388  1.2658  0.2743
 1731SOL     OW16654   0.247   3.181   8.292  0.1764  0.1848  0.0518
 1731SOL    HW116655   0.317   3.169   8.228 -1.8782  0.6366 -2.2665
 1731SOL    HW216656   0.187   3.113   8.263 -0.4379 -0.3457  2.6302
 1732SOL     OW16657   2.883   1.778   3.750  0.1899 -0.6103 -0.5898
 1732SOL    HW116658   2.859   1.735   3.667  1.5653  0.3646 -1.4870
 1732SOL    HW216659   2.976   1.767   3.730  0.1574  1.8017 -2.0798
 1733SOL     OW16660   4.224   1.179   2.095 -0.0160  0.2829 -0.0532
 1733SOL    HW116661   4.308   1.202   2.055 -0.9350  2.2149 -0.8592
 1733SOL    HW216662   4.170   1.189   2.017  0.5387  0.1200 -0.4594
 1734SOL     OW16663   2.506   0.050   2.295 -0.2402  0.5373  0.6266
 1734SOL    HW116664   2.599   0.051   2.318  0.0336 -0.8471 -0.4054
 1734SOL    HW216665   2.517   0.032   2.201  0.4414  0.0694  0.7910
 1735SOL     OW16666   1.661   2.617  10.488  0.2878 -0.4055  0.1612
 1735SOL    HW116667   1.582   2.576  10.523  1.0202 -1.2963  0.7925
 1735SOL    HW216668   1.695   2.542  10.438 -0.1143 -0.8281  0.5139
 1736SOL     OW16669   3.893   4.669   7.513  0.0169 -0.0682  0.4745
 1736SOL    HW116670   3.965   4.637   7.459  1.1351  1.1998  1.1942
 1736SOL    HW216671   3.942   4.710   7.585 -0.7065 -0.4336  1.1821
 1737SOL     OW16672   4.611   1.914   6.420 -0.2235  0.2898  0.1801
 1737SOL    HW116673   4.609   1.921   6.325  0.5447 -0.4417  0.1158
 1737SOL    HW216674   4.705   1.913   6.440 -0.1431  1.0469 -0.1664
 1738SOL     OW16675   3.711   1.006   9.605  0.3038  0.1420  0.1284
 1738SOL    HW116676   3.683   1.003   9.697  1.5025 -1.0262  0.4488
 1738SOL    HW216677   3.646   0.956   9.556 -2.0077  1.7465  1.5121
 1739SOL     OW16678   1.363   2.070  12.754  0.6539  0.5756  0.2407
 1739SOL    HW116679   1.275   2.062  12.718  1.2795  0.1935 -1.1729
 1739SOL    HW216680   1.420   2.037  12.685  1.3076  1.7938  0.1916
 1740SOL     OW16681   1.956   0.518   8.638  0.6449 -0.3455 -0.0764
 1740SOL    HW116682   1.899   0.506   8.562 -0.9226  1.6813  0.8030
 1740SOL    HW216683   1.918   0.598   8.675  0.4981 -0.7800  0.7161
 1741SOL     OW16684   0.121   4.314  14.018 -0.1281 -0.5031  0.4950
 1741SOL    HW116685   0.027   4.304  14.004 -0.3085  0.9949  0.6448
 1741SOL    HW216686   0.157   4.309  13.929 -0.0359  1.8244  0.3883
 1742SOL     OW16687   2.139   3.146   7.661  0.2552  0.9352  0.1433
 1742SOL    HW116688   2.098   3.136   7.575 -0.9265 -1.2298  0.9403
 1742SOL    HW216689   2.143   3.240   7.676  0.6983  1.4579 -3.2557
 1743SOL     OW16690   2.462   3.156   6.687  0.0552  0.0098 -0.1765
 1743SOL    HW116691   2.398   3.217   6.724  0.9568  0.1585  1.1355
 1743SOL    HW216692   2.469   3.088   6.753 -0.7892  1.2356  1.1824
 1744SOL     OW16693   3.129   1.092   5.948  0.4487 -0.2547  0.2367
 1744SOL    HW116694   3.064   1.158   5.922 -1.3926 -1.0392  2.8343
 1744SOL    HW216695   3.093   1.045   6.023  0.2669  2.7104  2.0491
 1745SOL     OW16696   0.314   4.115   9.495 -0.4034  0.3725  0.7327
 1745SOL    HW116697   0.351   4.138   9.410 -0.7228  0.2847  0.5692
 1745SOL    HW216698   0.239   4.059   9.477  0.4518  0.4990 -3.0922
 1746SOL     OW16699   0.916   0.313   3.954  0.4119 -0.0384  0.3035
 1746SOL    HW116700   0.991   0.372   3.959  2.2443 -2.1461 -2.0423
 1746SOL    HW216701   0.857   0.382   3.985 -0.0507 -0.5293  0.5369
 1747SOL     OW16702   3.749   2.956   3.010 -0.5904  0.0309  0.1262
 1747SOL    HW116703   3.840   2.926   3.006 -0.0669  1.9653 -2.3244
 1747SOL    HW216704   3.755   3.046   3.044 -2.6991 -0.4295  1.6862
 1748SOL     OW16705   2.241   2.879   5.483 -0.5674  0.1545  0.8668
 1748SOL    HW116706   2.161   2.882   5.431 -0.3839  0.8617  0.6211
 1748SOL    HW216707   2.295   2.821   5.428 -1.4704 -1.3532  1.5664
 1749SOL     OW16708   0.269   2.480  14.365 -0.0051  0.1690 -0.6398
 1749SOL    HW116709   0.176   2.457  14.356  0.5558 -2.2616 -0.3985
 1749SOL    HW216710   0.278   2.518  14.452 -2.0587 -1.1522  0.1682
 1750SOL     OW16711   1.659   2.111   6.726  0.4202  0.2273  0.2654
 1750SOL    HW116712   1.643   2.023   6.692  4.0753 -0.5294  0.4682
 1750SOL    HW216713   1.748   2.128   6.694  1.3571 -1.2157  2.1020
 1751SOL     OW16714   4.597   2.055  14.944 -0.8035 -0.2316  0.5492
 1751SOL    HW116715   4.595   2.044  15.039 -2.6636 -2.7317  0.2211
 1751SOL    HW216716   4.637   2.142  14.934  0.2370 -0.7456  0.2833
 1752SOL     OW16717   0.752   0.902   2.583  0.4451 -0.2107  0.1248
 1752SOL    HW116718   0.777   0.876   2.495  0.4739  0.8623 -0.1906
 1752SOL    HW216719   0.835   0.907   2.631 -0.5640 -1.7773  2.0540
 1753SOL     OW16720   2.104   4.322   0.462  0.0053  0.3611 -1.0969
 1753SOL    HW116721   2.105   4.417   0.476 -0.4092  0.2419 -0.2893
 1753SOL    HW216722   2.039   4.318   0.392 -0.5377 -0.5477 -0.5465
 1754SOL     OW16723   2.324   3.654  15.679  0.8085 -0.3643  0.0845
 1754SOL    HW116724   2.343   3.560  15.669 -1.3661 -0.7353 -0.6106
 1754SOL    HW216725   2.229   3.668  15.681  0.7349 -1.4528  3.9271
 1755SOL     OW16726   0.270   4.468  17.372 -0.4186 -0.4132  0.3141
 1755SOL    HW116727   0.304   4.524  17.441  0.9995 -1.1850  0.2474
 1755SOL    HW216728   0.232   4.397  17.424  0.3795  0.6012  2.2771
 1756SOL     OW16729   4.541   1.086   0.297  0.3538 -0.0120  0.0046
 1756SOL    HW116730   4.513   1.007   0.343  3.6786 -2.3375 -1.9017
 1756SOL    HW216731   4.636   1.073   0.300  0.4718  0.7238 -0.4883
 1757SOL     OW16732   2.133   0.663  15.947 -0.0632 -0.3425 -0.3599
 1757SOL    HW116733   2.176   0.707  16.021 -1.3073 -1.1242  0.8064
 1757SOL    HW216734   2.085   0.728  15.896  2.9683  0.3983 -2.3035
 1758SOL     OW16735   1.841   1.376   6.449 -0.0026  0.0740 -0.4872
 1758SOL    HW116736   1.786   1.308   6.488  0.9174  0.3954  1.3978
 1758SOL    HW216737   1.905   1.376   6.520 -0.1264  1.1980 -0.3813
 1759SOL     OW16738   3.640   1.291   6.002 -0.2651 -0.3647  0.3425
 1759SOL    HW116739   3.625   1.236   5.924  0.2573  0.5197 -0.3808
 1759SOL    HW216740   3.731   1.264   6.016 -0.9015 -1.9100  1.4897
 1760SOL     OW16741   4.488   0.831   5.331 -0.3164  0.4527 -0.0784
 1760SOL    HW116742   4.461   0.767   5.266  2.2460 -1.5286  0.7874
 1760SOL    HW216743   4.482   0.911   5.280  3.4391  0.5167 -0.4448
 1761SOL     OW16744   1.174   1.865   8.347  0.3967  0.0459 -0.3183
 1761SOL    HW116745   1.089   1.823   8.364  0.7221 -0.2211  0.6631
 1761SOL    HW216746   1.215   1.861   8.434  0.4546 -1.4652 -0.4040
 1762SOL     OW16747   2.268   1.758   6.854 -0.7139 -0.3793  0.0556
 1762SOL    HW116748   2.320   1.737   6.777 -0.9451 -0.7602  0.0039
 1762SOL    HW216749   2.283   1.676   6.902  1.1298 -0.4918 -0.7154
 1763SOL     OW16750   4.171   3.426  15.941 -0.1246 -0.2866 -0.0891
 1763SOL    HW116751   4.078   3.446  15.945 -0.1358 -0.2146 -0.6827
 1763SOL    HW216752   4.190   3.449  15.850 -0.1907 -0.3754 -0.1251
 1764SOL     OW16753   0.505   2.871   1.624 -0.2684 -0.0488 -0.2708
 1764SOL    HW116754   0.432   2.865   1.685  0.6216  0.1693  0.8239
 1764SOL    HW216755   0.576   2.857   1.687  0.9216  0.2058 -1.5416
 1765SOL     OW16756   2.409   0.557  15.913 -0.0656 -0.4173 -0.3367
 1765SOL    HW116757   2.313   0.551  15.907 -0.1189 -1.0408  1.2382
 1765SOL    HW216758   2.431   0.644  15.947  1.2623 -1.2403  0.8910
 1766SOL     OW16759   0.960   3.699   0.449  0.8136  0.1361  0.2345
 1766SOL    HW116760   1.025   3.652   0.396 -0.3240  0.4305 -1.3865
 1766SOL    HW216761   0.880   3.687   0.398  0.5891  1.4380  0.2949
 1767SOL     OW16762   1.839   1.843   1.911  0.3485  0.0045  0.0144
 1767SOL    HW116763   1.791   1.918   1.876 -3.4982 -1.8966  1.2673
 1767SOL    HW216764   1.930   1.868   1.894  0.9205 -3.2908 -1.7194
 1768SOL     OW16765   1.157   1.009   9.168 -0.2325  0.2190  0.2050
 1768SOL    HW116766   1.153   1.101   9.144 -0.2377  0.5606  1.5470
 1768SOL    HW216767   1.069   0.983   9.140  0.2464 -2.0912  0.8381
 1769SOL     OW16768   1.157   4.590   5.951 -0.0912  0.5102 -0.3397
 1769SOL    HW116769   1.136   4.665   6.007  2.1848 -0.4307  1.7674
 1769SOL    HW216770   1.155   4.633   5.866  1.6791  2.3041  0.5339
 1770SOL     OW16771   2.976   0.956   6.169  0.4643  0.1134 -0.4238
 1770SOL    HW116772   3.014   1.006   6.241 -0.1907 -0.1414  0.0978
 1770SOL    HW216773   2.884   0.958   6.196 -0.1111 -0.6636 -2.3254
 1771SOL     OW16774   4.569   0.951  12.316 -0.6332 -0.6621  0.1665
 1771SOL    HW116775   4.536   0.866  12.287 -0.4042 -0.6821 -0.0300
 1771SOL    HW216776   4.622   0.913  12.386 -0.5111 -1.3690 -0.3110
 1772SOL     OW16777   3.825   2.012   9.527  0.1402 -0.5057  0.0697
 1772SOL    HW116778   3.857   1.930   9.490  0.9000  0.2048 -0.8586
 1772SOL    HW216779   3.784   1.974   9.605 -0.1954 -0.5884 -0.1475
 1773SOL     OW16780   1.762   2.735   5.357  0.1763 -0.6819  0.8404
 1773SOL    HW116781   1.698   2.802   5.330  2.2079  0.9219 -0.0014
 1773SOL    HW216782   1.754   2.733   5.452 -0.6485 -2.3727  0.7336
 1774SOL     OW16783   0.028   0.175   3.091  0.4336  0.0899 -0.1189
 1774SOL    HW116784   4.660   0.180   3.064  0.1756 -0.8565  0.5792
 1774SOL    HW216785   0.046   0.090   3.052  1.1374  1.3691 -2.5618
 1775SOL     OW16786   2.629   0.997  13.596  0.2430  0.2792  0.0341
 1775SOL    HW116787   2.701   1.060  13.589  1.5954 -1.4521 -1.4582
 1775SOL    HW216788   2.678   0.915  13.600 -0.8871 -0.4679 -1.4835
 1776SOL     OW16789   3.482   1.390   5.419  0.2629  0.5353 -0.2102
 1776SOL    HW116790   3.412   1.354   5.365 -0.3173  1.7323 -0.2616
 1776SOL    HW216791   3.546   1.440   5.369 -0.9003  1.6628 -0.5668
 1777SOL     OW16792   2.217   2.680   3.136  0.5569 -0.1521 -0.1567
 1777SOL    HW116793   2.302   2.694   3.094  0.4610 -0.3039 -0.4041
 1777SOL    HW216794   2.177   2.627   3.066  1.3657  0.8898 -1.4005
 1778SOL     OW16795   3.650   3.696   2.771  0.0499  0.1147 -0.4932
 1778SOL    HW116796   3.654   3.746   2.852  2.4358  0.1678 -0.6653
 1778SOL    HW216797   3.587   3.627   2.792 -0.6763  1.6885  2.4634
 1779SOL     OW16798   1.519   3.970  12.546  0.0903 -0.2799  0.3398
 1779SOL    HW116799   1.537   3.880  12.576  1.6730 -0.2110 -0.3742
 1779SOL    HW216800   1.424   3.965  12.541  0.1849 -2.4270  0.5796
 1780SOL     OW16801   4.617   0.116  13.613 -0.2049  0.1489 -0.0019
 1780SOL    HW116802   4.657   0.150  13.693 -0.2138  0.7965 -0.2738
 1780SOL    HW216803   4.701   0.099  13.569 -0.0041 -2.4818  1.3729
 1781SOL     OW16804   1.001   4.557   8.853  0.0155 -0.1088  0.2019
 1781SOL    HW116805   0.919   4.560   8.804  0.2747 -0.9285 -0.2719
 1781SOL    HW216806   1.060   4.531   8.782 -0.5477  0.0877 -0.3379
 1782SOL     OW16807   1.210   4.339   1.977  0.1670 -0.2013  0.2021
 1782SOL    HW116808   1.135   4.382   2.019  0.0299  1.7786 -2.0907
 1782SOL    HW216809   1.239   4.424   1.943 -1.5135  0.4423  0.3539
 1783SOL     OW16810   1.478   0.613   5.086  0.0030  0.1753 -0.0924
 1783SOL    HW116811   1.508   0.640   4.999 -1.3887  1.2712 -0.2213
 1783SOL    HW216812   1.435   0.529   5.070 -0.2852  0.1416  0.8832
 1784SOL     OW16813   2.137   1.822  17.519 -0.2208 -0.0105 -0.1227
 1784SOL    HW116814   2.084   1.745  17.500 -1.4453  0.9377 -0.5704
 1784SOL    HW216815   2.220   1.787  17.552 -0.5480 -0.4335  0.2452
 1785SOL     OW16816   1.255   2.323  10.474 -0.1713  0.1613 -0.1769
 1785SOL    HW116817   1.193   2.351  10.407 -1.0523 -1.2671  0.0427
 1785SOL    HW216818   1.196   2.318  10.549  1.1122 -0.8682  0.7566
 1786SOL     OW16819   0.681   0.592   3.706 -0.4599  0.0920 -0.0976
 1786SOL    HW116820   0.733   0.587   3.626  2.5705  2.4344  1.7493
 1786SOL    HW216821   0.617   0.521   3.691 -3.4763  2.4682  1.4570
 1787SOL     OW16822   3.470   3.010   8.081  0.7820 -0.0325  0.5183
 1787SOL    HW116823   3.382   3.015   8.117  0.3936 -0.2379 -0.4191
 1787SOL    HW216824   3.483   2.917   8.062  0.4082 -0.2565  1.3631
 1788SOL     OW16825   1.299   1.105   4.174 -0.0307  0.3002  0.0460
 1788SOL    HW116826   1.288   1.163   4.098 -1.4033 -0.2540 -0.1861
 1788SOL    HW216827   1.283   1.019   4.136 -0.6852  0.0551  0.8846
 1789SOL     OW16828   3.571   0.412   0.574 -0.8414  0.1546 -0.0669
 1789SOL    HW116829   3.484   0.406   0.615 -1.6435  0.1393 -1.7575
 1789SOL    HW216830   3.629   0.360   0.629 -0.1627  1.3732  0.3524
 1790SOL     OW16831   0.046   2.156   1.493  0.0932  0.3437  0.1905
 1790SOL    HW116832   0.056   2.250   1.477 -0.8156  0.3027 -0.5996
 1790SOL    HW216833   4.678   2.150   1.469 -0.0875  1.4491  0.6141
 1791SOL     OW16834   2.032   4.680   7.152 -0.7455  0.1159  0.4460
 1791SOL    HW116835   2.001   4.606   7.203  0.9149 -1.1710 -0.4448
 1791SOL    HW216836   1.956   4.682   7.094 -1.3928  1.3595  1.3266
 1792SOL     OW16837   0.066   4.446   8.390  0.3410  0.5425 -0.1429
 1792SOL    HW116838   0.133   4.385   8.359  0.0711  1.4390 -2.4261
 1792SOL    HW216839   0.088   4.526   8.342 -0.0309  0.9262  0.3225
 1793SOL     OW16840   0.817   2.805   4.759  0.0034  0.3155 -0.2959
 1793SOL    HW116841   0.882   2.822   4.691  0.2470 -0.9464 -0.3783
 1793SOL    HW216842   0.753   2.753   4.712 -0.2241  0.1718  0.1763
 1794SOL     OW16843   1.179   2.323  13.424  0.0022  0.0243 -0.2488
 1794SOL    HW116844   1.193   2.269  13.346 -1.8170 -0.6142 -0.1201
 1794SOL    HW216845   1.086   2.344  13.427 -0.1267 -0.4857 -0.6467
 1795SOL     OW16846   0.092   0.747   9.439  0.6262  0.0826  0.0516
 1795SOL    HW116847   0.065   0.765   9.529 -0.1200 -0.3085 -0.0937
 1795SOL    HW216848   0.023   0.795   9.393 -0.0433 -0.4294  0.5211
 1796SOL     OW16849   4.341   0.540   1.591 -0.1925 -0.2476 -0.5999
 1796SOL    HW116850   4.267   0.548   1.651  0.6179  2.5765  0.0508
 1796SOL    HW216851   4.299   0.513   1.510  3.1129 -0.9340 -2.0781
 1797SOL     OW16852   1.302   4.086   3.838  0.7728 -0.0325 -0.0565
 1797SOL    HW116853   1.392   4.093   3.804  0.4803 -0.9136 -0.9885
 1797SOL    HW216854   1.265   4.026   3.774 -0.5219  1.7517 -0.9768
 1798SOL     OW16855   3.517   2.221   1.489 -0.4310  0.3718 -0.5999
 1798SOL    HW116856   3.576   2.145   1.491 -0.7008  0.1673 -0.3373
 1798SOL    HW216857   3.450   2.198   1.424 -1.0136  1.0381 -0.2351
 1799SOL     OW16858   4.255   2.247  17.217 -0.3820  0.2521 -0.6584
 1799SOL    HW116859   4.264   2.210  17.305  0.8993  1.2699 -0.3610
 1799SOL    HW216860   4.163   2.271  17.229 -0.4094 -0.5578  0.7305
 1800SOL     OW16861   3.834   2.477   7.111  0.2666 -0.4752  0.1920
 1800SOL    HW116862   3.876   2.563   7.117 -1.2630  0.1115  2.7636
 1800SOL    HW216863   3.859   2.448   7.199 -0.6255 -2.7187 -0.2902
 1801SOL     OW16864   1.946   1.311   8.590  0.2717  0.3255 -0.0729
 1801SOL    HW116865   1.983   1.265   8.515 -0.4622  2.2230 -1.6245
 1801SOL    HW216866   1.855   1.281   8.587  0.7042 -0.9068 -1.0305
 1802SOL     OW16867   0.240   2.523   5.854  0.1620 -0.5672  0.5848
 1802SOL    HW116868   0.204   2.455   5.911  4.1141 -1.7300  1.7332
 1802SOL    HW216869   0.333   2.501   5.866  0.6276  0.3347 -1.3310
 1803SOL     OW16870   3.012   3.032   0.497 -0.0990  0.4563  0.6854
 1803SOL    HW116871   2.940   3.048   0.436 -0.0873  2.8914  1.2979
 1803SOL    HW216872   3.080   3.033   0.430 -1.5903  2.1005 -0.8164
 1804SOL     OW16873   4.702   4.143   4.951 -0.0747  0.3113 -0.3844
 1804SOL    HW116874   0.042   4.176   4.889 -1.8288  4.1160 -0.1124
 1804SOL    HW216875   0.020   4.180   5.028  2.4205  0.3621 -1.7751
 1805SOL     OW16876   4.541   3.973   4.261 -0.6475  0.0682 -0.0543
 1805SOL    HW116877   4.567   3.990   4.170  0.8369 -3.0461 -0.2207
 1805SOL    HW216878   4.589   3.891   4.278  0.9587  0.3243 -3.3932
 1806SOL     OW16879   2.903   1.028   7.390  0.3887 -0.0616 -0.2437
 1806SOL    HW116880   2.890   1.026   7.484  0.2664 -1.3462 -0.2797
 1806SOL    HW216881   2.822   1.075   7.374  1.4152  2.1986  1.1689
 1807SOL     OW16882   3.521   0.479  15.862 -0.3141  0.4503 -0.6735
 1807SOL    HW116883   3.545   0.483  15.955 -0.9580 -1.1080 -0.4253
 1807SOL    HW216884   3.427   0.498  15.868 -0.5820 -0.7312 -1.1002
 1808SOL     OW16885   4.121   0.693  15.502  0.2666  0.5701  0.0456
 1808SOL    HW116886   4.209   0.729  15.492  1.0819 -1.6690 -1.0172
 1808SOL    HW216887   4.115   0.685  15.597  1.2570  0.5592  0.1115
 1809SOL     OW16888   3.799   3.971   8.371 -0.0585  0.5444  0.0088
 1809SOL    HW116889   3.731   3.983   8.305  1.5195  2.6434 -1.2389
 1809SOL    HW216890   3.815   3.876   8.372  0.3881  0.6217  0.8217
 1810SOL     OW16891   2.367   0.901   4.023  0.0700  0.0405  0.3787
 1810SOL    HW116892   2.362   0.808   4.046 -1.1797  0.2744  1.0429
 1810SOL    HW216893   2.443   0.920   3.968 -0.2707  2.2139  0.6438
 1811SOL     OW16894   1.834   3.366   2.758  0.2798  0.7116  0.1412
 1811SOL    HW116895   1.879   3.282   2.757  1.7725  1.5115  0.4342
 1811SOL    HW216896   1.780   3.363   2.837 -1.3058  0.0607 -0.9657
 1812SOL     OW16897   0.710   1.160  16.240  0.2411  0.4500 -0.6227
 1812SOL    HW116898   0.731   1.243  16.196  2.0293  0.5899  0.4937
 1812SOL    HW216899   0.658   1.198  16.311 -0.2508 -0.1063 -0.6895
 1813SOL     OW16900   2.035   1.134  15.126 -0.0762 -0.3177  0.8901
 1813SOL    HW116901   2.056   1.209  15.071  1.0645 -1.0543  0.3183
 1813SOL    HW216902   2.047   1.063  15.063 -0.4342 -0.0606  0.5363
 1814SOL     OW16903   1.664   4.520   8.019 -0.2606  0.0099  0.4093
 1814SOL    HW116904   1.654   4.516   7.924 -1.4517 -1.9574  0.6114
 1814SOL    HW216905   1.706   4.436   8.040  1.2072 -0.1654 -3.2324
 1815SOL     OW16906   1.482   0.323  10.436  0.3379  1.2671 -0.1768
 1815SOL    HW116907   1.434   0.291  10.512  0.5210 -0.5728 -0.8404
 1815SOL    HW216908   1.501   0.405  10.482  1.0469  2.0973 -1.9595
 1816SOL     OW16909   2.494   2.713   3.155  0.0552  0.1077 -0.1470
 1816SOL    HW116910   2.587   2.709   3.175 -0.1909 -3.5187  0.2352
 1816SOL    HW216911   2.480   2.636   3.100  0.8239 -0.7404  0.8513
 1817SOL     OW16912   4.096   2.639   7.218 -0.3040 -0.4151 -0.1519
 1817SOL    HW116913   4.088   2.605   7.307  0.9896 -2.4885 -0.8067
 1817SOL    HW216914   4.188   2.618   7.202 -0.7799 -2.4352 -0.3331
 1818SOL     OW16915   1.097   0.328  17.181  0.3068 -0.1202 -0.4340
 1818SOL    HW116916   1.187   0.328  17.211  0.7431 -0.5106 -1.7673
 1818SOL    HW216917   1.117   0.387  17.109  2.0993  0.7505  0.7889
 1819SOL     OW16918   3.829   0.896   5.885 -0.4516  0.2516  0.1938
 1819SOL    HW116919   3.736   0.885   5.902 -0.2369 -2.9466 -0.6002
 1819SOL    HW216920   3.872   0.819   5.924 -2.9894  0.7341  3.9387
 1820SOL     OW16921   2.420   4.172   3.132 -0.2219  0.0365  0.0418
 1820SOL    HW116922   2.412   4.153   3.038 -0.4962 -1.4892  0.3598
 1820SOL    HW216923   2.511   4.150   3.152 -0.6944  0.2337  2.4746
 1821SOL     OW16924   2.087   1.668   6.224  0.3099  0.6542 -0.4145
 1821SOL    HW116925   2.106   1.596   6.164 -1.1632  0.1442 -0.2573
 1821SOL    HW216926   2.006   1.700   6.185  1.0512  1.0834 -1.6163
 1822SOL     OW16927   2.417   4.057   2.534 -0.4887 -0.6256  0.0545
 1822SOL    HW116928   2.370   4.140   2.530  1.6358  0.5403 -0.7786
 1822SOL    HW216929   2.360   3.996   2.488  0.7964 -0.3518 -1.9029
 1823SOL     OW16930   2.001   4.438   5.356  0.2533  0.5605 -0.3800
 1823SOL    HW116931   1.992   4.346   5.331  2.3132 -0.4742  2.7279
 1823SOL    HW216932   1.959   4.483   5.283 -0.0610  0.6906 -0.1160
 1824SOL     OW16933   3.120   3.647   6.978  0.6325  0.4615  0.1016
 1824SOL    HW116934   3.110   3.553   6.991 -0.2767  0.7085  1.1948
 1824SOL    HW216935   3.205   3.665   7.018  0.3319  0.4085  0.7707
 1825SOL     OW16936   0.436   3.139   8.083  0.9108 -0.7167 -0.2547
 1825SOL    HW116937   0.532   3.139   8.085  0.8533 -0.0704  2.0541
 1825SOL    HW216938   0.422   3.044   8.076  3.9481 -1.2885  1.1582
 1826SOL     OW16939   2.812   0.797   8.125 -0.3487  0.2355  0.3137
 1826SOL    HW116940   2.886   0.747   8.093  0.1362  0.8363  0.5030
 1826SOL    HW216941   2.741   0.734   8.108 -0.4583 -0.0580  1.9257
 1827SOL     OW16942   1.468   0.548   7.918  0.5371 -0.5903  0.3151
 1827SOL    HW116943   1.499   0.465   7.955  1.7723 -0.8381 -1.2519
 1827SOL    HW216944   1.511   0.548   7.832 -1.7196  0.4541 -0.8171
 1828SOL     OW16945   4.592   4.516   1.509 -0.1243 -0.0853  0.3700
 1828SOL    HW116946   4.602   4.422   1.491  0.4187 -0.4628  2.6456
 1828SOL    HW216947   4.637   4.553   1.433 -0.7620  0.4555  0.2618
 1829SOL     OW16948   0.277   4.184   8.027 -0.0254 -0.7867  0.0435
 1829SOL    HW116949   0.353   4.128   8.042 -1.1404 -2.3163 -0.0003
 1829SOL    HW216950   0.322   4.268   8.019 -0.3826 -0.3252  2.7370
 1830SOL     OW16951   0.455   3.623  10.323 -0.1393 -0.2784  0.3652
 1830SOL    HW116952   0.450   3.678  10.245 -0.6556 -0.8637 -0.0110
 1830SOL    HW216953   0.393   3.670  10.378 -0.0634  0.8843 -0.5479
 1831SOL     OW16954   3.408   2.779  17.662 -0.5122  0.2868  0.0582
 1831SOL    HW116955   3.329   2.793   0.015  0.1552 -1.8068  1.6564
 1831SOL    HW216956   3.461   2.733   0.029  3.0740  1.1137 -2.2118
 1832SOL     OW16957   3.522   4.363  17.163  0.3498 -0.1819  0.2168
 1832SOL    HW116958   3.477   4.322  17.236 -0.6850  1.1891  0.3443
 1832SOL    HW216959   3.504   4.456  17.177 -0.2470 -0.5703  1.9935
 1833SOL     OW16960   1.177   2.331  14.545  0.4703  0.1447 -0.3378
 1833SOL    HW116961   1.264   2.309  14.579 -0.3788 -1.9120  0.4701
 1833SOL    HW216962   1.131   2.249  14.562 -3.0964  1.5670 -2.9104
 1834SOL     OW16963   3.135   0.556   8.269 -0.0817 -0.0407 -0.0730
 1834SOL    HW116964   3.056   0.511   8.237  1.2743 -1.6375 -1.1864
 1834SOL    HW216965   3.199   0.496   8.230 -1.3633  0.0215 -2.2413
 1835SOL     OW16966   2.586   2.152  12.950 -0.3595  0.4127  0.0160
 1835SOL    HW116967   2.597   2.057  12.945 -0.8500  0.3266  0.4759
 1835SOL    HW216968   2.587   2.166  13.045  1.4607 -0.0988  0.0661
 1836SOL     OW16969   2.282   4.080   3.950  0.1894  0.9149  0.2398
 1836SOL    HW116970   2.347   4.054   4.016  1.7181  2.5802 -0.6104
 1836SOL    HW216971   2.220   4.008   3.957  0.2875  1.1840  4.0577
 1837SOL     OW16972   3.274   1.720   4.912  0.1555 -0.4300 -0.1165
 1837SOL    HW116973   3.261   1.720   4.817  3.1528 -0.1359 -0.5121
 1837SOL    HW216974   3.368   1.733   4.911 -0.0537  0.8146 -2.6568
 1838SOL     OW16975   1.518   4.332  17.600  0.2467  0.2349  0.0773
 1838SOL    HW116976   1.498   4.382  17.521 -1.5363 -1.9840 -0.8816
 1838SOL    HW216977   1.454   4.365  17.662 -0.3704 -0.7818 -0.0190
 1839SOL     OW16978   4.632   0.874   4.572  0.2292  0.5030  0.2249
 1839SOL    HW116979   4.609   0.785   4.548  2.6446  0.0554 -0.4008
 1839SOL    HW216980   4.592   0.877   4.659 -0.3055  0.2573 -0.0148
 1840SOL     OW16981   4.581   3.417   2.643  0.8035  1.0187  1.1808
 1840SOL    HW116982   4.591   3.425   2.548  0.6467 -2.3658  0.8894
 1840SOL    HW216983   4.582   3.508   2.673 -1.1509  1.0602  1.1049
 1841SOL     OW16984   1.837   4.274  12.311 -0.2240  0.4298  0.5474
 1841SOL    HW116985   1.824   4.250  12.219  3.2128 -1.1535  0.4777
 1841SOL    HW216986   1.744   4.258  12.328 -0.0490  1.2301  2.2464
 1842SOL     OW16987   4.399   3.744   4.089  0.4660 -0.0037  0.6840
 1842SOL    HW116988   4.485   3.756   4.129  0.7015  1.6683 -0.3057
 1842SOL    HW216989   4.428   3.665   4.044  1.1619  1.2710 -1.1161
 1843SOL     OW16990   2.702   2.364   7.070 -0.1830  0.6184  0.6462
 1843SOL    HW116991   2.629   2.342   7.013  0.4012 -0.1072  0.1709
 1843SOL    HW216992   2.767   2.302   7.035 -0.3256  0.7118  0.2131
 1844SOL     OW16993   3.597   2.506  17.224  0.0118 -0.0315 -0.3136
 1844SOL    HW116994   3.684   2.547  17.223 -1.4421  3.0646 -0.1422
 1844SOL    HW216995   3.577   2.506  17.318  1.1841 -1.5361 -0.0674
 1845SOL     OW16996   4.715   1.531   3.962  0.0357 -0.5295  0.3117
 1845SOL    HW116997   0.076   1.570   3.945  0.9392 -2.1604  1.1783
 1845SOL    HW216998   4.724   1.478   4.041  0.9254  2.8922  2.4464
 1846SOL     OW16999   3.298   2.060   8.659  0.2142 -0.0702  0.0227
 1846SOL    HW117000   3.331   1.985   8.609 -2.7018 -1.4015  0.0812
 1846SOL    HW217001   3.384   2.084   8.695 -0.3404 -1.6214  2.3514
 1847SOL     OW17002   1.493   4.045   6.817  0.2237 -0.2106 -0.0247
 1847SOL    HW117003   1.498   4.060   6.723 -1.3383 -0.4199 -0.1338
 1847SOL    HW217004   1.581   4.021   6.847  0.3113  0.3160  0.1327
 1848SOL     OW17005   2.783   2.027   5.342 -0.5390 -0.3143 -0.2891
 1848SOL    HW117006   2.824   2.010   5.257  0.1711  1.1011 -0.2384
 1848SOL    HW217007   2.696   2.013   5.306 -0.1316 -3.8865  0.1826
 1849SOL     OW17008   2.907   4.218   7.352  0.3123 -0.3675 -0.2423
 1849SOL    HW117009   2.848   4.166   7.406 -0.1901 -0.4036 -0.8289
 1849SOL    HW217010   2.935   4.275   7.424 -1.1383  0.0721 -0.0387
 1850SOL     OW17011   1.935   2.508   9.009 -0.2750 -0.3343  0.6868
 1850SOL    HW117012   1.873   2.580   9.009 -0.7818 -0.7667  0.1653
 1850SOL    HW217013   1.887   2.442   8.958 -0.7790  1.1405 -0.7300
 1851SOL     OW17014   2.289   0.248   5.208 -0.1642  0.9468  0.0771
 1851SOL    HW117015   2.277   0.167   5.259 -2.6851 -0.3446 -2.5971
 1851SOL    HW217016   2.299   0.314   5.276  2.9941 -0.0155  0.5739
 1852SOL     OW17017   2.023   0.934  14.943 -0.6607 -0.0579  0.4053
 1852SOL    HW117018   2.042   0.889  14.861  0.9510  0.5512  0.4542
 1852SOL    HW217019   1.946   0.983  14.911 -0.4254  1.2122  1.7651
 1853SOL     OW17020   3.051   2.656   4.266 -0.2984 -0.2818 -0.4712
 1853SOL    HW117021   2.965   2.637   4.228 -1.3206  2.0637  0.6789
 1853SOL    HW217022   3.086   2.577   4.307 -0.4333  1.0815  2.2719
 1854SOL     OW17023   4.270   2.735  14.768  0.6244 -0.7210 -0.3525
 1854SOL    HW117024   4.197   2.687  14.806  0.1027  1.3738  1.3084
 1854SOL    HW217025   4.241   2.743  14.677 -1.7161  0.2073  0.4817
 1855SOL     OW17026   3.926   3.612   7.813 -0.2199  0.3735  0.2290
 1855SOL    HW117027   3.830   3.607   7.819 -0.1877 -1.3395 -0.6862
 1855SOL    HW217028   3.946   3.686   7.870  2.5246 -0.8751  0.8706
 1856SOL     OW17029   0.969   0.835   3.476 -0.6373  0.3917 -0.0999
 1856SOL    HW117030   1.027   0.760   3.465  0.9462  1.6264 -0.1743
 1856SOL    HW217031   1.032   0.901   3.448 -1.9642  1.9106  0.4506
 1857SOL     OW17032   4.312   3.172   0.395 -0.6485  0.1206  0.3637
 1857SOL    HW117033   4.261   3.251   0.409 -0.9440  0.4413 -2.5251
 1857SOL    HW217034   4.287   3.150   0.305 -2.1347  1.6070  0.4206
 1858SOL     OW17035   0.546   1.578   7.258 -0.1715  0.2907 -0.1890
 1858SOL    HW117036   0.505   1.491   7.255  0.4796 -0.0440  0.6322
 1858SOL    HW217037   0.612   1.560   7.324  0.5200  0.5658 -0.8072
 1859SOL     OW17038   0.410   3.270   4.718  0.7986  0.4432  0.2625
 1859SOL    HW117039   0.399   3.326   4.640  1.6389  0.6632  0.2917
 1859SOL    HW217040   0.358   3.191   4.703 -1.4509  2.3422 -2.0702
 1860SOL     OW17041   3.406   2.966   8.825 -0.1020  0.5566 -1.2300
 1860SOL    HW117042   3.498   2.957   8.848 -1.0434 -1.1502  1.8436
 1860SOL    HW217043   3.368   2.964   8.913 -2.4078  1.7920 -2.1818
 1861SOL     OW17044   4.647   0.492  17.571 -0.1263 -0.2246  0.2878
 1861SOL    HW117045   4.680   0.525  17.487 -0.4373  1.1871  0.7205
 1861SOL    HW217046   4.560   0.532  17.568 -0.2207 -0.3695  1.1575
 1862SOL     OW17047   3.025   3.892   7.033 -0.4106 -0.0788 -0.3292
 1862SOL    HW117048   3.047   3.799   7.028  0.9308  0.2117  0.1107
 1862SOL    HW217049   2.933   3.882   7.009  0.0814  0.0436 -2.2907
 1863SOL     OW17050   3.655   3.979   7.677  0.0082  0.0881 -0.0888
 1863SOL    HW117051   3.570   3.968   7.634 -0.4387 -3.0885  1.6722
 1863SOL    HW217052   3.702   3.905   7.638  1.5002  1.1181 -0.2262
 1864SOL     OW17053   1.107   1.384   4.095 -0.0393  0.2656  0.3161
 1864SOL    HW117054   1.195   1.348   4.108  0.8914  2.5213  0.3096
 1864SOL    HW217055   1.119   1.476   4.120  0.2282 -0.1484  1.6918
 1865SOL     OW17056   1.557   2.806   8.888 -0.0971 -0.0248  0.0752
 1865SOL    HW117057   1.532   2.874   8.826 -2.3021  0.6000  1.6364
 1865SOL    HW217058   1.467   2.796   8.921 -0.4321 -1.2185 -1.1690
 1866SOL     OW17059   1.701   0.119   4.102  0.0466  0.2610 -0.6661
 1866SOL    HW117060   1.727   0.038   4.146 -0.2104  1.3306  1.4415
 1866SOL    HW217061   1.787   0.159   4.091 -0.7707  2.3680  0.6165
 1867SOL     OW17062   0.968   0.613   8.177  0.0577  0.3235  0.4386
 1867SOL    HW117063   0.969   0.547   8.246 -0.2909  0.4860  0.6022
 1867SOL    HW217064   0.878   0.642   8.162  0.6786  1.8734 -0.3061
 1868SOL     OW17065   2.464   4.444   3.815  0.0711 -0.4037 -0.2297
 1868SOL    HW117066   2.502   4.439   3.903  0.0299 -2.5003 -0.3408
 1868SOL    HW217067   2.529   4.503   3.777  0.3473 -0.8543 -0.4495
 1869SOL     OW17068   3.334   1.238   2.975 -0.5007  0.5841 -0.0407
 1869SOL    HW117069   3.355   1.189   2.896 -0.0280  0.1941  0.3314
 1869SOL    HW217070   3.241   1.252   2.955 -0.5068 -0.0451 -0.4308
 1870SOL     OW17071   3.873   2.224   9.751 -0.5940 -0.1499  0.0887
 1870SOL    HW117072   3.853   2.286   9.821  0.6311  1.3350 -0.8491
 1870SOL    HW217073   3.844   2.145   9.796 -1.3813 -0.9584 -1.8465
 1871SOL     OW17074   1.595   2.579   7.127  0.4889 -0.0615  0.1242
 1871SOL    HW117075   1.660   2.515   7.097  0.0449 -0.1744 -0.5871
 1871SOL    HW217076   1.603   2.573   7.222  0.3666 -0.5398  0.1026
 1872SOL     OW17077   4.718   0.448   3.054 -0.1966 -0.1169  0.1624
 1872SOL    HW117078   0.026   0.365   3.090  2.2709  1.6620  2.0470
 1872SOL    HW217079   4.680   0.417   2.972 -0.3027 -1.0827  0.5752
 1873SOL     OW17080   3.430   2.479   2.037  0.5084 -0.0811  0.0189
 1873SOL    HW117081   3.410   2.519   1.952  1.9427  1.2316  0.2930
 1873SOL    HW217082   3.346   2.433   2.049  0.3038 -0.1355 -1.6831
 1874SOL     OW17083   2.754   1.702   5.295 -0.1911 -0.1547 -0.0928
 1874SOL    HW117084   2.844   1.713   5.324 -0.6165  2.3369  0.2748
 1874SOL    HW217085   2.723   1.643   5.363 -0.7832 -0.1968 -0.3937
 1875SOL     OW17086   0.568   4.100   6.633 -0.6402 -0.0429  0.2661
 1875SOL    HW117087   0.508   4.095   6.559  1.6558 -0.6332 -1.5697
 1875SOL    HW217088   0.527   4.161   6.694  0.1658 -0.0640  0.8358
 1876SOL     OW17089   1.504   3.241  11.420  0.4999 -0.9094 -0.1413
 1876SOL    HW117090   1.525   3.303  11.351  0.3822  0.4993  1.1038
 1876SOL    HW217091   1.411   3.257  11.435  0.9222 -0.1294  1.6995
 1877SOL     OW17092   4.559   1.649  15.420  0.7478  0.7048  0.0623
 1877SOL    HW117093   4.541   1.725  15.476 -1.7964 -0.1956  0.4426
 1877SOL    HW217094   4.611   1.692  15.352  2.8267 -0.5602  0.8431
 1878SOL     OW17095   3.030   3.650   3.878 -0.1059  0.1475 -0.2984
 1878SOL    HW117096   3.073   3.665   3.793 -0.1799  1.0312 -0.1833
 1878SOL    HW217097   2.949   3.624   3.833 -0.2267 -1.1942  0.7083
 1879SOL     OW17098   3.411   0.085  10.899  0.7335  0.1417 -1.0752
 1879SOL    HW117099   3.392   0.053  10.811 -0.9985  1.2160 -1.0775
 1879SOL    HW217100   3.379   0.014  10.955 -0.9487  0.8845 -1.1111
 1880SOL     OW17101   1.489   3.098   0.667 -0.0109 -0.7758  0.9418
 1880SOL    HW117102   1.453   3.054   0.744  2.2227 -2.5454  0.9488
 1880SOL    HW217103   1.550   3.153   0.714  1.6997  0.5479 -2.8092
 1881SOL     OW17104   3.597   1.973  17.581 -0.3741 -0.1666  0.1786
 1881SOL    HW117105   3.567   1.930  17.661  0.6832  0.6389  1.0081
 1881SOL    HW217106   3.560   2.059  17.600 -0.2518 -0.3835  1.4529
 1882SOL     OW17107   1.773   4.188   3.201  0.0540 -0.2137 -0.2007
 1882SOL    HW117108   1.852   4.136   3.215 -0.3827 -1.0882 -0.9725
 1882SOL    HW217109   1.815   4.249   3.141 -0.9792  0.5822 -0.1038
 1883SOL     OW17110   1.023   3.511   7.559 -0.1807 -0.1511 -0.3545
 1883SOL    HW117111   0.934   3.537   7.537 -0.7273 -0.9836  0.8494
 1883SOL    HW217112   1.045   3.568   7.633 -1.2526  1.8903 -1.6146
 1884SOL     OW17113   2.375   4.560   9.148 -0.0741  0.5120 -0.1212
 1884SOL    HW117114   2.437   4.489   9.130 -1.3193 -0.4023 -0.7552
 1884SOL    HW217115   2.387   4.619   9.073 -2.0281 -0.7994 -1.4568
 1885SOL     OW17116   1.588   1.738   4.591 -0.3256  0.4505 -0.3118
 1885SOL    HW117117   1.513   1.761   4.647 -1.2606  1.1975 -1.8732
 1885SOL    HW217118   1.601   1.822   4.547 -0.6973  0.2657 -0.7769
 1886SOL     OW17119   1.974   4.251   7.228  0.7092  0.0903 -0.0517
 1886SOL    HW117120   1.943   4.270   7.139  1.1250  0.7557 -0.0507
 1886SOL    HW217121   1.891   4.221   7.267  0.2400  2.4219  0.7204
 1887SOL     OW17122   1.672   4.360  17.214 -0.4880 -0.9307  0.0649
 1887SOL    HW117123   1.659   4.438  17.267  2.1502 -0.2988 -0.1887
 1887SOL    HW217124   1.610   4.292  17.241  0.1299 -1.6414 -0.2809
 1888SOL     OW17125   1.334   3.569   0.635 -0.1895 -0.2277  0.5343
 1888SOL    HW117126   1.247   3.528   0.632  0.4931 -1.5728 -0.5528
 1888SOL    HW217127   1.355   3.559   0.542  0.3641 -0.7765  0.7171
 1889SOL     OW17128   0.521   4.559   1.173 -0.5912 -0.1230  0.7572
 1889SOL    HW117129   0.426   4.555   1.183 -0.7860 -1.0210 -1.5615
 1889SOL    HW217130   0.523   4.568   1.078 -0.2123 -0.6582  0.7124
 1890SOL     OW17131   0.447   1.706   2.049  0.1493 -0.7470 -0.5181
 1890SOL    HW117132   0.433   1.699   2.144 -2.7019  1.5673 -0.7491
 1890SOL    HW217133   0.357   1.727   2.024  1.4018  0.8198 -3.6864
 1891SOL     OW17134   4.464   1.827   7.445  0.1601  0.2098 -0.2135
 1891SOL    HW117135   4.503   1.838   7.532  0.4361  1.0271 -0.4367
 1891SOL    HW217136   4.463   1.732   7.430 -2.4551  0.3757 -1.1129
 1892SOL     OW17137   2.109   0.657   8.329 -0.6195 -0.4059 -0.0575
 1892SOL    HW117138   2.193   0.675   8.371 -1.4224 -0.9648  1.8082
 1892SOL    HW217139   2.056   0.699   8.396 -1.7638 -2.9598  0.6440
 1893SOL     OW17140   4.189   1.522  16.231  0.7391  0.1694 -0.2101
 1893SOL    HW117141   4.170   1.602  16.282  1.1459  0.9762 -1.3300
 1893SOL    HW217142   4.265   1.553  16.183  0.5425  1.5934  0.3962
 1894SOL     OW17143   4.199   4.201   6.145 -0.0483 -0.1585 -0.2617
 1894SOL    HW117144   4.290   4.175   6.162 -1.0636 -2.7739  1.1518
 1894SOL    HW217145   4.155   4.171   6.224 -1.0388  2.2705  0.0762
 1895SOL     OW17146   1.632   0.727  10.103 -0.2972  0.3461  0.6273
 1895SOL    HW117147   1.555   0.735  10.047 -0.5388 -0.4472  0.8416
 1895SOL    HW217148   1.609   0.644  10.146 -1.5623  0.8932  0.9910
 1896SOL     OW17149   4.504   1.966   9.381  0.2309 -0.2145  0.3212
 1896SOL    HW117150   4.506   2.041   9.321  2.3609 -1.5168 -1.1815
 1896SOL    HW217151   4.592   1.939   9.356  0.3420  0.1519  0.3060
 1897SOL     OW17152   0.588   4.275   3.343  0.6853  0.2380  0.4197
 1897SOL    HW117153   0.613   4.343   3.280  3.9600 -1.3467  0.0528
 1897SOL    HW217154   0.492   4.269   3.339  0.6713  0.2117  0.8414
 1898SOL     OW17155   3.165   3.132   2.788 -0.5472 -0.0419 -0.5270
 1898SOL    HW117156   3.108   3.168   2.721 -0.4523  0.7603 -0.1794
 1898SOL    HW217157   3.238   3.194   2.788  0.3731 -1.1224  3.8631
 1899SOL     OW17158   0.595   3.559   6.484 -0.2442 -0.0943  0.0866
 1899SOL    HW117159   0.565   3.592   6.568  0.5531  1.1115 -0.1086
 1899SOL    HW217160   0.516   3.509   6.462 -0.4498  1.3076 -2.3803
 1900SOL     OW17161   2.314   3.752   7.667  0.0507  0.4527 -0.3854
 1900SOL    HW117162   2.263   3.779   7.744 -1.8114 -0.3802 -1.3100
 1900SOL    HW217163   2.397   3.736   7.712 -0.5059  0.8487  0.7889
 1901SOL     OW17164   0.749   2.878   4.350  0.6127 -0.2142  0.6370
 1901SOL    HW117165   0.748   2.965   4.389  0.9092  0.1232 -0.1203
 1901SOL    HW217166   0.674   2.886   4.291 -0.4018 -4.3988  1.3179
 1902SOL     OW17167   0.217   1.592   8.512  0.4473 -0.3085  0.1727
 1902SOL    HW117168   0.307   1.561   8.512  0.6237  0.2125 -0.0523
 1902SOL    HW217169   0.230   1.683   8.539 -1.0363  0.2415 -0.9359
 1903SOL     OW17170   2.158   0.497   4.539 -0.2220 -0.2640 -0.0038
 1903SOL    HW117171   2.218   0.526   4.608 -1.9806  1.3175  0.8806
 1903SOL    HW217172   2.188   0.407   4.537  1.0657  0.1907 -0.9124
 1904SOL     OW17173   2.755   1.485  10.615  0.1309  0.1623 -0.0492
 1904SOL    HW117174   2.826   1.546  10.635 -0.0475  0.8789 -1.6054
 1904SOL    HW217175   2.792   1.446  10.536 -1.8763 -2.7185  0.4201
 1905SOL     OW17176   2.987   1.906   0.128  0.5402  0.5613 -0.1081
 1905SOL    HW117177   3.038   1.923   0.207  0.3626 -0.0226  0.1304
 1905SOL    HW217178   3.005   1.813   0.118 -0.7067  0.3351 -0.2740
 1906SOL     OW17179   2.824   3.213   8.089  0.6444  0.3773  0.9743
 1906SOL    HW117180   2.767   3.271   8.140  0.0164  1.2400 -0.7042
 1906SOL    HW217181   2.760   3.146   8.065  2.5476 -0.3727 -1.9683
 1907SOL     OW17182   0.061   1.619   9.653 -0.1136 -0.1456 -0.6292
 1907SOL    HW117183   0.078   1.698   9.704  0.3870 -0.8836  0.3485
 1907SOL    HW217184   0.151   1.610   9.624 -0.2124  1.8732 -1.5548
 1908SOL     OW17185   1.962   3.798  10.041 -0.2775  0.0881 -0.1938
 1908SOL    HW117186   2.047   3.803   9.998  0.0950 -2.1618  0.2755
 1908SOL    HW217187   1.995   3.789  10.130 -0.3338  1.1503 -0.0717
 1909SOL     OW17188   0.067   0.339  15.689 -0.0620  0.3486  0.3286
 1909SOL    HW117189   0.111   0.308  15.768 -0.5612  0.1526  0.5313
 1909SOL    HW217190   0.116   0.421  15.678  0.6239  0.0985  1.4727
 1910SOL     OW17191   3.019   1.372   6.129  0.5298 -0.4777  0.2556
 1910SOL    HW117192   2.954   1.387   6.197  0.7578  2.2413 -0.0968
 1910SOL    HW217193   2.959   1.387   6.056  1.1492  0.7776 -0.0099
 1911SOL     OW17194   4.493   0.959   8.293 -0.4681 -0.1010 -0.1692
 1911SOL    HW117195   4.511   0.980   8.202 -2.4756  0.6939 -0.4008
 1911SOL    HW217196   4.397   0.962   8.290 -0.5654 -2.0748  0.9597
 1912SOL     OW17197   0.476   3.158  14.281 -0.7207  0.2542  0.3602
 1912SOL    HW117198   0.509   3.074  14.248 -3.3904 -0.9594  0.8647
 1912SOL    HW217199   0.396   3.118  14.313 -0.0227 -0.7540  0.8452
 1913SOL     OW17200   1.899   4.037   9.906  0.0342  0.4023 -0.0964
 1913SOL    HW117201   1.985   4.051   9.867  0.8537 -1.1289  1.1588
 1913SOL    HW217202   1.912   3.973   9.976 -1.0407 -0.2577 -0.5031
 1914SOL     OW17203   2.099   4.116   9.042 -0.4430  0.3493  0.5297
 1914SOL    HW117204   2.148   4.145   9.119  2.0591 -0.2557 -0.8371
 1914SOL    HW217205   2.119   4.022   9.048  3.0171  1.0551  0.2767
 1915SOL     OW17206   2.768   3.161  16.740 -0.0089  0.4174 -0.2492
 1915SOL    HW117207   2.717   3.230  16.782 -0.7009  0.7545 -1.6125
 1915SOL    HW217208   2.843   3.151  16.798  0.8616  1.5507 -1.1773
 1916SOL     OW17209   1.058   0.544   6.240 -0.0326 -0.6244 -0.3539
 1916SOL    HW117210   1.149   0.577   6.240 -0.4800  0.6334 -1.2230
 1916SOL    HW217211   1.013   0.601   6.303  2.5652  1.3733 -0.2584
 1917SOL     OW17212   2.941   0.116   7.990 -0.1661  0.4094 -0.2382
 1917SOL    HW117213   2.976   0.108   8.079  1.9139 -0.6612 -1.1507
 1917SOL    HW217214   2.857   0.078   8.014 -1.3787  2.7688 -0.7381
 1918SOL     OW17215   3.257   0.960   9.392  0.6097  0.0271 -0.1083
 1918SOL    HW117216   3.254   0.936   9.485 -1.1728 -0.2696 -0.2255
 1918SOL    HW217217   3.164   0.966   9.369  0.5419 -4.9137 -1.2099
 1919SOL     OW17218   0.474   2.562   8.207 -1.0596 -0.2470  0.1113
 1919SOL    HW117219   0.411   2.576   8.278 -1.6582 -2.5471  0.0226
 1919SOL    HW217220   0.408   2.555   8.138  1.2390 -2.0523 -1.8871
 1920SOL     OW17221   2.030   0.383   9.029  0.2360 -0.1756 -0.3973
 1920SOL    HW117222   2.025   0.289   9.011  1.7951  0.0153 -1.8144
 1920SOL    HW217223   2.022   0.391   9.124  0.6559 -0.0742 -0.3718
 1921SOL     OW17224   1.114   1.203   7.403 -0.7062  0.2656 -0.0592
 1921SOL    HW117225   1.168   1.133   7.367 -0.6473 -0.8380  2.2204
 1921SOL    HW217226   1.115   1.267   7.331 -2.0658  1.3476  0.8824
 1922SOL     OW17227   1.503   1.548   8.409 -0.4233  0.4177 -0.2064
 1922SOL    HW117228   1.547   1.521   8.490  0.1061  0.9269 -0.3263
 1922SOL    HW217229   1.571   1.567   8.344 -1.0569  0.0929 -0.9661
 1923SOL     OW17230   0.571   0.157   9.293 -0.0080  0.0644  1.1083
 1923SOL    HW117231   0.561   0.077   9.242 -0.1511  1.6238 -1.3471
 1923SOL    HW217232   0.503   0.164   9.360  0.2947  1.6021  1.2557
 1924SOL     OW17233   0.285   3.021   0.946 -0.3534  0.0283 -0.0149
 1924SOL    HW117234   0.191   3.002   0.942 -0.2807 -0.5876  1.1004
 1924SOL    HW217235   0.289   3.075   1.025  0.8978 -0.7884  0.4884
 1925SOL     OW17236   0.796   1.835  16.921 -0.1694  0.1744 -0.5355
 1925SOL    HW117237   0.836   1.749  16.937  0.5786  0.9374  1.6371
 1925SOL    HW217238   0.832   1.856  16.834 -0.8991  0.2028 -0.8295
 1926SOL     OW17239   2.240   0.251   6.088 -0.0515  0.2395 -0.1663
 1926SOL    HW117240   2.146   0.257   6.071 -0.2300 -0.3026  0.5965
 1926SOL    HW217241   2.272   0.332   6.048  0.3462  0.6387  0.9367
 1927SOL     OW17242   0.597   2.822   8.320 -0.0836 -0.1667  0.0890
 1927SOL    HW117243   0.611   2.778   8.404  0.5177 -0.0039  0.0740
 1927SOL    HW217244   0.635   2.751   8.268  0.3495 -0.3352  0.6394
 1928SOL     OW17245   4.101   3.450   5.505 -0.2595  0.1470  0.1702
 1928SOL    HW117246   4.121   3.368   5.551  0.6148  0.8034  0.9737
 1928SOL    HW217247   4.006   3.444   5.504 -0.2099 -0.6525  0.3734
 1929SOL     OW17248   4.612   0.207   8.682 -0.2804 -0.5169  0.6427
 1929SOL    HW117249   4.598   0.293   8.721  2.1957 -0.2064  0.8481
 1929SOL    HW217250   4.535   0.206   8.626 -1.8552  1.2468  2.8006
 1930SOL     OW17251   4.119   1.866  11.611  0.7110 -0.5555  0.1105
 1930SOL    HW117252   4.179   1.882  11.685  1.5351 -0.7971 -0.5093
 1930SOL    HW217253   4.182   1.843  11.544  0.8571 -0.0285  0.0690
 1931SOL     OW17254   3.544   2.012   7.149  0.6822 -0.1847 -0.2737
 1931SOL    HW117255   3.521   1.991   7.059  3.4422 -0.5012 -0.8898
 1931SOL    HW217256   3.475   1.958   7.189  0.5352 -0.4670 -0.9197
 1932SOL     OW17257   3.830   1.672  16.434 -0.1001 -0.0626 -0.0664
 1932SOL    HW117258   3.753   1.705  16.481 -0.0319  0.5319 -0.3700
 1932SOL    HW217259   3.806   1.580  16.426 -0.4240  0.0959 -0.8577
 1933SOL     OW17260   1.435   4.143   8.868 -0.2995  0.5104  0.2174
 1933SOL    HW117261   1.393   4.228   8.873 -0.3771  0.4961 -0.2244
 1933SOL    HW217262   1.367   4.078   8.884 -0.3035  0.3205 -0.5600
 1934SOL     OW17263   0.869   2.243  14.441 -0.3706  0.4812  0.0839
 1934SOL    HW117264   0.848   2.269  14.351  0.6870 -0.4421 -0.4284
 1934SOL    HW217265   0.874   2.328  14.484 -0.0526 -0.0853  1.1493
 1935SOL     OW17266   1.538   4.439   4.984  0.4808 -0.4986 -0.5484
 1935SOL    HW117267   1.525   4.531   4.964  0.3346 -0.5142 -0.5265
 1935SOL    HW217268   1.487   4.426   5.064  0.7314  0.5673 -0.2195
 1936SOL     OW17269   2.681   0.891   9.356  0.2519 -0.6928  0.5680
 1936SOL    HW117270   2.651   0.932   9.275 -2.5755 -0.5839  1.6878
 1936SOL    HW217271   2.724   0.970   9.391 -2.1068  0.4290  0.9288
 1937SOL     OW17272   3.419   1.917   6.926  0.4350 -0.4091 -0.6324
 1937SOL    HW117273   3.497   1.893   6.875  2.0775  2.2948  0.6088
 1937SOL    HW217274   3.365   1.841   6.902 -0.5644  0.1944 -0.2671
 1938SOL     OW17275   4.446   1.256   3.860  0.1120  0.1301  0.1707
 1938SOL    HW117276   4.512   1.194   3.828 -0.2310 -0.3555  0.4222
 1938SOL    HW217277   4.484   1.337   3.826  0.6863 -0.6560 -1.0793
 1939SOL     OW17278   2.392   1.538  13.116 -0.1496  0.4711  0.0664
 1939SOL    HW117279   2.403   1.633  13.120 -1.3520  0.6111  0.2319
 1939SOL    HW217280   2.429   1.520  13.030 -0.3346 -0.9081  0.2796
 1940SOL     OW17281   4.272   0.897   4.526  0.0364  0.0818 -0.3576
 1940SOL    HW117282   4.196   0.886   4.468 -2.4055  0.8052  2.7058
 1940SOL    HW217283   4.344   0.865   4.471 -0.4215  1.0100 -1.5042
 1941SOL     OW17284   3.990   3.999   4.882  0.0222  0.1914  0.1410
 1941SOL    HW117285   3.919   4.020   4.821 -0.8768  1.8370  1.7483
 1941SOL    HW217286   4.004   3.906   4.867  0.4689  0.3452 -0.3891
 1942SOL     OW17287   0.758   2.088   8.559 -0.7994 -0.0676 -0.1130
 1942SOL    HW117288   0.770   2.166   8.505  1.1710 -0.0552  0.3531
 1942SOL    HW217289   0.853   2.075   8.564 -0.4884  2.2378 -0.0715
 1943SOL     OW17290   3.798   2.870  14.621  0.9522  0.0947 -0.2773
 1943SOL    HW117291   3.815   2.783  14.585 -0.0582 -0.0682 -0.3477
 1943SOL    HW217292   3.720   2.854  14.673  1.0083  0.3819 -0.1052
 1944SOL     OW17293   3.549   0.899  13.260 -0.2671  0.9936  0.1934
 1944SOL    HW117294   3.601   0.946  13.326 -0.3627  2.6165 -0.8960
 1944SOL    HW217295   3.616   0.842  13.223 -1.4582 -2.2908  3.0042
 1945SOL     OW17296   0.183   1.061   3.810 -0.3211  0.0378  0.0118
 1945SOL    HW117297   0.192   1.003   3.734  0.7401  0.0634  0.1159
 1945SOL    HW217298   0.262   1.039   3.860 -1.6729 -2.2659  1.1624
 1946SOL     OW17299   4.423   3.046   7.938 -0.3871  0.1051 -0.3268
 1946SOL    HW117300   4.342   2.996   7.932 -0.2094 -0.0601 -1.2931
 1946SOL    HW217301   4.421   3.063   7.844 -0.5678 -1.0825 -0.5347
 1947SOL     OW17302   2.670   3.850  14.451  0.5603  0.6029 -0.4264
 1947SOL    HW117303   2.725   3.822  14.378 -1.0056 -0.8951 -1.0371
 1947SOL    HW217304   2.733   3.853  14.523  0.1737 -0.4447 -0.0543
 1948SOL     OW17305   0.315   1.128   5.991  0.7231 -0.1844 -0.1593
 1948SOL    HW117306   0.281   1.087   5.911 -0.8708  1.2923 -0.2285
 1948SOL    HW217307   0.310   1.050   6.046  1.5339  2.1256  3.2120
 1949SOL     OW17308   3.981   3.437   2.930 -0.6634 -0.3688  0.1925
 1949SOL    HW117309   4.076   3.433   2.927 -0.6227  0.1521  0.7788
 1949SOL    HW217310   3.965   3.519   2.884  0.8973  0.0905  0.4623
 1950SOL     OW17311   1.716   2.114   7.713  0.2213  0.8681 -0.0428
 1950SOL    HW117312   1.658   2.098   7.788 -0.3185  0.6288 -0.5130
 1950SOL    HW217313   1.654   2.101   7.641  0.0888 -0.9311  0.4003
 1951SOL     OW17314   0.776   0.226  17.470 -0.0004 -0.5963  0.1463
 1951SOL    HW117315   0.744   0.201  17.557  0.4662 -0.7006  0.2866
 1951SOL    HW217316   0.799   0.138  17.440  0.4498 -0.6929  0.7890
 1952SOL     OW17317   0.750   4.280  14.835 -0.1243  0.3462 -0.3004
 1952SOL    HW117318   0.670   4.329  14.856 -1.1939 -1.9111  0.9202
 1952SOL    HW217319   0.818   4.331  14.879  0.6046  1.3052 -2.5583
 1953SOL     OW17320   0.090   1.851   7.560  0.3791 -0.4670  0.3344
 1953SOL    HW117321   0.056   1.936   7.531  0.6282  0.0963  1.7035
 1953SOL    HW217322   0.023   1.841   7.628  1.2285 -0.1940  1.2069
 1954SOL     OW17323   3.564   0.694   3.311  0.2988  0.5474 -0.0775
 1954SOL    HW117324   3.475   0.658   3.307  0.6008 -0.3768  1.6499
 1954SOL    HW217325   3.575   0.710   3.405  1.9948  1.1001 -0.3673
 1955SOL     OW17326   3.728   0.597   5.987 -0.8813  0.1648  0.0955
 1955SOL    HW117327   3.635   0.610   6.008 -1.5232 -2.8334 -0.8341
 1955SOL    HW217328   3.723   0.534   5.915 -0.4056  1.1354 -0.7807
 1956SOL     OW17329   3.047   1.403   8.089  0.3085 -0.1569 -0.2746
 1956SOL    HW117330   3.007   1.464   8.152 -1.1282 -0.5044 -0.8554
 1956SOL    HW217331   2.997   1.326   8.116  1.8477 -0.6923  1.0104
 1957SOL     OW17332   4.013   0.595  16.041  0.1535 -0.1645  0.2324
 1957SOL    HW117333   4.063   0.524  16.080 -0.2282 -1.0688 -0.9010
 1957SOL    HW217334   3.923   0.565  16.057 -0.1188  2.0451  2.9028
 1958SOL     OW17335   4.567   3.328   8.598 -0.4522  0.4426 -0.1406
 1958SOL    HW117336   4.487   3.281   8.620 -0.6192  0.5489 -0.5099
 1958SOL    HW217337   4.586   3.273   8.522  0.8559 -0.7664  1.0644
 1959SOL     OW17338   2.968   2.629   8.551 -0.1257  0.4705  0.1266
 1959SOL    HW117339   2.887   2.612   8.502 -0.1269 -1.5963  0.8537
 1959SOL    HW217340   3.020   2.618   8.472 -0.9837 -1.2697 -0.1819
 1960SOL     OW17341   3.651   1.959   1.485 -0.7172  0.3338  0.4229
 1960SOL    HW117342   3.729   1.903   1.491 -0.4237  0.9552  2.3854
 1960SOL    HW217343   3.591   1.900   1.440  0.2584 -0.4187  0.1018
 1961SOL     OW17344   3.270   0.882  10.370  0.4078  0.7108 -0.3614
 1961SOL    HW117345   3.221   0.919  10.297  3.2551 -0.6850 -2.9676
 1961SOL    HW217346   3.231   0.794  10.369 -1.8972  1.7401 -1.0471
 1962SOL     OW17347   0.412   3.258   6.127  0.6290 -1.0191  0.1233
 1962SOL    HW117348   0.474   3.256   6.054  2.9164 -1.4527  2.0905
 1962SOL    HW217349   0.331   3.234   6.081 -0.1608 -0.1722  1.0506
 1963SOL     OW17350   1.247   2.751   2.751  0.6551 -0.8750 -0.0973
 1963SOL    HW117351   1.170   2.770   2.805  1.0645 -0.5020  0.3504
 1963SOL    HW217352   1.279   2.669   2.788  1.5368 -0.7773 -0.6606
 1964SOL     OW17353   1.316   4.557   7.906  0.1582 -0.4338 -0.1428
 1964SOL    HW117354   1.351   4.634   7.951  0.3592 -0.2366 -0.6298
 1964SOL    HW217355   1.373   4.547   7.830 -0.7157 -0.3394 -0.8219
 1965SOL     OW17356   3.318   3.432   4.698  0.4524  0.1372 -0.7506
 1965SOL    HW117357   3.365   3.505   4.737  0.1722 -1.4296  2.4454
 1965SOL    HW217358   3.269   3.480   4.630  1.4563 -0.9279 -2.2161
 1966SOL     OW17359   4.204   4.331  14.646 -0.0203  0.4541  0.0129
 1966SOL    HW117360   4.225   4.410  14.696 -1.1307  0.6762  0.1303
 1966SOL    HW217361   4.255   4.269  14.699 -1.4644  0.2680  1.1909
 1967SOL     OW17362   4.527   4.612   2.027 -0.2871  0.1014 -0.1205
 1967SOL    HW117363   4.432   4.617   2.032 -0.2080  1.0174  0.5026
 1967SOL    HW217364   4.547   4.627   1.934  2.0048  0.2482  0.3929
 1968SOL     OW17365   1.140   2.909   5.636  0.3581 -0.7813 -0.3211
 1968SOL    HW117366   1.167   2.827   5.678  1.2422 -0.8171 -0.9673
 1968SOL    HW217367   1.081   2.883   5.565 -0.7086  0.6459  0.0339
 1969SOL     OW17368   3.242   1.706   4.621  0.0551  0.0322  0.0439
 1969SOL    HW117369   3.305   1.663   4.564  0.7634  2.0386 -0.6859
 1969SOL    HW217370   3.171   1.642   4.615 -1.2367  1.5224 -0.7365
 1970SOL     OW17371   2.566   3.288  11.030  0.0927 -0.1153  0.4021
 1970SOL    HW117372   2.601   3.344  11.098 -1.9612  1.4890  0.1541
 1970SOL    HW217373   2.471   3.298  11.036 -0.0670 -2.1097  1.2486
 1971SOL     OW17374   3.685   0.620  12.734  0.1772 -0.1863  0.1720
 1971SOL    HW117375   3.758   0.616  12.672  1.5908 -0.3709  1.8281
 1971SOL    HW217376   3.683   0.530  12.766  0.7545 -0.5087 -0.7147
 1972SOL     OW17377   0.116   0.301   6.720  0.1391 -0.0851  0.1050
 1972SOL    HW117378   0.038   0.356   6.732  0.9224  1.8906 -3.8774
 1972SOL    HW217379   0.071   0.216   6.714 -1.7826  1.0146 -1.1026
 1973SOL     OW17380   2.650   0.107  10.962  0.0511  0.3387  0.2764
 1973SOL    HW117381   2.636   0.015  10.939  3.1424  0.3345 -1.6008
 1973SOL    HW217382   2.576   0.123  11.020  0.2864 -1.1579  0.9945
 1974SOL     OW17383   1.157   1.853   9.060 -0.1993 -0.0571 -0.2339
 1974SOL    HW117384   1.148   1.892   9.147 -2.1365 -1.5029  0.2019
 1974SOL    HW217385   1.135   1.762   9.079 -0.4170 -0.1194 -0.7714
 1975SOL     OW17386   2.482   1.881  11.370 -0.0196  0.2329 -0.3099
 1975SOL    HW117387   2.466   1.853  11.460 -0.3058  0.9505 -0.1334
 1975SOL    HW217388   2.577   1.880  11.361  0.1105 -0.2050  1.1281
 1976SOL     OW17389   4.104   1.419   2.223 -0.4481  0.2080  0.4353
 1976SOL    HW117390   4.114   1.464   2.139  1.5367  0.7280  0.9525
 1976SOL    HW217391   4.146   1.336   2.199 -0.7842  0.0765  0.2915
 1977SOL     OW17392   3.808   2.854   6.916 -0.8745 -0.2035 -0.2436
 1977SOL    HW117393   3.813   2.948   6.933 -1.1838 -0.3327  0.5671
 1977SOL    HW217394   3.834   2.833   7.005 -0.4151 -0.5680 -0.4617
 1978SOL     OW17395   3.626   2.727  11.281  0.0843 -0.1267  0.6944
 1978SOL    HW117396   3.699   2.756  11.335 -0.7946 -1.0396  2.3985
 1978SOL    HW217397   3.567   2.700  11.352 -0.9488 -1.1604 -0.5599
 1979SOL     OW17398   3.212   4.068   9.954  0.5157 -0.4127  0.0052
 1979SOL    HW117399   3.294   4.060   9.907  0.3300 -0.2957 -0.3416
 1979SOL    HW217400   3.156   4.105   9.886  1.8209  1.3119 -0.1304
 1980SOL     OW17401   0.960   3.640  11.658  0.1691  0.4226  0.2803
 1980SOL    HW117402   0.879   3.590  11.650  0.0459  0.8280 -0.9483
 1980SOL    HW217403   0.972   3.660  11.565  0.0244  1.4498  0.4889
 1981SOL     OW17404   2.730   1.012   5.721 -0.5341 -0.0740  0.0852
 1981SOL    HW117405   2.658   1.070   5.696 -2.0052 -0.6581  2.9084
 1981SOL    HW217406   2.676   0.950   5.771  1.1001 -0.3550  1.5153
 1982SOL     OW17407   3.296   0.779   8.251 -0.3496  0.1875 -0.1964
 1982SOL    HW117408   3.285   0.797   8.158 -2.7978  0.1224  0.0957
 1982SOL    HW217409   3.240   0.703   8.267  1.5899 -1.0209  1.0445
 1983SOL     OW17410   4.520   3.907   2.150 -0.1056  0.0017 -0.4264
 1983SOL    HW117411   4.524   3.955   2.233 -1.2251 -0.8041  0.0992
 1983SOL    HW217412   4.552   3.971   2.087  1.5506  1.4360  1.8476
 1984SOL     OW17413   2.120   2.282   6.692  0.6930 -0.1579 -0.1412
 1984SOL    HW117414   2.152   2.342   6.759 -1.1141 -0.5968  1.1256
 1984SOL    HW217415   2.140   2.335   6.615 -1.0350 -1.1888 -1.2937
 1985SOL     OW17416   1.566   2.528   9.480  0.5634  0.0900  0.2934
 1985SOL    HW117417   1.608   2.470   9.417 -1.7688 -1.9145  0.5790
 1985SOL    HW217418   1.648   2.555   9.522 -0.1391 -0.3623  1.9683
 1986SOL     OW17419   0.019   2.172   5.612 -0.0720 -0.0574 -0.2548
 1986SOL    HW117420   4.679   2.103   5.623  0.5503 -0.5625  0.2346
 1986SOL    HW217421   0.015   2.172   5.516 -2.2940  0.8149 -0.1594
 1987SOL     OW17422   0.789   3.169   5.517 -0.7222 -0.0724  0.9346
 1987SOL    HW117423   0.838   3.108   5.462  0.4838  1.3783  0.4068
 1987SOL    HW217424   0.703   3.129   5.510 -0.6666  0.0875 -0.7429
 1988SOL     OW17425   0.826   2.586  11.803  0.2773  0.0339 -0.2114
 1988SOL    HW117426   0.780   2.608  11.722  0.8976 -1.6016 -1.0088
 1988SOL    HW217427   0.879   2.665  11.812  0.4308 -0.1058  0.0894
 1989SOL     OW17428   1.349   1.986   8.152  0.7528  0.2030  0.5420
 1989SOL    HW117429   1.283   1.941   8.205 -0.3961  1.6902  0.3795
 1989SOL    HW217430   1.302   2.061   8.116  3.1142  1.1731 -0.4760
 1990SOL     OW17431   3.059   1.642   9.444 -0.1325 -0.1863 -0.6689
 1990SOL    HW117432   3.128   1.610   9.502  1.9335  1.8198 -2.0135
 1990SOL    HW217433   2.987   1.637   9.507  1.6593  0.0280  1.4145
 1991SOL     OW17434   2.883   4.587  10.677  0.1604 -0.0684  0.1522
 1991SOL    HW117435   2.891   4.529  10.601  1.4914 -0.4675  0.5918
 1991SOL    HW217436   2.837   4.529  10.737 -0.3145 -0.3810 -0.5171
 1992SOL     OW17437   0.249   3.582   0.995  0.2431  0.2250  0.3082
 1992SOL    HW117438   0.308   3.539   1.057 -1.0227 -1.6547  0.2033
 1992SOL    HW217439   0.209   3.508   0.950 -0.2691 -0.4080  1.8206
 1993SOL     OW17440   0.193   2.734  17.148  0.4660  0.6568 -0.0929
 1993SOL    HW117441   0.250   2.684  17.089  0.1892 -0.2141  0.3783
 1993SOL    HW217442   0.162   2.804  17.091  0.6815  0.4936 -0.4150
 1994SOL     OW17443   4.480   4.274   7.701 -0.0332  0.2402  0.0960
 1994SOL    HW117444   4.391   4.298   7.726  0.5348 -1.3461  3.4933
 1994SOL    HW217445   4.477   4.179   7.702 -1.2418  0.2720 -0.6277
 1995SOL     OW17446   1.392   0.627   3.449 -0.0992 -0.8872 -0.3036
 1995SOL    HW117447   1.336   0.598   3.520  0.2039 -0.7134  0.0074
 1995SOL    HW217448   1.435   0.549   3.413  0.9004 -1.9402  3.1769
 1996SOL     OW17449   3.631   4.200   2.676 -0.0505  0.6422  0.0160
 1996SOL    HW117450   3.672   4.191   2.762 -2.9552  0.4321  1.3957
 1996SOL    HW217451   3.665   4.115   2.650  1.4641  1.1707  0.2919
 1997SOL     OW17452   1.254   2.309   8.995 -0.5417 -0.4510  0.2848
 1997SOL    HW117453   1.299   2.232   8.960  0.8706  0.2274  0.6144
 1997SOL    HW217454   1.280   2.379   8.934  0.0798 -1.0912 -0.1840
 1998SOL     OW17455   2.311   3.072   2.948 -0.2187  0.2064 -0.4963
 1998SOL    HW117456   2.354   3.013   2.885  1.0290 -0.6793  1.1784
 1998SOL    HW217457   2.384   3.100   3.003  1.0235  1.1615 -2.6116
 1999SOL     OW17458   4.157   1.657   5.567  0.5133 -0.3051 -0.0112
 1999SOL    HW117459   4.192   1.649   5.655 -3.1172  2.5963  1.6799
 1999SOL    HW217460   4.063   1.654   5.582  0.7611  1.5063  1.7834
 2000SOL     OW17461   4.421   3.709  11.453  0.1833  0.2789  0.6589
 2000SOL    HW117462   4.489   3.666  11.504 -0.1659 -0.3432  0.6017
 2000SOL    HW217463   4.402   3.628  11.404  1.2421  0.5569 -0.2102
 2001SOL     OW17464   0.041   3.441   4.193 -0.5525  0.2327 -0.0940
 2001SOL    HW117465   4.694   3.377   4.183 -0.0342 -0.1417 -1.3491
 2001SOL    HW217466   0.088   3.391   4.260 -0.8209  0.2701  0.1232
 2002SOL     OW17467   0.282   1.212  17.404 -0.0433  0.1663 -0.0047
 2002SOL    HW117468   0.316   1.140  17.352 -1.4329 -1.5094  1.4092
 2002SOL    HW217469   0.264   1.272  17.332  0.6487 -0.8891 -1.0425
 2003SOL     OW17470   0.946   3.233   8.209 -0.2801 -0.5881  0.2032
 2003SOL    HW117471   0.957   3.279   8.125  0.9736  1.2163  1.3550
 2003SOL    HW217472   0.884   3.287   8.258 -0.3695  0.2430 -0.8155
 2004SOL     OW17473   0.597   1.878  14.244  0.4763 -0.0347 -0.5493
 2004SOL    HW117474   0.662   1.908  14.307 -0.1043  0.9746 -0.4448
 2004SOL    HW217475   0.531   1.947  14.242  0.8548  0.3142 -0.9639
 2005SOL     OW17476   0.003   3.065  14.560  0.0133 -0.0576  0.4600
 2005SOL    HW117477   0.060   3.015  14.618 -1.5802 -0.4038  1.7410
 2005SOL    HW217478   4.667   3.099  14.626 -0.7293  1.0463 -0.7629
 2006SOL     OW17479   0.176   0.412   6.967 -0.0189  0.0740 -0.0093
 2006SOL    HW117480   0.174   0.360   6.886  0.6488  1.2860 -0.7980
 2006SOL    HW217481   0.104   0.382   7.023  0.9533 -0.0669  1.1626
 2007SOL     OW17482   1.180   0.357   6.037  0.0809  0.1307  0.4730
 2007SOL    HW117483   1.116   0.413   6.081 -0.6567 -0.9981  0.8445
 2007SOL    HW217484   1.172   0.383   5.945  0.6772 -1.1727  0.0421
 2008SOL     OW17485   0.389   0.802  11.837 -0.1565 -0.1506 -0.0578
 2008SOL    HW117486   0.320   0.844  11.786  0.4914 -0.0455 -0.8490
 2008SOL    HW217487   0.461   0.863  11.820 -0.3181 -0.0952 -0.5436
 2009SOL     OW17488   0.473   2.686   2.732 -0.1933 -0.5121  0.2930
 2009SOL    HW117489   0.563   2.705   2.759  0.1851  0.4848 -1.6910
 2009SOL    HW217490   0.449   2.613   2.789  0.4669 -0.8019  0.2038
 2010SOL     OW17491   3.069   2.892   2.384  0.2610 -0.2633 -0.5056
 2010SOL    HW117492   3.071   2.884   2.288 -1.9048 -1.2415 -0.4605
 2010SOL    HW217493   3.020   2.975   2.390  2.0046  0.6007  1.4948
 2011SOL     OW17494   0.238   0.467   6.067  0.3181 -0.0706  0.0294
 2011SOL    HW117495   0.242   0.444   6.160 -4.0925  0.7675  0.4306
 2011SOL    HW217496   0.160   0.421   6.037  0.7889 -0.1125 -1.1252
 2012SOL     OW17497   3.434   0.957   2.472 -0.5721  0.1624 -0.4190
 2012SOL    HW117498   3.494   0.890   2.506 -2.0996 -2.8812 -3.7325
 2012SOL    HW217499   3.350   0.919   2.499 -1.1672  1.4656 -0.4539
 2013SOL     OW17500   3.829   0.865   3.682  0.0826  0.4751  0.0972
 2013SOL    HW117501   3.885   0.789   3.668 -0.3266  0.3979 -1.1695
 2013SOL    HW217502   3.893   0.935   3.694  0.0882  0.4914 -0.0241
 2014SOL     OW17503   2.419   3.443   5.186  0.3533  0.0087  0.6307
 2014SOL    HW117504   2.331   3.475   5.206  0.2754  1.3221 -1.8043
 2014SOL    HW217505   2.441   3.495   5.108 -1.7940  0.4086  0.2637
 2015SOL     OW17506   3.681   0.405   5.762 -0.5217 -0.2678 -0.2371
 2015SOL    HW117507   3.730   0.376   5.685  1.2465  0.3932  0.6219
 2015SOL    HW217508   3.594   0.420   5.726 -0.5290 -2.3520 -1.0306
 2016SOL     OW17509   2.043   0.878  15.843 -0.1203  0.7087  0.7190
 2016SOL    HW117510   2.039   0.914  15.755  0.2325 -0.8741  0.0422
 2016SOL    HW217511   2.018   0.957  15.891  2.7063  1.6602  0.6403
 2017SOL     OW17512   2.574   2.404  10.931 -0.2956 -0.4579 -0.2763
 2017SOL    HW117513   2.654   2.372  10.974  0.1102  0.3941 -0.3852
 2017SOL    HW217514   2.513   2.331  10.938 -0.0164 -0.8585 -1.9382
 2018SOL     OW17515   0.498   4.266  14.640 -0.1794 -0.1648  0.2746
 2018SOL    HW117516   0.423   4.306  14.684 -0.6648 -1.9655  1.0944
 2018SOL    HW217517   0.521   4.185  14.686  0.7925 -0.4933 -0.7958
 2019SOL     OW17518   4.498   2.090   9.088 -0.1211 -0.0135  0.6512
 2019SOL    HW117519   4.549   2.022   9.044 -1.2458 -1.3914  1.4833
 2019SOL    HW217520   4.452   2.118   9.009 -0.3028 -0.5925  0.5534
 2020SOL     OW17521   1.157   0.696  10.159  0.3568  0.6578 -0.1681
 2020SOL    HW117522   1.068   0.727  10.139 -0.6836 -1.1404  1.6529
 2020SOL    HW217523   1.168   0.615  10.109 -1.1876  0.3823 -0.0748
 2021SOL     OW17524   3.484   1.849   8.707  0.2719 -0.4500  0.1062
 2021SOL    HW117525   3.435   1.773   8.737 -0.9742  0.6139  0.8159
 2021SOL    HW217526   3.475   1.907   8.783  0.1575  0.7591 -0.8335
 2022SOL     OW17527   2.849   2.606   4.109  0.5118  0.2824  0.6612
 2022SOL    HW117528   2.773   2.550   4.127  0.7220 -0.7360 -1.5242
 2022SOL    HW217529   2.896   2.536   4.063  2.1806  0.9498  1.3513
 2023SOL     OW17530   2.018   2.824   5.313 -0.3336 -0.5697  0.3350
 2023SOL    HW117531   1.931   2.788   5.326 -0.4488  0.5218  2.5268
 2023SOL    HW217532   2.066   2.763   5.257 -0.3169  1.5367 -1.9238
 2024SOL     OW17533   0.608   2.626   9.998 -0.3762  0.1052  0.0600
 2024SOL    HW117534   0.597   2.548   9.944 -1.9717  0.1714  0.2951
 2024SOL    HW217535   0.703   2.625   9.994 -0.4140  1.1244 -1.2200
 2025SOL     OW17536   1.139   3.020   8.579 -0.4240  0.1914 -0.3095
 2025SOL    HW117537   1.154   3.097   8.523 -3.4338 -0.1360 -1.5893
 2025SOL    HW217538   1.165   2.952   8.516 -1.6162  1.0684 -1.7582
 2026SOL     OW17539   0.790   1.257   3.169  0.0254  0.2193 -0.2413
 2026SOL    HW117540   0.705   1.225   3.141  0.6220  0.1588 -1.9893
 2026SOL    HW217541   0.787   1.245   3.264 -1.6183 -0.5876 -0.3957
 2027SOL     OW17542   0.386   3.727   1.547  0.1997  0.0613  0.6123
 2027SOL    HW117543   0.338   3.702   1.626 -0.4048  2.4916  1.0273
 2027SOL    HW217544   0.466   3.676   1.556 -0.0982 -0.2398  1.4916
 2028SOL     OW17545   0.995   2.025   9.597 -0.2976  0.1338 -0.3179
 2028SOL    HW117546   1.071   1.980   9.634 -0.4826 -1.4354 -1.8636
 2028SOL    HW217547   1.018   2.118   9.598  1.0564 -0.1998  0.5692
 2029SOL     OW17548   4.056   0.698   8.349  0.4024  0.3167  0.0617
 2029SOL    HW117549   3.979   0.685   8.404  0.2908  0.8728  0.0314
 2029SOL    HW217550   4.087   0.607   8.347  0.4793  0.3638 -0.9483
 2030SOL     OW17551   2.752   3.474   7.244 -0.5503 -0.3186  0.5748
 2030SOL    HW117552   2.812   3.512   7.309 -1.8919  0.0562  1.5731
 2030SOL    HW217553   2.781   3.520   7.165  1.1729 -0.4038  1.1525
 2031SOL     OW17554   0.672   0.572   9.066 -0.1063  0.0282 -0.3537
 2031SOL    HW117555   0.604   0.638   9.056  1.2682  1.6077  0.7523
 2031SOL    HW217556   0.627   0.496   9.029  0.0443 -1.0048  1.6029
 2032SOL     OW17557   3.875   0.503   8.585 -0.0602 -1.2747  0.0539
 2032SOL    HW117558   3.867   0.597   8.572 -0.7073 -1.2723  0.4634
 2032SOL    HW217559   3.809   0.485   8.652 -0.3429  1.2556  0.4442
 2033SOL     OW17560   2.056   0.089   9.096  0.4365  0.4249 -0.2346
 2033SOL    HW117561   2.021   0.082   9.007  2.5794  0.0527 -1.0372
 2033SOL    HW217562   1.984   0.143   9.130  0.7930  1.6857 -1.4840
 2034SOL     OW17563   1.496   3.364   6.837 -0.3536  0.3222 -0.3685
 2034SOL    HW117564   1.529   3.432   6.896 -1.6002  0.1097  0.5698
 2034SOL    HW217565   1.498   3.284   6.890 -0.3256 -0.8803 -2.1840
 2035SOL     OW17566   1.418   2.087   7.036  0.1273 -0.2439 -0.6025
 2035SOL    HW117567   1.435   2.028   6.963  0.2512 -0.8322 -0.1009
 2035SOL    HW217568   1.347   2.141   7.001 -0.1598 -0.9203 -1.0600
 2036SOL     OW17569   2.494   1.225   3.703  0.2861 -0.1240 -0.0315
 2036SOL    HW117570   2.543   1.280   3.764 -1.5643  0.2688  1.0778
 2036SOL    HW217571   2.409   1.209   3.744 -0.3976  0.7315 -1.1134
 2037SOL     OW17572   1.313   3.679   1.761 -0.2409  0.0107  0.3884
 2037SOL    HW117573   1.402   3.689   1.795  0.2262  1.0431 -1.1308
 2037SOL    HW217574   1.286   3.595   1.798 -0.3653  0.2204  0.7715
 2038SOL     OW17575   4.143   0.571   6.166  0.3380 -0.1071  0.3506
 2038SOL    HW117576   4.131   0.483   6.130 -0.6232  0.2447 -0.2259
 2038SOL    HW217577   4.055   0.610   6.167  0.7388  0.7685  1.8368
 2039SOL     OW17578   3.624   1.223  15.319 -0.0753 -0.3003  0.1674
 2039SOL    HW117579   3.702   1.211  15.373  0.1332 -2.7397 -0.6628
 2039SOL    HW217580   3.589   1.134  15.320 -0.0915 -0.3189 -1.5331
 2040SOL     OW17581   2.329   0.032  13.322 -0.0510 -0.2309  0.0776
 2040SOL    HW117582   2.309   0.003  13.233  1.4340 -0.4634 -0.1765
 2040SOL    HW217583   2.415   4.716  13.327  0.3454  0.7716  1.3137
 2041SOL     OW17584   3.898   3.698   0.321 -0.2568  0.3586  0.2530
 2041SOL    HW117585   3.932   3.783   0.293  1.3279 -0.7161 -1.0898
 2041SOL    HW217586   3.850   3.658   0.249 -0.8423  2.8611 -0.7624
 2042SOL     OW17587   0.303   3.931   0.394 -0.2676 -0.5105  0.2766
 2042SOL    HW117588   0.236   3.942   0.462 -0.4813  0.9592 -0.1807
 2042SOL    HW217589   0.356   3.860   0.430 -0.6760 -0.2714  1.3586
 2043SOL     OW17590   3.084   2.099   7.515 -0.5419  0.6566  0.3696
 2043SOL    HW117591   3.139   2.065   7.586  0.2188 -0.2846 -0.6758
 2043SOL    HW217592   3.132   2.078   7.435 -2.5178 -0.6494 -0.4626
 2044SOL     OW17593   2.735   1.451   7.563  0.2857  0.0870 -0.2234
 2044SOL    HW117594   2.715   1.479   7.652 -1.8248 -1.2592 -0.2713
 2044SOL    HW217595   2.818   1.497   7.553  1.4680 -2.2972 -1.3696
 2045SOL     OW17596   2.615   3.436   3.176  0.8494  0.2836  0.2707
 2045SOL    HW117597   2.611   3.500   3.105 -1.6950  0.4049  0.5275
 2045SOL    HW217598   2.584   3.490   3.249 -0.8956 -0.3221 -0.0264
 2046SOL     OW17599   2.450   4.030   0.375 -0.1618  0.2373 -0.5682
 2046SOL    HW117600   2.469   4.059   0.464 -1.2804  2.2322 -0.9808
 2046SOL    HW217601   2.520   4.075   0.328 -0.6100  1.8282  0.3007
 2047SOL     OW17602   4.462   3.105   3.955  0.7300 -0.4400 -0.1954
 2047SOL    HW117603   4.433   3.026   4.002  2.4631 -0.4616  0.8091
 2047SOL    HW217604   4.518   3.151   4.017  0.5694  2.0942 -1.9581
 2048SOL     OW17605   0.678   3.781   4.986  0.2810  0.1859 -0.2843
 2048SOL    HW117606   0.712   3.811   4.902  1.3523  0.0318  0.0962
 2048SOL    HW217607   0.722   3.836   5.050 -0.2249 -0.3669  0.5305
 2049SOL     OW17608   1.901   2.289  14.272  0.7936  0.4251 -0.1676
 2049SOL    HW117609   1.894   2.251  14.359  1.8052 -3.6506 -1.8725
 2049SOL    HW217610   1.932   2.217  14.218 -0.3516  0.1773 -0.4760
 2050SOL     OW17611   0.026   2.477   4.250 -0.4328  0.5309  0.5018
 2050SOL    HW117612   4.672   2.432   4.219 -0.3825 -0.1346  1.3384
 2050SOL    HW217613   4.709   2.527   4.321 -0.7419  1.3517 -0.2446
 2051SOL     OW17614   1.289   1.856   5.936 -0.2867  0.2408 -0.4404
 2051SOL    HW117615   1.384   1.853   5.924 -0.5546 -3.2966 -1.8317
 2051SOL    HW217616   1.280   1.824   6.025  0.5685 -0.7280 -0.6899
 2052SOL     OW17617   2.711   3.310   6.753  0.5578  0.4485 -0.3183
 2052SOL    HW117618   2.750   3.344   6.673  2.5674 -1.3389 -0.0814
 2052SOL    HW217619   2.629   3.269   6.725  0.2637  1.6477 -1.2465
 2053SOL     OW17620   2.822   2.054   2.447 -0.4325  0.2063 -0.4152
 2053SOL    HW117621   2.784   2.108   2.378 -0.7524  0.3653 -0.1152
 2053SOL    HW217622   2.786   2.086   2.529  0.0793  0.5582 -0.3269
 2054SOL     OW17623   2.069   3.678   4.479  0.1443 -0.1229 -0.0120
 2054SOL    HW117624   2.061   3.752   4.540 -1.1335  0.1745 -0.5313
 2054SOL    HW217625   2.045   3.608   4.539  0.3350  0.5523  0.8614
 2055SOL     OW17626   3.923   2.250   9.495  0.2917  0.0450 -0.0265
 2055SOL    HW117627   3.889   2.160   9.496 -0.0129  0.1549 -0.2704
 2055SOL    HW217628   3.906   2.269   9.587  2.6531  2.8641 -0.1925
 2056SOL     OW17629   1.438   3.705   8.748 -0.5313  0.7967 -0.4696
 2056SOL    HW117630   1.450   3.785   8.698  0.6116  0.2571 -1.0626
 2056SOL    HW217631   1.345   3.697   8.768 -0.4444 -0.5217 -0.5692
 2057SOL     OW17632   1.562   3.106   4.045 -0.2066  0.2320 -0.2863
 2057SOL    HW117633   1.547   3.036   4.108  2.5856 -0.2606 -0.1688
 2057SOL    HW217634   1.620   3.165   4.092 -0.2374  0.0749 -0.0526
 2058SOL     OW17635   3.888   2.852   2.246 -0.1039 -0.1655 -0.2387
 2058SOL    HW117636   3.832   2.800   2.188 -1.5950 -0.2296  1.2503
 2058SOL    HW217637   3.976   2.840   2.210  0.5105  2.3527  0.4410
 2059SOL     OW17638   2.884   0.963  12.504 -0.0449  0.2927 -0.2885
 2059SOL    HW117639   2.807   0.925  12.545  0.5427  0.4622  0.9634
 2059SOL    HW217640   2.932   0.994  12.581 -2.0377 -1.9470  1.8037
 2060SOL     OW17641   0.180   2.560  12.200  0.1629  0.1807 -0.0308
 2060SOL    HW117642   0.111   2.582  12.137 -1.7084  3.0941  3.0539
 2060SOL    HW217643   0.258   2.587  12.152  1.3724 -2.5609  0.3665
 2061SOL     OW17644   1.239   1.647   8.148 -0.3271 -0.5107 -0.7396
 2061SOL    HW117645   1.199   1.705   8.213  2.9879 -1.3564  2.0542
 2061SOL    HW217646   1.244   1.566   8.199  2.1589  0.1471  0.0303
 2062SOL     OW17647   0.895   0.826   8.467 -0.2414  0.2742 -0.0754
 2062SOL    HW117648   0.822   0.857   8.521  0.5216  2.5838 -0.3523
 2062SOL    HW217649   0.879   0.733   8.451 -2.3563  0.7722 -0.8004
 2063SOL     OW17650   0.557   4.051   2.159  0.2203 -0.0909  0.2156
 2063SOL    HW117651   0.592   4.125   2.109 -0.1287  0.5312  0.8867
 2063SOL    HW217652   0.512   4.101   2.227  0.8431  0.3236  0.3239
 2064SOL     OW17653   2.442   0.373   2.453  0.3499 -0.0326 -0.2233
 2064SOL    HW117654   2.370   0.311   2.445 -0.1105  0.6230 -1.1913
 2064SOL    HW217655   2.419   0.451   2.403  0.4371  0.9885  1.3280
 2065SOL     OW17656   2.196   3.396   7.750  0.0395 -0.4792  0.3603
 2065SOL    HW117657   2.283   3.425   7.722 -0.7688 -0.6899 -2.3677
 2065SOL    HW217658   2.158   3.482   7.770  2.1277  0.7906 -1.1349
 2066SOL     OW17659   1.984   1.251   7.730 -0.4813  0.2429 -0.2384
 2066SOL    HW117660   1.937   1.334   7.730  1.1318  1.1594 -2.3519
 2066SOL    HW217661   1.913   1.189   7.715 -1.5150  1.6292 -1.1172
 2067SOL     OW17662   1.686   2.617   4.752  0.7779 -0.1281 -0.6777
 2067SOL    HW117663   1.688   2.711   4.768 -0.2376 -0.5678  2.0270
 2067SOL    HW217664   1.682   2.619   4.656 -0.2447  3.5897 -0.5739
 2068SOL     OW17665   1.678   1.022   8.862  0.3409 -0.4200 -0.4087
 2068SOL    HW117666   1.636   1.046   8.779  2.6123  1.6028 -0.9878
 2068SOL    HW217667   1.665   1.087   8.931 -0.9080 -0.2139 -0.8471
 2069SOL     OW17668   4.402   2.143  15.669  0.9062 -0.2114 -0.6173
 2069SOL    HW117669   4.308   2.153  15.678  1.0394  0.8667 -0.4612
 2069SOL    HW217670   4.419   2.133  15.762 -0.3400 -0.0651 -0.3791
 2070SOL     OW17671   0.804   4.247   6.716  0.2527 -0.5008 -0.0474
 2070SOL    HW117672   0.864   4.194   6.664  0.1959  0.3246 -0.9332
 2070SOL    HW217673   0.726   4.192   6.706 -1.2295  0.9944  3.3384
 2071SOL     OW17674   3.907   3.238   1.141  0.1973 -1.0794  0.4320
 2071SOL    HW117675   3.866   3.314   1.100 -1.8572 -2.1414  0.4960
 2071SOL    HW217676   3.950   3.198   1.065 -0.4198 -0.5559 -0.1979
 2072SOL     OW17677   4.096   2.484   9.543  0.3735  0.1601 -0.1688
 2072SOL    HW117678   4.057   2.513   9.460  0.6009 -0.0031 -0.3340
 2072SOL    HW217679   4.029   2.510   9.606  1.1166  1.0564  0.2473
 2073SOL     OW17680   2.834   3.646  17.051 -0.4556 -0.1735  0.3385
 2073SOL    HW117681   2.875   3.666  17.135  2.0327  0.5801 -1.0618
 2073SOL    HW217682   2.746   3.613  17.072 -0.8270  0.3047 -0.4567
 2074SOL     OW17683   1.566   0.018   6.791  0.1722 -0.2768  0.1340
 2074SOL    HW117684   1.572   4.701   6.705 -0.2639 -0.5492  0.2365
 2074SOL    HW217685   1.649   0.065   6.801  0.1450 -0.0910 -0.4972
 2075SOL     OW17686   1.562   3.068   1.127  0.0737 -0.3343 -0.2824
 2075SOL    HW117687   1.594   2.992   1.175 -0.8952 -1.3479 -1.2445
 2075SOL    HW217688   1.642   3.082   1.077 -0.4981 -2.3268 -1.7608
 2076SOL     OW17689   1.687   3.201  12.228  0.2587 -0.0152  0.5019
 2076SOL    HW117690   1.767   3.224  12.276 -1.3811 -0.5054  3.5105
 2076SOL    HW217691   1.718   3.118  12.193 -0.0535  0.4000 -0.7286
 2077SOL     OW17692   2.003   4.303   3.657  0.1895 -0.6187  0.2504
 2077SOL    HW117693   2.084   4.350   3.637 -1.4787  2.1340 -0.0008
 2077SOL    HW217694   1.961   4.288   3.572 -4.5944 -2.3148  2.9073
 2078SOL     OW17695   3.516   0.520   9.235 -0.2828 -0.6047  0.0157
 2078SOL    HW117696   3.519   0.439   9.285 -1.0112 -0.7268 -0.1293
 2078SOL    HW217697   3.534   0.487   9.146 -0.8272 -0.2013 -0.2459
 2079SOL     OW17698   1.521   0.892   5.120 -0.4455 -0.8173  0.3150
 2079SOL    HW117699   1.502   0.924   5.032 -2.2947 -0.9931  0.6593
 2079SOL    HW217700   1.516   0.797   5.114  0.8274 -1.0818  3.2047
 2080SOL     OW17701   0.581   4.196   2.473  0.0643  0.8302  0.3447
 2080SOL    HW117702   0.659   4.248   2.492 -0.2513  1.3877  0.1175
 2080SOL    HW217703   0.510   4.259   2.487 -0.6458  0.4253 -1.4470
 2081SOL     OW17704   3.217   4.437   3.088 -0.3262  0.5656 -0.4495
 2081SOL    HW117705   3.227   4.342   3.090 -2.3912  0.3726  0.8689
 2081SOL    HW217706   3.306   4.467   3.109  0.3958 -2.3808  0.7554
 2082SOL     OW17707   3.282   0.334   9.467  0.6732 -0.0390  0.2402
 2082SOL    HW117708   3.359   0.307   9.418  0.7438  0.9023 -0.1546
 2082SOL    HW217709   3.317   0.342   9.556  0.8891 -1.7752  0.3153
 2083SOL     OW17710   4.512   3.817   2.927  0.3597 -0.1544 -0.0633
 2083SOL    HW117711   4.475   3.743   2.975 -2.4421  1.2822 -0.0025
 2083SOL    HW217712   4.602   3.786   2.919 -0.4305 -1.5022 -3.7676
 2084SOL     OW17713   1.393   1.740   6.673  0.1998 -0.1390 -0.0860
 2084SOL    HW117714   1.355   1.792   6.743 -1.0589 -3.0969  1.4107
 2084SOL    HW217715   1.317   1.720   6.618 -0.0517 -2.6059  1.1972
 2085SOL     OW17716   0.018   3.337   8.248 -0.1063  0.3255 -0.2087
 2085SOL    HW117717   0.066   3.307   8.171 -0.2360  2.2861 -1.0508
 2085SOL    HW217718   0.085   3.327   8.316  1.8083 -1.4558 -2.3545
 2086SOL     OW17719   2.037   1.923  15.250  1.5468 -0.0519  0.4271
 2086SOL    HW117720   2.018   1.894  15.340 -0.6993  0.0570 -0.0149
 2086SOL    HW217721   1.961   1.978  15.230  1.6579  1.0950  3.0670
 2087SOL     OW17722   3.720   2.126   3.425  0.0730  0.2286  0.0499
 2087SOL    HW117723   3.749   2.181   3.497 -1.1876  1.9428 -0.7510
 2087SOL    HW217724   3.798   2.087   3.386  1.6637  1.2517  2.2528
 2088SOL     OW17725   2.415   1.516  16.809  0.0458 -0.2242 -0.2735
 2088SOL    HW117726   2.484   1.573  16.844 -0.5148 -0.6933  1.5598
 2088SOL    HW217727   2.332   1.541  16.849 -1.2814 -0.7595 -2.6826
 2089SOL     OW17728   4.634   4.721   9.849  0.2772 -0.2624  0.2011
 2089SOL    HW117729   4.571   4.701   9.780 -0.4301  2.6458  0.0090
 2089SOL    HW217730   4.567   4.712   9.917 -1.5719  1.1882 -1.4693
 2090SOL     OW17731   3.233   0.097   4.070 -0.2977 -0.0487 -0.5940
 2090SOL    HW117732   3.141   0.122   4.079  0.1460  1.6653 -0.8635
 2090SOL    HW217733   3.244   0.093   3.975  0.8489 -0.1404 -0.4622
 2091SOL     OW17734   3.235   2.040   7.213 -0.0222 -0.1320  0.2501
 2091SOL    HW117735   3.280   1.988   7.279  1.2244  2.1522  1.1836
 2091SOL    HW217736   3.264   2.129   7.234  1.4888 -0.4060 -0.7529
 2092SOL     OW17737   4.228   3.482   6.123 -0.1675 -0.5273 -0.3565
 2092SOL    HW117738   4.294   3.499   6.190 -1.5012 -1.1198  1.1068
 2092SOL    HW217739   4.207   3.570   6.093 -0.6158 -0.5181 -0.0081
 2093SOL     OW17740   3.307   0.854   7.988 -0.0548 -0.2018  0.5863
 2093SOL    HW117741   3.255   0.898   7.921 -1.1576 -0.4591  1.2634
 2093SOL    HW217742   3.331   0.779   7.934  0.4685  0.5026 -0.1420
 2094SOL     OW17743   3.749   3.234   3.756  0.0562 -0.3838 -0.3352
 2094SOL    HW117744   3.756   3.290   3.833 -0.4766 -1.3715  0.4252
 2094SOL    HW217745   3.835   3.233   3.714 -0.3948 -0.3873 -1.2585
 2095SOL     OW17746   1.807   2.101   3.940  0.0932 -0.0047 -0.7765
 2095SOL    HW117747   1.893   2.098   3.982 -0.2037 -0.4889 -0.2087
 2095SOL    HW217748   1.793   2.017   3.896 -0.8934  0.6765 -1.7568
 2096SOL     OW17749   1.930   3.850   5.095  0.2223  0.0528 -0.3409
 2096SOL    HW117750   1.912   3.823   5.006 -1.9809 -0.1016  0.1457
 2096SOL    HW217751   1.966   3.938   5.084  0.3608 -0.0805 -0.9128
 2097SOL     OW17752   0.522   2.839   9.151 -0.1132 -0.3420  0.6845
 2097SOL    HW117753   0.612   2.809   9.162  0.2960  0.9693  0.9919
 2097SOL    HW217754   0.488   2.775   9.089  0.7038 -0.2131  0.1053
 2098SOL     OW17755   0.518   1.708  11.771 -0.1720 -0.5140 -0.2113
 2098SOL    HW117756   0.598   1.689  11.819  0.5543  0.2372 -1.1229
 2098SOL    HW217757   0.456   1.654  11.821  0.1825 -0.4572  0.2902
 2099SOL     OW17758   4.563   3.565   8.293  0.1092  0.2587  0.1789
 2099SOL    HW117759   4.540   3.579   8.385 -2.0997  1.6415 -0.5891
 2099SOL    HW217760   4.630   3.498   8.284 -0.6539 -0.3891 -0.7373
 2100SOL     OW17761   3.668   4.610   3.442 -0.1603  0.7281 -0.3726
 2100SOL    HW117762   3.709   4.528   3.416  0.2866  1.1645 -1.0472
 2100SOL    HW217763   3.732   4.674   3.409  1.0125 -0.0387  0.4133
 2101SOL     OW17764   2.437   0.313   6.693 -0.8442  0.1093  0.2646
 2101SOL    HW117765   2.463   0.393   6.648  1.4399 -0.2413  0.9624
 2101SOL    HW217766   2.509   0.295   6.753 -0.4007 -0.8516 -0.5389
 2102SOL     OW17767   2.955   4.091   5.991  0.0974 -0.1326  0.0968
 2102SOL    HW117768   3.043   4.117   5.963  0.3224 -0.5115  0.4578
 2102SOL    HW217769   2.905   4.137   5.923 -0.2841  0.3457  0.7078
 2103SOL     OW17770   1.556   2.357   6.720  0.2275 -0.0804 -0.3368
 2103SOL    HW117771   1.641   2.401   6.719  0.5790 -0.7474  0.7125
 2103SOL    HW217772   1.597   2.272   6.730 -1.5253 -0.7484  1.0730
 2104SOL     OW17773   1.094   3.676   7.791  0.4602 -0.2796  0.7110
 2104SOL    HW117774   1.176   3.708   7.754  0.3097 -0.5678  0.1299
 2104SOL    HW217775   1.086   3.739   7.863 -0.6209  0.0302  0.3240
 2105SOL     OW17776   4.311   4.201   3.041  0.0638  0.4398  0.0388
 2105SOL    HW117777   4.232   4.255   3.032  0.2519  0.8578  0.9039
 2105SOL    HW217778   4.376   4.230   2.977  0.0171  0.2083 -0.1118
 2106SOL     OW17779   3.357   0.573  14.771  0.0930  0.1103  0.0753
 2106SOL    HW117780   3.272   0.601  14.805  0.0724 -1.0192  0.9190
 2106SOL    HW217781   3.368   0.619  14.687 -0.0328  0.7915  0.4275
 2107SOL     OW17782   2.367   4.473   9.671  0.6601  0.1870  0.2908
 2107SOL    HW117783   2.355   4.524   9.590 -3.1408 -0.0149  0.7208
 2107SOL    HW217784   2.436   4.415   9.639  0.1502 -0.0634 -0.3783
 2108SOL     OW17785   4.246   4.062   0.341  0.2662  0.0122  0.1784
 2108SOL    HW117786   4.192   4.062   0.262  1.9075 -2.4542 -0.9227
 2108SOL    HW217787   4.190   4.090   0.414  0.2310  0.9707 -0.2153
 2109SOL     OW17788   3.566   3.863   5.788 -0.1307  0.3378  0.0519
 2109SOL    HW117789   3.658   3.890   5.793  0.5761 -2.1744  0.3524
 2109SOL    HW217790   3.575   3.808   5.866 -0.6281  1.2399  0.7542
 2110SOL     OW17791   1.290   4.377   8.893  0.3328 -0.0990 -0.4898
 2110SOL    HW117792   1.308   4.368   8.800  1.5883 -0.1720 -0.2403
 2110SOL    HW217793   1.199   4.408   8.892  0.8200  1.3207 -0.7015
 2111SOL     OW17794   1.562   3.525   2.296  0.6737 -0.5482 -0.6975
 2111SOL    HW117795   1.641   3.573   2.273  0.3841  1.7493  3.0624
 2111SOL    HW217796   1.528   3.590   2.358  1.0525 -1.2516  0.2382
 2112SOL     OW17797   0.525   2.250   4.051 -0.3348  0.6407 -0.8439
 2112SOL    HW117798   0.586   2.181   4.079  0.0648  1.1247 -0.5176
 2112SOL    HW217799   0.581   2.296   3.989  0.5937 -0.5096 -0.8685
 2113SOL     OW17800   1.330   0.189   3.352 -0.0533 -0.3043  0.4673
 2113SOL    HW117801   1.373   0.271   3.372  1.0894 -0.4416 -1.4404
 2113SOL    HW217802   1.390   0.121   3.382 -1.0712 -0.4410  2.1827
 2114SOL     OW17803   1.451   2.961   0.896 -0.1683 -0.5433 -0.2158
 2114SOL    HW117804   1.372   2.928   0.940 -0.4682  1.2678  0.6287
 2114SOL    HW217805   1.491   3.003   0.972  0.8621 -1.0482 -0.4894
 2115SOL     OW17806   1.188   4.319   6.710  0.1818 -0.3791 -0.3160
 2115SOL    HW117807   1.188   4.407   6.748 -1.0447 -0.7628  0.5830
 2115SOL    HW217808   1.223   4.270   6.784 -0.0583 -0.3577 -0.1860
 2116SOL     OW17809   0.979   0.892   4.604 -0.3382 -0.3414 -1.0761
 2116SOL    HW117810   0.912   0.948   4.643 -1.1751 -1.5073 -0.8648
 2116SOL    HW217811   0.936   0.838   4.538  1.0645 -1.5231 -1.0341
 2117SOL     OW17812   2.960   4.719   2.917  0.2408 -0.1461 -0.1153
 2117SOL    HW117813   3.031   4.724   2.853  0.4140 -0.7773  0.0299
 2117SOL    HW217814   2.912   4.642   2.886 -2.2459  0.7907  1.4231
 2118SOL     OW17815   4.646   0.470   6.792  0.2368 -0.2282  0.1780
 2118SOL    HW117816   4.581   0.512   6.736 -0.0918 -1.1020 -0.1026
 2118SOL    HW217817   4.603   0.480   6.877  0.6889  2.9564  0.0356
 2119SOL     OW17818   2.601   3.954  12.397 -0.5159  0.5189  0.1036
 2119SOL    HW117819   2.588   3.917  12.484  0.8342  0.8838  0.4672
 2119SOL    HW217820   2.520   3.923  12.358 -0.6978  1.2816 -0.1290
 2120SOL     OW17821   0.747   3.064   4.574 -0.0421  0.1312 -1.1803
 2120SOL    HW117822   0.797   3.108   4.642  0.8090 -3.0127  0.2126
 2120SOL    HW217823   0.730   3.141   4.518 -0.5327 -0.0724 -1.3070
 2121SOL     OW17824   3.876   2.436   6.672 -0.3156 -0.4382 -0.5378
 2121SOL    HW117825   3.865   2.457   6.765 -1.4813 -2.0516 -0.3246
 2121SOL    HW217826   3.957   2.486   6.659  0.0864 -0.9891 -0.1569
 2122SOL     OW17827   2.941   0.596  10.139 -0.1764 -0.2726 -0.0575
 2122SOL    HW117828   2.998   0.605  10.063  1.0632  0.7376  0.9873
 2122SOL    HW217829   2.876   0.534  10.108 -2.5334  2.1253  0.1110
 2123SOL     OW17830   0.509   0.856   2.658 -0.2526  0.0778 -0.1314
 2123SOL    HW117831   0.454   0.811   2.595  0.2000  1.6704 -1.6642
 2123SOL    HW217832   0.590   0.861   2.608 -1.2564 -1.4232 -1.8940
 2124SOL     OW17833   0.644   1.422   9.100  0.7309  0.0252  0.2224
 2124SOL    HW117834   0.583   1.367   9.051 -0.2819 -1.3433  3.0655
 2124SOL    HW217835   0.635   1.507   9.056 -0.7796 -1.0382 -1.4949
 2125SOL     OW17836   0.175   2.870   0.690  0.4584  0.0750  0.4756
 2125SOL    HW117837   0.163   2.860   0.595  2.1498  2.1210  0.0491
 2125SOL    HW217838   0.086   2.875   0.724  0.2489  5.3426 -0.9660
 2126SOL     OW17839   3.760   0.582  13.932  0.3953 -0.0785 -0.3263
 2126SOL    HW117840   3.809   0.644  13.877  3.0770 -2.2663 -0.4134
 2126SOL    HW217841   3.674   0.589  13.890  0.5870  1.0085 -0.5586
 2127SOL     OW17842   0.399   2.369   7.366  0.1646  0.1380  0.0705
 2127SOL    HW117843   0.494   2.372   7.352  0.1520 -1.7917 -0.3784
 2127SOL    HW217844   0.373   2.461   7.363 -0.2928  0.0176  0.4584
 2128SOL     OW17845   0.452   0.199  16.699  0.3776 -0.7263  0.7573
 2128SOL    HW117846   0.373   0.219  16.749  0.3786 -0.3183  0.5930
 2128SOL    HW217847   0.474   0.289  16.676  0.8111 -0.6861  1.3635
 2129SOL     OW17848   1.327   1.118   6.295 -0.3663  0.0763 -0.5102
 2129SOL    HW117849   1.305   1.034   6.256  2.4250 -0.4812 -0.8512
 2129SOL    HW217850   1.351   1.176   6.223  1.3463 -0.5710 -0.4513
 2130SOL     OW17851   0.577   0.149   3.255  0.0217  0.4831  0.2479
 2130SOL    HW117852   0.508   0.083   3.259  0.0253  0.5098  0.7540
 2130SOL    HW217853   0.634   0.115   3.324  0.4015  2.6764  1.0192
 2131SOL     OW17854   1.091   3.045  10.450  0.1631  0.4061  0.5606
 2131SOL    HW117855   0.999   3.020  10.439  0.5048 -1.1734  1.2793
 2131SOL    HW217856   1.111   3.023  10.360 -0.3471  1.9080  0.0729
 2132SOL     OW17857   2.979   2.259   7.161  0.0926 -0.1239  0.2467
 2132SOL    HW117858   2.951   2.307   7.239 -0.9128  0.3910 -0.4382
 2132SOL    HW217859   2.941   2.174   7.181 -3.1179  1.0179 -1.0018
 2133SOL     OW17860   0.924   2.375   7.730  0.7250 -0.1773  0.2651
 2133SOL    HW117861   0.845   2.397   7.681  0.7845 -2.5350 -0.9100
 2133SOL    HW217862   0.981   2.364   7.653  1.3759  0.5073  0.6398
 2134SOL     OW17863   4.016   3.995   7.592  0.6249  0.2624  0.7960
 2134SOL    HW117864   4.071   4.048   7.650  0.2801  0.3326  1.0596
 2134SOL    HW217865   3.933   4.042   7.598 -1.2498 -2.6072 -3.1212
 2135SOL     OW17866   3.166   1.513  10.449 -0.0054  0.1730 -0.1614
 2135SOL    HW117867   3.231   1.570  10.409 -0.8213  0.0346 -1.6737
 2135SOL    HW217868   3.146   1.451  10.380  0.9691 -1.6269  1.1760
 2136SOL     OW17869   0.660   2.871   7.770  0.6776  0.3349  0.2018
 2136SOL    HW117870   0.713   2.792   7.778 -0.2862 -0.3695 -0.2791
 2136SOL    HW217871   0.577   2.838   7.735  0.7415  0.3149  0.0697
 2137SOL     OW17872   2.346   4.135   9.486 -0.0068 -0.0594  0.0753
 2137SOL    HW117873   2.441   4.121   9.486  0.4862  3.3010 -4.8139
 2137SOL    HW217874   2.317   4.053   9.446 -0.4679 -0.2723  0.8543
 2138SOL     OW17875   1.571   4.566   5.602 -0.2634 -0.3244  0.0516
 2138SOL    HW117876   1.514   4.637   5.569 -1.3911 -1.4042 -0.3366
 2138SOL    HW217877   1.593   4.530   5.516 -0.4232  0.7371 -0.4374
 2139SOL     OW17878   0.524   2.765  14.561 -0.0862  0.2781 -0.0372
 2139SOL    HW117879   0.515   2.731  14.472  2.0387 -0.0162 -0.1388
 2139SOL    HW217880   0.608   2.810  14.554 -0.2282  0.5230 -0.1842
 2140SOL     OW17881   0.782   0.849   7.923 -0.4137  0.1013 -0.0111
 2140SOL    HW117882   0.815   0.920   7.978  0.5716 -0.2089 -0.1994
 2140SOL    HW217883   0.692   0.839   7.954  0.1703 -3.3109  0.5824
 2141SOL     OW17884   3.499   1.264  11.797  0.3338  0.4672  0.7277
 2141SOL    HW117885   3.556   1.196  11.761 -0.7350 -0.5965  1.0148
 2141SOL    HW217886   3.475   1.319  11.722 -0.6640 -0.5958  0.2644
 2142SOL     OW17887   3.448   1.865  16.721  0.0770  0.6315 -0.0031
 2142SOL    HW117888   3.541   1.847  16.704 -0.4003 -1.9982  0.1646
 2142SOL    HW217889   3.437   1.805  16.795 -0.0157 -2.1247 -2.2381
 2143SOL     OW17890   0.354   3.337   1.402 -0.6916 -0.5732 -0.1172
 2143SOL    HW117891   0.260   3.354   1.410 -0.7940 -1.4904  0.5991
 2143SOL    HW217892   0.382   3.347   1.493 -1.8327 -1.0983  0.2951
 2144SOL     OW17893   4.558   3.999   5.364 -0.2782 -0.6395  0.6780
 2144SOL    HW117894   4.612   3.923   5.385  0.5541  0.4539  2.5785
 2144SOL    HW217895   4.530   3.991   5.274 -1.0766  2.7001  0.6050
 2145SOL     OW17896   3.211   0.029  14.151 -0.2653 -0.2623  0.5733
 2145SOL    HW117897   3.134   0.010  14.205 -0.0061  0.9022  1.3398
 2145SOL    HW217898   3.261   4.671  14.148 -1.8696 -1.1571 -1.4448
 2146SOL     OW17899   1.413   0.266   8.294 -0.2227  0.7222 -0.4126
 2146SOL    HW117900   1.341   0.317   8.331  0.2376  0.5387  0.7388
 2146SOL    HW217901   1.435   0.220   8.374 -1.0452 -0.6074 -0.9591
 2147SOL     OW17902   4.167   1.197   5.988  0.1768  0.1704 -0.0111
 2147SOL    HW117903   4.171   1.117   6.040  1.4254  0.6150  0.5688
 2147SOL    HW217904   4.182   1.165   5.899  4.5987  1.2661  0.3124
 2148SOL     OW17905   3.305   2.245  10.176 -0.4530 -0.2893  0.3478
 2148SOL    HW117906   3.365   2.309  10.214 -1.2601  1.3630 -1.2292
 2148SOL    HW217907   3.230   2.262  10.233  0.1028  0.0625  0.9736
 2149SOL     OW17908   2.883   0.449  17.488  0.5966 -0.3073  0.2104
 2149SOL    HW117909   2.945   0.467  17.418  0.0381  0.0237 -0.1970
 2149SOL    HW217910   2.918   0.504  17.558 -0.8694 -1.0902  1.5547
 2150SOL     OW17911   0.229   1.676   9.310  0.6142 -0.6703  0.6446
 2150SOL    HW117912   0.325   1.671   9.305  0.4897 -0.2934 -2.0059
 2150SOL    HW217913   0.210   1.662   9.403  0.4948  0.0441  0.7339
 2151SOL     OW17914   1.312   2.539   9.301 -0.1073 -0.4377 -0.4034
 2151SOL    HW117915   1.285   2.451   9.275 -1.4816  0.2086 -1.1514
 2151SOL    HW217916   1.392   2.532   9.353 -1.0918  1.2261  1.3118
 2152SOL     OW17917   2.013   4.262  13.590 -0.1577 -0.8003  0.1219
 2152SOL    HW117918   2.072   4.188  13.600  3.1811  1.7228 -1.0430
 2152SOL    HW217919   1.958   4.262  13.668 -3.3793  0.1065 -2.1303
 2153SOL     OW17920   2.867   0.500   0.813  0.0005  0.5131  0.4938
 2153SOL    HW117921   2.828   0.414   0.831 -1.2441  0.6887 -1.2694
 2153SOL    HW217922   2.793   0.556   0.838 -0.2752 -0.2283  1.3234
 2154SOL     OW17923   1.026   2.155   8.320  0.1893 -0.0963  0.3885
 2154SOL    HW117924   1.058   2.089   8.259  0.6194  1.1330 -0.7079
 2154SOL    HW217925   1.099   2.167   8.381 -0.0476 -0.1151  0.6762
 2155SOL     OW17926   1.378   2.698   9.072  0.0080 -0.4712  0.9101
 2155SOL    HW117927   1.451   2.639   9.055 -0.2905 -0.4555 -0.4151
 2155SOL    HW217928   1.329   2.630   9.120 -2.6877 -0.0257 -1.2125
 2156SOL     OW17929   4.022   3.496  12.712  0.0893 -0.6179 -0.6897
 2156SOL    HW117930   3.946   3.464  12.762 -0.3490 -0.8743 -1.5245
 2156SOL    HW217931   4.086   3.500  12.783  0.0328 -1.0989 -0.6145
 2157SOL     OW17932   3.041   2.592   3.461 -0.0138  0.2318 -0.1438
 2157SOL    HW117933   2.991   2.568   3.383  0.5223 -0.5136 -0.2540
 2157SOL    HW217934   2.962   2.609   3.513 -1.3246 -1.3564 -1.6030
 2158SOL     OW17935   1.753   1.672   2.111 -0.3976 -0.4822  0.0424
 2158SOL    HW117936   1.822   1.614   2.081 -0.4418 -1.1302  1.1830
 2158SOL    HW217937   1.762   1.737   2.041  1.6987 -0.2551  0.5080
 2159SOL     OW17938   4.009   4.659   2.139 -0.6120  0.0739 -0.6083
 2159SOL    HW117939   4.045   0.005   2.085 -3.3238 -0.5534 -3.2375
 2159SOL    HW217940   3.923   4.634   2.107 -0.3556 -0.9379 -0.5170
 2160SOL     OW17941   2.028   2.688   4.758  0.0975  0.0280 -0.2054
 2160SOL    HW117942   2.066   2.750   4.820 -1.3510  0.2547  0.4530
 2160SOL    HW217943   1.948   2.678   4.809  0.5441  2.1008  0.9107
 2161SOL     OW17944   3.932   1.242   3.896  0.2828  0.1575 -0.4158
 2161SOL    HW117945   3.874   1.236   3.821  0.3401  0.8891 -0.5190
 2161SOL    HW217946   4.010   1.249   3.840  0.6811  1.9514  0.3695
 2162SOL     OW17947   2.597   1.957  12.634  0.0422 -0.1490 -0.0456
 2162SOL    HW117948   2.690   1.944  12.650  0.0524  0.4553  0.4074
 2162SOL    HW217949   2.557   1.900  12.699  0.0488 -0.0973  0.0040
 2163SOL     OW17950   1.852   3.282  15.592 -0.4884 -0.3142  0.3701
 2163SOL    HW117951   1.802   3.362  15.607  0.1393  0.6548 -2.8710
 2163SOL    HW217952   1.882   3.260  15.681  0.4319 -2.5654 -0.4801
 2164SOL     OW17953   0.566   1.526   9.497 -0.5408  0.2066  0.3535
 2164SOL    HW117954   0.599   1.576   9.572  3.3134  0.1426 -1.2999
 2164SOL    HW217955   0.606   1.443   9.523 -2.3930 -0.1949  1.9032
 2165SOL     OW17956   0.862   4.185  11.897 -0.4370 -0.7175  0.0854
 2165SOL    HW117957   0.918   4.167  11.972  1.3326  1.5002 -0.7038
 2165SOL    HW217958   0.855   4.281  11.895 -0.7598 -0.7612 -1.3330
 2166SOL     OW17959   3.969   1.772   8.870  0.4659 -0.4529  0.3673
 2166SOL    HW117960   3.905   1.731   8.927 -0.3224 -0.2923 -0.4048
 2166SOL    HW217961   3.952   1.735   8.783 -0.5036 -1.6585  1.0767
 2167SOL     OW17962   2.139   2.694   8.915 -0.0129 -0.1347  0.3172
 2167SOL    HW117963   2.065   2.646   8.952  0.4758 -0.5597  0.7322
 2167SOL    HW217964   2.186   2.713   8.996  0.8553 -2.5083  0.3845
 2168SOL     OW17965   0.601   1.795   3.003  0.6373  0.1773  0.2691
 2168SOL    HW117966   0.595   1.748   2.920 -0.7171 -0.9232  1.0071
 2168SOL    HW217967   0.695   1.799   3.024  0.3059  1.5713  1.4917
 2169SOL     OW17968   3.806   0.663   3.172  0.4796  0.0049  0.5060
 2169SOL    HW117969   3.734   0.726   3.165 -0.5844 -1.4936 -2.1592
 2169SOL    HW217970   3.774   0.619   3.250 -2.7809  2.0214  0.3086
 2170SOL     OW17971   3.733   0.155  12.690 -0.0193  0.5517 -0.1718
 2170SOL    HW117972   3.729   0.093  12.618  2.2103 -0.1310  0.2899
 2170SOL    HW217973   3.806   0.126  12.745 -0.3031 -0.5419 -0.3838
 2171SOL     OW17974   1.884   2.395  15.707 -1.0032 -0.1594  0.0097
 2171SOL    HW117975   1.939   2.473  15.705 -0.9073 -0.1521  2.9142
 2171SOL    HW217976   1.835   2.402  15.625 -0.0655  0.4619 -0.4941
 2172SOL     OW17977   3.076   0.855   6.968 -0.3374 -0.3322 -0.2682
 2172SOL    HW117978   3.094   0.766   6.937  0.7093 -0.8628  1.8785
 2172SOL    HW217979   3.137   0.904   6.913  1.2882 -0.7104  1.1874
 2173SOL     OW17980   0.552   3.227  15.769 -0.2585  0.4538 -0.1713
 2173SOL    HW117981   0.526   3.196  15.856 -1.0009 -1.0346 -0.9234
 2173SOL    HW217982   0.502   3.165  15.715 -0.3056  1.0806 -0.8475
 2174SOL     OW17983   0.563   2.145  10.838  0.3548 -0.5079 -0.3983
 2174SOL    HW117984   0.476   2.138  10.877 -0.6704  2.1632 -2.2197
 2174SOL    HW217985   0.566   2.075  10.773 -0.7187  0.4187 -1.4393
 2175SOL     OW17986   2.776   2.812  15.612 -0.4535  0.3352  0.3383
 2175SOL    HW117987   2.856   2.828  15.562  0.5379 -0.9373  1.4980
 2175SOL    HW217988   2.718   2.772  15.548 -0.1811  0.5809 -0.0624
 2176SOL     OW17989   0.764   4.288   6.075 -0.0582 -1.1321 -0.0137
 2176SOL    HW117990   0.731   4.324   6.157  0.8947 -1.7349  0.6276
 2176SOL    HW217991   0.763   4.366   6.019 -0.1557 -1.2389 -0.1611
 2177SOL     OW17992   3.226   3.199   9.799 -0.3773 -0.2511 -0.0616
 2177SOL    HW117993   3.186   3.282   9.824 -0.8048 -1.0551  1.9404
 2177SOL    HW217994   3.275   3.228   9.722 -0.7590 -1.5494 -0.8082
 2178SOL     OW17995   0.740   0.146  16.715 -0.2347  0.2946  1.0253
 2178SOL    HW117996   0.778   0.207  16.651  1.6998 -0.6476  1.2623
 2178SOL    HW217997   0.647   0.142  16.692  0.2217 -0.4426 -0.6703
 2179SOL     OW17998   2.306   1.314   8.973  0.5538 -0.0314 -0.4609
 2179SOL    HW117999   2.234   1.326   8.911  0.9499 -1.9565 -1.2851
 2179SOL    HW218000   2.349   1.231   8.954 -0.5173 -0.7640  0.2949
 2180SOL     OW18001   2.230   0.712   1.627  0.0438 -0.4720  0.3641
 2180SOL    HW118002   2.294   0.777   1.598 -1.6294  0.3354 -1.5990
 2180SOL    HW218003   2.145   0.746   1.596 -0.0578  0.2956  1.4926
 2181SOL     OW18004   4.649   2.960  11.287 -0.1699 -0.9117 -0.3185
 2181SOL    HW118005   4.612   3.018  11.221  0.0014  0.0704  0.4564
 2181SOL    HW218006   4.573   2.909  11.318 -1.1301 -0.0598 -1.2688
 2182SOL     OW18007   1.540   1.702   2.666  0.5198  0.1104 -0.2810
 2182SOL    HW118008   1.588   1.742   2.738 -0.3719  1.4597 -0.4466
 2182SOL    HW218009   1.614   1.705   2.604 -0.0779 -0.4348 -1.0242
 2183SOL     OW18010   3.825   0.358   9.314  0.0895 -0.2663  0.1899
 2183SOL    HW118011   3.740   0.322   9.288 -0.3084  0.7329  0.1116
 2183SOL    HW218012   3.798   0.417   9.385  0.7515 -1.4108  1.3783
 2184SOL     OW18013   2.234   1.904   3.549  0.1380  0.5309 -0.3732
 2184SOL    HW118014   2.204   1.869   3.633  1.2147  0.9701  0.1924
 2184SOL    HW218015   2.329   1.903   3.558  0.3162 -0.5242 -2.4097
 2185SOL     OW18016   4.659   0.712   4.142  0.4045 -0.0123 -0.1412
 2185SOL    HW118017   4.609   0.793   4.150 -0.2159 -0.6446  2.1793
 2185SOL    HW218018   0.018   0.751   4.116  1.2901 -1.3918  0.6319
 2186SOL     OW18019   4.420   1.398   1.779  0.0131  0.4459  0.4516
 2186SOL    HW118020   4.328   1.400   1.753  1.3349 -0.2909 -4.2574
 2186SOL    HW218021   4.421   1.356   1.865 -0.6633  0.1753  0.3270
 2187SOL     OW18022   2.150   3.182  10.489 -0.4300 -0.4412 -0.0418
 2187SOL    HW118023   2.070   3.152  10.532 -0.3258  2.2062  2.0672
 2187SOL    HW218024   2.127   3.274  10.481  3.1073  0.5273  0.5786
 2188SOL     OW18025   3.812   4.401   5.476  0.3748  0.8193  0.3342
 2188SOL    HW118026   3.875   4.473   5.479  1.5268 -0.2452  1.4762
 2188SOL    HW218027   3.829   4.344   5.401 -2.0067  0.0477  0.3839
 2189SOL     OW18028   2.848   3.192   1.078 -0.5228 -0.3026  0.1165
 2189SOL    HW118029   2.910   3.252   1.119 -0.7821  0.9298 -1.2982
 2189SOL    HW218030   2.898   3.162   1.003  1.2382 -1.0990  1.6186
 2190SOL     OW18031   0.961   3.801   4.872  0.5273  0.2406  0.0039
 2190SOL    HW118032   0.955   3.795   4.777  0.5041 -0.1250  0.0254
 2190SOL    HW218033   0.987   3.892   4.882  2.9579 -0.5868  1.0784
 2191SOL     OW18034   1.333   1.727   3.423 -0.8458  0.1409 -0.3351
 2191SOL    HW118035   1.289   1.670   3.360  0.2697 -1.4955  0.3603
 2191SOL    HW218036   1.267   1.796   3.429  0.5421  1.3438  1.1057
 2192SOL     OW18037   1.095   2.136  12.714 -0.3185  0.0680 -0.1827
 2192SOL    HW118038   1.034   2.090  12.772  1.2149  1.1257  2.2506
 2192SOL    HW218039   1.056   2.123  12.628 -0.1349 -2.6899  0.1244
 2193SOL     OW18040   0.254   4.520   3.483 -0.0862 -0.1231 -0.2534
 2193SOL    HW118041   0.268   4.425   3.475 -0.3293  0.0499 -2.5669
 2193SOL    HW218042   0.286   4.535   3.572  1.4829  0.1240 -0.8796
 2194SOL     OW18043   3.986   4.387   4.869  0.2505 -0.5428  0.1328
 2194SOL    HW118044   3.958   4.476   4.847  1.9769 -1.0262 -4.0249
 2194SOL    HW218045   4.076   4.396   4.838 -0.7636  1.5852 -2.1869
 2195SOL     OW18046   0.681   1.974   3.767 -0.1932  0.1729 -0.3217
 2195SOL    HW118047   0.731   1.899   3.736  1.5926  2.1148 -2.1747
 2195SOL    HW218048   0.619   1.933   3.827 -1.5042  2.3809 -0.1511
 2196SOL     OW18049   3.781   2.636   7.494  0.0474  0.5175  0.2963
 2196SOL    HW118050   3.760   2.681   7.576 -0.4530 -2.5653  1.8700
 2196SOL    HW218051   3.696   2.627   7.451 -0.7004  2.2327  1.4026
 2197SOL     OW18052   3.456   3.434   7.694 -0.9422 -0.3986 -0.1690
 2197SOL    HW118053   3.468   3.379   7.772 -2.3750  0.4842  0.6857
 2197SOL    HW218054   3.361   3.426   7.683 -0.9292  0.0982 -0.5927
 2198SOL     OW18055   3.600   3.207   6.806  0.0640  0.4469 -0.4308
 2198SOL    HW118056   3.616   3.179   6.716  3.5231  0.0902  0.3045
 2198SOL    HW218057   3.509   3.180   6.822  0.8248 -1.0631  1.3169
 2199SOL     OW18058   4.016   4.099  11.655  0.2361  0.0450 -0.1361
 2199SOL    HW118059   3.954   4.055  11.713  2.1222  0.4858  2.2258
 2199SOL    HW218060   4.048   4.034  11.594  1.1354  0.3316  0.0241
 2200SOL     OW18061   0.982   1.850  14.695  0.0096  0.4381  0.3514
 2200SOL    HW118062   0.980   1.800  14.613  2.6238  1.0447 -0.0897
 2200SOL    HW218063   0.941   1.792  14.758  0.9788 -0.3655  0.2459
 2201SOL     OW18064   0.767   0.483   9.331  0.2138  0.4726  0.2300
 2201SOL    HW118065   0.735   0.446   9.249 -0.1018  0.5642  0.3104
 2201SOL    HW218066   0.735   0.573   9.329 -0.2364  0.2826 -1.6645
 2202SOL     OW18067   0.742   1.459  11.829 -0.3331  0.4204 -1.1957
 2202SOL    HW118068   0.773   1.549  11.828  0.0531  0.2886 -0.9664
 2202SOL    HW218069   0.816   1.410  11.794 -0.0288 -1.1588  1.6258
 2203SOL     OW18070   3.461   1.385  10.964 -0.2819  0.7490 -0.1345
 2203SOL    HW118071   3.426   1.303  11.000  0.4654 -0.3144 -1.8200
 2203SOL    HW218072   3.401   1.456  10.985 -1.8122  0.0651 -2.2562
 2204SOL     OW18073   1.550   1.886   5.874  0.5260 -0.4902  0.0800
 2204SOL    HW118074   1.622   1.822   5.874  0.5275 -0.4869  0.5054
 2204SOL    HW218075   1.564   1.919   5.785 -0.0261 -0.6415 -0.0658
 2205SOL     OW18076   0.475   3.448   4.251 -0.2985  0.0512  0.1294
 2205SOL    HW118077   0.445   3.496   4.173 -3.2538 -2.3201 -0.2022
 2205SOL    HW218078   0.511   3.370   4.207  1.2674  1.9560 -1.9876
 2206SOL     OW18079   4.478   2.223   6.434 -0.5603 -0.1660 -0.7905
 2206SOL    HW118080   4.407   2.162   6.453 -1.1425  1.0958  1.0649
 2206SOL    HW218081   4.421   2.296   6.410 -0.1462  0.0734 -1.0367
 2207SOL     OW18082   4.488   0.438   5.053  0.7918  0.3422 -0.3441
 2207SOL    HW118083   4.418   0.500   5.073 -0.1518 -0.6397 -0.5457
 2207SOL    HW218084   4.481   0.439   4.957 -1.1753  1.4889 -0.1988
 2208SOL     OW18085   2.233   2.057   5.990  0.3228 -0.2268 -0.2025
 2208SOL    HW118086   2.218   2.115   5.915  0.2325 -0.2847 -0.2304
 2208SOL    HW218087   2.192   1.984   5.942  0.0908  1.3256 -2.3601
 2209SOL     OW18088   3.797   3.570  14.164  0.2111  0.2524 -0.4872
 2209SOL    HW118089   3.707   3.602  14.178  0.6687  1.0848  0.5771
 2209SOL    HW218090   3.785   3.496  14.104  0.8054  0.5212 -0.9411
 2210SOL     OW18091   2.833   3.232   4.160  0.0896 -0.0049 -0.4509
 2210SOL    HW118092   2.861   3.262   4.074  0.3474  4.1595  1.0811
 2210SOL    HW218093   2.751   3.192   4.131  0.6164 -0.5080 -1.2721
 2211SOL     OW18094   0.799   0.066   8.848  0.4713 -0.2165  0.0441
 2211SOL    HW118095   0.741   4.719   8.822  0.7439  0.2765 -1.9364
 2211SOL    HW218096   0.789   0.124   8.772 -1.4711 -1.0423 -0.3437
 2212SOL     OW18097   1.050   3.336   5.414  0.1618 -0.4016  0.5755
 2212SOL    HW118098   1.003   3.260   5.380  0.3167 -0.0132 -0.5166
 2212SOL    HW218099   0.983   3.401   5.392  0.6926 -0.8908 -2.5162
 2213SOL     OW18100   0.668   2.438   6.296 -0.2881  0.3049 -0.0900
 2213SOL    HW118101   0.614   2.446   6.375 -0.5937 -1.6458 -0.1065
 2213SOL    HW218102   0.639   2.363   6.245  1.4399 -1.9629  2.2350
 2214SOL     OW18103   2.910   2.992   1.252  0.2387 -0.1753 -0.0042
 2214SOL    HW118104   2.844   3.040   1.201 -1.1347  0.1665  2.0696
 2214SOL    HW218105   2.935   3.062   1.312  0.5551 -1.2427  1.1171
 2215SOL     OW18106   2.800   0.535   3.328 -0.0307  0.0174  0.0937
 2215SOL    HW118107   2.888   0.518   3.295 -0.1269 -0.2668 -0.0126
 2215SOL    HW218108   2.767   0.449   3.355  2.2697 -0.9210 -0.0768
 2216SOL     OW18109   2.442   3.204   8.063  0.3054 -0.0230 -0.1111
 2216SOL    HW118110   2.435   3.222   7.969  2.1752 -5.6945 -1.3087
 2216SOL    HW218111   2.519   3.148   8.057  0.3840  0.0400  0.3088
 2217SOL     OW18112   1.056   2.649   6.510  0.1324  0.5489  0.0685
 2217SOL    HW118113   1.031   2.721   6.568 -0.2171 -0.6791  1.4226
 2217SOL    HW218114   1.009   2.572   6.543 -0.6357  0.1867 -1.8690
 2218SOL     OW18115   2.744   0.365  11.009  0.0882 -0.4093  0.2026
 2218SOL    HW118116   2.738   0.272  10.989  3.0065 -0.6332  0.3766
 2218SOL    HW218117   2.824   0.374  10.958  0.5193  1.3326  1.1757
 2219SOL     OW18118   1.033   1.498  12.893  0.4278  0.0490 -0.3177
 2219SOL    HW118119   1.074   1.440  12.829 -2.2297 -1.3991 -0.7552
 2219SOL    HW218120   0.969   1.439  12.933 -0.3156 -0.1106 -1.7382
 2220SOL     OW18121   4.308   2.684  12.685 -0.1271 -0.0427  0.5354
 2220SOL    HW118122   4.283   2.685  12.592  2.0692  2.5226 -0.0406
 2220SOL    HW218123   4.226   2.717  12.721 -1.4207 -0.2138 -2.2561
 2221SOL     OW18124   2.156   0.724  15.077 -0.1454  0.3357 -0.3886
 2221SOL    HW118125   2.113   0.792  15.025  1.5418  0.9443 -1.0010
 2221SOL    HW218126   2.114   0.721  15.163  0.3816  1.8427 -0.0838
 2222SOL     OW18127   0.774   4.443  10.519 -0.0471 -0.0742  0.4403
 2222SOL    HW118128   0.800   4.535  10.512 -3.4929  0.9293  0.7604
 2222SOL    HW218129   0.680   4.450  10.501  0.5595 -0.1266 -2.8653
 2223SOL     OW18130   1.834   2.298   8.851  0.3122  0.0109  0.5295
 2223SOL    HW118131   1.862   2.215   8.890  0.6011 -0.9421 -1.7258
 2223SOL    HW218132   1.742   2.288   8.875  0.1148 -0.2526 -0.3451
 2224SOL     OW18133   2.233   1.416   4.569 -0.0592 -0.7755  0.5650
 2224SOL    HW118134   2.321   1.382   4.553  0.1188 -0.6554  1.2894
 2224SOL    HW218135   2.253   1.487   4.629 -0.3746 -0.2529  0.0560
 2225SOL     OW18136   1.033   3.381   3.617 -0.5848 -0.4381 -0.1683
 2225SOL    HW118137   1.088   3.346   3.547  2.1261  0.0373  1.7470
 2225SOL    HW218138   1.004   3.299   3.658 -0.6936 -1.4771 -2.3434
 2226SOL     OW18139   3.554   4.035   7.179 -0.0701  0.1324 -0.0602
 2226SOL    HW118140   3.484   4.067   7.236 -0.0388  2.4168 -1.3380
 2226SOL    HW218141   3.525   4.065   7.094  2.0693 -1.2938 -1.2920
 2227SOL     OW18142   4.236   3.813   0.780  0.3256 -0.3260 -0.1425
 2227SOL    HW118143   4.149   3.840   0.753 -0.0707 -1.6741 -0.1994
 2227SOL    HW218144   4.230   3.721   0.804  4.0592 -0.7457 -0.7204
 2228SOL     OW18145   2.785   2.783   5.884 -0.8965  0.3675 -0.1767
 2228SOL    HW118146   2.863   2.728   5.883  0.3677  2.2301 -2.5023
 2228SOL    HW218147   2.813   2.861   5.837  1.7400  0.2533  1.2278
 2229SOL     OW18148   4.264   3.919   2.989 -0.6139  0.1723 -0.3839
 2229SOL    HW118149   4.269   4.013   3.006 -1.3287  0.3835 -1.3403
 2229SOL    HW218150   4.353   3.890   2.969 -0.9804 -0.2990 -1.3332
 2230SOL     OW18151   3.153   3.258  16.525  0.7436  0.1420  0.5014
 2230SOL    HW118152   3.222   3.319  16.550  1.5475 -0.1013 -1.1323
 2230SOL    HW218153   3.073   3.283  16.572 -0.0693 -1.2147 -0.1480
 2231SOL     OW18154   2.997   0.124   7.432  0.1582  0.3148 -0.4007
 2231SOL    HW118155   3.027   0.138   7.342 -0.5085 -2.7569 -1.0904
 2231SOL    HW218156   2.914   0.080   7.415 -0.7056  1.6753  0.3742
 2232SOL     OW18157   1.427   0.974   5.931  0.0391 -0.5422 -0.6756
 2232SOL    HW118158   1.349   0.964   5.877 -1.3679 -0.5074  1.3429
 2232SOL    HW218159   1.397   1.059   5.965  0.5028 -0.9431  0.7446
 2233SOL     OW18160   0.995   0.588   2.218 -0.6163 -0.7648  0.0303
 2233SOL    HW118161   0.969   0.609   2.129  0.9552 -2.2699 -0.7817
 2233SOL    HW218162   1.023   0.496   2.213  0.3315 -0.5036  0.5329
 2234SOL     OW18163   0.800   0.213   6.178 -0.0603  0.1762  0.1062
 2234SOL    HW118164   0.801   0.292   6.126 -0.7090 -0.2712 -0.5827
 2234SOL    HW218165   0.753   0.252   6.252  0.4018 -0.0431  0.5142
 2235SOL     OW18166   0.003   3.931  11.594 -0.3707  0.1264 -0.9058
 2235SOL    HW118167   4.663   3.971  11.652 -1.0606 -2.4124  0.0681
 2235SOL    HW218168   4.689   3.844  11.594  3.9420 -1.7825 -1.5015
 2236SOL     OW18169   4.371   1.646   3.738 -0.4448 -0.7451  0.4444
 2236SOL    HW118170   4.361   1.670   3.646  1.6056  0.5812  0.5536
 2236SOL    HW218171   4.287   1.615   3.770 -1.4936  0.1110 -1.4913
 2237SOL     OW18172   4.545   1.099   8.760 -0.6521  0.2570  0.2505
 2237SOL    HW118173   4.634   1.112   8.792 -1.0923 -0.8407  1.9126
 2237SOL    HW218174   4.564   1.022   8.706 -0.5281  1.6578 -1.7146
 2238SOL     OW18175   2.269   1.171   1.052 -0.3273 -0.4074 -0.0266
 2238SOL    HW118176   2.262   1.163   1.147 -0.0499  1.9256  0.1947
 2238SOL    HW218177   2.335   1.106   1.027 -0.0835 -0.1609 -0.0226
 2239SOL     OW18178   2.004   1.385   6.662  0.3963  0.0885  0.0448
 2239SOL    HW118179   1.995   1.465   6.715 -1.8542  1.0695 -1.8577
 2239SOL    HW218180   1.964   1.323   6.722  1.8331 -2.3688 -1.5587
 2240SOL     OW18181   0.705   0.114   7.857  0.4362  0.3611  0.4679
 2240SOL    HW118182   0.732   0.186   7.913 -0.6430  0.6865  0.5630
 2240SOL    HW218183   0.779   0.053   7.855  1.6522  1.8402 -0.2522
 2241SOL     OW18184   2.634   2.338   7.940  0.3369  0.1910  0.8890
 2241SOL    HW118185   2.614   2.348   7.847 -1.3298  0.4478  1.2673
 2241SOL    HW218186   2.546   2.357   7.973  0.3368  0.5515  0.6818
 2242SOL     OW18187   1.814   0.745   6.565 -0.5608 -0.2774  0.4797
 2242SOL    HW118188   1.840   0.780   6.480  1.9865  0.1016  1.4338
 2242SOL    HW218189   1.885   0.686   6.588  0.3327  1.6746  2.7042
 2243SOL     OW18190   0.340   3.739  11.555 -0.2912  0.9525  0.4961
 2243SOL    HW118191   0.371   3.801  11.621 -0.5218  2.7439 -1.0809
 2243SOL    HW218192   0.255   3.778  11.538 -0.4286  0.6967  0.5986
 2244SOL     OW18193   3.222   4.263   5.645 -0.2561 -0.4196 -0.2323
 2244SOL    HW118194   3.221   4.341   5.589  2.6868 -0.6298 -0.6125
 2244SOL    HW218195   3.254   4.195   5.585  3.0871  0.3915  0.6433
 2245SOL     OW18196   0.791   1.747   0.728 -0.0060 -0.0867 -0.0395
 2245SOL    HW118197   0.811   1.782   0.641  2.8462  0.0200  0.6776
 2245SOL    HW218198   0.818   1.655   0.726 -0.2986 -0.1707 -0.1220
 2246SOL     OW18199   1.838   0.194  10.899 -0.1782  0.4104 -0.6940
 2246SOL    HW118200   1.805   0.160  10.982 -1.1970 -0.2601 -1.3676
 2246SOL    HW218201   1.808   0.285  10.899 -0.4287  0.3247  2.1643
 2247SOL     OW18202   0.149   3.474   7.073  0.3443  0.4533 -0.9799
 2247SOL    HW118203   0.164   3.388   7.114 -0.5065 -0.7632 -3.2249
 2247SOL    HW218204   0.217   3.474   7.005 -0.9902  1.0203 -2.2909
 2248SOL     OW18205   3.777   1.497   8.588 -0.4413 -0.7247  0.1570
 2248SOL    HW118206   3.787   1.536   8.501 -0.3938 -0.0988  0.4475
 2248SOL    HW218207   3.723   1.556   8.638 -1.3401 -0.8295 -0.6917
 2249SOL     OW18208   3.895   0.495   5.184  0.4263 -0.2570 -0.0364
 2249SOL    HW118209   3.980   0.451   5.177 -0.3985 -1.8811  0.2848
 2249SOL    HW218210   3.917   0.584   5.156 -0.7099 -0.4016 -1.3614
 2250SOL     OW18211   2.820   0.333   2.175 -0.2879 -0.3445 -0.1138
 2250SOL    HW118212   2.779   0.331   2.088 -2.1376 -0.6675  0.7536
 2250SOL    HW218213   2.873   0.411   2.165 -0.5166 -0.2155 -0.3341
 2251SOL     OW18214   3.933   0.025   8.336 -0.0263 -0.2629 -0.3473
 2251SOL    HW118215   3.890   0.019   8.421 -2.9041 -0.4768 -1.8163
 2251SOL    HW218216   3.856   0.011   8.281  0.0593  0.5531 -0.6771
 2252SOL     OW18217   0.866   3.105   4.225 -0.5241 -0.1537 -0.0665
 2252SOL    HW118218   0.887   3.151   4.144 -1.5014  0.0664 -0.1899
 2252SOL    HW218219   0.940   3.121   4.284  0.1609  0.3544 -1.0758
 2253SOL     OW18220   1.046   1.660   2.984 -0.5686 -0.2160 -0.7760
 2253SOL    HW118221   0.968   1.702   3.022 -1.6400 -1.6759 -1.3806
 2253SOL    HW218222   1.025   1.569   3.004  0.3820 -0.1667  0.4397
 2254SOL     OW18223   4.709   3.782   5.387  0.1242  0.4434  0.0515
 2254SOL    HW118224   4.684   3.744   5.471  0.6762  1.9447  0.9008
 2254SOL    HW218225   0.076   3.754   5.396 -0.7105 -2.1690  0.4399
 2255SOL     OW18226   1.999   4.590   4.824 -0.0615 -0.0593 -0.0983
 2255SOL    HW118227   1.924   4.532   4.817  0.5490 -0.9715  0.9353
 2255SOL    HW218228   2.008   4.633   4.739 -0.9047  0.5711  0.1297
 2256SOL     OW18229   1.684   1.906   5.418 -0.1390  0.0976 -0.3450
 2256SOL    HW118230   1.691   1.970   5.347 -0.8272 -1.7813 -2.1056
 2256SOL    HW218231   1.675   1.950   5.502 -0.2623  1.3509 -1.0109
 2257SOL     OW18232   4.351   1.283  10.184  0.6248  0.6226  0.0221
 2257SOL    HW118233   4.395   1.297  10.100  1.0062  0.6178  0.2207
 2257SOL    HW218234   4.274   1.232  10.159  1.8375 -1.4033  0.3611
 2258SOL     OW18235   4.169   4.421   9.333 -0.0823 -0.6385 -0.1812
 2258SOL    HW118236   4.235   4.475   9.376 -0.6331  0.5096 -0.7834
 2258SOL    HW218237   4.114   4.401   9.409 -3.1967  0.9617 -2.0308
 2259SOL     OW18238   2.317   0.199   7.427  0.6416  0.0502  0.0564
 2259SOL    HW118239   2.299   0.281   7.474  0.6756  1.1419 -1.8531
 2259SOL    HW218240   2.269   0.136   7.481  3.6043 -2.8708 -0.7285
 2260SOL     OW18241   2.165   2.893   7.237 -0.0506  0.1442 -0.1956
 2260SOL    HW118242   2.140   2.806   7.268 -0.1125  0.6307  1.1147
 2260SOL    HW218243   2.256   2.885   7.265  0.5163  2.5999 -1.3734
 2261SOL     OW18244   4.493   1.435   0.704 -0.3139 -0.0429 -0.0821
 2261SOL    HW118245   4.440   1.419   0.782  0.7933  0.6493  0.8074
 2261SOL    HW218246   4.460   1.522   0.684  1.4075  1.2093  2.5805
 2262SOL     OW18247   1.568   2.292  16.458  0.2514 -0.0509  0.3407
 2262SOL    HW118248   1.590   2.341  16.379 -1.2238  0.3319  0.1681
 2262SOL    HW218249   1.480   2.324  16.475 -0.7575 -1.4349 -2.2459
 2263SOL     OW18250   3.126   3.649   0.145 -0.1450 -0.4984  0.2816
 2263SOL    HW118251   3.119   3.682   0.235 -1.9300  0.7309 -0.3072
 2263SOL    HW218252   3.059   3.707   0.108  0.5664  0.2945  0.2436
 2264SOL     OW18253   2.980   0.728   9.702 -0.9061  0.1395 -0.1341
 2264SOL    HW118254   2.942   0.707   9.617 -0.6922  1.3120 -0.5193
 2264SOL    HW218255   3.028   0.649   9.727  0.4943  1.1177  0.2747
 2265SOL     OW18256   0.300   3.558   0.581  0.0296  0.2595  0.2862
 2265SOL    HW118257   0.246   3.542   0.659 -0.4493 -0.8502 -0.2612
 2265SOL    HW218258   0.252   3.496   0.525  0.1161 -0.3566  0.8892
 2266SOL     OW18259   3.010   0.083   8.266 -0.2278  0.6865 -0.2415
 2266SOL    HW118260   3.081   0.097   8.328  1.2756  1.8024 -2.2021
 2266SOL    HW218261   2.942   0.142   8.300  0.7532  1.4049  0.4462
 2267SOL     OW18262   4.523   3.563   1.521  0.0180  0.0848 -0.1879
 2267SOL    HW118263   4.452   3.599   1.467  0.6540 -0.3204 -1.2893
 2267SOL    HW218264   4.491   3.474   1.538  0.0273  0.0152 -0.5465
 2268SOL     OW18265   1.549   2.821   9.898 -0.0542 -0.5107  0.1231
 2268SOL    HW118266   1.624   2.766   9.921  0.5530  0.7766  1.2010
 2268SOL    HW218267   1.465   2.812   9.943 -1.6546  0.6680 -2.6237
 2269SOL     OW18268   2.441   3.969   8.993  0.0058 -0.2087  0.0801
 2269SOL    HW118269   2.436   4.000   8.903  0.8112  0.9307  0.4311
 2269SOL    HW218270   2.504   4.028   9.035  1.4978 -0.9044 -1.1809
 2270SOL     OW18271   4.668   3.495   9.616 -0.8425 -0.1154 -0.0060
 2270SOL    HW118272   4.605   3.428   9.644  0.9292 -0.8332  2.2731
 2270SOL    HW218273   4.668   3.488   9.521  3.0694 -1.9634  0.1278
 2271SOL     OW18274   2.327   1.866  15.190  0.1976  0.0847  0.1690
 2271SOL    HW118275   2.336   1.930  15.119 -0.7036  0.9433  0.8221
 2271SOL    HW218276   2.233   1.873  15.208 -0.0626 -3.3397  0.0700
 2272SOL     OW18277   0.264   4.653   5.063 -0.4050  0.1908  0.0593
 2272SOL    HW118278   0.341   4.685   5.109  0.4492 -0.4452 -0.9180
 2272SOL    HW218279   0.313   4.620   4.988 -1.0613  1.8684 -1.1057
 2273SOL     OW18280   2.078   3.502   3.981  0.3154  0.5296  0.2067
 2273SOL    HW118281   2.110   3.419   3.946 -1.2646  0.9953 -2.3423
 2273SOL    HW218282   2.160   3.550   3.998 -1.0355  3.7922 -2.5898
 2274SOL     OW18283   3.019   3.905   4.173  0.4121 -0.0561 -0.6886
 2274SOL    HW118284   2.998   3.983   4.225 -2.1938 -1.1297 -0.1190
 2274SOL    HW218285   3.036   3.945   4.088 -2.9665 -1.0311 -1.8060
 2275SOL     OW18286   2.841   2.925   5.437  0.4439 -0.0866  0.3355
 2275SOL    HW118287   2.915   2.944   5.380  0.1255 -0.8549 -0.3500
 2275SOL    HW218288   2.856   2.975   5.517 -0.6218  1.9889 -0.7572
 2276SOL     OW18289   3.140   2.843   1.169 -0.1848 -0.2948 -0.2402
 2276SOL    HW118290   3.183   2.865   1.086  2.3917 -6.7195 -0.6303
 2276SOL    HW218291   3.065   2.901   1.176 -0.6807 -0.8668 -0.7975
 2277SOL     OW18292   4.484   0.743   9.668 -0.6878 -0.2215 -0.8389
 2277SOL    HW118293   4.577   0.767   9.667 -1.0354  1.0321 -3.9903
 2277SOL    HW218294   4.463   0.749   9.761  1.5374  0.8991 -0.4121
 2278SOL     OW18295   2.621   2.436  13.130 -0.1292 -0.2535  0.2163
 2278SOL    HW118296   2.621   2.344  13.156 -1.1558  0.3752  2.3739
 2278SOL    HW218297   2.531   2.438  13.097 -0.3351 -1.4555  0.7011
 2279SOL     OW18298   0.268   3.698  14.074  0.1874  0.7588 -0.1505
 2279SOL    HW118299   0.355   3.737  14.063 -0.4111  1.6014 -1.9478
 2279SOL    HW218300   0.281   3.609  14.041 -1.6427 -0.6539  3.0026
 2280SOL     OW18301   3.580   0.940   5.402 -0.2269  0.0756  0.0437
 2280SOL    HW118302   3.490   0.907   5.408 -0.2682  0.3325  0.9153
 2280SOL    HW218303   3.604   0.967   5.491  1.7349 -0.8670 -0.2050
 2281SOL     OW18304   3.441   1.242   9.755 -0.4597  0.6565 -0.0419
 2281SOL    HW118305   3.348   1.256   9.738 -0.5122  0.3766  0.0163
 2281SOL    HW218306   3.453   1.266   9.847 -1.1291 -1.1115  0.5152
 2282SOL     OW18307   2.401   1.727   3.885  0.0882 -0.0181 -0.6872
 2282SOL    HW118308   2.384   1.810   3.930  0.4809  0.9109 -2.2401
 2282SOL    HW218309   2.327   1.727   3.824 -0.1991  1.0071 -0.3350
 2283SOL     OW18310   3.369   4.450   1.032  0.5699  0.9092  0.6057
 2283SOL    HW118311   3.461   4.430   1.049  0.7659  1.5668  0.3489
 2283SOL    HW218312   3.356   4.370   0.982  0.7295  0.9945  0.4250
 2284SOL     OW18313   3.740   3.233  17.087 -0.0583 -0.3604 -0.3437
 2284SOL    HW118314   3.796   3.235  17.009 -0.9851 -0.4736 -1.0155
 2284SOL    HW218315   3.716   3.325  17.099  0.3705 -0.5113  1.6233
 2285SOL     OW18316   3.418   2.499  15.433  0.3596  0.4123 -0.2462
 2285SOL    HW118317   3.478   2.431  15.404  0.4063  1.1535 -1.9387
 2285SOL    HW218318   3.478   2.573  15.438  0.8092 -0.0414  0.8361
 2286SOL     OW18319   3.163   0.348   9.221  0.4085  0.4796  0.2222
 2286SOL    HW118320   3.218   0.382   9.292  0.9895  3.1334 -1.5005
 2286SOL    HW218321   3.168   0.253   9.237 -2.3576  0.3788  0.5506
 2287SOL     OW18322   2.807   0.238   0.921  0.1030  0.0470 -0.0273
 2287SOL    HW118323   2.880   0.231   0.983 -0.4192 -0.6744  0.5068
 2287SOL    HW218324   2.748   0.167   0.944  0.5582 -0.4111 -0.2767
 2288SOL     OW18325   0.397   4.483   1.615  0.1509 -0.0410  0.0829
 2288SOL    HW118326   0.432   4.417   1.557 -1.2154 -1.2220  0.6076
 2288SOL    HW218327   0.302   4.471   1.615  0.4506 -2.4341  1.1033
 2289SOL     OW18328   0.205   2.830   3.909  0.2103  0.3399  0.5271
 2289SOL    HW118329   0.121   2.809   3.867  1.6587 -2.8285 -0.8014
 2289SOL    HW218330   0.177   2.899   3.970  0.0006  1.8447 -1.2535
 2290SOL     OW18331   4.508   2.683   9.850 -0.6636 -0.5774  0.6089
 2290SOL    HW118332   4.598   2.687   9.818 -1.8435 -0.9953 -2.7499
 2290SOL    HW218333   4.492   2.589   9.838 -0.5943 -0.7393  1.7309
 2291SOL     OW18334   3.857   0.675   2.612 -0.1720  0.1205 -0.3772
 2291SOL    HW118335   3.913   0.700   2.539  0.7504  0.0435  0.3087
 2291SOL    HW218336   3.857   0.580   2.605  0.6954 -0.0270  1.6814
 2292SOL     OW18337   1.329   2.157   5.946 -0.2096 -0.0944 -0.1672
 2292SOL    HW118338   1.308   2.069   5.917  0.7407  0.4511 -2.6150
 2292SOL    HW218339   1.242   2.187   5.972 -1.5265 -2.9165 -1.4143
 2293SOL     OW18340   1.500   0.686   7.016 -0.0407  0.0376 -0.0614
 2293SOL    HW118341   1.430   0.664   7.077  0.3455 -0.4380  0.2122
 2293SOL    HW218342   1.501   0.781   7.021  0.9593  0.0037  0.4766
 2294SOL     OW18343   3.401   1.655   8.126  0.0098  0.3000  0.6056
 2294SOL    HW118344   3.389   1.663   8.221 -1.4129 -2.2487  0.6498
 2294SOL    HW218345   3.353   1.574   8.106 -2.0484  1.0787  2.3863
 2295SOL     OW18346   0.515   2.796  13.541  0.4379 -0.3146 -0.1536
 2295SOL    HW118347   0.535   2.784  13.449  1.6625 -0.2534  0.1112
 2295SOL    HW218348   0.462   2.876  13.535  0.6768 -0.1458  0.0072
 2296SOL     OW18349   1.228   0.113  11.963  0.0562 -0.8258 -0.2179
 2296SOL    HW118350   1.309   0.161  11.979  0.2064 -1.6685  1.5498
 2296SOL    HW218351   1.197   0.166  11.889 -1.9331  1.2183  2.0490
 2297SOL     OW18352   0.157   4.547   7.214  0.4525  0.2914 -0.1782
 2297SOL    HW118353   0.216   4.615   7.181 -0.3531  1.5554  1.0175
 2297SOL    HW218354   0.211   4.522   7.289  0.6295  0.4285 -0.2603
 2298SOL     OW18355   4.107   0.092  15.104 -0.1898 -0.1771  0.0356
 2298SOL    HW118356   4.190   0.119  15.064  0.0391  0.5640  1.0208
 2298SOL    HW218357   4.126   0.004  15.134  1.4581 -0.5873 -2.1741
 2299SOL     OW18358   4.215   0.040   4.883  0.2628 -0.2662 -0.5799
 2299SOL    HW118359   4.301   0.074   4.910  0.2954  0.4506 -1.6165
 2299SOL    HW218360   4.231   0.003   4.796  0.2296 -0.0813 -0.6643
 2300SOL     OW18361   4.141   2.781  14.508  0.6674  0.0375  0.2681
 2300SOL    HW118362   4.082   2.708  14.490  0.3540  0.0095  1.4080
 2300SOL    HW218363   4.188   2.794  14.426  0.8930 -2.0906  0.0412
 2301SOL     OW18364   3.523   2.131   6.041 -0.1093 -0.3189  0.0852
 2301SOL    HW118365   3.531   2.037   6.025  2.2169 -0.1081 -0.0734
 2301SOL    HW218366   3.593   2.153   6.103 -0.0160 -1.4434  0.3776
 2302SOL     OW18367   1.868   2.823   7.558 -0.1347 -0.1076  0.3354
 2302SOL    HW118368   1.779   2.858   7.571 -0.4542 -0.3687 -1.1127
 2302SOL    HW218369   1.919   2.899   7.533  1.0473 -1.6113 -1.7830
 2303SOL     OW18370   3.909   2.038   4.436  0.4812  0.0005 -0.1961
 2303SOL    HW118371   3.889   1.945   4.421 -0.0780  0.1577 -0.4318
 2303SOL    HW218372   4.003   2.025   4.445  0.3284 -0.9660  0.0361
 2304SOL     OW18373   3.188   3.013   7.883 -0.4528  0.2937 -0.3985
 2304SOL    HW118374   3.145   2.928   7.891  1.5916 -0.6161  1.0419
 2304SOL    HW218375   3.110   3.068   7.890 -1.4578 -1.3208  1.0233
 2305SOL     OW18376   1.470   2.014   7.628  0.2761 -0.4604 -0.4756
 2305SOL    HW118377   1.487   1.920   7.616 -0.4918 -0.7042  0.4271
 2305SOL    HW218378   1.467   2.041   7.536  0.6299  1.3056  0.0366
 2306SOL     OW18379   1.704   1.323   4.817  0.4919  0.2049  0.0200
 2306SOL    HW118380   1.763   1.374   4.761 -1.9737  2.7311 -0.3064
 2306SOL    HW218381   1.744   1.328   4.903 -1.0278 -2.1399  0.8660
 2307SOL     OW18382   1.971   0.077   0.670 -0.0254 -0.3940  0.1144
 2307SOL    HW118383   2.042   0.136   0.694 -1.8437  1.6843  0.3546
 2307SOL    HW218384   1.932   0.126   0.597  2.7684  0.5460 -0.7604
 2308SOL     OW18385   1.997   1.834  15.489  0.2788  0.3425  0.4016
 2308SOL    HW118386   1.953   1.910  15.530 -0.4645 -0.6328  1.4111
 2308SOL    HW218387   2.058   1.808  15.558  0.9393  1.1936  0.1456
 2309SOL     OW18388   0.119   0.291   2.600  0.0555  0.1418  0.1354
 2309SOL    HW118389   0.030   0.254   2.602 -0.3753  0.9730 -2.8380
 2309SOL    HW218390   0.142   0.262   2.688 -2.8822  0.8645  1.1672
 2310SOL     OW18391   4.439   0.707  12.297 -0.6390 -0.6637  0.4675
 2310SOL    HW118392   4.354   0.700  12.253  0.3802 -1.7976 -1.3265
 2310SOL    HW218393   4.471   0.617  12.299 -0.0035 -0.4401  0.5169
 2311SOL     OW18394   1.553   4.410  12.510  0.2022  0.4277 -0.0066
 2311SOL    HW118395   1.491   4.375  12.573  1.4938 -1.8405  0.0188
 2311SOL    HW218396   1.555   4.342  12.442 -2.0595  0.7874 -0.4195
 2312SOL     OW18397   4.454   0.036   6.935  0.2839 -0.0945  0.1780
 2312SOL    HW118398   4.523   4.703   6.969  0.6338 -0.1328 -0.6060
 2312SOL    HW218399   4.438   0.092   7.011 -3.5037  1.7223 -1.9393
 2313SOL     OW18400   1.248   4.681   6.329 -0.1245 -0.2015 -0.2171
 2313SOL    HW118401   1.191   0.003   6.267  1.8135 -0.4629 -2.2326
 2313SOL    HW218402   1.195   4.684   6.408 -0.4654 -2.9428 -0.3438
 2314SOL     OW18403   4.547   2.386  17.437  0.1272 -0.3403 -0.0222
 2314SOL    HW118404   4.497   2.353  17.512  1.4410 -1.0745  0.5372
 2314SOL    HW218405   4.628   2.421  17.474 -0.3885  1.3635 -0.5315
 2315SOL     OW18406   3.772   1.236   6.680 -0.4865  0.1600 -0.6543
 2315SOL    HW118407   3.683   1.227   6.649 -0.6468 -0.7944  0.0478
 2315SOL    HW218408   3.775   1.312   6.738 -0.4926  1.2908 -2.1490
 2316SOL     OW18409   3.801   0.313  14.736 -0.5791 -0.5957  0.4900
 2316SOL    HW118410   3.808   0.263  14.817 -0.3341  0.3521  1.0527
 2316SOL    HW218411   3.709   0.308  14.712 -0.0784 -1.6901 -1.1913
 2317SOL     OW18412   0.569   4.188  15.736  0.6000  0.4228 -0.3406
 2317SOL    HW118413   0.491   4.228  15.699 -1.2059 -1.9725  0.8795
 2317SOL    HW218414   0.608   4.161  15.653  1.9121 -2.1460  1.0945
 2318SOL     OW18415   4.341   2.898   8.242  0.1335  0.1740  0.4771
 2318SOL    HW118416   4.343   2.994   8.236 -0.2139  0.1053 -0.9019
 2318SOL    HW218417   4.249   2.884   8.220  0.8156 -0.1570 -2.2424
 2319SOL     OW18418   3.940   3.462   8.039 -0.0405 -0.1409  0.8403
 2319SOL    HW118419   3.848   3.473   8.017  0.1418 -4.5091 -1.9574
 2319SOL    HW218420   3.980   3.453   7.953 -1.7779  1.7652 -0.1793
 2320SOL     OW18421   3.446   0.162  17.637  0.3513 -0.4522  0.4079
 2320SOL    HW118422   3.518   0.179  17.698  0.1368 -1.4145  0.9299
 2320SOL    HW218423   3.410   0.250  17.625 -0.2891 -0.8724 -0.6161
 2321SOL     OW18424   1.739   3.443   8.284  0.3509 -0.1980  0.2385
 2321SOL    HW118425   1.804   3.434   8.354  1.5393  1.0896 -0.7099
 2321SOL    HW218426   1.710   3.353   8.275  0.3213 -0.1414 -0.2074
 2322SOL     OW18427   2.178   4.382   2.181  0.6973 -0.1034 -0.1315
 2322SOL    HW118428   2.192   4.475   2.162 -0.6847 -0.3034 -2.1454
 2322SOL    HW218429   2.087   4.377   2.209  0.6260  0.5869 -0.2431
 2323SOL     OW18430   1.961   3.927   2.690  0.5062 -0.6098 -0.0902
 2323SOL    HW118431   2.027   3.861   2.668 -0.9646 -2.1492  0.0955
 2323SOL    HW218432   1.890   3.895   2.634 -0.0065 -0.6011  0.5616
 2324SOL     OW18433   0.130   4.515   5.543  0.1674  0.0219  0.4139
 2324SOL    HW118434   0.139   4.483   5.453  5.5690 -0.1445  0.9799
 2324SOL    HW218435   0.129   4.428   5.583  2.0687 -0.5798 -0.8186
 2325SOL     OW18436   4.123   4.326  11.538  0.7483 -0.5611  0.3039
 2325SOL    HW118437   4.063   4.276  11.592  0.0494 -0.3022 -0.2401
 2325SOL    HW218438   4.199   4.277  11.569  1.2767  0.8693  1.2851
 2326SOL     OW18439   3.509   1.410   7.399 -0.8787 -0.5071  0.5555
 2326SOL    HW118440   3.544   1.336   7.350 -0.1339  2.2863 -3.1847
 2326SOL    HW218441   3.418   1.386   7.417 -0.3038 -3.1254 -0.0282
 2327SOL     OW18442   3.357   4.398   2.811  0.3757  0.1805 -0.2510
 2327SOL    HW118443   3.396   4.355   2.887  0.9578  0.4089 -0.4160
 2327SOL    HW218444   3.264   4.391   2.830  0.8547 -1.2404  1.5583
 2328SOL     OW18445   3.064   1.263   2.920 -0.5207 -0.0141  0.5345
 2328SOL    HW118446   3.073   1.237   2.828 -1.2513  1.0541  0.1541
 2328SOL    HW218447   2.985   1.317   2.913 -1.5501 -1.5884 -0.0767
 2329SOL     OW18448   2.504   3.476  17.405  0.2354 -0.3484  0.4423
 2329SOL    HW118449   2.444   3.402  17.404  0.5524 -0.6035  0.4372
 2329SOL    HW218450   2.461   3.552  17.445  0.8876 -0.2573  0.9758
 2330SOL     OW18451   2.422   4.328   7.407 -0.2538 -0.1747  0.3832
 2330SOL    HW118452   2.508   4.350   7.370  0.0465 -2.2657 -0.1839
 2330SOL    HW218453   2.381   4.308   7.323 -1.3549  1.9556  0.4248
 2331SOL     OW18454   4.617   2.814   1.247 -0.2006 -0.0536  0.4374
 2331SOL    HW118455   4.711   2.820   1.228 -0.4947  1.1672 -0.5799
 2331SOL    HW218456   4.593   2.897   1.208 -0.1781  1.3348  3.3828
 2332SOL     OW18457   3.392   0.437  14.132  0.4543 -0.5936  0.4607
 2332SOL    HW118458   3.425   0.384  14.059 -1.6477 -0.6800 -0.4430
 2332SOL    HW218459   3.475   0.479  14.152  0.4632 -0.6944  0.6341
 2333SOL     OW18460   3.441   0.857  10.751  0.4588  0.2872  0.2538
 2333SOL    HW118461   3.529   0.880  10.724 -0.8102  3.6142 -1.0664
 2333SOL    HW218462   3.438   0.850  10.847  2.3782 -0.4701  0.2574
 2334SOL     OW18463   3.233   2.963   9.025 -0.2746  0.1566 -0.4313
 2334SOL    HW118464   3.166   3.019   8.987  0.2944  1.9830  1.2158
 2334SOL    HW218465   3.238   3.001   9.113 -0.6978  2.3684 -1.3646
 2335SOL     OW18466   0.295   0.497   4.429 -0.0919  0.1544 -0.0698
 2335SOL    HW118467   0.384   0.510   4.462 -1.5740  4.7405  2.0824
 2335SOL    HW218468   0.250   0.497   4.514  1.1386  1.8581  0.5913
 2336SOL     OW18469   2.201   2.185   3.897 -0.0147  0.1926  0.0886
 2336SOL    HW118470   2.165   2.258   3.846  0.7374 -0.5276 -1.4575
 2336SOL    HW218471   2.264   2.147   3.836  1.4551  1.0760  1.0697
 2337SOL     OW18472   4.155   2.714   5.963 -0.6318 -0.2093 -0.0073
 2337SOL    HW118473   4.116   2.639   5.917 -0.9203  0.2060 -0.4420
 2337SOL    HW218474   4.184   2.775   5.895 -1.0616  2.5720  2.3065
 2338SOL     OW18475   1.696   0.960  12.337  0.4150 -0.1390 -0.0937
 2338SOL    HW118476   1.774   0.937  12.388  1.0790  2.5244  0.0649
 2338SOL    HW218477   1.661   1.021  12.402  0.2455  1.7937 -2.0050
 2339SOL     OW18478   3.400   0.600  10.874 -0.3575  0.7480 -0.1259
 2339SOL    HW118479   3.325   0.637  10.922 -0.4541  1.3525 -0.7476
 2339SOL    HW218480   3.429   0.671  10.816 -0.8631  0.5597 -0.6166
 2340SOL     OW18481   0.941   0.654   5.459 -0.3553 -0.3220 -0.1950
 2340SOL    HW118482   0.865   0.656   5.516 -0.6845  2.6807 -0.7253
 2340SOL    HW218483   0.915   0.717   5.391  0.2998  0.4611  0.2799
 2341SOL     OW18484   1.414   0.287   9.689  0.0093 -0.1869  0.3202
 2341SOL    HW118485   1.363   0.260   9.613  0.0414  0.8897 -0.0842
 2341SOL    HW218486   1.394   0.229   9.762  0.0232 -0.1681  0.3392
 2342SOL     OW18487   3.614   0.638   5.450 -0.0518  0.4915 -0.7200
 2342SOL    HW118488   3.574   0.674   5.529  1.1525  1.3846 -0.5233
 2342SOL    HW218489   3.540   0.600   5.404 -0.4960 -2.3311  2.2658
 2343SOL     OW18490   3.577   2.293  10.335 -0.6210  0.1756 -0.1429
 2343SOL    HW118491   3.495   2.265  10.374 -1.2570  2.9611  0.5241
 2343SOL    HW218492   3.642   2.250  10.390 -0.7691  1.8837  1.3558
 2344SOL     OW18493   4.241   2.022   2.692 -0.4442 -0.0024 -0.3896
 2344SOL    HW118494   4.207   1.949   2.743 -1.9100  0.7430 -0.2779
 2344SOL    HW218495   4.333   2.002   2.677  0.0742  1.2255  1.1952
 2345SOL     OW18496   0.561   2.019  16.874 -0.2319 -0.0228  0.2637
 2345SOL    HW118497   0.614   2.099  16.875  2.8171 -2.0671  0.4526
 2345SOL    HW218498   0.627   1.951  16.883  1.0458  1.0785 -0.6258
 2346SOL     OW18499   3.733   4.047   8.619  0.5213 -0.5830 -0.0217
 2346SOL    HW118500   3.762   4.012   8.535  0.3248  2.2809 -1.2534
 2346SOL    HW218501   3.795   4.115   8.647  0.7241 -0.2316 -1.3314
 2347SOL     OW18502   1.767   1.110   5.755  0.0150 -0.3805  0.1620
 2347SOL    HW118503   1.730   1.078   5.837 -2.2212 -1.1024 -1.1332
 2347SOL    HW218504   1.817   1.189   5.779 -1.1103 -0.7159  3.6518
 2348SOL     OW18505   4.669   3.408  16.132 -0.6219  0.4573  0.1444
 2348SOL    HW118506   4.619   3.361  16.066  0.5823 -0.5833 -0.0224
 2348SOL    HW218507   4.704   3.483  16.083  1.2380 -2.1691 -2.5933
 2349SOL     OW18508   0.019   3.681   1.191 -0.3821  0.2558 -0.2445
 2349SOL    HW118509   0.105   3.672   1.231 -0.4317  0.5556 -0.0690
 2349SOL    HW218510   0.038   3.690   1.097 -0.3723 -1.1470 -0.3681
 2350SOL     OW18511   3.064   1.672  15.000  0.2349  0.5044  0.1646
 2350SOL    HW118512   2.989   1.691  14.943 -0.1188  1.1057  0.8205
 2350SOL    HW218513   3.037   1.600  15.057 -2.1792  2.1428  1.1070
 2351SOL     OW18514   2.169   3.277   3.073  0.0793 -0.5488 -0.1662
 2351SOL    HW118515   2.128   3.206   3.122 -2.5741  2.2414  1.6081
 2351SOL    HW218516   2.235   3.229   3.023  0.3259  1.6504 -1.9436
 2352SOL     OW18517   2.622   2.382  12.099 -0.2458  0.5179 -0.2039
 2352SOL    HW118518   2.559   2.453  12.103  0.9315  1.3875  2.5912
 2352SOL    HW218519   2.638   2.374  12.005 -0.9506  1.9243 -0.4392
 2353SOL     OW18520   0.348   1.842   7.943  0.3851  0.1878  0.1908
 2353SOL    HW118521   0.273   1.787   7.966  0.7810  0.2465  1.6430
 2353SOL    HW218522   0.380   1.862   8.031 -1.2523  2.1957  0.3117
 2354SOL     OW18523   0.420   4.637   0.934  0.1068  0.2924  0.0212
 2354SOL    HW118524   0.399   0.003   0.955 -1.4229 -0.0667  0.0251
 2354SOL    HW218525   0.433   4.643   0.839  2.6684 -0.7823  0.2954
 2355SOL     OW18526   1.789   1.939   7.345  0.6228 -0.1927 -0.0295
 2355SOL    HW118527   1.805   2.003   7.275 -1.7829 -0.4351 -0.7990
 2355SOL    HW218528   1.720   1.894   7.296  0.0043 -0.5659  1.1766
 2356SOL     OW18529   0.271   0.305   7.973  0.0922  0.1992  0.4703
 2356SOL    HW118530   0.252   0.398   7.966  0.4927  0.3347  1.1663
 2356SOL    HW218531   0.336   0.290   7.904 -0.7253  3.4435 -1.0249
 2357SOL     OW18532   0.948   0.568   7.499 -0.3230 -0.0157 -0.4411
 2357SOL    HW118533   0.897   0.571   7.418 -2.4435 -1.0867  0.8533
 2357SOL    HW218534   0.897   0.618   7.564  2.7271 -0.8327  2.5648
 2358SOL     OW18535   0.771   4.627  11.552 -0.7077  0.2462  0.2490
 2358SOL    HW118536   0.860   4.661  11.543 -0.7049  0.0948 -0.3217
 2358SOL    HW218537   0.736   4.670  11.474 -1.2873 -2.1384 -0.8082
 2359SOL     OW18538   3.982   4.550   0.717  0.0344  0.6073 -0.5002
 2359SOL    HW118539   4.037   4.625   0.694 -1.5822  1.6129 -1.0107
 2359SOL    HW218540   4.031   4.484   0.667 -1.0524 -1.6977  1.4685
 2360SOL     OW18541   1.134   4.386   1.273  0.1649  0.3578 -0.0537
 2360SOL    HW118542   1.113   4.444   1.200 -1.5670  1.0309  0.9822
 2360SOL    HW218543   1.215   4.421   1.309  0.3142 -0.4166  0.3689
 2361SOL     OW18544   4.158   1.665   8.510  0.3833  0.0248 -0.1018
 2361SOL    HW118545   4.140   1.591   8.452 -0.9824 -1.1906  1.8572
 2361SOL    HW218546   4.084   1.657   8.570  2.6205 -1.4272  2.4456
 2362SOL     OW18547   1.106   3.345  14.430  0.1363  0.7238  0.2714
 2362SOL    HW118548   1.122   3.324  14.338 -1.1042  0.5888  0.0934
 2362SOL    HW218549   1.067   3.432  14.429 -0.5316  0.4445  1.8346
 2363SOL     OW18550   2.960   2.675  12.860  0.0779  0.3457 -0.4158
 2363SOL    HW118551   2.872   2.690  12.825 -0.3320 -1.6586 -0.2573
 2363SOL    HW218552   2.999   2.762  12.862 -2.7495  1.5781  0.0840
 2364SOL     OW18553   3.469   0.902   4.790 -0.1309 -0.6407 -0.3699
 2364SOL    HW118554   3.499   0.991   4.769  0.2444 -0.3951  1.1988
 2364SOL    HW218555   3.550   0.851   4.783  0.2214 -0.0202 -0.8153
 2365SOL     OW18556   3.021   0.628   7.986 -0.3504  0.0985  1.1626
 2365SOL    HW118557   2.987   0.540   8.002 -0.2578 -0.5419 -2.2275
 2365SOL    HW218558   3.111   0.598   7.971 -0.5542  0.0160  0.1647
 2366SOL     OW18559   1.455   1.954   3.962  0.6631  0.6122  0.4521
 2366SOL    HW118560   1.457   1.981   3.870 -2.7269  0.9079  0.4936
 2366SOL    HW218561   1.487   2.039   3.994  0.6491  0.0729  1.8850
 2367SOL     OW18562   4.363   1.655   3.013 -0.4561 -0.1954 -0.2345
 2367SOL    HW118563   4.412   1.611   2.944  2.1867  1.1197  0.7934
 2367SOL    HW218564   4.407   1.740   3.020  2.8944 -1.8691 -0.7738
 2368SOL     OW18565   3.133   4.490  10.296  0.1453 -0.2606 -0.0791
 2368SOL    HW118566   3.155   4.405  10.258 -0.7261  0.3808 -1.9924
 2368SOL    HW218567   3.207   4.546  10.272  0.0361  0.2811  0.8502
 2369SOL     OW18568   4.717   0.878   5.033  0.4438 -0.5615  0.0973
 2369SOL    HW118569   0.011   0.857   5.124  0.9942 -2.9803 -0.5756
 2369SOL    HW218570   4.624   0.895   5.016  0.7540 -1.8390 -2.8980
 2370SOL     OW18571   4.635   1.395   5.719  1.0603 -0.2016 -0.3098
 2370SOL    HW118572   4.608   1.362   5.633  0.3918 -0.6900  0.0841
 2370SOL    HW218573   4.623   1.314   5.769 -0.8558  0.2056 -0.1203
 2371SOL     OW18574   1.174   2.834  17.118  0.8829  0.3082 -0.6842
 2371SOL    HW118575   1.150   2.918  17.156 -0.9394 -1.0665  1.2122
 2371SOL    HW218576   1.266   2.826  17.142  1.2754 -0.4093 -2.3678
 2372SOL     OW18577   1.352   4.563   1.410 -0.4515 -0.1366  0.4694
 2372SOL    HW118578   1.356   4.647   1.364  1.2326 -0.7365 -0.4885
 2372SOL    HW218579   1.281   4.571   1.474  0.0051  2.0363  0.7104
 2373SOL     OW18580   2.067   1.073   3.678 -0.4747  0.1376  0.1491
 2373SOL    HW118581   2.099   1.010   3.742  0.2795  0.6980  0.3278
 2373SOL    HW218582   1.971   1.075   3.676 -0.4066  0.5024 -2.4478
 2374SOL     OW18583   1.141   0.076   4.874  0.0534  0.3307  0.1888
 2374SOL    HW118584   1.159   4.720   4.826  1.1330 -0.3600  1.7487
 2374SOL    HW218585   1.198   0.142   4.834  0.3813  0.6393  1.1669
 2375SOL     OW18586   0.171   1.722   6.541 -0.1994  0.0342 -0.3876
 2375SOL    HW118587   0.129   1.684   6.618  1.3919 -1.1850 -0.1135
 2375SOL    HW218588   0.210   1.642   6.506 -0.9571 -0.5820  0.1848
 2376SOL     OW18589   3.391   4.324  15.701  0.1200 -0.2588  0.4530
 2376SOL    HW118590   3.460   4.385  15.675 -0.7886  0.7693  0.4504
 2376SOL    HW218591   3.441   4.251  15.738  2.3888  0.2260 -1.6802
 2377SOL     OW18592   0.410   0.591   8.285 -0.1334 -0.1532  0.6542
 2377SOL    HW118593   0.368   0.516   8.326  0.4497 -1.3078 -0.8395
 2377SOL    HW218594   0.378   0.578   8.196  3.7636 -0.7163 -0.6853
 2378SOL     OW18595   4.628   1.634   5.849 -0.1275 -0.0890 -1.0555
 2378SOL    HW118596   4.701   1.609   5.907 -0.4349 -0.3872 -0.7946
 2378SOL    HW218597   4.632   1.555   5.794 -0.7052 -0.4986 -0.5054
 2379SOL     OW18598   1.165   4.009   5.250  1.1744  0.2462 -0.3989
 2379SOL    HW118599   1.213   3.979   5.173  0.3902 -1.3883 -0.2525
 2379SOL    HW218600   1.086   4.037   5.203 -0.1318 -2.9776 -0.1785
 2380SOL     OW18601   3.229   2.034   2.635  0.3685  0.0703 -0.1065
 2380SOL    HW118602   3.154   2.029   2.694 -0.3217  0.8007 -0.9141
 2380SOL    HW218603   3.234   1.942   2.608  2.6250 -0.2546  1.4439
 2381SOL     OW18604   3.248   0.400  10.025  0.0470 -0.1173  0.4354
 2381SOL    HW118605   3.231   0.436  10.112  0.6378  1.2008  0.0015
 2381SOL    HW218606   3.338   0.368  10.031  0.1997  0.5757  1.8175
 2382SOL     OW18607   0.958   0.178   9.465  0.4267  0.2939 -0.1362
 2382SOL    HW118608   0.954   0.207   9.556  0.6380 -0.4465  0.1139
 2382SOL    HW218609   0.887   0.114   9.463 -0.4389  1.2222  0.9188
 2383SOL     OW18610   1.793   3.921   2.144 -0.4845 -0.2790 -0.1161
 2383SOL    HW118611   1.875   3.883   2.111  0.1555  0.9056  0.1000
 2383SOL    HW218612   1.819   4.012   2.158 -0.3972  0.3417 -4.4349
 2384SOL     OW18613   1.675   1.766  13.642 -0.0068  0.6964  0.6882
 2384SOL    HW118614   1.588   1.780  13.677 -1.1103  0.2857 -1.9128
 2384SOL    HW218615   1.713   1.854  13.644  0.4771  0.4869  0.8086
 2385SOL     OW18616   1.017   0.623   3.132 -0.6233  0.5076  0.2069
 2385SOL    HW118617   1.055   0.609   3.218  0.1433 -0.5784 -0.3042
 2385SOL    HW218618   1.085   0.687   3.110 -0.2145 -1.0033 -2.9513
 2386SOL     OW18619   1.439   0.038   8.635  0.5870  0.2526  0.2454
 2386SOL    HW118620   1.427   4.718   8.552  1.9875 -0.5568  0.4724
 2386SOL    HW218621   1.349   0.049   8.666  0.4610  1.3824 -0.5076
 2387SOL     OW18622   1.514   1.764   8.150  0.0855 -0.1848 -0.2687
 2387SOL    HW118623   1.445   1.699   8.140  0.2020 -0.3927  0.2811
 2387SOL    HW218624   1.460   1.844   8.147 -0.4331 -0.5102  0.4430
 2388SOL     OW18625   3.458   2.825   7.667 -0.0074  0.1301  0.3145
 2388SOL    HW118626   3.426   2.760   7.730 -1.0030 -1.1717 -1.5045
 2388SOL    HW218627   3.529   2.870   7.712 -0.0960 -1.9009  2.4952
 2389SOL     OW18628   3.592   0.300  14.534  0.4492 -0.0106  0.3721
 2389SOL    HW118629   3.623   0.237  14.468 -1.6350 -2.1379  1.4441
 2389SOL    HW218630   3.524   0.346  14.485  3.1358  3.6882  0.1058
 2390SOL     OW18631   2.892   3.467   3.483 -0.6629 -0.4847 -0.7376
 2390SOL    HW118632   2.985   3.454   3.500 -0.6579  1.2599  0.5323
 2390SOL    HW218633   2.891   3.535   3.415 -0.7131 -1.0001 -1.2518
 2391SOL     OW18634   4.314   2.693   8.430 -0.0997 -0.4927 -0.1096
 2391SOL    HW118635   4.325   2.755   8.358  0.9746 -1.3372 -0.6741
 2391SOL    HW218636   4.237   2.736   8.468 -0.6267 -0.7700 -0.8744
 2392SOL     OW18637   2.939   0.401   5.983  0.0694  0.1743  0.5759
 2392SOL    HW118638   2.959   0.318   6.028  3.5908  0.8081  0.1845
 2392SOL    HW218639   2.860   0.371   5.938  1.2025 -2.2469  0.1597
 2393SOL     OW18640   2.506   1.453  10.374 -0.4841 -0.3991  0.2184
 2393SOL    HW118641   2.488   1.519  10.307  0.3039  0.9165  1.3115
 2393SOL    HW218642   2.564   1.393  10.328  0.2917  0.7614 -0.3155
 2394SOL     OW18643   4.643   3.806   4.809  0.4578 -0.1413 -0.3633
 2394SOL    HW118644   4.632   3.766   4.895  0.2690 -0.9814 -0.7806
 2394SOL    HW218645   4.601   3.892   4.808  2.9576  1.0454 -1.5069
 2395SOL     OW18646   0.681   3.403  12.724 -0.1057 -0.4564  0.1264
 2395SOL    HW118647   0.681   3.494  12.752 -0.6598  0.0750 -1.5910
 2395SOL    HW218648   0.699   3.411  12.630 -1.0166 -1.1433 -0.1048
 2396SOL     OW18649   1.300   3.562  15.710  0.3686  0.0125  0.5586
 2396SOL    HW118650   1.325   3.604  15.792 -0.3141  2.2003 -0.3489
 2396SOL    HW218651   1.343   3.620  15.647  0.9545  0.7516  1.6434
 2397SOL     OW18652   4.119   3.395   5.818 -0.4024  0.0585  0.8300
 2397SOL    HW118653   4.066   3.332   5.769  1.5098  0.9178 -2.2934
 2397SOL    HW218654   4.184   3.422   5.753  0.9559 -0.8703  1.7854
 2398SOL     OW18655   2.644   4.085   7.027  0.2232 -0.3671  0.1020
 2398SOL    HW118656   2.630   4.049   6.939 -0.9552  0.4022 -0.0234
 2398SOL    HW218657   2.735   4.115   7.025 -0.4361  1.5889 -0.9826
 2399SOL     OW18658   3.474   2.939   2.985 -1.1613 -0.0614 -0.2892
 2399SOL    HW118659   3.457   2.946   2.891 -0.9461 -1.0886 -0.4037
 2399SOL    HW218660   3.570   2.946   2.993 -1.2474  1.1074 -0.2085
 2400SOL     OW18661   0.523   2.971  15.918 -0.2596  0.0530  0.1450
 2400SOL    HW118662   0.471   2.897  15.890 -0.5815  0.6033 -0.7116
 2400SOL    HW218663   0.608   2.963  15.874 -0.1561  1.5255  0.0703
 2401SOL     OW18664   3.231   1.154   1.924  0.4440  0.0854 -0.2441
 2401SOL    HW118665   3.269   1.231   1.966  0.1763  1.3058 -2.2367
 2401SOL    HW218666   3.179   1.200   1.858  0.9554  1.4693  0.3183
 2402SOL     OW18667   0.019   2.528  12.626 -0.5059  0.0931  0.1753
 2402SOL    HW118668   0.057   2.591  12.688  0.1007  1.6581 -1.7923
 2402SOL    HW218669   4.664   2.490  12.664  0.0481 -1.3358 -0.1075
 2403SOL     OW18670   2.867   2.095   1.349 -0.5166  0.7647 -0.4967
 2403SOL    HW118671   2.836   2.152   1.279  0.9289 -0.3161 -2.0104
 2403SOL    HW218672   2.958   2.083   1.322 -0.2489  0.5628  0.5061
 2404SOL     OW18673   0.001   2.289   6.415  0.3983  0.0556 -0.0692
 2404SOL    HW118674   0.024   2.315   6.505  2.1751  0.0499 -0.5110
 2404SOL    HW218675   4.632   2.269   6.423  0.8167 -0.6049  3.1229
 2405SOL     OW18676   3.212   4.003  16.505  0.8637  0.0797 -0.5368
 2405SOL    HW118677   3.152   4.003  16.430  0.7122 -1.2083 -0.4087
 2405SOL    HW218678   3.241   4.093  16.520  0.6590 -0.1915  1.3679
 2406SOL     OW18679   1.594   0.758   9.165 -0.2163 -0.0756  0.0919
 2406SOL    HW118680   1.645   0.764   9.084 -3.2101  1.2543 -1.6837
 2406SOL    HW218681   1.596   0.663   9.181 -0.1633  0.1076  1.1956
 2407SOL     OW18682   1.220   2.607  10.808 -0.1119 -0.2348  0.1307
 2407SOL    HW118683   1.257   2.633  10.892 -0.4929  0.2671  0.1409
 2407SOL    HW218684   1.269   2.525  10.807 -0.3449 -0.3835  0.9022
 2408SOL     OW18685   2.585   2.175  13.221  0.0596 -0.2685 -0.1105
 2408SOL    HW118686   2.633   2.196  13.302  1.3832  0.2237 -1.0312
 2408SOL    HW218687   2.514   2.123  13.259 -0.7349 -1.4927 -3.2727
 2409SOL     OW18688   1.895   4.239  15.144  0.5128  0.4174 -0.5115
 2409SOL    HW118689   1.835   4.167  15.164  1.8266 -0.7724 -0.8504
 2409SOL    HW218690   1.968   4.217  15.202 -1.1129  1.8308  2.0775
 2410SOL     OW18691   1.922   2.085  15.564 -0.0170 -0.1015  0.1303
 2410SOL    HW118692   1.862   2.141  15.514  0.8193  1.9189  1.4104
 2410SOL    HW218693   2.000   2.140  15.570  1.7882 -2.7728  1.1802
 2411SOL     OW18694   2.709   2.997   6.039 -0.1725 -0.4575  0.2611
 2411SOL    HW118695   2.671   3.017   5.953 -1.4270 -0.5635  0.7888
 2411SOL    HW218696   2.752   2.919   6.003 -3.3703 -0.9788 -2.4692
 2412SOL     OW18697   0.340   2.524  15.278 -0.8577  0.4702 -0.1974
 2412SOL    HW118698   0.365   2.615  15.296  3.5725 -0.5098 -1.3713
 2412SOL    HW218699   0.336   2.502  15.371 -1.1938 -2.3581 -0.8959
 2413SOL     OW18700   0.004   3.174  16.281 -0.3779 -0.2858 -0.4475
 2413SOL    HW118701   4.650   3.135  16.243 -1.7726  1.3869  0.7064
 2413SOL    HW218702   0.039   3.236  16.217 -0.0722 -0.2758 -0.2728
 2414SOL     OW18703   2.584   2.271   5.490  0.0224  0.2089 -0.0004
 2414SOL    HW118704   2.553   2.330   5.558  0.3559  0.0578  0.2837
 2414SOL    HW218705   2.600   2.189   5.538 -1.3563  1.1858  2.1026
 2415SOL     OW18706   1.965   0.039   8.290  0.1732 -0.8723  0.4023
 2415SOL    HW118707   1.886   0.093   8.294  0.7383 -0.1425  1.7868
 2415SOL    HW218708   1.947   4.684   8.342 -0.0472 -0.1594  1.4240
 2416SOL     OW18709   2.468   2.276   6.957 -0.9339  0.0999  0.2569
 2416SOL    HW118710   2.390   2.323   6.926  0.2309  0.0551 -2.6898
 2416SOL    HW218711   2.450   2.189   6.922  0.0914 -0.6121  1.5033
 2417SOL     OW18712   0.327   2.242   2.981 -0.0807 -0.1798 -0.7862
 2417SOL    HW118713   0.318   2.158   2.936 -2.0786  0.4212 -1.4972
 2417SOL    HW218714   0.403   2.219   3.035 -1.0757 -0.3084  0.5461
 2418SOL     OW18715   4.468   3.150   9.373 -0.4966 -0.1771  0.1126
 2418SOL    HW118716   4.434   3.172   9.460  0.0255 -1.7522  0.7119
 2418SOL    HW218717   4.429   3.221   9.322  0.2223  0.6786  0.7684
 2419SOL     OW18718   1.712   0.236   8.532 -0.1823  0.1773  0.1147
 2419SOL    HW118719   1.756   0.218   8.449 -0.6427 -0.3850 -0.0155
 2419SOL    HW218720   1.703   0.330   8.542  0.5406  0.3370 -0.8084
 2420SOL     OW18721   1.197   3.092   7.034 -0.5677  0.5620  0.0150
 2420SOL    HW118722   1.185   2.999   7.019 -0.7127  0.6028 -0.1201
 2420SOL    HW218723   1.292   3.100   7.029 -0.7049  2.0367 -0.3601
 2421SOL     OW18724   0.313   4.410  16.622  0.2288  0.5792 -0.4479
 2421SOL    HW118725   0.380   4.405  16.690 -0.7840 -0.5169  0.4598
 2421SOL    HW218726   0.278   4.322  16.626 -0.6675  0.8921 -1.5326
 2422SOL     OW18727   0.838   4.282   3.009  0.1504  0.3608  0.1594
 2422SOL    HW118728   0.824   4.188   3.008  1.5438  0.1798 -0.8332
 2422SOL    HW218729   0.932   4.297   3.006  0.3765 -0.3149  3.4458
 2423SOL     OW18730   4.071   1.857   7.255  0.2553 -0.2532 -1.0382
 2423SOL    HW118731   4.109   1.773   7.229  1.7201  0.3023 -0.6879
 2423SOL    HW218732   4.142   1.891   7.308 -1.0389  1.8281 -0.6448
 2424SOL     OW18733   1.177   3.237  10.597  0.5298 -0.8163 -0.2327
 2424SOL    HW118734   1.134   3.155  10.572 -0.4834 -0.5771  0.7440
 2424SOL    HW218735   1.139   3.296  10.532 -1.2279 -0.4167  1.1830
 2425SOL     OW18736   2.802   0.669   7.570 -0.0209 -0.1773  0.0212
 2425SOL    HW118737   2.774   0.736   7.632  0.7360  0.9855 -0.9166
 2425SOL    HW218738   2.897   0.678   7.559 -0.3401  0.9469 -1.7786
 2426SOL     OW18739   4.391   3.698   8.116 -0.3205  0.3829  0.1566
 2426SOL    HW118740   4.327   3.747   8.168  1.4875  2.9339 -0.0210
 2426SOL    HW218741   4.455   3.669   8.181 -0.1008  3.3944  1.2858
 2427SOL     OW18742   1.723   4.173  17.545 -0.7435  0.0164  0.4462
 2427SOL    HW118743   1.697   4.086  17.515 -0.9161  0.5069 -0.8228
 2427SOL    HW218744   1.641   4.221  17.559 -1.3645 -0.9525  0.1111
 2428SOL     OW18745   1.419   1.737   6.989  0.0689 -0.4615 -0.4130
 2428SOL    HW118746   1.361   1.662   6.974  1.7920 -1.5746 -1.4590
 2428SOL    HW218747   1.362   1.796   6.939  1.3453  0.1931 -1.0853
 2429SOL     OW18748   2.589   1.408   5.984  0.3325  0.7023  0.3418
 2429SOL    HW118749   2.562   1.318   6.004  1.1738 -0.3338 -3.2222
 2429SOL    HW218750   2.571   1.462   6.062  2.0750 -2.3781  2.8932
 2430SOL     OW18751   2.081   4.561   3.437  0.0665  0.2015  0.0799
 2430SOL    HW118752   2.111   4.496   3.373  0.6579 -1.2439  1.8116
 2430SOL    HW218753   2.115   4.513   3.513  1.4105  0.9649 -0.0353
 2431SOL     OW18754   1.911   2.256   4.660  0.2181  0.4518  0.1362
 2431SOL    HW118755   1.951   2.170   4.647 -0.6940 -0.1059  0.9832
 2431SOL    HW218756   1.990   2.310   4.662  0.1073  0.6755 -1.3718
 2432SOL     OW18757   2.590   0.643   8.088  0.1937 -0.2882 -0.2043
 2432SOL    HW118758   2.560   0.555   8.066 -0.3905  0.1298 -1.0549
 2432SOL    HW218759   2.512   0.677   8.133  0.0948  2.0038 -2.1348
 2433SOL     OW18760   2.443   2.005  12.103  0.5581  0.2547 -0.5212
 2433SOL    HW118761   2.519   1.984  12.157 -1.2407  0.0215  1.9693
 2433SOL    HW218762   2.373   2.016  12.168 -0.4775 -1.0793 -1.4191
 2434SOL     OW18763   0.502   2.148   5.848  0.3028 -0.0387  0.0202
 2434SOL    HW118764   0.580   2.163   5.795  0.1465  0.9977  0.0903
 2434SOL    HW218765   0.430   2.144   5.784  2.3520  2.5635 -2.4230
 2435SOL     OW18766   3.835   1.707   7.634  0.0035 -0.5581 -0.1743
 2435SOL    HW118767   3.786   1.695   7.553  1.1101  1.1060 -1.0803
 2435SOL    HW218768   3.922   1.684   7.601  1.4635 -0.7728  3.8123
 2436SOL     OW18769   2.681   0.534   8.485 -0.3522  0.4760  0.8327
 2436SOL    HW118770   2.738   0.513   8.559 -1.7616 -1.8272  1.2910
 2436SOL    HW218771   2.711   0.624   8.473 -1.4692  0.9068  1.2105
 2437SOL     OW18772   2.712   4.244   6.156  0.3926  0.2860 -0.0466
 2437SOL    HW118773   2.779   4.233   6.088  0.2582  0.6324 -0.2361
 2437SOL    HW218774   2.635   4.237   6.099  0.3708 -0.5263  0.0809
 2438SOL     OW18775   4.543   3.167   9.980 -0.0925  0.4857 -0.2609
 2438SOL    HW118776   4.541   3.077  10.014 -1.8879  0.2240 -1.0157
 2438SOL    HW218777   4.469   3.193  10.036 -0.3064 -1.3031  0.3018
 2439SOL     OW18778   1.469   2.407  12.344 -0.0973  0.6067  0.2109
 2439SOL    HW118779   1.426   2.493  12.339 -0.2051  0.4023 -2.5194
 2439SOL    HW218780   1.508   2.388  12.259 -0.8791 -1.6452  0.3497
 2440SOL     OW18781   0.669   0.854   6.346 -0.2190 -0.2160  0.4475
 2440SOL    HW118782   0.657   0.886   6.435  0.1188 -0.5508  0.6127
 2440SOL    HW218783   0.674   0.941   6.307 -0.3233  0.0903  1.1298
 2441SOL     OW18784   4.609   0.490   3.344  0.3318  0.3197 -0.2226
 2441SOL    HW118785   4.682   0.548   3.320 -0.3890  0.4383 -2.1754
 2441SOL    HW218786   4.597   0.437   3.264  1.9722  0.9621 -0.9065
 2442SOL     OW18787   2.670   2.010   4.692  0.0583 -0.0747 -0.6653
 2442SOL    HW118788   2.719   2.065   4.631 -1.3357  1.8254 -0.1004
 2442SOL    HW218789   2.621   2.080   4.736  3.2764  0.2790  2.3638
 2443SOL     OW18790   4.031   4.522   3.383  0.4133 -0.7547 -0.3094
 2443SOL    HW118791   4.119   4.490   3.364  0.8154 -0.2215  0.6153
 2443SOL    HW218792   3.973   4.484   3.317 -2.2631  2.8283  0.0130
 2444SOL     OW18793   2.712   2.725   4.375  0.2859  0.3143 -0.5291
 2444SOL    HW118794   2.798   2.693   4.350  0.6696  1.0699 -0.1780
 2444SOL    HW218795   2.655   2.695   4.304  1.8166 -1.5521 -0.9470
 2445SOL     OW18796   4.227   3.259   6.298 -0.1968 -0.4081  0.1384
 2445SOL    HW118797   4.212   3.335   6.241 -2.2566  0.9894  2.5236
 2445SOL    HW218798   4.138   3.225   6.290 -0.6160  0.3736  1.4711
 2446SOL     OW18799   2.373   3.923  17.521 -0.8528  0.5697 -0.4227
 2446SOL    HW118800   2.308   3.930  17.452  2.1911  2.3569 -3.0674
 2446SOL    HW218801   2.423   4.004  17.508  0.2367  0.0834  0.6604
 2447SOL     OW18802   0.526   0.667  14.657 -0.8210 -0.0432 -0.8690
 2447SOL    HW118803   0.598   0.604  14.646 -0.6479  0.3706 -2.0683
 2447SOL    HW218804   0.447   0.628  14.619 -0.3393 -0.6198 -1.2700
 2448SOL     OW18805   1.489   3.684   2.542 -0.0745 -0.1309  0.0032
 2448SOL    HW118806   1.400   3.683   2.508  0.0274 -1.8853 -0.2511
 2448SOL    HW218807   1.467   3.663   2.633 -2.6964  2.2738 -0.0808
 2449SOL     OW18808   1.468   0.882   3.449 -0.3296  0.3743 -0.5583
 2449SOL    HW118809   1.448   0.788   3.445 -0.6773  0.5307 -2.2689
 2449SOL    HW218810   1.533   0.877   3.519  0.1519  1.4660 -0.9367
 2450SOL     OW18811   4.522   0.866   7.673  0.4770  0.5377 -0.2367
 2450SOL    HW118812   4.468   0.801   7.718  1.0913 -1.4100 -2.3185
 2450SOL    HW218813   4.595   0.820   7.630  0.5108  1.4271 -1.1345
 2451SOL     OW18814   0.832   2.825   2.716 -0.0010  0.0112  0.2887
 2451SOL    HW118815   0.761   2.890   2.719  0.8421  0.9060  0.7910
 2451SOL    HW218816   0.831   2.804   2.623 -0.9653 -1.3749  0.6185
 2452SOL     OW18817   2.228   3.059  12.940  0.4344  0.3909 -0.1814
 2452SOL    HW118818   2.224   3.154  12.951 -0.7481  0.2489  0.6321
 2452SOL    HW218819   2.160   3.032  13.002 -0.7158 -1.8399 -2.3990
 2453SOL     OW18820   4.112   2.021   9.123  0.4289  0.0134  0.1204
 2453SOL    HW118821   4.033   2.042   9.173 -0.2000  0.8435 -1.2000
 2453SOL    HW218822   4.158   1.978   9.194  1.5536  2.5246  0.9022
 2454SOL     OW18823   0.328   0.120   5.736  0.1081 -0.2089 -0.7701
 2454SOL    HW118824   0.286   0.071   5.806  0.4374  1.1156  0.3520
 2454SOL    HW218825   0.286   0.092   5.654 -1.0364 -0.8910  0.0579
 2455SOL     OW18826   4.124   2.689   5.493 -0.0645 -0.4692  0.0663
 2455SOL    HW118827   4.160   2.766   5.449 -2.4818 -0.6393 -2.2459
 2455SOL    HW218828   4.197   2.685   5.555  1.0611  2.3915 -1.0920
 2456SOL     OW18829   1.695   3.656  15.946  0.2141  0.0940  0.6104
 2456SOL    HW118830   1.681   3.618  16.033 -0.9750  2.8010  1.5737
 2456SOL    HW218831   1.651   3.739  15.960  0.1031  0.2448 -0.6084
 2457SOL     OW18832   2.765   0.760  11.600  0.4652  0.2478  0.0371
 2457SOL    HW118833   2.823   0.830  11.570  1.4291 -0.5532  0.0476
 2457SOL    HW218834   2.719   0.804  11.672 -0.1610  1.2912 -0.9893
 2458SOL     OW18835   0.115   3.587   2.601  0.0864  0.2328 -0.9280
 2458SOL    HW118836   0.177   3.653   2.632  0.8179  0.0862 -2.0675
 2458SOL    HW218837   0.037   3.639   2.581 -0.0514  0.5021  0.3273
 2459SOL     OW18838   2.859   4.511  14.504 -0.4377 -0.8433 -0.1210
 2459SOL    HW118839   2.876   4.569  14.578 -1.8101 -0.4614 -0.1048
 2459SOL    HW218840   2.764   4.507  14.511 -0.5186  0.1530 -0.5534
 2460SOL     OW18841   3.211   2.263   3.206 -0.1896  0.1654 -0.1021
 2460SOL    HW118842   3.212   2.354   3.233 -0.4438  0.5330 -1.3103
 2460SOL    HW218843   3.261   2.231   3.281 -1.1462 -0.3552  0.3096
 2461SOL     OW18844   1.957   4.319   3.913 -0.3128  0.1705  0.6362
 2461SOL    HW118845   1.864   4.343   3.918 -0.5367 -0.6363  0.1587
 2461SOL    HW218846   1.978   4.312   3.820 -0.6131  0.5686  0.5387
 2462SOL     OW18847   3.684   4.321   0.248 -0.9313  0.3481  0.2025
 2462SOL    HW118848   3.641   4.393   0.294  0.5627  1.0361  0.5161
 2462SOL    HW218849   3.760   4.310   0.305  1.4930  3.2996 -2.4283
 2463SOL     OW18850   1.469   0.095   2.360  0.3937  0.4207 -0.4171
 2463SOL    HW118851   1.397   0.150   2.329  0.7545  0.4681 -1.1546
 2463SOL    HW218852   1.472   0.026   2.294  3.3987 -0.9036  1.1056
 2464SOL     OW18853   4.605   4.374   4.636  0.5254 -0.4584 -0.7789
 2464SOL    HW118854   4.689   4.350   4.676  0.4617  2.3436  1.0717
 2464SOL    HW218855   4.612   4.323   4.556 -1.4431  2.3265 -2.7322
 2465SOL     OW18856   0.931   0.622   9.955 -0.0335 -0.0922  0.2511
 2465SOL    HW118857   0.870   0.554   9.984  0.8339 -2.0200 -2.4904
 2465SOL    HW218858   1.012   0.570   9.956  0.1662  0.2514  1.4858
 2466SOL     OW18859   2.405   1.444   1.644  0.2625 -0.4008 -0.3193
 2466SOL    HW118860   2.414   1.431   1.550 -1.3096  1.5604 -0.7289
 2466SOL    HW218861   2.498   1.439   1.666  0.4335  1.7950 -0.4599
 2467SOL     OW18862   0.980   4.090   4.432 -0.8103  0.2302  0.2630
 2467SOL    HW118863   1.029   4.156   4.384 -0.7957 -0.2539 -0.3821
 2467SOL    HW218864   1.025   4.006   4.423  0.7537  1.1736 -0.6218
 2468SOL     OW18865   3.876   3.363   8.863 -0.4719 -0.0554  0.8300
 2468SOL    HW118866   3.948   3.381   8.924 -0.5721  0.7173  0.7197
 2468SOL    HW218867   3.810   3.327   8.922 -0.8733  1.8625  1.5531
 2469SOL     OW18868   3.948   2.846   6.654  0.0173  0.1354 -0.0306
 2469SOL    HW118869   3.893   2.864   6.730 -1.5592 -2.1705 -0.6508
 2469SOL    HW218870   3.993   2.763   6.666  1.0910  0.5263 -1.2597
 2470SOL     OW18871   4.687   4.051   3.472  0.3746  0.6269 -0.4527
 2470SOL    HW118872   4.632   4.112   3.523 -1.1340 -0.3197 -0.9499
 2470SOL    HW218873   4.657   4.062   3.382 -0.5877  0.0996 -0.1955
 2471SOL     OW18874   4.284   0.219   8.266  0.2577 -0.0576  0.8083
 2471SOL    HW118875   4.269   0.285   8.197  1.8023  0.2198  0.7249
 2471SOL    HW218876   4.272   0.142   8.211  0.2769  0.4063  0.1466
 2472SOL     OW18877   0.944   0.296   5.559  0.3576  0.1497  0.3626
 2472SOL    HW118878   0.901   0.226   5.511 -1.8364  0.9271  1.2141
 2472SOL    HW218879   0.984   0.346   5.488 -1.8713 -0.2059 -1.1355
 2473SOL     OW18880   3.902   3.261   7.162 -0.0496  0.1227 -0.7553
 2473SOL    HW118881   3.966   3.323   7.197  0.2687 -0.7268  0.1749
 2473SOL    HW218882   3.861   3.239   7.246 -1.6340  0.1988 -1.5056
 2474SOL     OW18883   2.029   2.972   6.991 -0.1137  0.5666 -0.9521
 2474SOL    HW118884   1.990   2.885   7.000 -1.2731  1.2700  0.9556
 2474SOL    HW218885   2.089   2.951   7.063  1.7291 -0.0051 -2.6555
 2475SOL     OW18886   0.012   4.435   3.840  0.4469 -0.0804  0.3389
 2475SOL    HW118887   0.058   4.359   3.805 -0.8208  0.3486 -2.2687
 2475SOL    HW218888   0.030   4.438   3.934 -0.6784  2.2526  0.4859
 2476SOL     OW18889   4.338   1.296   7.329  0.1016  0.2054  0.0657
 2476SOL    HW118890   4.276   1.295   7.256 -0.6431 -0.8939  0.7096
 2476SOL    HW218891   4.405   1.235   7.298  1.0178  0.7301  1.0007
 2477SOL     OW18892   1.370   1.113   8.565  0.0547 -0.1172  0.2998
 2477SOL    HW118893   1.342   1.161   8.486 -1.0790  1.9748  1.9660
 2477SOL    HW218894   1.287   1.119   8.613  1.9935 -1.3967  3.7518
 2478SOL     OW18895   1.931   4.336   5.629 -0.0765  0.6443  0.2325
 2478SOL    HW118896   1.920   4.359   5.537 -0.3864 -1.1676 -0.1800
 2478SOL    HW218897   1.865   4.267   5.639 -0.4145  1.0014  0.4753
 2479SOL     OW18898   1.743   3.840   2.545  0.5251 -0.1606 -0.2952
 2479SOL    HW118899   1.690   3.784   2.601 -1.4295  0.9610 -0.9730
 2479SOL    HW218900   1.746   3.783   2.468  2.7375 -0.7528  0.2370
 2480SOL     OW18901   0.461   4.687   6.875  0.3872  0.7433  0.3877
 2480SOL    HW118902   0.382   4.714   6.828  0.2325 -2.5762 -1.2137
 2480SOL    HW218903   0.495   4.630   6.807 -1.6800  0.1191 -0.1050
 2481SOL     OW18904   3.077   3.490   5.674  0.6408  0.0003  0.3497
 2481SOL    HW118905   3.036   3.510   5.591  0.7673 -0.8475  0.0812
 2481SOL    HW218906   3.033   3.406   5.684  1.3635 -0.3463  0.6558
 2482SOL     OW18907   2.812   2.281   4.837 -0.1300 -0.5047 -0.4973
 2482SOL    HW118908   2.793   2.330   4.917  3.0886  1.1342 -0.7279
 2482SOL    HW218909   2.726   2.286   4.794  0.6207 -1.4514 -2.1198
 2483SOL     OW18910   1.488   2.291   4.425  0.0044 -0.5424  0.3203
 2483SOL    HW118911   1.495   2.267   4.517  0.4403 -1.1681  0.1227
 2483SOL    HW218912   1.577   2.270   4.397 -0.7825  1.3051 -3.6385
 2484SOL     OW18913   3.480   1.297  10.019 -0.0795  0.2226 -0.0351
 2484SOL    HW118914   3.575   1.293  10.031 -0.2301 -1.6103  0.6093
 2484SOL    HW218915   3.464   1.385  10.053 -0.8778 -0.0759  0.3625
 2485SOL     OW18916   1.552   3.623   1.881 -0.0753  0.3181 -0.4130
 2485SOL    HW118917   1.529   3.598   1.970  1.6003 -2.4824 -0.7591
 2485SOL    HW218918   1.646   3.609   1.883 -0.2004 -0.7489 -1.8184
 2486SOL     OW18919   0.057   2.588   8.935 -0.4157  0.1693  0.4451
 2486SOL    HW118920   0.022   2.602   8.848  3.3772 -2.0199 -1.4267
 2486SOL    HW218921   4.723   2.637   8.994 -0.6504 -1.0282  1.2169
 2487SOL     OW18922   1.664   2.195  11.544  0.0675  0.3251 -0.2157
 2487SOL    HW118923   1.670   2.111  11.590  1.6344  1.2314  1.2389
 2487SOL    HW218924   1.737   2.195  11.482  1.4221  3.1008  1.3913
 2488SOL     OW18925   2.384   0.382   3.402  0.0457  0.0486 -0.0791
 2488SOL    HW118926   2.314   0.446   3.386  0.5516  0.4408 -0.7171
 2488SOL    HW218927   2.328   0.305   3.405 -2.6622  2.0566  1.5033
 2489SOL     OW18928   3.376   4.577   7.168  0.0811  0.2951 -0.9495
 2489SOL    HW118929   3.352   4.599   7.078  1.5025  1.2225 -1.0959
 2489SOL    HW218930   3.292   4.573   7.214  1.5156  0.4232  1.6098
 2490SOL     OW18931   3.713   0.808   4.763  0.3252 -0.4662  0.1499
 2490SOL    HW118932   3.731   0.852   4.679 -1.1423 -1.1119 -0.5180
 2490SOL    HW218933   3.753   0.722   4.752  1.6153 -0.1619  2.7084
 2491SOL     OW18934   2.305   4.469   5.418  0.0151 -0.1072  0.3252
 2491SOL    HW118935   2.320   4.562   5.434  0.9653 -0.0428 -0.9529
 2491SOL    HW218936   2.217   4.472   5.379  0.6649 -1.5837 -1.2871
 2492SOL     OW18937   2.359   1.951   7.645 -0.1160  0.1973 -0.4432
 2492SOL    HW118938   2.440   1.911   7.613  0.1484 -0.5629  1.1837
 2492SOL    HW218939   2.378   2.041   7.618 -0.0918  0.5357  0.7328
 2493SOL     OW18940   2.364   4.073  14.246  0.4813  0.1572  0.1862
 2493SOL    HW118941   2.290   4.123  14.211 -0.3517 -2.0128 -1.1280
 2493SOL    HW218942   2.435   4.106  14.191 -0.2220 -1.5641 -1.7420
 2494SOL     OW18943   4.679   3.414   1.256 -0.0692 -0.3502 -0.4020
 2494SOL    HW118944   4.587   3.390   1.259  0.3822 -1.9070  0.9495
 2494SOL    HW218945   4.679   3.507   1.234  1.1408 -0.2117  0.1985
 2495SOL     OW18946   2.102   1.616  11.612  0.3657 -0.3863  0.7649
 2495SOL    HW118947   2.033   1.634  11.676 -1.4480 -1.8368 -0.7783
 2495SOL    HW218948   2.145   1.701  11.603 -1.8211  0.7717  1.3150
 2496SOL     OW18949   3.361   3.662  12.719 -0.3162 -0.0863  0.0128
 2496SOL    HW118950   3.427   3.664  12.788  0.0333 -0.1890 -0.3165
 2496SOL    HW218951   3.392   3.589  12.666 -1.7988 -0.0838 -0.8646
 2497SOL     OW18952   2.541   1.852   8.037 -0.0966 -0.1389  0.2739
 2497SOL    HW118953   2.467   1.897   8.078 -1.2884 -2.2487  0.4615
 2497SOL    HW218954   2.601   1.839   8.109 -0.5033 -0.3501  0.5757
 2498SOL     OW18955   2.819   2.810   8.171 -0.5778 -0.8978 -0.5289
 2498SOL    HW118956   2.887   2.767   8.223  0.7089  0.2121 -1.2747
 2498SOL    HW218957   2.745   2.753   8.192  0.4402 -1.7984  0.6467
 2499SOL     OW18958   1.058   1.508   2.504 -0.2052 -0.1235 -0.8033
 2499SOL    HW118959   1.037   1.588   2.457  1.8419  1.0938  0.3643
 2499SOL    HW218960   1.049   1.445   2.433 -3.6656 -0.5980  0.0683
 2500SOL     OW18961   1.420   2.530  16.157 -0.1770 -0.4710 -0.2074
 2500SOL    HW118962   1.402   2.490  16.071  1.1053  0.5874 -0.9674
 2500SOL    HW218963   1.338   2.512  16.203  0.1552 -0.8929  0.2200
 2501SOL     OW18964   4.255   4.028   6.776 -0.5421  0.6034  0.3284
 2501SOL    HW118965   4.226   3.976   6.851  0.6161  0.9146  0.9825
 2501SOL    HW218966   4.173   4.059   6.736  0.6378  0.3929 -2.2902
 2502SOL     OW18967   2.045   1.958  14.392 -0.0091 -0.0081 -0.0345
 2502SOL    HW118968   2.011   1.996  14.311  1.1688 -0.3098 -0.6687
 2502SOL    HW218969   2.137   1.939  14.373  0.3984  0.9650  0.9611
 2503SOL     OW18970   2.092   3.955   1.452  0.1417 -0.5422  0.1923
 2503SOL    HW118971   2.095   3.972   1.358 -1.4084  0.5418  0.3320
 2503SOL    HW218972   2.040   4.028   1.487 -0.3266 -2.3295  3.2174
 2504SOL     OW18973   0.964   1.209   0.173  0.3440 -0.0972 -0.1675
 2504SOL    HW118974   0.909   1.285   0.191  0.4532 -0.4735  1.8486
 2504SOL    HW218975   0.932   1.156   0.246  0.0201  0.2569 -0.0521
 2505SOL     OW18976   2.870   4.030  16.528  0.1224  0.0318 -0.1571
 2505SOL    HW118977   2.917   4.045  16.610 -0.6721  0.1430  0.2797
 2505SOL    HW218978   2.812   4.105  16.519  2.1661  1.6723  0.4793
 2506SOL     OW18979   3.241   0.442  11.053  0.0008  0.3710  0.3746
 2506SOL    HW118980   3.181   0.383  11.008  0.6083  1.0178 -1.2952
 2506SOL    HW218981   3.208   0.530  11.036  0.1699  0.4019  0.2052
 2507SOL     OW18982   0.457   2.639   4.338  0.2776  0.3385 -0.2574
 2507SOL    HW118983   0.435   2.699   4.266 -2.6070 -2.3984 -1.6642
 2507SOL    HW218984   0.475   2.553   4.302  1.1460  0.3469  0.1759
 2508SOL     OW18985   3.327   2.691   8.925  0.7813  0.0820  0.1632
 2508SOL    HW118986   3.282   2.773   8.949 -0.3821  0.3416 -2.8933
 2508SOL    HW218987   3.383   2.680   9.002 -1.5245  0.2348  1.8545
 2509SOL     OW18988   0.306   3.974  14.715  0.0534  0.8743  0.5218
 2509SOL    HW118989   0.401   3.977  14.723  0.1610 -1.1446 -0.0162
 2509SOL    HW218990   0.293   3.892  14.668 -0.3050  1.5028 -0.4907
 2510SOL     OW18991   1.278   3.975  12.368 -0.5193 -0.4264  0.8974
 2510SOL    HW118992   1.248   3.994  12.279  1.2427 -0.5272  0.2892
 2510SOL    HW218993   1.293   3.881  12.354 -3.3182 -0.6328 -0.6853
 2511SOL     OW18994   2.730   2.332  11.368  0.0007  0.1401 -0.2788
 2511SOL    HW118995   2.700   2.422  11.381  1.2889  0.3180  1.4007
 2511SOL    HW218996   2.653   2.283  11.395  0.8782 -0.1880  1.5642
 2512SOL     OW18997   2.991   1.900  15.550 -0.1172  0.4808  0.3084
 2512SOL    HW118998   3.081   1.883  15.522  0.0211  2.1646 -0.2569
 2512SOL    HW218999   2.975   1.981  15.502  2.2525 -0.1076 -1.5185
 2513SOL     OW19000   1.694   1.423  10.970 -0.8232  0.6353  0.0392
 2513SOL    HW119001   1.760   1.491  10.960 -0.8626  0.6831  0.1056
 2513SOL    HW219002   1.742   1.359  10.917 -0.7041  0.8346 -0.0910
 2514SOL     OW19003   4.369   2.313   4.249  0.1627 -0.2605 -0.1051
 2514SOL    HW119004   4.398   2.403   4.263 -1.3598  0.3272 -0.6894
 2514SOL    HW219005   4.449   2.263   4.233 -0.0913 -1.0958  1.1885
 2515SOL     OW19006   1.289   1.456   9.282  0.1449  0.1121  0.5316
 2515SOL    HW119007   1.276   1.363   9.302 -0.0830  0.0767  0.2178
 2515SOL    HW219008   1.283   1.489   9.371  2.6841 -1.0541  1.1645
 2516SOL     OW19009   4.177   3.859  11.471 -0.3814  0.5643  0.8097
 2516SOL    HW119010   4.112   3.792  11.451  0.8987 -0.1661 -0.9196
 2516SOL    HW219011   4.241   3.793  11.499  1.5935  1.4507 -1.5946
 2517SOL     OW19012   3.028   0.515   8.898 -0.5055 -0.2067 -0.6922
 2517SOL    HW119013   3.082   0.591   8.876 -0.9850  0.2303 -0.3600
 2517SOL    HW219014   2.979   0.540   8.977 -0.2678 -2.9685  0.3250
 2518SOL     OW19015   2.839   2.550  14.444 -0.3057  0.4171  0.2932
 2518SOL    HW119016   2.780   2.615  14.406  0.3346 -0.2259 -1.7654
 2518SOL    HW219017   2.830   2.578  14.536  0.5004  0.1900  0.4386
 2519SOL     OW19018   1.190   4.637   5.076 -0.0068  0.6846  0.1800
 2519SOL    HW119019   1.174   4.657   5.168 -2.6761 -0.2199 -0.0797
 2519SOL    HW219020   1.141   4.706   5.031  0.9725 -0.2824 -2.3753
 2520SOL     OW19021   4.141   4.253   0.092 -0.0629  0.2361  0.5757
 2520SOL    HW119022   4.046   4.248   0.081 -0.0860  0.8180  0.4934
 2520SOL    HW219023   4.140   4.342   0.128 -1.7192  0.0599  0.9640
 2521SOL     OW19024   1.453   4.388   5.841  0.5468 -0.1121 -0.4294
 2521SOL    HW119025   1.545   4.381   5.866  0.5450 -1.5640 -0.8619
 2521SOL    HW219026   1.453   4.451   5.768  4.1034  2.0852  1.4501
 2522SOL     OW19027   2.223   2.542   6.084  0.1048  0.0118 -0.1042
 2522SOL    HW119028   2.172   2.603   6.030 -1.2823  0.3212  1.5516
 2522SOL    HW219029   2.277   2.508   6.013 -0.2470  1.9369 -1.2999
 2523SOL     OW19030   3.914   2.354   0.518 -0.4485  0.2747  0.2981
 2523SOL    HW119031   3.887   2.442   0.489 -0.1450 -0.0693 -1.0560
 2523SOL    HW219032   3.896   2.357   0.612  0.4248 -2.0991  0.5451
 2524SOL     OW19033   1.103   0.887   5.166 -0.9090  0.0109  0.2160
 2524SOL    HW119034   1.159   0.853   5.235 -1.2714  0.5795  0.7827
 2524SOL    HW219035   1.125   0.839   5.086  0.1343  0.2278  0.3836
 2525SOL     OW19036   2.436   1.211   7.353  0.3828  0.1028  0.8252
 2525SOL    HW119037   2.414   1.206   7.260 -0.7570  2.3701  0.9901
 2525SOL    HW219038   2.354   1.241   7.391 -0.2874  1.7990 -2.0151
 2526SOL     OW19039   3.761   0.221   0.694 -0.1211 -0.0791 -0.2360
 2526SOL    HW119040   3.835   0.197   0.750  2.1014  2.7430 -1.9428
 2526SOL    HW219041   3.696   0.152   0.709  1.3893 -1.5563 -0.5280
 2527SOL     OW19042   3.314   3.105   3.121 -0.0878  0.0619  0.1871
 2527SOL    HW119043   3.385   3.063   3.073 -0.9720 -0.7145 -0.4278
 2527SOL    HW219044   3.239   3.068   3.075 -1.4029  0.7091  1.8277
 2528SOL     OW19045   2.634   0.242   5.294  0.6099 -0.5137 -0.0833
 2528SOL    HW119046   2.707   0.266   5.237  0.3905 -3.3152 -1.5912
 2528SOL    HW219047   2.612   0.332   5.316 -1.1675 -0.8198 -0.6025
 2529SOL     OW19048   3.318   3.564  13.476 -0.5759  0.1444 -0.3144
 2529SOL    HW119049   3.309   3.506  13.400  0.2404  1.4606 -1.4086
 2529SOL    HW219050   3.391   3.619  13.449 -0.6024 -0.9086 -2.5389
 2530SOL     OW19051   0.678   1.628  13.942 -0.1513 -0.4475 -0.2203
 2530SOL    HW119052   0.740   1.566  13.903 -0.6925 -3.0241  3.0612
 2530SOL    HW219053   0.624   1.633  13.864 -1.8916  0.5432  1.0354
 2531SOL     OW19054   4.419   0.137   8.494 -0.5177 -0.6940 -0.5981
 2531SOL    HW119055   4.366   0.210   8.526 -1.0084 -0.9712 -0.7923
 2531SOL    HW219056   4.368   0.129   8.413 -0.7260  1.9898 -0.7568
 2532SOL     OW19057   2.344   0.226   0.533  0.3624 -0.0412  0.0416
 2532SOL    HW119058   2.353   0.135   0.564  1.0463 -0.9549 -2.8412
 2532SOL    HW219059   2.277   0.265   0.589  2.7965  0.7317  2.4014
 2533SOL     OW19060   4.123   4.425   5.473  0.0683  0.4255 -0.2561
 2533SOL    HW119061   4.196   4.413   5.413 -0.7856 -5.0199 -0.2067
 2533SOL    HW219062   4.075   4.351   5.436  0.3478 -0.3121  0.8478
 2534SOL     OW19063   3.746   0.004   1.499  0.1045  0.3547  0.2009
 2534SOL    HW119064   3.659   0.036   1.474  0.4788  1.1841 -0.0579
 2534SOL    HW219065   3.798   0.083   1.515 -0.2101  0.6270 -0.1447
 2535SOL     OW19066   3.134   3.530   8.699  0.1399  0.1937 -0.7433
 2535SOL    HW119067   3.211   3.558   8.749 -0.6912 -2.1411  1.8606
 2535SOL    HW219068   3.076   3.521   8.774 -0.7326  1.6158 -1.2546
 2536SOL     OW19069   2.936   2.007   6.045 -0.2204  0.0786 -0.9196
 2536SOL    HW119070   2.904   1.932   6.095  0.8523 -0.4459 -1.0362
 2536SOL    HW219071   3.023   1.988   6.012  0.6365 -0.7401  1.8114
 2537SOL     OW19072   3.437   1.759  10.775 -0.1585 -0.3923 -0.1604
 2537SOL    HW119073   3.500   1.723  10.838 -2.5240 -1.0280  1.8650
 2537SOL    HW219074   3.465   1.725  10.690 -0.5249 -0.6138 -0.1921
 2538SOL     OW19075   2.049   0.382   1.941 -0.2243  0.0302  0.0237
 2538SOL    HW119076   1.976   0.440   1.961 -0.1970  0.0324  0.1143
 2538SOL    HW219077   2.085   0.442   1.876 -0.2066  0.3719  0.3526
 2539SOL     OW19078   0.157   0.829   8.056 -0.1468  0.1859  0.5396
 2539SOL    HW119079   0.218   0.834   7.983  0.9668  2.5456  1.6082
 2539SOL    HW219080   0.207   0.889   8.111  1.9872 -2.3147  1.3254
 2540SOL     OW19081   1.918   3.935   3.655  0.2090 -0.2736 -0.4159
 2540SOL    HW119082   1.950   3.909   3.741 -0.5192  2.2342  0.6132
 2540SOL    HW219083   1.840   3.985   3.680 -0.3942 -0.5341 -1.7776
 2541SOL     OW19084   3.237   0.208   5.463  0.2895  0.0783  0.8590
 2541SOL    HW119085   3.207   0.150   5.533  2.0782  0.4964  1.9725
 2541SOL    HW219086   3.185   0.288   5.467 -0.0118 -0.1023  0.4633
 2542SOL     OW19087   4.588   2.847   4.678 -0.0975  0.0716  0.6603
 2542SOL    HW119088   4.632   2.764   4.695 -1.1472 -0.3166  1.5204
 2542SOL    HW219089   4.557   2.832   4.589 -1.0666 -0.8874  1.1538
 2543SOL     OW19090   3.842   1.765   7.087  0.3141  0.3109 -0.0228
 2543SOL    HW119091   3.908   1.831   7.106  1.1458 -0.3385 -0.6890
 2543SOL    HW219092   3.781   1.776   7.160 -0.4903 -1.3842 -0.4436
 2544SOL     OW19093   1.815   2.052   3.544 -0.1576  0.0201  0.4005
 2544SOL    HW119094   1.759   2.129   3.553 -0.0036 -0.2230  3.2291
 2544SOL    HW219095   1.897   2.101   3.550  0.1478 -0.1470 -2.3037
 2545SOL     OW19096   3.661   2.856  16.410 -0.1808 -0.5374  0.4002
 2545SOL    HW119097   3.595   2.925  16.414 -0.9965 -1.3411  0.7404
 2545SOL    HW219098   3.624   2.791  16.352 -0.3502  0.4577 -0.6125
 2546SOL     OW19099   0.073   0.080   6.013  0.5817  1.0133  0.4535
 2546SOL    HW119100   0.069   4.724   5.962 -1.2770  0.3083  1.7057
 2546SOL    HW219101   0.000   0.070   6.074  0.2378  2.5800  0.3019
 2547SOL     OW19102   0.902   2.712  11.130  0.3877  0.4473 -0.1297
 2547SOL    HW119103   0.919   2.760  11.049  0.4302 -0.6692 -0.7818
 2547SOL    HW219104   0.822   2.753  11.161  0.1283  0.2090 -0.4793
 2548SOL     OW19105   4.178   4.722   4.567  0.1563  0.2308 -0.1745
 2548SOL    HW119106   4.269   4.692   4.580  0.0148 -0.3249 -0.4574
 2548SOL    HW219107   4.146   4.671   4.493 -1.1035 -0.6607  0.9774
 2549SOL     OW19108   3.294   2.726   3.067 -0.0146  0.3113 -0.8960
 2549SOL    HW119109   3.387   2.709   3.083 -0.0156  0.0452 -1.1758
 2549SOL    HW219110   3.286   2.820   3.083  1.2282  0.1130  0.8682
 2550SOL     OW19111   2.547   3.857   6.751  0.3966 -0.1784 -0.1184
 2550SOL    HW119112   2.584   3.945   6.741  1.7234 -0.5123  1.9490
 2550SOL    HW219113   2.500   3.842   6.669  0.6278 -2.2673  0.1459
 2551SOL     OW19114   4.381   3.682   1.102 -0.1638 -0.0663  0.0180
 2551SOL    HW119115   4.416   3.614   1.044  1.7850 -0.5193  1.7141
 2551SOL    HW219116   4.457   3.727   1.138 -0.3908  0.2174  0.1425
 2552SOL     OW19117   4.286   2.821  14.282  0.6935  0.2427  0.4241
 2552SOL    HW119118   4.359   2.822  14.220  0.4476 -2.5177  0.1137
 2552SOL    HW219119   4.256   2.731  14.269 -0.1544  0.5889 -0.0112
 2553SOL     OW19120   2.298   2.902   3.675  0.4882 -0.7279  0.4758
 2553SOL    HW119121   2.245   2.857   3.610  1.0654 -0.3719 -0.2372
 2553SOL    HW219122   2.381   2.864   3.648  0.6537  1.4214 -2.0736
 2554SOL     OW19123   0.383   3.106  12.759  0.5329  0.0112  0.2095
 2554SOL    HW119124   0.451   3.166  12.792  1.0103 -0.5675  0.2808
 2554SOL    HW219125   0.413   3.080  12.672 -1.9253  0.0979 -0.6436
 2555SOL     OW19126   1.943   4.297   1.856 -0.2003 -0.4906  0.5070
 2555SOL    HW119127   1.887   4.256   1.790  1.5789 -0.4507 -1.0439
 2555SOL    HW219128   1.982   4.367   1.803  0.7294 -2.3704 -1.2626
 2556SOL     OW19129   0.714   4.706  17.091 -0.0310  0.1197 -0.1168
 2556SOL    HW119130   0.784   0.016  17.035 -0.7004  0.4624 -0.7567
 2556SOL    HW219131   0.652   0.054  17.080  0.9368  0.7645 -1.3133
 2557SOL     OW19132   2.438   1.571   4.095 -0.1234  0.3762  0.3579
 2557SOL    HW119133   2.474   1.637   4.154 -1.2989  2.7125 -1.5159
 2557SOL    HW219134   2.425   1.623   4.016  0.8329 -1.9946 -1.3748
 2558SOL     OW19135   3.691   0.875   9.003  0.6667 -0.6040 -0.1123
 2558SOL    HW119136   3.739   0.792   8.997 -0.4177 -1.3099  0.9516
 2558SOL    HW219137   3.743   0.919   8.935 -0.9336 -1.6489 -2.0282
 2559SOL     OW19138   4.012   2.998   4.303  0.1889  0.2130 -0.7211
 2559SOL    HW119139   4.003   3.093   4.291 -0.2447  0.3244  0.4872
 2559SOL    HW219140   3.930   2.962   4.269 -0.3558  1.6267 -0.9245
 2560SOL     OW19141   4.471   2.835   2.546 -0.7420  0.0203  0.7924
 2560SOL    HW119142   4.377   2.833   2.530 -0.9157  0.4190  1.7728
 2560SOL    HW219143   4.475   2.908   2.608  1.1176 -0.1109  0.8262
 2561SOL     OW19144   2.399   2.305   3.259 -0.2708  0.1538  0.1840
 2561SOL    HW119145   2.323   2.253   3.234 -0.0650 -0.8019  1.5522
 2561SOL    HW219146   2.365   2.337   3.343  3.1688  0.9026  1.3025
 2562SOL     OW19147   4.220   3.649  12.563  0.0530  0.0378 -0.5972
 2562SOL    HW119148   4.172   3.598  12.628  1.6633  0.2041  0.7184
 2562SOL    HW219149   4.176   3.733  12.553 -0.7924 -0.5515 -1.8787
 2563SOL     OW19150   0.040   4.632   8.089 -0.3655 -0.5739 -0.3474
 2563SOL    HW119151   0.108   4.690   8.055 -1.0543  0.4961  0.0750
 2563SOL    HW219152   0.045   4.543   8.054  0.9208 -0.2828 -0.8935
 2564SOL     OW19153   2.113   4.335   5.087 -0.6606  0.1465 -0.3185
 2564SOL    HW119154   2.140   4.375   5.004 -1.8849  0.6523 -0.4741
 2564SOL    HW219155   2.056   4.404   5.120 -1.0834  0.5228 -1.8238
 2565SOL     OW19156   2.285   3.212   5.532  0.3354  0.3056  0.2008
 2565SOL    HW119157   2.281   3.307   5.537  0.8540  0.3684 -0.6681
 2565SOL    HW219158   2.329   3.199   5.448  1.4705 -1.1882  1.0327
 2566SOL     OW19159   4.234   2.404  10.312  0.6664  0.7466 -0.0719
 2566SOL    HW119160   4.218   2.497  10.328  0.4215  0.7108 -0.1131
 2566SOL    HW219161   4.173   2.373  10.379  0.9723 -2.0258 -1.0684
 2567SOL     OW19162   2.344   3.613   9.896 -0.3274 -0.2491  0.3605
 2567SOL    HW119163   2.302   3.687   9.852 -0.2763 -2.1770 -3.0148
 2567SOL    HW219164   2.268   3.574   9.940 -0.7060  0.8667  0.6861
 2568SOL     OW19165   0.354   2.064  14.178 -0.3256  0.0893  0.0757
 2568SOL    HW119166   0.329   2.057  14.270  0.1494  2.9208  0.4432
 2568SOL    HW219167   0.300   1.999  14.134  1.4223  0.9385 -3.2895
 2569SOL     OW19168   4.498   3.360   2.386  0.0498  0.3197 -0.0789
 2569SOL    HW119169   4.419   3.409   2.405  0.2432  0.4500  0.3751
 2569SOL    HW219170   4.497   3.356   2.290 -1.8165  0.2589 -0.0416
 2570SOL     OW19171   0.188   4.011  15.677 -0.1938  0.0427  0.0918
 2570SOL    HW119172   0.200   4.097  15.718  1.2804  0.4108 -1.1023
 2570SOL    HW219173   0.261   3.967  15.720  1.1802  2.5433  0.3601
 2571SOL     OW19174   1.791   1.497   3.900 -0.4955  0.6227  0.2953
 2571SOL    HW119175   1.707   1.544   3.894 -1.4325 -1.0521  0.2245
 2571SOL    HW219176   1.849   1.564   3.935  0.9068  0.2581 -1.3267
 2572SOL     OW19177   3.534   2.935   6.922  0.2196 -0.1176  0.2471
 2572SOL    HW119178   3.613   2.882   6.932  0.9982  0.6247 -2.0346
 2572SOL    HW219179   3.511   2.910   6.833  0.2032  0.6507  0.0403
 2573SOL     OW19180   3.310   3.395   2.824  0.0504 -0.6472 -0.2959
 2573SOL    HW119181   3.324   3.364   2.735 -0.7722  0.8612 -0.9498
 2573SOL    HW219182   3.224   3.434   2.809 -0.1957 -0.8697  0.5384
 2574SOL     OW19183   1.667   2.254   7.359 -0.3924  0.0729  0.2748
 2574SOL    HW119184   1.659   2.343   7.393 -0.1477 -0.2620  1.2076
 2574SOL    HW219185   1.759   2.243   7.336 -0.4180  1.1027 -0.3080
 2575SOL     OW19186   0.058   2.623   2.817 -0.5435  0.4254  0.1791
 2575SOL    HW119187   0.074   2.557   2.883  0.9252  0.1841 -0.4281
 2575SOL    HW219188   0.081   2.582   2.734 -1.4236 -1.8122  1.0536
 2576SOL     OW19189   3.263   4.564   6.903  0.9097 -0.2405 -0.1539
 2576SOL    HW119190   3.196   4.597   6.843  0.8821  0.1201  0.0720
 2576SOL    HW219191   3.339   4.606   6.862  0.0439  1.5497  0.0722
 2577SOL     OW19192   2.720   4.617  13.664 -0.0500 -0.2140  0.1289
 2577SOL    HW119193   2.769   4.595  13.584 -3.3093  0.0389 -1.9373
 2577SOL    HW219194   2.703   4.527  13.693 -0.7501 -0.4647 -1.0734
 2578SOL     OW19195   4.247   3.550   4.411  0.0884  0.1367 -0.4805
 2578SOL    HW119196   4.325   3.585   4.367  1.0921 -1.2038  0.2156
 2578SOL    HW219197   4.219   3.634   4.448 -0.4342  0.4232 -1.5370
 2579SOL     OW19198   0.146   1.648   4.236 -0.2604  0.3069 -0.6377
 2579SOL    HW119199   0.167   1.636   4.329  1.4944  0.2498 -1.0266
 2579SOL    HW219200   0.051   1.636   4.233 -0.5203  2.5048 -1.3320
 2580SOL     OW19201   1.255   2.918   8.343  0.2545 -0.3863 -0.0962
 2580SOL    HW119202   1.329   2.910   8.282 -2.3431  1.6627 -3.5019
 2580SOL    HW219203   1.180   2.916   8.284 -0.2097 -0.9677  0.5216
 2581SOL     OW19204   4.527   4.651   2.922  0.0928 -0.4336 -0.4264
 2581SOL    HW119205   4.439   4.619   2.944  0.0312 -0.7177 -1.0753
 2581SOL    HW219206   4.522   0.018   2.949  1.4898 -0.0177 -1.5737
 2582SOL     OW19207   4.567   2.563   4.466 -0.7765 -0.1861 -0.0713
 2582SOL    HW119208   4.542   2.490   4.523  1.0442  0.6003  1.7097
 2582SOL    HW219209   4.497   2.567   4.401 -1.9591 -1.6955  1.1102
 2583SOL     OW19210   4.527   0.403   7.042  0.0462 -0.3153 -0.3884
 2583SOL    HW119211   4.607   0.377   7.087 -0.2948 -0.3894  0.1823
 2583SOL    HW219212   4.475   0.424   7.119 -1.4943 -1.4175 -1.1294
 2584SOL     OW19213   2.953   0.114   6.066  0.1291  0.2081 -0.2379
 2584SOL    HW119214   3.041   0.117   6.104  0.4603 -0.3360 -0.9587
 2584SOL    HW219215   2.902   0.059   6.125  0.3458 -0.3384 -0.5595
 2585SOL     OW19216   0.400   3.450   5.388  0.6190 -0.1289 -0.3252
 2585SOL    HW119217   0.436   3.365   5.362  1.0959 -0.4730  1.4534
 2585SOL    HW219218   0.379   3.488   5.302 -1.7100 -0.7713 -0.0520
 2586SOL     OW19219   4.048   0.360  15.404  0.1052 -0.3837 -0.4976
 2586SOL    HW119220   4.011   0.282  15.361  3.0971 -1.4616 -1.1158
 2586SOL    HW219221   3.996   0.431  15.366 -0.3342 -0.1451  0.5592
 2587SOL     OW19222   1.930   2.066  17.185  0.5724 -0.1609  0.1123
 2587SOL    HW119223   1.858   2.004  17.181  1.7770 -1.5587  0.1489
 2587SOL    HW219224   1.889   2.136  17.236  0.9479  0.0293  0.1544
 2588SOL     OW19225   0.467   3.612  12.345  0.0006 -0.2418  0.2776
 2588SOL    HW119226   0.420   3.692  12.368 -2.3230 -1.4288 -0.3652
 2588SOL    HW219227   0.391   3.554  12.342  0.8256 -1.2292 -1.2190
 2589SOL     OW19228   1.784   2.945   6.295 -0.3763  0.0121  0.4476
 2589SOL    HW119229   1.818   2.926   6.382 -1.3481  0.7698  0.9903
 2589SOL    HW219230   1.691   2.931   6.312 -0.6294 -1.5548 -2.3361
 2590SOL     OW19231   1.256   4.495  17.668 -0.8209 -0.2905  0.2280
 2590SOL    HW119232   1.221   4.533  17.588 -3.4229 -0.5841  1.2222
 2590SOL    HW219233   1.216   4.561   0.025  0.7878  0.6049  0.3419
 2591SOL     OW19234   2.161   3.607  15.291  0.0255  0.3617 -0.1888
 2591SOL    HW119235   2.098   3.550  15.245  0.6851 -0.9182  0.5075
 2591SOL    HW219236   2.234   3.623  15.231  0.2108  0.8633  0.1747
 2592SOL     OW19237   4.184   3.780   4.550 -0.2310  0.5225  0.5458
 2592SOL    HW119238   4.264   3.830   4.563 -1.1532  1.3089  3.2229
 2592SOL    HW219239   4.126   3.856   4.550 -1.7763 -0.6424  0.4751
 2593SOL     OW19240   2.441   3.451   3.423 -0.5703 -0.2437 -0.2827
 2593SOL    HW119241   2.346   3.454   3.432 -0.4953 -1.5836  1.0369
 2593SOL    HW219242   2.462   3.365   3.386 -1.0820 -1.3194  1.9061
 2594SOL     OW19243   0.701   0.236   1.640  0.1710 -0.4290 -0.3021
 2594SOL    HW119244   0.685   0.146   1.669  0.6909 -0.1367  0.8856
 2594SOL    HW219245   0.745   0.213   1.559 -0.0496 -0.6484 -0.3601
 2595SOL     OW19246   4.634   1.112   6.204  0.0298 -0.1225  0.0612
 2595SOL    HW119247   4.685   1.115   6.285 -2.8789  0.2976  1.8838
 2595SOL    HW219248   4.650   1.022   6.174  0.3321  0.0291 -0.2342
 2596SOL     OW19249   3.228   2.312   6.077 -0.2342 -0.1561  0.1689
 2596SOL    HW119250   3.164   2.306   6.147 -1.2086 -2.2787 -0.8987
 2596SOL    HW219251   3.311   2.337   6.117 -0.3445 -0.7310  0.7636
 2597SOL     OW19252   0.357   4.127   6.239 -0.1204 -0.1788  0.9676
 2597SOL    HW119253   0.446   4.097   6.218 -0.8047 -2.3055  1.0254
 2597SOL    HW219254   0.313   4.044   6.220  3.6328 -1.8455 -0.6033
 2598SOL     OW19255   0.360   4.447   7.949  0.3602 -0.0435  0.5058
 2598SOL    HW119256   0.432   4.511   7.953  0.7006 -0.3812 -0.2357
 2598SOL    HW219257   0.296   4.505   7.908 -0.8745 -1.7488  0.0712
 2599SOL     OW19258   3.906   1.319   2.713 -0.0156 -0.1056  0.8778
 2599SOL    HW119259   3.861   1.404   2.708  1.0495  0.4320  0.4068
 2599SOL    HW219260   3.924   1.303   2.620  0.3108 -1.0834  1.1086
 2600SOL     OW19261   2.010   3.257   7.065  0.0553  0.8009  0.0265
 2600SOL    HW119262   2.009   3.161   7.057 -2.8144  0.8911 -0.9687
 2600SOL    HW219263   1.978   3.273   7.153 -0.6199 -0.6575  0.0603
 2601SOL     OW19264   0.668   3.776  11.769  0.1339  0.0611  0.3481
 2601SOL    HW119265   0.704   3.820  11.692  0.3670 -1.5386 -0.4576
 2601SOL    HW219266   0.674   3.683  11.749 -0.7104  0.6844 -2.8132
 2602SOL     OW19267   3.456   1.205   9.501 -0.1545  0.3079  0.1989
 2602SOL    HW119268   3.463   1.220   9.596  0.9491 -0.8180  0.2905
 2602SOL    HW219269   3.497   1.286   9.471  2.2445 -0.1005  2.3147
 2603SOL     OW19270   2.928   1.444   7.041  0.0223 -0.2141  0.2050
 2603SOL    HW119271   2.865   1.372   7.038 -0.3748  0.1186  0.4359
 2603SOL    HW219272   2.877   1.523   7.022 -0.7963 -0.7558  0.1197
 2604SOL     OW19273   0.696   3.722   9.415 -0.1327 -0.2005  0.1791
 2604SOL    HW119274   0.719   3.635   9.449  0.0777  0.5558  1.9462
 2604SOL    HW219275   0.631   3.756   9.477  0.9287  0.3700  0.9684
 2605SOL     OW19276   3.866   0.121   6.473  0.0781 -0.7315 -0.3918
 2605SOL    HW119277   3.813   0.195   6.502  1.7464 -0.1672  1.1728
 2605SOL    HW219278   3.803   0.048   6.474 -0.7714  0.0922  4.0038
 2606SOL     OW19279   0.354   2.795  15.743  0.3616 -0.2803 -0.2540
 2606SOL    HW119280   0.405   2.778  15.664 -1.1245  1.4706 -1.5971
 2606SOL    HW219281   0.264   2.812  15.716 -0.1191  0.1232  1.6205
 2607SOL     OW19282   4.194   1.006   8.218 -0.0407  0.3098 -0.3745
 2607SOL    HW119283   4.185   1.089   8.264  2.9203 -0.6147  1.8500
 2607SOL    HW219284   4.212   1.042   8.131 -0.0854  1.2935  0.0239
 2608SOL     OW19285   1.804   4.548   9.220  0.0318 -0.3842  0.2544
 2608SOL    HW119286   1.899   4.537   9.214  0.1678  1.4227 -0.7426
 2608SOL    HW219287   1.789   4.455   9.240 -2.3675 -0.0629 -0.0303
 2609SOL     OW19288   2.618   2.986   8.388  0.5624  0.4315 -0.2011
 2609SOL    HW119289   2.582   3.074   8.375 -1.1525 -0.1274  0.8289
 2609SOL    HW219290   2.574   2.939   8.316 -0.9601 -0.6378  1.4394
 2610SOL     OW19291   2.553   2.687   5.984  0.2573 -0.0733  0.0684
 2610SOL    HW119292   2.483   2.678   5.919  1.6913 -0.7847 -1.3460
 2610SOL    HW219293   2.630   2.717   5.937  0.4386  0.0030  0.4099
 2611SOL     OW19294   1.649   4.579   1.473 -0.1526  0.1976 -0.5399
 2611SOL    HW119295   1.560   4.543   1.474  0.4685 -1.3239  0.2821
 2611SOL    HW219296   1.666   4.583   1.379  0.4988  3.4665 -0.2950
 2612SOL     OW19297   0.464   4.223  10.548 -0.6224  0.6815  0.4901
 2612SOL    HW119298   0.440   4.162  10.617 -0.3351 -3.1596 -2.7893
 2612SOL    HW219299   0.484   4.304  10.595  0.2782  0.0481  1.2034
 2613SOL     OW19300   2.081   3.661   4.920  0.0337  0.4364  0.2028
 2613SOL    HW119301   2.085   3.707   5.004 -1.5486  0.9377 -0.0052
 2613SOL    HW219302   2.114   3.572   4.936 -1.1430  0.0264  0.3257
 2614SOL     OW19303   0.470   3.250  11.449 -0.1599  0.2508 -0.1416
 2614SOL    HW119304   0.497   3.340  11.435  1.6741 -0.2274  0.3545
 2614SOL    HW219305   0.434   3.263  11.537 -1.1005 -2.6830 -0.0837
 2615SOL     OW19306   0.464   0.446   3.026  0.3456 -0.2217 -0.8743
 2615SOL    HW119307   0.457   0.351   3.026  2.6214 -0.3787 -0.4897
 2615SOL    HW219308   0.440   0.467   2.935 -2.2679 -2.3981 -0.7062
 2616SOL     OW19309   1.008   3.925   7.267 -0.1738 -0.2813  0.4319
 2616SOL    HW119310   1.071   3.947   7.198 -1.1472 -1.7723 -0.9250
 2616SOL    HW219311   0.921   3.938   7.229  1.8592  1.5291 -3.6173
 2617SOL     OW19312   4.687   0.193  13.857  0.0982 -0.3496  0.2915
 2617SOL    HW119313   4.645   0.208  13.942  2.1039 -1.4564  1.4764
 2617SOL    HW219314   4.715   0.103  13.877  2.1609  0.4967  1.2618
 2618SOL     OW19315   3.907   4.549   6.124 -0.0165  0.1718  0.2740
 2618SOL    HW119316   3.936   4.458   6.125  0.2004  0.2523  1.3093
 2618SOL    HW219317   3.854   4.551   6.044 -1.6773 -0.8213  1.3612
 2619SOL     OW19318   3.936   4.387   4.151  0.1754  0.2004 -0.7288
 2619SOL    HW119319   4.005   4.335   4.192 -0.4636  0.3806  0.5471
 2619SOL    HW219320   3.971   4.428   4.071  1.6443  1.0044  0.3256
 2620SOL     OW19321   3.487   0.718   5.052 -0.1856 -0.3077  0.7137
 2620SOL    HW119322   3.539   0.660   4.996 -0.7694 -0.3756  0.2503
 2620SOL    HW219323   3.435   0.767   4.989  0.8126 -0.9319 -0.5921
 2621SOL     OW19324   0.118   3.778   7.395 -0.0633 -0.8518 -0.1661
 2621SOL    HW119325   0.045   3.756   7.453  0.0180  0.0676  0.2858
 2621SOL    HW219326   0.080   3.831   7.325 -1.5489 -1.6094  0.0660
 2622SOL     OW19327   4.678   0.383   5.503 -0.1141 -0.3256 -0.1498
 2622SOL    HW119328   4.719   0.435   5.573 -1.2035 -0.0372  0.2717
 2622SOL    HW219329   4.600   0.357   5.551  0.5533 -0.1391  1.0447
 2623SOL     OW19330   2.145   4.263   2.987  0.2404  0.5678 -0.6799
 2623SOL    HW119331   2.216   4.206   2.959 -0.1119  0.5290 -1.5192
 2623SOL    HW219332   2.176   4.347   2.952  0.0319  0.5465 -0.9206
 2624SOL     OW19333   1.021   2.393   3.840  0.0451  0.0746  0.1811
 2624SOL    HW119334   0.978   2.329   3.898 -1.7633  1.3858  0.2728
 2624SOL    HW219335   0.939   2.442   3.829  2.2273  3.9442  1.3095
 2625SOL     OW19336   3.943   2.858   8.915  0.5211  0.1631  0.0426
 2625SOL    HW119337   3.943   2.865   9.011  0.7747  1.9266 -0.0869
 2625SOL    HW219338   4.028   2.897   8.896  0.6216 -0.4865 -0.8041
 2626SOL     OW19339   4.087   2.195  15.959 -0.5122  0.7032  0.9736
 2626SOL    HW119340   4.133   2.114  15.933 -1.7980  0.5203 -0.7215
 2626SOL    HW219341   4.127   2.204  16.045  1.2534  1.7567  0.0594
 2627SOL     OW19342   3.376   2.592   6.951 -0.6977  0.1144  0.0457
 2627SOL    HW119343   3.298   2.539   6.965  0.1946 -1.6404 -1.6421
 2627SOL    HW219344   3.372   2.604   6.856  3.5520  0.5396 -0.0774
 2628SOL     OW19345   4.096   1.551   3.670  0.0394 -0.2979 -0.6540
 2628SOL    HW119346   4.118   1.460   3.689 -0.9360 -0.0614  1.6621
 2628SOL    HW219347   4.000   1.556   3.676  0.1360  0.8389 -0.1016
 2629SOL     OW19348   3.478   4.313   7.124 -0.1496 -0.0873  0.3661
 2629SOL    HW119349   3.415   4.326   7.053  0.2625  0.6643  0.1416
 2629SOL    HW219350   3.425   4.288   7.200  1.0498 -1.6177  0.7031
 2630SOL     OW19351   2.267   1.249   3.845 -0.2625 -0.4213 -0.0010
 2630SOL    HW119352   2.175   1.268   3.827  0.5895  3.9238  0.0634
 2630SOL    HW219353   2.269   1.273   3.938  2.6774  1.2215 -0.4851
 2631SOL     OW19354   1.306   4.149   2.142 -0.4670  0.1016 -0.2756
 2631SOL    HW119355   1.395   4.141   2.108  0.0547 -1.0742  1.3810
 2631SOL    HW219356   1.270   4.212   2.079 -0.3427 -0.8645 -1.3060
 2632SOL     OW19357   4.080   0.588  14.048 -0.1127 -0.0686 -0.4519
 2632SOL    HW119358   4.067   0.636  14.130 -0.1352  0.4737 -0.7729
 2632SOL    HW219359   3.989   0.591  14.016  0.0409 -2.1925 -1.0930
 2633SOL     OW19360   3.015   4.056   2.371  0.6339  0.2295 -0.0384
 2633SOL    HW119361   3.103   4.086   2.347  0.7365 -1.1418 -1.3762
 2633SOL    HW219362   3.028   3.961   2.374  1.4437  0.4138  2.0183
 2634SOL     OW19363   2.556   0.007   8.623  0.7430  0.6891  0.0376
 2634SOL    HW119364   2.527   0.037   8.537 -2.6055 -0.6892  0.6763
 2634SOL    HW219365   2.483   0.033   8.679  1.2455 -0.4147  1.2286
 2635SOL     OW19366   1.840   1.171  12.629  0.0602 -0.2704 -0.5633
 2635SOL    HW119367   1.935   1.165  12.639 -0.2916 -0.5747  2.5251
 2635SOL    HW219368   1.818   1.240  12.691  0.7646 -0.9409  0.4446
 2636SOL     OW19369   2.616   1.912   3.727 -0.0783 -0.1788  0.1005
 2636SOL    HW119370   2.679   1.868   3.783 -0.3300 -1.3684 -0.5596
 2636SOL    HW219371   2.569   1.838   3.690  3.1046 -1.2250 -1.7943
 2637SOL     OW19372   4.163   1.912   9.375 -0.3396  0.0765  0.5113
 2637SOL    HW119373   4.241   1.885   9.423  1.3450  1.2669 -1.5356
 2637SOL    HW219374   4.099   1.895   9.444  1.5801 -1.4159  1.9053
 2638SOL     OW19375   0.804   0.700   7.677  0.3888  0.4829 -0.5998
 2638SOL    HW119376   0.776   0.691   7.769 -0.2008 -0.2091 -0.8423
 2638SOL    HW219377   0.756   0.775   7.642 -0.8097 -1.2204 -2.5838
 2639SOL     OW19378   3.075   2.915  11.580 -0.2253 -0.6864  0.3759
 2639SOL    HW119379   3.008   2.923  11.647  2.0541  1.2159  2.4389
 2639SOL    HW219380   3.118   2.999  11.596  1.5260 -1.2699 -1.2096
 2640SOL     OW19381   3.395   0.676   7.776  0.0882  0.0767  0.4335
 2640SOL    HW119382   3.353   0.605   7.825 -0.5203  1.2886  1.6702
 2640SOL    HW219383   3.487   0.659   7.796  0.6297  1.1993 -1.0834
 2641SOL     OW19384   2.305   1.352  16.395  0.0171  0.0902 -0.0338
 2641SOL    HW119385   2.242   1.339  16.465 -1.1384 -0.7249 -1.2321
 2641SOL    HW219386   2.278   1.439  16.365 -1.6079  0.0858  1.4771
 2642SOL     OW19387   0.472   0.113   3.575 -0.4846  0.4145 -0.0984
 2642SOL    HW119388   0.391   0.092   3.622 -1.0345  0.4233 -1.0316
 2642SOL    HW219389   0.433   0.099   3.489 -0.0716 -0.3520 -0.1546
 2643SOL     OW19390   1.024   3.858   8.033 -0.5036  0.4913 -0.0266
 2643SOL    HW119391   1.003   3.900   7.949 -1.5112  2.8881  1.4202
 2643SOL    HW219392   1.017   3.928   8.098 -3.5531 -0.2909  0.5032
 2644SOL     OW19393   3.666   1.086   9.243  0.1655  0.1812 -0.5643
 2644SOL    HW119394   3.693   1.062   9.154 -1.6723  1.2076 -1.4083
 2644SOL    HW219395   3.750   1.112   9.282 -2.0938  3.6843  1.9481
 2645SOL     OW19396   0.419   2.235   5.059  0.4633  0.4114  0.3849
 2645SOL    HW119397   0.344   2.182   5.085 -1.4962  2.7813 -0.4107
 2645SOL    HW219398   0.468   2.170   5.010 -2.1235  0.4011 -2.1803
 2646SOL     OW19399   0.281   2.329   5.363  0.5864  0.3082 -0.6150
 2646SOL    HW119400   0.301   2.411   5.317  1.2995 -0.7276 -2.1558
 2646SOL    HW219401   0.305   2.261   5.300  0.9420  1.5479 -1.8194
 2647SOL     OW19402   2.277   0.061   1.919  0.1964  0.0135  0.0652
 2647SOL    HW119403   2.241   0.104   1.841  0.0420 -2.9949 -1.5404
 2647SOL    HW219404   2.196   0.053   1.969  0.0908  1.9852  0.1860
 2648SOL     OW19405   1.346   3.358   8.336 -0.6235 -0.0651 -0.1888
 2648SOL    HW119406   1.404   3.405   8.277 -0.9062  0.1855 -0.2707
 2648SOL    HW219407   1.398   3.351   8.416 -0.9348 -1.4941 -0.1082
 2649SOL     OW19408   3.127   2.070   3.528  0.0681 -0.2302 -0.5021
 2649SOL    HW119409   3.155   2.161   3.528  0.9902 -0.5120  0.1489
 2649SOL    HW219410   3.208   2.022   3.509  0.0316 -0.5814  0.2092
 2650SOL     OW19411   1.181   1.894   9.749  0.2250  0.0798 -0.0255
 2650SOL    HW119412   1.152   1.836   9.820  1.6818  0.5297  0.9278
 2650SOL    HW219413   1.275   1.914   9.748  0.4661 -0.9967  0.4009
 2651SOL     OW19414   0.193   4.616   9.199 -0.1243 -0.0147  0.2644
 2651SOL    HW119415   0.260   4.617   9.130  1.9857  1.2072  2.3021
 2651SOL    HW219416   0.249   4.610   9.277  0.3222  2.8127  0.1573
 2652SOL     OW19417   2.613   0.260   1.167 -0.1782  0.1856  0.2409
 2652SOL    HW119418   2.633   0.200   1.238  0.0049  0.5155  0.4698
 2652SOL    HW219419   2.694   0.247   1.117 -0.7657 -1.1092 -0.3498
 2653SOL     OW19420   4.102   2.149   5.561 -0.2453 -0.8875  0.6904
 2653SOL    HW119421   4.055   2.216   5.512 -0.6205 -0.8125  1.1446
 2653SOL    HW219422   4.124   2.084   5.495  2.2128 -0.2001  0.8504
 2654SOL     OW19423   1.864   0.853   3.045 -0.3136  0.1275  0.2858
 2654SOL    HW119424   1.813   0.800   3.106 -0.0878  0.4217  0.7319
 2654SOL    HW219425   1.859   0.941   3.084  2.6987 -0.5403  2.1364
 2655SOL     OW19426   4.165   4.201   0.825 -1.3920  0.2522  0.0423
 2655SOL    HW119427   4.117   4.258   0.885 -1.5604 -0.5850  0.7026
 2655SOL    HW219428   4.237   4.178   0.884 -0.7731  1.1129 -0.3739
 2656SOL     OW19429   3.176   1.322   9.392  0.0506  0.3787 -0.1096
 2656SOL    HW119430   3.119   1.246   9.406 -1.5133  1.7446  0.9871
 2656SOL    HW219431   3.262   1.291   9.419  0.4805  1.3679 -0.3328
 2657SOL     OW19432   3.265   3.528  17.633  0.2018  0.0983 -0.5819
 2657SOL    HW119433   3.283   3.448  17.683 -0.2906  0.2042 -0.2277
 2657SOL    HW219434   3.209   3.574  17.696 -0.2914  0.8171 -1.5667
 2658SOL     OW19435   3.953   1.554  16.699 -0.6009 -0.8292  0.7625
 2658SOL    HW119436   3.912   1.492  16.639  1.7023 -0.8038 -0.8373
 2658SOL    HW219437   3.926   1.633  16.652 -0.6583 -1.5569 -0.4238
 2659SOL     OW19438   0.519   3.374   5.621  0.4481 -0.0062  0.1328
 2659SOL    HW119439   0.609   3.386   5.590  0.4933  0.5477  0.4796
 2659SOL    HW219440   0.480   3.406   5.540 -1.0616 -0.7673  0.5614
 2660SOL     OW19441   4.146   2.261  10.043 -0.0697  0.4345 -0.1418
 2660SOL    HW119442   4.108   2.177  10.019 -1.3298  0.3033  2.3729
 2660SOL    HW219443   4.074   2.305  10.088  0.8283  0.5461  1.1606
 2661SOL     OW19444   4.345   4.100   7.939 -0.0689  0.3909 -0.0645
 2661SOL    HW119445   4.390   4.042   7.876 -1.5582 -1.3070  0.4262
 2661SOL    HW219446   4.299   4.156   7.876 -0.2315  0.4093  0.0696
 2662SOL     OW19447   1.498   2.830  10.496  0.5548  0.2813 -0.0586
 2662SOL    HW119448   1.522   2.921  10.479 -1.4754  0.9870  0.8715
 2662SOL    HW219449   1.583   2.787  10.481  0.1660 -0.6008  0.2934
 2663SOL     OW19450   1.660   0.537  12.938 -0.0087  0.2707  0.1370
 2663SOL    HW119451   1.596   0.548  13.008  0.0877 -2.2124  0.5811
 2663SOL    HW219452   1.708   0.467  12.981 -0.6961  0.4057  1.1188
 2664SOL     OW19453   3.482   1.890   1.148  0.5934  0.1811 -0.3927
 2664SOL    HW119454   3.509   1.979   1.128  0.6383 -0.1443 -1.7547
 2664SOL    HW219455   3.442   1.859   1.067  1.3860 -1.2890 -0.2353
 2665SOL     OW19456   3.503   1.022   6.415 -0.5970 -0.1581  0.2906
 2665SOL    HW119457   3.523   1.094   6.476  0.6399 -0.6282  0.4474
 2665SOL    HW219458   3.416   0.999   6.446 -1.9041 -0.3355 -3.4527
 2666SOL     OW19459   0.482   1.936   6.006  0.3273  0.2610 -0.5524
 2666SOL    HW119460   0.417   1.881   5.963  0.1167  0.4113 -0.4220
 2666SOL    HW219461   0.475   2.018   5.958 -0.7658  0.2982 -0.3333
 2667SOL     OW19462   2.898   2.308   1.962  0.2075 -0.3819  0.1820
 2667SOL    HW119463   2.983   2.290   1.922  0.6202  0.4106  0.6970
 2667SOL    HW219464   2.865   2.218   1.957 -1.0912  0.0354  1.2105
 2668SOL     OW19465   2.126   2.773   0.856  0.4405 -0.4233  0.3149
 2668SOL    HW119466   2.063   2.704   0.878 -1.8807  0.9700 -1.9697
 2668SOL    HW219467   2.194   2.746   0.918  1.0514  1.2910  0.3818
 2669SOL     OW19468   0.397   0.404   5.713 -0.2547 -0.7917  0.1105
 2669SOL    HW119469   0.379   0.312   5.734 -2.8412 -1.5103 -5.0726
 2669SOL    HW219470   0.490   0.407   5.692  0.0443  0.6601  1.7531
 2670SOL     OW19471   0.366   0.839   7.864  0.4445  0.0121 -0.2563
 2670SOL    HW119472   0.364   0.794   7.779  0.7702 -1.2296  0.4000
 2670SOL    HW219473   0.434   0.905   7.851  1.4914 -0.9242  0.4955
 2671SOL     OW19474   4.297   4.134  16.587 -0.4720 -0.5286 -0.1419
 2671SOL    HW119475   4.358   4.199  16.621 -0.3109  0.4818 -2.3314
 2671SOL    HW219476   4.307   4.067  16.654 -0.2036  0.3145  0.6586
 2672SOL     OW19477   1.644   0.218   1.465 -0.9031 -0.4041  0.2872
 2672SOL    HW119478   1.681   0.220   1.377  0.1403  1.6112  0.7781
 2672SOL    HW219479   1.604   0.305   1.464 -2.9674 -1.2959  3.3196
 2673SOL     OW19480   2.310   0.524   7.438 -0.4445  0.2926  0.2603
 2673SOL    HW119481   2.273   0.611   7.449  0.5453  0.7723 -0.2024
 2673SOL    HW219482   2.365   0.527   7.516  0.0208  1.0080 -0.1031
 2674SOL     OW19483   2.083   1.382   2.983 -0.3469  0.0514  0.0538
 2674SOL    HW119484   2.161   1.357   3.033  0.1840  1.4259 -0.0778
 2674SOL    HW219485   2.088   1.478   2.979 -0.4858  0.3091  5.9480
 2675SOL     OW19486   3.700   2.262  10.047 -0.2994 -0.2019  0.0918
 2675SOL    HW119487   3.711   2.356  10.029 -0.0208 -0.2416  0.0521
 2675SOL    HW219488   3.620   2.270  10.098  0.7417  1.7331  1.4855
 2676SOL     OW19489   3.337   3.553   8.105 -0.5692  0.6551  0.0784
 2676SOL    HW119490   3.350   3.590   8.192  1.0279 -0.5821  0.3632
 2676SOL    HW219491   3.319   3.462   8.128 -1.2249  1.0978  1.3592
 2677SOL     OW19492   1.741   1.955  11.670  0.1717  0.7941 -0.5686
 2677SOL    HW119493   1.802   1.933  11.599  0.1239 -0.9297 -0.0781
 2677SOL    HW219494   1.796   1.952  11.749 -0.2809 -0.8364 -0.3186
 2678SOL     OW19495   2.673   0.220   0.640  0.3080 -0.1019  0.2366
 2678SOL    HW119496   2.652   0.314   0.634 -0.6135 -0.1875  2.1905
 2678SOL    HW219497   2.746   0.217   0.702 -0.4639 -0.4133  1.1407
 2679SOL     OW19498   0.119   2.838   6.851  0.1266 -0.9976 -0.2734
 2679SOL    HW119499   0.132   2.809   6.760 -0.0054  1.3355 -1.0422
 2679SOL    HW219500   0.077   2.759   6.885  0.1895 -0.2902  1.4299
 2680SOL     OW19501   4.619   4.408   7.520  0.5723 -0.4127  0.2795
 2680SOL    HW119502   4.683   4.346   7.484 -0.5273 -0.7556 -1.0684
 2680SOL    HW219503   4.560   4.352   7.570 -0.7404 -0.2266 -1.0717
 2681SOL     OW19504   0.828   0.220   9.206 -0.2892 -0.2206  0.2623
 2681SOL    HW119505   0.743   0.183   9.230 -0.8137 -0.6381 -2.1779
 2681SOL    HW219506   0.875   0.226   9.289  1.4487  1.9574 -0.8563
 2682SOL     OW19507   0.303   2.802   1.823  0.2186  0.2064  0.1832
 2682SOL    HW119508   0.358   2.815   1.900  1.4404  1.4443 -0.8995
 2682SOL    HW219509   0.286   2.709   1.840  0.9419 -0.0296 -0.3677
 2683SOL     OW19510   4.408   3.102   7.390 -0.4228 -0.0213 -0.7216
 2683SOL    HW119511   4.465   3.124   7.463 -0.1175  0.5586 -1.1342
 2683SOL    HW219512   4.447   3.018   7.366 -1.1107 -0.0942 -1.6011
 2684SOL     OW19513   2.223   3.346   0.829 -0.2725 -0.2863 -0.3745
 2684SOL    HW119514   2.284   3.340   0.903 -1.8982  1.0782  1.0732
 2684SOL    HW219515   2.253   3.425   0.784 -0.0933 -0.7369 -1.0570
 2685SOL     OW19516   2.403   0.257  13.472  0.0954  0.0165  0.3024
 2685SOL    HW119517   2.383   0.190  13.406  0.9350  1.0245 -0.9766
 2685SOL    HW219518   2.462   0.309  13.418 -1.6620  0.6184 -1.0437
 2686SOL     OW19519   0.585   4.044  14.795  0.5699 -0.1644  0.3689
 2686SOL    HW119520   0.602   3.971  14.854 -2.8044 -0.1403  1.3576
 2686SOL    HW219521   0.644   4.108  14.834  0.8838 -1.3823  1.8806
 2687SOL     OW19522   2.673   0.774  15.454  0.3291  0.8098 -0.3997
 2687SOL    HW119523   2.621   0.710  15.503 -0.6938  1.1405 -1.0543
 2687SOL    HW219524   2.725   0.707  15.409  1.3739  1.5086 -0.2209
 2688SOL     OW19525   3.173   4.558   8.178 -0.0649 -0.3508  0.3289
 2688SOL    HW119526   3.108   4.608   8.227 -0.9656  1.2393 -2.5370
 2688SOL    HW219527   3.251   4.613   8.175  0.0161 -0.5795 -1.7389
 2689SOL     OW19528   4.057   2.928   0.272 -0.0058  0.0970  0.3398
 2689SOL    HW119529   4.056   2.993   0.201 -0.4449 -1.0716 -0.7304
 2689SOL    HW219530   4.019   2.854   0.224 -3.2342  2.3559 -0.5998
 2690SOL     OW19531   2.789   3.899  15.835 -0.1766 -0.0255  0.3282
 2690SOL    HW119532   2.821   3.860  15.754 -0.3396 -0.9886  0.7307
 2690SOL    HW219533   2.766   3.988  15.808  0.4674 -0.8158 -2.7732
 2691SOL     OW19534   2.730   0.175   6.685  0.0034 -0.4569  0.2286
 2691SOL    HW119535   2.739   0.140   6.596 -1.3355 -0.4970  0.1089
 2691SOL    HW219536   2.721   0.268   6.665 -0.1472 -0.0304  2.3763
 2692SOL     OW19537   3.792   1.906   1.834  0.2569  0.4341  0.2346
 2692SOL    HW119538   3.701   1.917   1.864  0.0444  0.4114 -0.4017
 2692SOL    HW219539   3.788   1.919   1.740  1.2461  0.9756  0.2662
 2693SOL     OW19540   2.576   3.214   2.680 -0.0714  0.5338  0.1439
 2693SOL    HW119541   2.644   3.153   2.650 -1.8313 -1.9482  1.2104
 2693SOL    HW219542   2.511   3.147   2.700  1.9313 -1.3565  0.3713
 2694SOL     OW19543   3.779   4.678   1.838  0.3731 -0.1100 -0.3521
 2694SOL    HW119544   3.783   4.660   1.932  1.4997 -1.2419 -0.6159
 2694SOL    HW219545   3.690   4.644   1.826 -0.0877  1.3063 -0.9564
 2695SOL     OW19546   4.393   1.722   2.465 -0.0198 -0.5434  0.4730
 2695SOL    HW119547   4.432   1.771   2.538 -0.1545 -1.5609  1.2187
 2695SOL    HW219548   4.305   1.713   2.503 -1.1263 -0.5707 -2.0884
 2696SOL     OW19549   0.447   0.897   2.917 -0.2085 -0.0429 -0.3673
 2696SOL    HW119550   0.503   0.823   2.940 -0.8676 -0.4795 -0.1716
 2696SOL    HW219551   0.458   0.905   2.823 -1.7076 -0.7129 -0.5931
 2697SOL     OW19552   0.865   4.128   4.696  0.1629  0.1025  0.2156
 2697SOL    HW119553   0.859   4.223   4.703  0.8085  0.0636  1.2169
 2697SOL    HW219554   0.894   4.117   4.605 -2.9722  0.0376 -0.7646
 2698SOL     OW19555   3.726   3.661   5.215 -0.4445  0.1836 -0.1414
 2698SOL    HW119556   3.666   3.719   5.262 -1.8886  0.2871 -2.0899
 2698SOL    HW219557   3.811   3.697   5.239  0.3272 -1.2532 -0.7117
 2699SOL     OW19558   1.478   2.078   3.724 -0.7683 -0.2387 -0.0365
 2699SOL    HW119559   1.478   2.012   3.655  1.6281 -0.8373  0.5126
 2699SOL    HW219560   1.531   2.144   3.679 -2.1195  0.9097  0.0419
 2700SOL     OW19561   3.645   1.600   5.318 -0.2760  0.0007 -0.4842
 2700SOL    HW119562   3.708   1.610   5.247  0.2581 -0.9333 -0.1369
 2700SOL    HW219563   3.613   1.690   5.324 -0.3502 -0.0658  0.1051
 2701SOL     OW19564   1.722   0.510  11.385 -0.3684 -0.7414  0.2046
 2701SOL    HW119565   1.678   0.586  11.349  1.0633 -0.6284 -1.3239
 2701SOL    HW219566   1.673   0.495  11.466  0.1445  0.9823  0.8095
 2702SOL     OW19567   3.413   0.182   9.117 -0.1425 -0.6251 -0.1880
 2702SOL    HW119568   3.337   0.148   9.164  0.0600 -0.4130  0.2904
 2702SOL    HW219569   3.485   0.133   9.156 -1.3832 -0.6621  2.0410
 2703SOL     OW19570   3.129   0.623   9.297 -0.0156 -0.2124  0.2988
 2703SOL    HW119571   3.045   0.650   9.332  0.0908 -0.1600  0.5137
 2703SOL    HW219572   3.094   0.556   9.238 -0.2071 -2.1220  2.5933
 2704SOL     OW19573   1.870   2.939  15.555 -0.1801  0.6541  0.0493
 2704SOL    HW119574   1.817   2.893  15.490 -0.0478  0.3773  0.1359
 2704SOL    HW219575   1.818   3.019  15.549 -0.7797  0.2934  0.3412
 2705SOL     OW19576   1.542   3.369  16.001  0.1412 -0.7107  0.3518
 2705SOL    HW119577   1.554   3.337  16.090 -1.8004 -1.0629  0.4862
 2705SOL    HW219578   1.490   3.449  16.007 -3.1985 -2.7697 -0.9958
 2706SOL     OW19579   3.283   1.128  15.061 -0.0940 -0.2212  0.2426
 2706SOL    HW119580   3.275   1.089  15.148 -0.3214 -1.2557 -0.2539
 2706SOL    HW219581   3.319   1.216  15.074  2.2459 -0.9939 -1.0147
 2707SOL     OW19582   1.227   1.807   4.023  0.3104  1.0817 -0.5539
 2707SOL    HW119583   1.305   1.850   3.989  1.2218 -1.3571 -1.5374
 2707SOL    HW219584   1.172   1.883   4.042  0.0378  0.5260  0.8450
 2708SOL     OW19585   3.473   1.936   5.019  0.1963  0.4659  0.2213
 2708SOL    HW119586   3.474   2.011   5.078 -2.6558  1.0008 -0.4168
 2708SOL    HW219587   3.561   1.928   4.982 -1.1763 -1.5590 -2.5959
 2709SOL     OW19588   2.752   2.596   8.420 -0.8090 -0.3954  0.0228
 2709SOL    HW119589   2.681   2.646   8.381 -0.8011  2.3006  3.5301
 2709SOL    HW219590   2.758   2.510   8.377 -0.6862 -0.7211  0.6878
 2710SOL     OW19591   1.915   1.024   9.331  0.0373  0.4047  0.0755
 2710SOL    HW119592   1.835   0.985   9.368 -0.9917  1.3356 -1.1978
 2710SOL    HW219593   1.881   1.113   9.340 -0.2347  0.5045 -1.9463
 2711SOL     OW19594   2.041   4.265   6.550  0.6215 -0.4751 -0.0139
 2711SOL    HW119595   2.082   4.346   6.581  1.8637 -2.4866  3.7441
 2711SOL    HW219596   2.118   4.209   6.538  0.1638 -1.2046  0.4197
 2712SOL     OW19597   3.621   4.534  13.461 -0.4109 -0.1038  0.0388
 2712SOL    HW119598   3.706   4.490  13.458  0.4630  1.5194  0.6327
 2712SOL    HW219599   3.568   4.469  13.508 -0.7482  1.2065  1.4873
 2713SOL     OW19600   3.136   2.451   5.146 -0.1974  0.4308 -0.2310
 2713SOL    HW119601   3.086   2.522   5.106 -0.0349  0.4421 -0.4155
 2713SOL    HW219602   3.102   2.460   5.235 -1.4625 -2.3115 -0.4249
 2714SOL     OW19603   0.733   3.444  12.459  0.6336 -0.3048  0.4246
 2714SOL    HW119604   0.759   3.402  12.377  1.5106  0.7214  0.1761
 2714SOL    HW219605   0.671   3.510  12.427  2.9172  1.2946 -0.6633
 2715SOL     OW19606   4.217   4.182   7.203  0.2371  0.3637  0.2989
 2715SOL    HW119607   4.189   4.271   7.183  0.7128  0.1862 -1.2152
 2715SOL    HW219608   4.293   4.193   7.145 -0.8914  2.1520 -0.8294
 2716SOL     OW19609   3.338   3.547   8.891  0.5855  0.3575  0.0736
 2716SOL    HW119610   3.332   3.452   8.891  0.2136  0.3810  0.1163
 2716SOL    HW219611   3.368   3.561   8.981 -3.1769  0.7291  1.2843
 2717SOL     OW19612   3.917   1.785  13.046  0.2834  0.3194 -0.3452
 2717SOL    HW119613   3.920   1.704  12.996 -1.0602 -0.8007  1.4166
 2717SOL    HW219614   3.827   1.797  13.078  0.7706 -1.0508  1.5281
 2718SOL     OW19615   0.348   3.875  10.494  0.2931 -0.9974  0.3010
 2718SOL    HW119616   0.288   3.885  10.567  1.4312  0.1372  1.0776
 2718SOL    HW219617   0.293   3.914  10.426  0.3064 -1.3025  0.1162
 2719SOL     OW19618   0.173   1.882  12.609 -0.2193  0.1829  0.5489
 2719SOL    HW119619   0.172   1.846  12.698  0.2776  0.4133  0.6525
 2719SOL    HW219620   0.212   1.810  12.560 -0.3522  0.9120 -0.6304
 2720SOL     OW19621   1.824   3.011   4.564 -0.7326  0.0218  0.2170
 2720SOL    HW119622   1.895   2.995   4.501 -1.4303 -0.4104 -0.4686
 2720SOL    HW219623   1.765   2.969   4.500 -0.3356  1.3060 -1.0020
 2721SOL     OW19624   2.169   4.043   6.286 -0.0117 -0.0016 -0.4169
 2721SOL    HW119625   2.208   4.090   6.360  2.3390 -0.4651 -1.3624
 2721SOL    HW219626   2.175   3.952   6.314  0.1221 -1.2954 -4.5436
 2722SOL     OW19627   1.869   3.843   9.221 -0.1718 -0.1648  0.0490
 2722SOL    HW119628   1.858   3.758   9.265  0.5322 -0.4968 -0.4057
 2722SOL    HW219629   1.918   3.814   9.144  0.9837 -2.9465  1.8299
 2723SOL     OW19630   0.716   3.669   5.715 -0.4077  0.0368  0.4082
 2723SOL    HW119631   0.781   3.724   5.759  1.1978 -0.0634 -1.8116
 2723SOL    HW219632   0.702   3.593   5.771  1.2423  0.5861  1.5627
 2724SOL     OW19633   3.120   4.396   4.913 -0.5798 -0.0234  0.1378
 2724SOL    HW119634   3.029   4.367   4.911 -0.3466 -0.9356  2.3072
 2724SOL    HW219635   3.147   4.374   5.002 -1.0344 -1.0879  0.0146
 2725SOL     OW19636   2.402   3.333   4.695  0.2440 -0.1579 -0.8813
 2725SOL    HW119637   2.434   3.355   4.607 -1.3693  0.2670 -1.3667
 2725SOL    HW219638   2.450   3.251   4.707  1.9631  0.9686 -0.1671
 2726SOL     OW19639   3.849   1.554  15.780  0.2337  0.4103  0.1490
 2726SOL    HW119640   3.943   1.538  15.787  0.0497  0.1572  2.0760
 2726SOL    HW219641   3.803   1.479  15.820  0.9794  0.3932  0.9702
 2727SOL     OW19642   1.617   0.364   2.135 -0.2842 -0.3773  0.2119
 2727SOL    HW119643   1.671   0.441   2.152  0.1695 -0.6753  0.1180
 2727SOL    HW219644   1.584   0.340   2.221  3.4599 -2.6570  1.0233
 2728SOL     OW19645   2.313   1.528   6.989 -0.0412  0.0028 -0.3321
 2728SOL    HW119646   2.313   1.435   6.963  1.5425  0.0757 -0.5523
 2728SOL    HW219647   2.218   1.531   7.001 -0.1663 -2.0510 -0.7142
 2729SOL     OW19648   3.867   2.192   4.021  0.1793 -0.0936  0.2965
 2729SOL    HW119649   3.838   2.101   4.024 -0.2193  0.0337  0.3190
 2729SOL    HW219650   3.878   2.211   4.114 -1.3875  1.5208  0.1586
 2730SOL     OW19651   2.945   2.203   3.133  0.1478 -0.0629 -0.1409
 2730SOL    HW119652   3.035   2.193   3.163 -0.1459 -0.1336  0.7020
 2730SOL    HW219653   2.944   2.296   3.110  3.0706 -0.0055  0.0445
 2731SOL     OW19654   1.999   0.441   2.809  0.3495 -0.0386  0.2230
 2731SOL    HW119655   1.955   0.358   2.827 -1.5791  1.0570  0.5401
 2731SOL    HW219656   1.924   0.500   2.810  0.3685 -0.0524  3.0858
 2732SOL     OW19657   4.341   3.013   1.599 -0.1100  0.0760  0.2710
 2732SOL    HW119658   4.291   2.944   1.642  1.1498 -2.0395 -1.7019
 2732SOL    HW219659   4.313   3.087   1.654  1.7312  1.9525 -1.3297
 2733SOL     OW19660   0.782   2.731   9.172  0.2316  0.1999 -0.4567
 2733SOL    HW119661   0.758   2.709   9.262 -1.5039 -1.0951 -1.2168
 2733SOL    HW219662   0.849   2.667   9.147  0.6184 -0.4127  2.1646
 2734SOL     OW19663   4.336   4.656   6.270 -0.0105  0.5439  0.0770
 2734SOL    HW119664   4.281   4.657   6.348  0.5551 -1.0131  0.4767
 2734SOL    HW219665   4.284   4.603   6.210  1.1362  0.7358 -1.0771
 2735SOL     OW19666   4.330   4.152   5.186 -0.2311 -0.3177  0.1026
 2735SOL    HW119667   4.371   4.082   5.136 -0.1902 -0.4304  0.2952
 2735SOL    HW219668   4.271   4.103   5.244 -0.8518 -0.0937 -0.3314
 2736SOL     OW19669   2.216   2.046  14.034 -0.1398  0.7318 -0.1025
 2736SOL    HW119670   2.233   2.008  13.948 -1.7871 -0.4850  0.0881
 2736SOL    HW219671   2.270   2.124  14.028 -0.3590  0.8954  0.0276
 2737SOL     OW19672   2.954   0.284   2.427 -0.1720  0.4604 -0.2980
 2737SOL    HW119673   2.897   0.361   2.421 -0.9487  0.0074  1.4117
 2737SOL    HW219674   2.958   0.250   2.338 -1.7747 -1.8330  0.4791
 2738SOL     OW19675   0.543   3.241   7.760 -0.1333  0.4793 -0.5449
 2738SOL    HW119676   0.504   3.166   7.716 -2.0122  1.3056 -0.2903
 2738SOL    HW219677   0.580   3.201   7.839  1.6233 -1.2427 -2.2570
 2739SOL     OW19678   3.254   3.308   4.170 -0.0751  0.7487 -0.5795
 2739SOL    HW119679   3.187   3.377   4.170 -0.8083  0.0309 -1.1240
 2739SOL    HW219680   3.236   3.271   4.083  0.5341 -0.8758 -0.0038
 2740SOL     OW19681   3.837   1.963   8.244 -0.6356 -0.4420 -0.4219
 2740SOL    HW119682   3.823   2.052   8.276  0.3114 -0.4166 -0.0767
 2740SOL    HW219683   3.751   1.921   8.239 -0.3698 -1.1424  0.8029
 2741SOL     OW19684   0.806   1.676   8.584  0.1592 -0.1357  0.1342
 2741SOL    HW119685   0.721   1.683   8.540  0.3831 -3.5382 -0.8336
 2741SOL    HW219686   0.786   1.728   8.662 -0.1840  0.5985 -0.4401
 2742SOL     OW19687   1.245   3.669   2.429 -0.1779  0.6413  0.2028
 2742SOL    HW119688   1.215   3.585   2.397  0.4014  0.5680 -0.1614
 2742SOL    HW219689   1.161   3.714   2.426 -2.2650 -3.3826 -0.8113
 2743SOL     OW19690   2.233   0.878  12.219 -0.3707  0.2200  0.4419
 2743SOL    HW119691   2.152   0.889  12.169 -1.4286 -0.9717  1.8992
 2743SOL    HW219692   2.251   0.784  12.209 -0.3888  0.3944 -1.2934
 2744SOL     OW19693   0.105   1.704   2.981  0.1984 -0.6947  0.1488
 2744SOL    HW119694   0.165   1.660   2.921  1.2130  0.5881  0.2245
 2744SOL    HW219695   0.174   1.721   3.045  1.2889  0.9031 -1.4410
 2745SOL     OW19696   3.798   1.247  15.602  0.0332 -0.0193 -0.1404
 2745SOL    HW119697   3.736   1.186  15.642  1.7489 -0.6545  1.5513
 2745SOL    HW219698   3.880   1.232  15.648 -0.1621  0.2843  0.3047
 2746SOL     OW19699   2.432   2.748   5.345  0.0256 -0.2934 -0.3677
 2746SOL    HW119700   2.519   2.778   5.319 -0.1451  1.7572  1.4246
 2746SOL    HW219701   2.453   2.660   5.378 -0.4695 -0.8245 -1.4982
 2747SOL     OW19702   4.188   2.291   7.072  0.1098  0.6562  0.9966
 2747SOL    HW119703   4.134   2.241   7.010  0.4797 -0.8916  1.9097
 2747SOL    HW219704   4.199   2.370   7.020  0.8173  0.1703  0.4060
 2748SOL     OW19705   3.045   1.743  12.506 -0.2860 -0.7622  0.1829
 2748SOL    HW119706   3.088   1.669  12.465  1.4556 -0.0408  0.7230
 2748SOL    HW219707   3.085   1.732  12.592  0.3651 -0.7249 -0.1128
 2749SOL     OW19708   1.103   3.090  13.750  0.0287 -0.2190 -0.5696
 2749SOL    HW119709   1.161   3.017  13.771  1.4325  0.9385 -0.4598
 2749SOL    HW219710   1.104   3.136  13.834 -0.2406 -1.3792  0.0704
 2750SOL     OW19711   1.007   2.851  10.669  0.5661 -0.2615 -0.0415
 2750SOL    HW119712   1.094   2.890  10.670 -0.4637  2.0084 -0.5448
 2750SOL    HW219713   0.975   2.866  10.758 -3.0032 -1.1987 -1.1688
 2751SOL     OW19714   1.785   3.547   7.637  0.0835  0.3541 -0.2639
 2751SOL    HW119715   1.759   3.477   7.576  3.3301 -0.8057 -0.3077
 2751SOL    HW219716   1.871   3.579   7.610  1.1424 -0.5628  1.9703
 2752SOL     OW19717   0.999   3.532  17.341  0.0339 -0.0493 -0.2572
 2752SOL    HW119718   1.000   3.537  17.245 -1.3423 -1.8683 -0.3622
 2752SOL    HW219719   0.999   3.439  17.365  1.0348 -0.3394 -1.3520
 2753SOL     OW19720   2.628   1.032  13.164 -0.4300 -0.0477 -0.0018
 2753SOL    HW119721   2.597   0.941  13.168 -0.6626  0.0875  1.3246
 2753SOL    HW219722   2.649   1.047  13.072 -3.4939 -1.4920 -0.9354
 2754SOL     OW19723   3.804   2.860   1.285  0.6210  0.6762  0.1105
 2754SOL    HW119724   3.766   2.935   1.330 -0.5980  0.5975 -0.7648
 2754SOL    HW219725   3.728   2.839   1.230  0.5372  2.0133 -0.2799
 2755SOL     OW19726   0.603   1.476   4.205 -0.4529 -0.4513  0.4260
 2755SOL    HW119727   0.576   1.539   4.272 -0.3497 -0.4333  0.4495
 2755SOL    HW219728   0.680   1.522   4.171 -0.3428 -1.5176 -0.7933
 2756SOL     OW19729   2.944   0.308   3.974  0.1406 -0.1922 -0.0626
 2756SOL    HW119730   2.855   0.324   3.944  0.8738  2.1833 -1.0722
 2756SOL    HW219731   2.941   0.273   4.063  1.4036  0.9924  0.4412
 2757SOL     OW19732   0.651   1.850   8.368 -0.4669 -0.0214 -0.2840
 2757SOL    HW119733   0.745   1.865   8.362 -0.3509 -0.7198 -0.2334
 2757SOL    HW219734   0.631   1.899   8.448  1.3009 -2.0453  1.3701
 2758SOL     OW19735   2.986   3.763  16.504 -0.5470  0.3616  0.4702
 2758SOL    HW119736   2.930   3.841  16.507  2.4819  2.3523  4.6468
 2758SOL    HW219737   3.041   3.770  16.582  1.6180  1.6825 -1.1729
 2759SOL     OW19738   2.717   1.440   5.740  0.1922  0.2056  0.1243
 2759SOL    HW119739   2.640   1.430   5.797  0.2852  2.4369  0.6383
 2759SOL    HW219740   2.777   1.373   5.774 -0.9712 -0.4941  0.8047
 2760SOL     OW19741   3.234   4.581   5.801  0.2144  0.7367 -0.0895
 2760SOL    HW119742   3.210   4.662   5.755 -1.6194 -0.3781 -1.0781
 2760SOL    HW219743   3.154   4.530   5.787  0.5484  0.1530  0.1247
 2761SOL     OW19744   3.390   1.881  15.917  0.1024  0.4543 -0.2898
 2761SOL    HW119745   3.348   1.802  15.952 -0.5455  1.4772  1.2243
 2761SOL    HW219746   3.315   1.918  15.870 -1.6627 -0.8443  1.4589
 2762SOL     OW19747   4.296   4.261   8.783 -0.4853 -0.4087 -0.1658
 2762SOL    HW119748   4.264   4.339   8.828  0.7269  1.3068 -2.2525
 2762SOL    HW219749   4.297   4.294   8.693  0.9612  1.8342  0.6924
 2763SOL     OW19750   3.712   0.409  11.925 -0.0671  0.2234  0.7738
 2763SOL    HW119751   3.757   0.388  12.007  1.4857 -0.3929 -0.2403
 2763SOL    HW219752   3.621   0.418  11.956 -0.3158 -0.6369  0.2886
 2764SOL     OW19753   1.898   3.499   6.702  0.5185 -0.1127  0.5870
 2764SOL    HW119754   1.849   3.574   6.736 -0.6539 -0.3989 -0.4645
 2764SOL    HW219755   1.939   3.470   6.783 -1.6960 -1.9725  1.0385
 2765SOL     OW19756   2.251   1.582  15.405 -0.1654 -0.1498  0.2633
 2765SOL    HW119757   2.320   1.568  15.470  1.5202  0.1996 -1.4671
 2765SOL    HW219758   2.175   1.601  15.460  0.5131  0.5367  0.9644
 2766SOL     OW19759   3.862   4.664  15.122 -0.2011 -0.4392  0.5280
 2766SOL    HW119760   3.950   4.628  15.116 -0.3289 -1.0049  2.2598
 2766SOL    HW219761   3.820   4.604  15.184 -1.0899  0.1244  0.4696
 2767SOL     OW19762   2.913   1.185   5.138  0.5154 -0.2762 -0.3247
 2767SOL    HW119763   2.852   1.255   5.117 -1.0837 -1.7487 -0.5207
 2767SOL    HW219764   2.976   1.242   5.184 -0.7856 -0.2496  1.4185
 2768SOL     OW19765   3.881   0.730   7.804 -0.2639  0.3474  0.5390
 2768SOL    HW119766   3.849   0.796   7.865  1.1688  3.0965 -1.6578
 2768SOL    HW219767   3.840   0.654   7.845  2.9412 -0.1612  2.8044
 2769SOL     OW19768   4.017   0.942  14.003  0.6843  0.1969  0.2495
 2769SOL    HW119769   4.047   0.989  14.081 -0.6009 -0.0261  0.8676
 2769SOL    HW219770   3.958   0.877  14.040  0.0457  0.8038  0.2939
 2770SOL     OW19771   1.063   3.713  12.497 -0.3622 -0.2375 -0.0841
 2770SOL    HW119772   1.153   3.727  12.467 -0.1407  2.2489  1.7271
 2770SOL    HW219773   1.059   3.778  12.568 -0.4658 -0.1235 -0.1939
 2771SOL     OW19774   0.910   2.537   5.314  0.3493  0.1904 -0.1377
 2771SOL    HW119775   0.945   2.614   5.357  1.0392 -2.3518  3.8065
 2771SOL    HW219776   0.913   2.561   5.221 -0.9129  0.7843 -0.0317
 2772SOL     OW19777   3.896   4.120  13.358  0.2444 -0.2124  0.6578
 2772SOL    HW119778   3.968   4.121  13.295  1.1741  0.2007  1.7331
 2772SOL    HW219779   3.907   4.202  13.406 -0.6455  1.6636 -2.3075
 2773SOL     OW19780   3.442   1.587   7.783 -0.1667  0.7918 -0.0937
 2773SOL    HW119781   3.401   1.510   7.822  0.7236  0.3090 -0.1224
 2773SOL    HW219782   3.531   1.568   7.755 -0.2750  1.6421 -1.0625
 2774SOL     OW19783   1.938   2.183   1.847  0.2797  0.7222  0.5920
 2774SOL    HW119784   1.928   2.117   1.915 -0.1709  1.1536  0.9429
 2774SOL    HW219785   1.846   2.200   1.831  0.1131 -0.8796 -0.1005
 2775SOL     OW19786   1.704   0.305   7.015 -0.0660 -0.2007 -0.2104
 2775SOL    HW119787   1.720   0.259   6.932 -1.2206  0.5249 -0.8391
 2775SOL    HW219788   1.745   0.239   7.070 -2.8676 -0.1560  1.8952
 2776SOL     OW19789   1.962   2.059  14.142 -0.2920  0.1799 -0.4206
 2776SOL    HW119790   2.034   2.080  14.083 -2.1427  2.1154 -1.9745
 2776SOL    HW219791   1.891   2.018  14.091 -0.3218 -2.8826  2.0780
 2777SOL     OW19792   3.124   4.669   7.636  0.0291 -0.2366  0.0641
 2777SOL    HW119793   3.215   4.688   7.655 -0.6453  1.8609  1.1499
 2777SOL    HW219794   3.093   0.013   7.576 -1.0264 -0.7764 -0.0167
 2778SOL     OW19795   3.062   0.620   6.527  0.0939  0.1052 -0.2615
 2778SOL    HW119796   3.038   0.688   6.464  3.2770  0.1338 -1.4207
 2778SOL    HW219797   3.105   0.672   6.595  2.9609 -1.1678 -1.1169
 2779SOL     OW19798   3.785   2.324   3.131 -0.5251 -0.2492 -0.2009
 2779SOL    HW119799   3.835   2.331   3.049 -0.4851 -1.3673 -0.2801
 2779SOL    HW219800   3.693   2.317   3.105 -0.0443  0.3270 -2.0624
 2780SOL     OW19801   1.571   2.232  10.765  0.2818  0.0650  0.2142
 2780SOL    HW119802   1.663   2.248  10.740  0.0120 -3.1318 -2.8552
 2780SOL    HW219803   1.558   2.153  10.713  1.4841  0.4686 -0.7076
 2781SOL     OW19804   0.304   0.461   6.604  0.3775 -0.2272  0.3082
 2781SOL    HW119805   0.251   0.421   6.673  0.4229 -1.8976 -0.6159
 2781SOL    HW219806   0.371   0.393   6.598  0.0939 -0.5278  0.5045
 2782SOL     OW19807   1.698   1.168   6.569 -0.3498  0.1190  0.3686
 2782SOL    HW119808   1.629   1.202   6.627  0.8625  0.4990  1.6004
 2782SOL    HW219809   1.675   1.076   6.580  0.5145 -0.1220  0.1280
 2783SOL     OW19810   2.830   4.223  17.046  0.4043 -0.5523  0.0117
 2783SOL    HW119811   2.877   4.266  17.118 -1.5954  1.2238  0.2394
 2783SOL    HW219812   2.750   4.191  17.087  0.5964 -0.3217  0.5747
 2784SOL     OW19813   2.566   1.956  14.915 -0.0465  0.4146  0.5138
 2784SOL    HW119814   2.557   1.963  14.820 -2.3097 -0.0203  0.6907
 2784SOL    HW219815   2.555   1.861  14.928 -0.2310  0.7154  2.5588
 2785SOL     OW19816   0.378   2.240  15.867  0.1463  0.3438  0.4608
 2785SOL    HW119817   0.441   2.296  15.822  0.2970 -1.9077 -2.1600
 2785SOL    HW219818   0.430   2.160  15.865  0.2098  0.3663  1.6009
 2786SOL     OW19819   4.005   1.016   7.096 -0.7879  0.0782 -0.5310
 2786SOL    HW119820   3.916   1.033   7.065 -0.3248 -0.0090 -1.8961
 2786SOL    HW219821   3.989   1.004   7.190  1.1322  1.8556  0.0143
 2787SOL     OW19822   3.502   2.453   4.126 -0.5079 -0.0095  0.6273
 2787SOL    HW119823   3.447   2.381   4.156  0.2816  0.1148  2.3752
 2787SOL    HW219824   3.516   2.497   4.210  0.2455 -1.5871  1.3091
 2788SOL     OW19825   0.097   1.541   7.541 -0.5228  0.0093  0.1628
 2788SOL    HW119826   0.137   1.562   7.625  0.9534  0.1675 -0.5766
 2788SOL    HW219827   0.125   1.617   7.490 -1.3036 -0.2984 -0.7250
 2789SOL     OW19828   0.962   1.713  12.739  0.1296  1.3152  0.2394
 2789SOL    HW119829   0.908   1.643  12.703 -0.7064  1.3249  1.4823
 2789SOL    HW219830   0.996   1.675  12.820  0.6138 -0.0033 -0.5764
 2790SOL     OW19831   2.826   3.753   8.411  0.5519 -0.3008 -0.3896
 2790SOL    HW119832   2.868   3.701   8.342  1.0155 -2.2051  1.3601
 2790SOL    HW219833   2.787   3.824   8.360  2.2138  2.6976  2.5036
 2791SOL     OW19834   2.249   1.935   9.443 -0.4508  0.1202 -0.0327
 2791SOL    HW119835   2.177   1.873   9.428  0.4180 -1.1167  0.8945
 2791SOL    HW219836   2.212   2.015   9.406 -0.5114 -0.1411 -0.5484
 2792SOL     OW19837   1.254   3.876   3.661  0.3528  0.2294  0.5342
 2792SOL    HW119838   1.336   3.854   3.616 -0.1311  0.9894 -0.7194
 2792SOL    HW219839   1.258   3.804   3.725 -0.2790 -0.1601  0.1369
 2793SOL     OW19840   2.273   4.176   7.909  0.8995  0.4101  0.0304
 2793SOL    HW119841   2.202   4.173   7.973  0.2977  0.2570 -0.6461
 2793SOL    HW219842   2.251   4.256   7.862  0.7662  0.2016 -0.2663
 2794SOL     OW19843   3.722   4.433   3.917 -0.8190  0.2880  0.1142
 2794SOL    HW119844   3.780   4.466   3.848  1.0093  0.4088  1.7113
 2794SOL    HW219845   3.635   4.450   3.880 -0.9826 -0.8838 -0.0333
 2795SOL     OW19846   4.283   0.884   7.411 -0.0760  0.0168 -0.5684
 2795SOL    HW119847   4.289   0.950   7.480 -0.8502 -0.9201  0.3886
 2795SOL    HW219848   4.192   0.855   7.411 -0.0557 -0.0226  0.8351
 2796SOL     OW19849   0.675   1.811   8.785  0.3584 -0.2226 -0.5311
 2796SOL    HW119850   0.590   1.854   8.780  1.1132  1.1377 -1.4146
 2796SOL    HW219851   0.715   1.865   8.853  0.2346  0.9296 -1.3770
 2797SOL     OW19852   3.288   2.177   2.936 -0.1051  0.0701  0.4062
 2797SOL    HW119853   3.262   2.179   3.028 -2.3513 -2.2665 -0.1673
 2797SOL    HW219854   3.221   2.233   2.897  1.9515  1.5587 -0.9826
 2798SOL     OW19855   0.949   3.722  14.290 -0.1500 -0.3805 -0.3132
 2798SOL    HW119856   0.884   3.782  14.252  1.6813  1.6667 -0.2424
 2798SOL    HW219857   0.959   3.662  14.217 -1.7302 -0.6495 -0.3155
 2799SOL     OW19858   2.693   3.178   8.698  0.1034 -0.1701  0.2203
 2799SOL    HW119859   2.679   3.086   8.721 -2.0209 -0.5078 -2.4567
 2799SOL    HW219860   2.717   3.172   8.606 -1.9763  2.3718 -0.4951
 2800SOL     OW19861   3.166   0.721  11.401  1.2174  0.1320  0.5672
 2800SOL    HW119862   3.193   0.629  11.401  1.5803  0.2407  0.2694
 2800SOL    HW219863   3.172   0.731  11.495  0.5953  1.8097  0.4270
 2801SOL     OW19864   4.553   0.067  16.143 -0.6248 -0.0637  0.0102
 2801SOL    HW119865   4.591   0.154  16.131  0.9639 -0.3669  2.7979
 2801SOL    HW219866   4.498   0.080  16.066  1.3514 -1.6148 -1.6619
 2802SOL     OW19867   1.065   1.048   2.569 -0.2749  0.1943 -0.1194
 2802SOL    HW119868   1.004   1.049   2.642 -0.9669 -0.9408 -0.6807
 2802SOL    HW219869   1.146   1.055   2.619  0.6744  2.7108 -2.0022
 2803SOL     OW19870   4.490   1.915   2.668  0.2837 -0.3749 -0.2980
 2803SOL    HW119871   4.545   1.843   2.698  1.8541  0.5908 -0.8903
 2803SOL    HW219872   4.523   1.992   2.713  2.8174 -1.0501 -1.0193
 2804SOL     OW19873   4.127   2.427   4.264  0.4653  0.5898  0.6650
 2804SOL    HW119874   4.056   2.369   4.291  1.5225  0.6556  3.5925
 2804SOL    HW219875   4.201   2.367   4.271 -0.1129 -0.3809 -1.5354
 2805SOL     OW19876   1.705   2.947   8.425 -0.1171 -0.0814 -0.3544
 2805SOL    HW119877   1.759   2.907   8.493 -1.5094 -1.1128  0.1308
 2805SOL    HW219878   1.622   2.907   8.450  0.1735 -0.6626 -0.3015
 2806SOL     OW19879   3.963   1.335   4.870  0.4096 -0.1445 -0.5398
 2806SOL    HW119880   3.937   1.244   4.854 -3.1503  1.0189 -1.3187
 2806SOL    HW219881   3.952   1.337   4.965 -0.9677  0.3373 -0.7080
 2807SOL     OW19882   0.004   2.338   9.555  1.0517  0.0148 -0.2954
 2807SOL    HW119883   4.722   2.339   9.460 -2.1102 -0.1518 -0.0665
 2807SOL    HW219884   0.086   2.289   9.566 -0.1301 -1.8392  0.2573
 2808SOL     OW19885   3.274   0.730   1.649  0.0053  0.3062 -0.2815
 2808SOL    HW119886   3.197   0.768   1.690 -0.7889  0.0963 -1.5612
 2808SOL    HW219887   3.332   0.718   1.724 -0.5840 -0.4807  0.0397
 2809SOL     OW19888   2.116   2.465  11.170  0.1215  0.5925 -0.3664
 2809SOL    HW119889   2.095   2.558  11.177 -0.6342  0.5583 -2.1432
 2809SOL    HW219890   2.193   2.455  11.227 -0.7763  3.1719  1.2998
 2810SOL     OW19891   3.815   3.203   7.870  0.4600  0.1622 -0.2574
 2810SOL    HW119892   3.771   3.276   7.914  0.5443 -0.2842  0.5572
 2810SOL    HW219893   3.824   3.241   7.782  1.3641  0.2117 -0.1414
 2811SOL     OW19894   1.428   3.598   0.903 -0.0468  0.0052  0.3184
 2811SOL    HW119895   1.411   3.547   0.824 -1.3611  0.5348  0.2483
 2811SOL    HW219896   1.386   3.680   0.877 -1.7040 -0.8747  0.1758
 2812SOL     OW19897   0.429   3.450   1.172  0.2097  0.1721 -0.2389
 2812SOL    HW119898   0.399   3.401   1.249  2.8720  0.7025  1.1418
 2812SOL    HW219899   0.516   3.413   1.156  0.4521  0.2052  0.9996
 2813SOL     OW19900   1.069   3.472   3.203  0.7371 -0.4628 -0.6496
 2813SOL    HW119901   1.146   3.520   3.174  0.5118  1.3646  1.7530
 2813SOL    HW219902   1.104   3.385   3.184 -0.0894 -1.2675  1.5317
 2814SOL     OW19903   4.408   2.700  11.074  0.2512  0.3981 -0.6233
 2814SOL    HW119904   4.433   2.613  11.043  0.7716  0.0590  0.7423
 2814SOL    HW219905   4.318   2.679  11.099  0.2809  0.4615 -0.4648
 2815SOL     OW19906   2.438   4.675   8.906  0.0000 -0.1258  0.8856
 2815SOL    HW119907   2.517   4.716   8.941  1.5737 -1.1879 -1.4284
 2815SOL    HW219908   2.385   0.028   8.890 -0.3529 -0.7955 -1.1154
 2816SOL     OW19909   2.861   2.502   5.686 -0.3333 -0.1230  0.2458
 2816SOL    HW119910   2.858   2.407   5.687 -3.1577 -0.0412 -2.3450
 2816SOL    HW219911   2.920   2.512   5.761  0.4139 -2.9090  0.0273
 2817SOL     OW19912   1.385   3.261   1.116  0.2270  0.1935 -0.5436
 2817SOL    HW119913   1.460   3.320   1.115  0.7616 -0.5219 -2.5593
 2817SOL    HW219914   1.437   3.180   1.121 -1.8811 -0.9836  2.5032
 2818SOL     OW19915   1.133   0.038  10.850  0.5929  0.1046 -0.1490
 2818SOL    HW119916   1.191   4.688  10.830 -0.2821 -1.1851  2.0500
 2818SOL    HW219917   1.197   0.098  10.887 -1.3403  2.0489  0.0401
 2819SOL     OW19918   1.805   0.199  12.689 -0.3139  0.2930 -0.3204
 2819SOL    HW119919   1.733   0.251  12.726 -0.4702 -1.4953  1.8746
 2819SOL    HW219920   1.786   0.116  12.733 -1.8088  0.2803 -0.9774
 2820SOL     OW19921   2.439   1.822   0.773 -0.2739  0.5596 -0.1801
 2820SOL    HW119922   2.411   1.779   0.693 -1.4107  1.7095 -0.3885
 2820SOL    HW219923   2.372   1.888   0.787 -2.5999 -1.1398 -3.3593
 2821SOL     OW19924   2.540   2.546  11.620 -0.7034 -0.0596 -0.3071
 2821SOL    HW119925   2.534   2.608  11.547 -0.3420  0.5664  0.1962
 2821SOL    HW219926   2.474   2.483  11.589  0.4763 -1.7053  0.5322
 2822SOL     OW19927   0.159   0.939   4.207  0.1621  0.1615 -0.0770
 2822SOL    HW119928   0.238   0.892   4.180  0.0270 -0.6877  1.0438
 2822SOL    HW219929   0.176   0.973   4.295  1.1141  1.0877 -0.6095
 2823SOL     OW19930   0.389   1.979  16.096 -0.2534 -0.3253  0.7739
 2823SOL    HW119931   0.308   1.929  16.107  0.1220 -1.2054 -0.3872
 2823SOL    HW219932   0.370   2.055  16.151 -0.2685  0.0946  0.1851
 2824SOL     OW19933   1.594   0.748   1.883  0.1188  0.2296  0.0882
 2824SOL    HW119934   1.655   0.818   1.902 -0.0050  0.5058 -0.5388
 2824SOL    HW219935   1.518   0.774   1.935 -0.1344  1.4015 -0.8663
 2825SOL     OW19936   1.306   3.346  10.339 -0.2953 -0.2346 -0.4972
 2825SOL    HW119937   1.324   3.439  10.353  0.0653 -0.6765  1.9972
 2825SOL    HW219938   1.214   3.327  10.317  0.0137 -1.2865 -0.8747
 2826SOL     OW19939   2.191   1.040  17.249  0.0456 -0.5012  0.5147
 2826SOL    HW119940   2.120   0.981  17.275 -0.8088  0.1520 -0.3671
 2826SOL    HW219941   2.247   0.971  17.212  1.1437 -0.0038  1.2485
 2827SOL     OW19942   1.343   4.375   8.105  0.1710  0.1196  0.2145
 2827SOL    HW119943   1.322   4.453   8.055  0.3536 -0.8160 -1.3260
 2827SOL    HW219944   1.348   4.304   8.041 -0.4087 -0.8950  1.2914
 2828SOL     OW19945   0.374   2.188  16.277 -0.1248  0.0725  0.0713
 2828SOL    HW119946   0.352   2.217  16.365  0.9471 -0.2964  0.4601
 2828SOL    HW219947   0.365   2.270  16.228  0.8566 -0.7267 -1.4534
 2829SOL     OW19948   0.234   3.435   8.424  0.3196 -0.1175 -0.4722
 2829SOL    HW119949   0.304   3.371   8.418 -1.3358 -1.7391 -2.4341
 2829SOL    HW219950   0.239   3.474   8.337 -1.5780  0.3443 -0.3829
 2830SOL     OW19951   2.314   3.397  11.103  0.2945 -0.3955  1.1204
 2830SOL    HW119952   2.314   3.485  11.067 -0.6821 -1.1435 -0.7083
 2830SOL    HW219953   2.223   3.393  11.135  0.1272 -0.9995  0.5597
 2831SOL     OW19954   0.998   0.390   4.276  0.1127  1.0003  0.2952
 2831SOL    HW119955   0.929   0.432   4.223 -0.0838 -0.2027 -0.3954
 2831SOL    HW219956   1.075   0.394   4.219  0.0072  0.7005  0.1321
 2832SOL     OW19957   2.893   3.359  16.596 -0.0951  0.0522 -0.1125
 2832SOL    HW119958   2.881   3.427  16.663  0.2521  1.0460 -1.0618
 2832SOL    HW219959   2.837   3.290  16.630  1.0768 -1.3270 -0.9881
 2833SOL     OW19960   4.178   1.009   3.197  0.1904 -0.0267 -0.4083
 2833SOL    HW119961   4.154   0.953   3.271  0.5159 -1.7830 -1.6158
 2833SOL    HW219962   4.270   1.027   3.217  0.1666  0.7854 -1.0050
 2834SOL     OW19963   2.361   3.304  12.670  0.1426 -0.0037  0.6384
 2834SOL    HW119964   2.302   3.370  12.707 -0.4695 -0.7363  0.9700
 2834SOL    HW219965   2.405   3.357  12.604 -0.6521 -1.7558 -1.2609
 2835SOL     OW19966   3.871   0.417   4.435 -0.1435 -0.3443 -0.0103
 2835SOL    HW119967   3.815   0.359   4.383 -0.0395 -0.2485 -0.2305
 2835SOL    HW219968   3.951   0.393   4.387 -0.0894  0.2950 -0.2384
 2836SOL     OW19969   3.482   3.988   5.555 -0.4118  0.2106  0.4967
 2836SOL    HW119970   3.524   3.958   5.636  0.0591 -0.8186 -0.1300
 2836SOL    HW219971   3.514   4.078   5.555  1.7887 -0.5725 -1.0731
 2837SOL     OW19972   0.776   2.843  12.987  0.3641 -0.3429  0.2064
 2837SOL    HW119973   0.681   2.844  12.983  0.3951 -0.5367 -0.5689
 2837SOL    HW219974   0.796   2.863  12.895  3.1639 -1.2542  0.6094
 2838SOL     OW19975   0.878   4.628   1.545 -0.0716  0.3567  0.0596
 2838SOL    HW119976   0.837   4.591   1.623 -1.5640  0.9303 -0.4412
 2838SOL    HW219977   0.808   4.608   1.482  0.7050  0.8176 -0.9546
 2839SOL     OW19978   3.010   2.512   1.227  0.7060  0.6275 -0.0269
 2839SOL    HW119979   2.930   2.565   1.219  1.4350  1.2101 -3.6574
 2839SOL    HW219980   2.975   2.423   1.235  2.2981  0.0667  0.6183
 2840SOL     OW19981   3.976   0.644  13.715  0.0222  0.4042  0.4257
 2840SOL    HW119982   4.032   0.570  13.735  2.8809  1.6601 -2.8746
 2840SOL    HW219983   4.034   0.719  13.729 -0.1813  0.3668  1.4591
 2841SOL     OW19984   1.000   0.995  15.260  0.3143  0.1004  0.3256
 2841SOL    HW119985   1.073   1.035  15.214 -0.6362  0.2526 -1.0553
 2841SOL    HW219986   0.990   0.908  15.221 -0.4336  0.4364 -0.2421
 2842SOL     OW19987   0.178   2.924  11.121  0.4539 -0.5755 -0.4581
 2842SOL    HW119988   0.091   2.886  11.115 -0.5635  1.6718  0.1647
 2842SOL    HW219989   0.161   3.018  11.114 -2.9171 -1.1539  0.2216
 2843SOL     OW19990   0.055   1.578   9.127 -0.0282 -0.3601 -0.3010
 2843SOL    HW119991   4.708   1.574   9.191  0.3942  0.1690  0.2059
 2843SOL    HW219992   0.132   1.604   9.177  1.5305 -2.8775 -1.3675
 2844SOL     OW19993   4.618   3.082   3.069  0.0910  0.0415  0.1496
 2844SOL    HW119994   4.707   3.117   3.065  0.6610 -1.4306  0.0155
 2844SOL    HW219995   4.625   2.987   3.067  0.6393  0.0287  2.2119
 2845SOL     OW19996   0.785   2.843   3.787  0.0461 -0.7594  0.1554
 2845SOL    HW119997   0.690   2.858   3.782 -0.2186 -2.5348 -0.1538
 2845SOL    HW219998   0.800   2.821   3.879 -2.7587 -0.3479  0.7343
 2846SOL     OW19999   3.615   2.747   5.190 -0.0128  0.4222 -0.1067
 2846SOL    HW120000   3.710   2.732   5.187 -0.4282 -2.3380  0.6120
 2846SOL    HW220001   3.606   2.841   5.200 -2.7408  0.4020 -2.5786
 2847SOL     OW20002   1.959   3.731   6.854 -0.3574 -0.0507  0.2269
 2847SOL    HW120003   1.906   3.686   6.920  0.7805 -1.9805 -0.1746
 2847SOL    HW220004   2.007   3.790   6.912 -2.1435  0.2696  1.3694
 2848SOL     OW20005   1.962   2.385   3.046  0.1019 -0.1495  0.0401
 2848SOL    HW120006   1.941   2.341   2.963  0.6018 -1.8372  0.8005
 2848SOL    HW220007   2.021   2.453   3.014  1.1325  0.1635  2.6125
 2849SOL     OW20008   0.831   2.573   2.849  0.0081  0.1918  0.6538
 2849SOL    HW120009   0.831   2.659   2.808 -2.4561  0.2953  0.8587
 2849SOL    HW220010   0.832   2.526   2.766  1.3907 -0.6553  1.1473
 2850SOL     OW20011   2.045   0.404   7.420 -0.2953 -0.7295  0.3022
 2850SOL    HW120012   2.022   0.339   7.486  0.8194  0.3821  1.8070
 2850SOL    HW220013   2.139   0.417   7.435  0.0373 -1.9713 -0.8154
 2851SOL     OW20014   1.038   0.832   7.723  0.0237 -0.2054 -0.2935
 2851SOL    HW120015   1.114   0.782   7.753  1.7845  1.7663 -1.4486
 2851SOL    HW220016   0.973   0.763   7.732 -1.4948  1.4018  1.0528
 2852SOL     OW20017   1.321   4.720   2.880  0.3811 -0.5235  0.2590
 2852SOL    HW120018   1.388   0.031   2.821  0.0005 -0.5913 -0.2050
 2852SOL    HW220019   1.275   0.074   2.909  0.7294  0.3734 -1.6191
 2853SOL     OW20020   1.914   4.031   9.486  0.5586  0.4161 -0.3781
 2853SOL    HW120021   1.831   4.042   9.533 -0.4709 -1.5481 -1.7063
 2853SOL    HW220022   1.891   3.995   9.400 -1.2742  1.4371 -0.3237
 2854SOL     OW20023   2.246   0.184  12.476 -0.1714  0.0120 -0.5885
 2854SOL    HW120024   2.172   0.192  12.536  0.1851 -1.5857  0.0507
 2854SOL    HW220025   2.237   0.094  12.445  2.0235 -0.7766  1.0902
 2855SOL     OW20026   1.194   2.909   7.628 -0.1769 -0.0020  0.2659
 2855SOL    HW120027   1.154   2.988   7.662 -0.5570 -0.6564  1.3542
 2855SOL    HW220028   1.270   2.909   7.686 -0.0664 -0.4310  0.1269
 2856SOL     OW20029   3.857   1.542   7.316  0.1127  0.2239 -0.1403
 2856SOL    HW120030   3.948   1.540   7.343 -0.9013  1.5153  3.3857
 2856SOL    HW220031   3.876   1.555   7.223  0.4600  1.6747  0.1345
 2857SOL     OW20032   0.966   2.212   4.069  0.3656 -0.1878  0.0530
 2857SOL    HW120033   0.973   2.139   4.008  1.9201  0.0749 -0.0778
 2857SOL    HW220034   1.051   2.212   4.112 -0.4596 -1.9526  1.6842
 2858SOL     OW20035   3.064   3.489   2.774  0.0744  0.2175  0.0193
 2858SOL    HW120036   3.024   3.429   2.836 -1.8706  1.2609 -0.2359
 2858SOL    HW220037   2.996   3.555   2.758 -0.5475 -0.7146 -1.2197
 2859SOL     OW20038   4.506   1.365   0.376 -0.3490 -0.7871 -0.0760
 2859SOL    HW120039   4.541   1.368   0.465 -1.6894 -0.0771  0.4305
 2859SOL    HW220040   4.522   1.272   0.360  3.8200  0.1204 -1.3131
 2860SOL     OW20041   1.317   1.010  12.838  0.0762 -0.6025 -0.1912
 2860SOL    HW120042   1.321   1.038  12.747 -2.0173  0.0614 -0.0944
 2860SOL    HW220043   1.399   0.961  12.839 -0.4946 -1.5244  2.3256
 2861SOL     OW20044   2.463   1.368   1.387  0.1639  0.2255  0.0311
 2861SOL    HW120045   2.489   1.351   1.296  0.8820 -1.1490  0.4922
 2861SOL    HW220046   2.533   1.325   1.435 -1.8745 -3.0006  0.0683
 2862SOL     OW20047   0.801   2.082   2.821 -0.7088 -0.4923 -0.2841
 2862SOL    HW120048   0.851   2.001   2.817 -2.1617 -1.4707  1.7151
 2862SOL    HW220049   0.778   2.089   2.728  0.4165 -1.0833 -0.6075
 2863SOL     OW20050   1.100   0.930   7.470  0.6257  0.5466  0.1580
 2863SOL    HW120051   1.061   1.016   7.460  1.8560  1.6199  4.2488
 2863SOL    HW220052   1.071   0.906   7.559 -1.8835  1.7426 -0.3509
 2864SOL     OW20053   4.014   0.103  14.587  0.7308 -0.2457  0.3202
 2864SOL    HW120054   4.073   0.084  14.514  1.8455  2.7230  0.4484
 2864SOL    HW220055   3.937   0.047  14.573  1.6259 -1.1304 -1.0155
 2865SOL     OW20056   0.740   2.174   4.203  0.3380 -0.5733 -0.0342
 2865SOL    HW120057   0.769   2.118   4.276  2.4018  1.1841  0.4722
 2865SOL    HW220058   0.823   2.182   4.156  1.0085 -0.0694  1.2358
 2866SOL     OW20059   0.126   3.828   3.511  0.1312 -0.0193 -1.2968
 2866SOL    HW120060   0.058   3.892   3.490  0.3419  0.0772 -1.6908
 2866SOL    HW220061   0.197   3.878   3.553 -1.1605  0.8838 -0.2048
 2867SOL     OW20062   0.052   4.490   0.488  0.0204 -0.4430  0.1286
 2867SOL    HW120063   4.713   4.522   0.425 -0.8386 -0.1790  1.1331
 2867SOL    HW220064   0.132   4.528   0.451 -0.0953  0.3097  0.6454
 2868SOL     OW20065   0.177   3.561  15.577 -0.0560 -0.1036  0.8923
 2868SOL    HW120066   0.193   3.561  15.672  0.2604 -1.3184  0.8288
 2868SOL    HW220067   0.081   3.560  15.574 -0.0552  0.0322  0.8300
 2869SOL     OW20068   0.264   1.957   2.897 -0.0826  0.0093  0.3042
 2869SOL    HW120069   0.252   1.964   2.802 -0.4459 -0.4910  0.3127
 2869SOL    HW220070   0.315   1.876   2.893 -1.6657 -0.9118 -0.8897
 2870SOL     OW20071   3.302   4.720   4.483 -0.8708 -0.0587  0.2121
 2870SOL    HW120072   3.264   0.059   4.544 -0.9376 -1.8119  1.9602
 2870SOL    HW220073   3.379   4.703   4.537 -0.5857  1.0616  0.1704
 2871SOL     OW20074   1.432   1.206   7.859  0.2306  0.3207 -0.5899
 2871SOL    HW120075   1.371   1.141   7.892  0.2760  0.5977  0.0318
 2871SOL    HW220076   1.410   1.193   7.766  2.1347  2.1481 -1.3061
 2872SOL     OW20077   2.078   1.392   1.079  0.1101 -0.1549 -0.3049
 2872SOL    HW120078   2.131   1.313   1.069 -0.4844 -0.4482 -1.0769
 2872SOL    HW220079   2.016   1.400   1.007 -0.4995  2.8600  0.5422
 2873SOL     OW20080   1.482   4.613  12.889  0.0653  0.6656  0.0039
 2873SOL    HW120081   1.446   4.696  12.858 -0.9277  0.2187 -0.0321
 2873SOL    HW220082   1.421   4.585  12.957  1.2702 -0.4940  0.6146
 2874SOL     OW20083   1.665   4.296   4.470  0.2632  0.1549  0.4967
 2874SOL    HW120084   1.633   4.379   4.435 -0.9153 -0.7686 -0.6654
 2874SOL    HW220085   1.747   4.290   4.420  1.3703  0.8470  2.2484
 2875SOL     OW20086   1.601   2.743   7.974  0.6758  0.3929  0.4511
 2875SOL    HW120087   1.673   2.722   8.035 -0.1272  1.5713  1.8086
 2875SOL    HW220088   1.643   2.709   7.895 -1.6326 -2.5254  0.4693
 2876SOL     OW20089   2.540   1.599  17.281  0.1605  0.2416  0.5551
 2876SOL    HW120090   2.461   1.547  17.298  1.1824 -1.0831  1.2093
 2876SOL    HW220091   2.587   1.536  17.227 -0.6046 -1.6879  2.1597
 2877SOL     OW20092   2.609   4.447   5.287 -0.3648  0.2085 -0.1092
 2877SOL    HW120093   2.665   4.525   5.289  0.3333 -0.2568 -1.0640
 2877SOL    HW220094   2.523   4.488   5.284 -0.4216  0.1573  1.0248
 2878SOL     OW20095   0.001   4.109  10.456  0.6418  0.2044  0.3781
 2878SOL    HW120096   4.722   4.050  10.381 -0.8113  1.3786 -0.4931
 2878SOL    HW220097   0.048   4.177  10.409 -3.3334  0.8362 -2.7051
 2879SOL     OW20098   0.153   2.956   2.821  0.0052 -0.5172  0.1447
 2879SOL    HW120099   0.085   2.903   2.780 -0.0100  0.4120 -1.0054
 2879SOL    HW220100   0.183   3.015   2.752  1.0016  0.9921  1.8525
 2880SOL     OW20101   4.239   0.950   6.618 -0.4003 -0.2849  1.1097
 2880SOL    HW120102   4.180   0.880   6.592  1.8822 -2.2189  1.1007
 2880SOL    HW220103   4.213   0.984   6.703  1.3394 -0.5697  1.7682
 2881SOL     OW20104   3.579   1.999   4.304 -0.5718 -0.4655 -0.4492
 2881SOL    HW120105   3.663   2.003   4.259 -1.4496 -0.3953 -2.0986
 2881SOL    HW220106   3.586   1.923   4.362  0.6615  1.7574  2.3013
 2882SOL     OW20107   4.670   2.698   3.783  0.1524  0.5395  0.2005
 2882SOL    HW120108   4.671   2.633   3.713  0.4677  2.3207 -1.4695
 2882SOL    HW220109   4.674   2.770   3.719  1.5277 -0.3675 -0.7416
 2883SOL     OW20110   2.646   3.087   5.800 -0.3723 -0.0059  0.2312
 2883SOL    HW120111   2.599   3.037   5.733 -2.5451  0.9771  1.0155
 2883SOL    HW220112   2.606   3.174   5.796  0.6952  0.3709 -2.2539
 2884SOL     OW20113   1.922   1.745   3.985  0.4501  0.0548  0.1189
 2884SOL    HW120114   1.959   1.833   3.991  0.6919  0.0241 -0.8895
 2884SOL    HW220115   1.877   1.769   3.903 -1.2592  0.6662  1.2292
 2885SOL     OW20116   3.603   3.563   0.920 -0.6951  0.1819  0.1942
 2885SOL    HW120117   3.629   3.492   0.862 -0.1604 -0.8152  1.6505
 2885SOL    HW220118   3.534   3.521   0.971  0.0707 -1.1654  0.1076
 2886SOL     OW20119   0.412   1.114   8.638  0.2338  0.3249  0.0512
 2886SOL    HW120120   0.432   1.201   8.672  0.5840  0.6394 -0.9497
 2886SOL    HW220121   0.419   1.052   8.710 -1.1643  0.5180  0.3369
 2887SOL     OW20122   0.443   3.365  13.254 -0.1723  0.4478 -0.1791
 2887SOL    HW120123   0.402   3.279  13.257  1.1724 -0.0428  3.6830
 2887SOL    HW220124   0.464   3.376  13.347 -0.0399 -0.0022 -0.1558
 2888SOL     OW20125   1.778   3.881  13.104  0.3856  0.4431 -0.8047
 2888SOL    HW120126   1.712   3.857  13.170 -0.1576  2.9525 -0.4250
 2888SOL    HW220127   1.716   3.921  13.043 -0.9456 -1.1834 -0.5338
 2889SOL     OW20128   4.630   4.188  13.308  0.3514 -0.8474  0.3460
 2889SOL    HW120129   4.686   4.251  13.263  0.0454 -0.5003  0.4541
 2889SOL    HW220130   4.692   4.167  13.378  0.7567 -1.4997 -0.2066
 2890SOL     OW20131   3.167   2.945   3.719  0.2486 -0.0449  0.2550
 2890SOL    HW120132   3.089   3.000   3.713  1.2058  1.1720 -0.9717
 2890SOL    HW220133   3.170   2.887   3.643 -1.5981  0.7957 -0.4617
 2891SOL     OW20134   1.880   4.109   7.782 -0.2110  0.1216  1.1602
 2891SOL    HW120135   1.861   4.029   7.735 -0.0586 -0.1195  1.5055
 2891SOL    HW220136   1.927   4.085   7.863  1.1914 -0.4490  0.1803
 2892SOL     OW20137   1.215   1.277  10.331  0.0429 -0.0323 -0.3105
 2892SOL    HW120138   1.199   1.227  10.251 -0.2106 -3.0741  1.6410
 2892SOL    HW220139   1.186   1.362  10.298 -1.6384 -0.6767 -0.5286
 2893SOL     OW20140   0.047   4.371   8.024  0.3189  1.0117 -0.1734
 2893SOL    HW120141   4.688   4.329   8.043  0.6944 -0.1858 -1.2190
 2893SOL    HW220142   0.105   4.323   8.083 -0.4333  2.8503  2.0764
 2894SOL     OW20143   2.675   4.340   2.975 -0.2492 -0.0476 -0.4538
 2894SOL    HW120144   2.765   4.366   2.959  0.5874 -1.2093  2.4021
 2894SOL    HW220145   2.676   4.247   2.952 -0.2954  0.2805 -1.7766
 2895SOL     OW20146   0.308   3.995   3.617  0.0485  0.1627  0.6184
 2895SOL    HW120147   0.349   4.022   3.699 -0.3307 -1.3278  1.3066
 2895SOL    HW220148   0.380   3.934   3.598  0.2565 -0.6981  4.1085
 2896SOL     OW20149   3.225   4.375   9.059  0.4660 -0.1757  0.2785
 2896SOL    HW120150   3.243   4.416   9.144  0.7968  0.4487 -0.0927
 2896SOL    HW220151   3.222   4.286   9.094  1.2152 -0.0209  0.7392
 2897SOL     OW20152   2.777   0.060   2.255 -0.0207  0.1385  0.2724
 2897SOL    HW120153   2.808   0.150   2.239  1.8390 -0.5119  0.1640
 2897SOL    HW220154   2.819   0.039   2.339  2.1426 -1.2172 -1.1538
 2898SOL     OW20155   4.039   0.253   3.186  0.0699  0.2592  0.2818
 2898SOL    HW120156   4.014   0.334   3.141  0.5282 -0.0349 -0.4947
 2898SOL    HW220157   4.065   0.194   3.115 -1.2116  2.6128 -2.1561
 2899SOL     OW20158   1.358   1.167   1.812  0.1561 -0.4159  0.4083
 2899SOL    HW120159   1.314   1.223   1.749 -0.6188  0.0025  1.3164
 2899SOL    HW220160   1.425   1.230   1.840 -0.1371  0.2929 -0.4898
 2900SOL     OW20161   2.886   0.827   6.447 -0.2247  0.5652 -0.4280
 2900SOL    HW120162   2.879   0.783   6.363 -2.3366 -1.3057  0.7341
 2900SOL    HW220163   2.898   0.919   6.423 -0.9283 -0.0779 -3.1768
 2901SOL     OW20164   4.070   2.365   4.791 -0.1094  0.4099 -0.4171
 2901SOL    HW120165   4.144   2.415   4.827  0.9170 -0.3417 -1.4709
 2901SOL    HW220166   4.104   2.318   4.715 -0.6709 -0.6418 -0.0221
 2902SOL     OW20167   2.766   3.433  12.779  0.3912 -0.3887  0.5006
 2902SOL    HW120168   2.733   3.450  12.867  0.1885  0.3337  0.2796
 2902SOL    HW220169   2.697   3.392  12.727 -0.0512  0.3651  0.4968
 2903SOL     OW20170   2.728   0.106   7.349 -0.3968 -0.3381 -0.1204
 2903SOL    HW120171   2.686   0.053   7.282 -0.5446  0.8033 -0.9096
 2903SOL    HW220172   2.663   0.103   7.419 -3.4244 -0.1035 -2.9379
 2904SOL     OW20173   0.638   2.251   3.789 -0.6360 -0.2027  0.2399
 2904SOL    HW120174   0.650   2.158   3.805  0.3923  0.0766  1.1145
 2904SOL    HW220175   0.577   2.253   3.715 -1.2236 -0.4711  0.7187
 2905SOL     OW20176   2.208   2.499  14.668  0.1838 -0.5617 -0.1554
 2905SOL    HW120177   2.141   2.437  14.696  0.8185  0.5687  3.8818
 2905SOL    HW220178   2.227   2.481  14.576 -1.6820  0.0764 -0.6687
 2906SOL     OW20179   1.637   3.918   4.849 -0.2834 -0.3532 -0.0616
 2906SOL    HW120180   1.674   3.979   4.785  0.1185 -0.1118  0.3971
 2906SOL    HW220181   1.617   3.983   4.917 -0.0409 -0.0138 -0.3148
 2907SOL     OW20182   2.651   3.688   7.597  0.0229 -0.4380  0.7448
 2907SOL    HW120183   2.663   3.667   7.689  0.0670 -3.9045 -0.0680
 2907SOL    HW220184   2.737   3.657   7.569 -0.6233 -2.0847  0.6123
 2908SOL     OW20185   1.207   0.997   3.402  0.5168  0.0472  0.5388
 2908SOL    HW120186   1.173   1.060   3.465 -1.5356 -1.1717  0.6387
 2908SOL    HW220187   1.301   1.005   3.422  0.5098  1.0408  0.1621
 2909SOL     OW20188   2.313   4.591   9.420 -0.3012 -0.0702 -0.2067
 2909SOL    HW120189   2.307   4.566   9.328  0.6173  0.1256 -0.3250
 2909SOL    HW220190   2.376   4.658   9.392 -0.7323 -0.7705 -2.9181
 2910SOL     OW20191   1.737   1.732   5.028  0.3316 -0.3984  0.0547
 2910SOL    HW120192   1.648   1.723   4.994 -0.2548 -0.7416  1.6589
 2910SOL    HW220193   1.750   1.827   5.034 -1.3670 -0.1659  0.0845
 2911SOL     OW20194   4.027   3.634  11.356  0.8178 -0.2108 -0.0125
 2911SOL    HW120195   3.953   3.573  11.361  1.1529 -0.7384 -1.3958
 2911SOL    HW220196   4.009   3.688  11.279  0.4846 -0.2993  0.0028
 2912SOL     OW20197   3.531   4.705   4.652  0.6845  0.3481  0.0009
 2912SOL    HW120198   3.568   0.003   4.738  0.8827  2.6885 -0.7165
 2912SOL    HW220199   3.561   0.059   4.608 -1.0388  0.6603 -0.6106
 2913SOL     OW20200   4.572   4.508   1.002  0.5707  0.2076 -0.6164
 2913SOL    HW120201   4.593   4.447   0.932  1.7851 -1.5553  1.2897
 2913SOL    HW220202   4.478   4.509   0.985  1.0901  0.1126 -3.4959
 2914SOL     OW20203   2.029   1.719   8.617  0.2842  0.2812  0.4281
 2914SOL    HW120204   2.001   1.709   8.526 -2.1042  0.7235  1.1174
 2914SOL    HW220205   2.113   1.673   8.620 -1.0207 -2.1508 -0.2227
 2915SOL     OW20206   1.300   4.153  16.246  0.3977 -0.2633 -0.3687
 2915SOL    HW120207   1.342   4.106  16.174 -0.2087 -3.0771  1.0888
 2915SOL    HW220208   1.337   4.237  16.221  0.6826 -0.5867 -1.0334
 2916SOL     OW20209   2.688   1.650   4.512  0.1315  0.0775  0.1864
 2916SOL    HW120210   2.617   1.700   4.551  0.7963  1.1146  0.0640
 2916SOL    HW220211   2.761   1.703   4.543 -0.4409 -0.5344  2.5603
 2917SOL     OW20212   2.212   1.088   8.485 -0.1352 -0.0097  0.1336
 2917SOL    HW120213   2.174   1.162   8.532 -2.1461 -0.4640 -0.8165
 2917SOL    HW220214   2.162   1.014   8.518 -1.1615  0.9970  0.8289
 2918SOL     OW20215   3.549   1.434   2.072  0.0023 -0.1489 -0.0788
 2918SOL    HW120216   3.631   1.481   2.054 -1.8288  2.4389 -1.6649
 2918SOL    HW220217   3.543   1.435   2.167  1.1868  0.7195 -0.0067
 2919SOL     OW20218   2.187   4.051  12.995  0.4515 -0.5759  0.1863
 2919SOL    HW120219   2.252   4.103  12.948 -0.9485  0.7634 -0.2665
 2919SOL    HW220220   2.120   4.116  13.018  2.0368  0.9628  0.4266
 2920SOL     OW20221   3.954   1.693   6.304 -0.4353  0.6653 -0.0924
 2920SOL    HW120222   4.003   1.707   6.223 -1.6727  1.1442 -0.7517
 2920SOL    HW220223   3.880   1.634   6.292 -0.0705  0.2815 -0.4913
 2921SOL     OW20224   0.926   1.549   2.752  0.0397 -0.0075 -0.1228
 2921SOL    HW120225   0.977   1.545   2.671 -2.4183 -0.4209 -1.6499
 2921SOL    HW220226   0.983   1.525   2.825 -0.3603 -0.2490  0.1140
 2922SOL     OW20227   0.008   0.552  15.430 -0.2235  0.2043 -0.4521
 2922SOL    HW120228   0.053   0.559  15.515 -0.0216 -1.6731 -0.4087
 2922SOL    HW220229   0.071   0.593  15.371 -0.3500 -0.1451 -0.8272
 2923SOL     OW20230   2.907   3.108   6.188 -0.2487 -0.1325  0.5607
 2923SOL    HW120231   2.937   3.175   6.127  0.5085 -1.3638 -0.4118
 2923SOL    HW220232   2.821   3.096   6.148  0.5876  0.0192 -1.2813
 2924SOL     OW20233   1.028   2.268   9.143 -0.0796 -0.3687 -0.2321
 2924SOL    HW120234   0.976   2.308   9.074  1.3687 -0.7623 -1.5624
 2924SOL    HW220235   1.112   2.277   9.099 -0.5202 -1.1624 -1.2469
 2925SOL     OW20236   2.211   0.727   5.472  0.0537 -0.5946  0.2272
 2925SOL    HW120237   2.218   0.823   5.469  0.2604 -0.6245 -0.3297
 2925SOL    HW220238   2.124   0.716   5.509  0.1688  1.2264  1.0274
 2926SOL     OW20239   3.918   2.623   0.478  0.0369  0.2745  0.2104
 2926SOL    HW120240   3.922   2.662   0.565  1.0881  1.2304 -0.2786
 2926SOL    HW220241   4.009   2.629   0.452 -0.2966  2.2691 -0.4353
 2927SOL     OW20242   1.780   0.751   7.394  0.8292  0.1647  0.0653
 2927SOL    HW120243   1.801   0.672   7.344 -2.5423 -1.3381  1.0167
 2927SOL    HW220244   1.687   0.735   7.407  1.3099 -2.8728 -0.2313
 2928SOL     OW20245   2.024   1.995  11.518 -0.2115 -0.3889 -0.3598
 2928SOL    HW120246   2.063   2.013  11.432 -0.6081  0.0497 -0.4472
 2928SOL    HW220247   2.093   1.953  11.568 -1.0905  1.2924  2.2411
 2929SOL     OW20248   2.340   0.413   3.955  0.2714  0.2766 -0.2203
 2929SOL    HW120249   2.407   0.472   3.919  1.8045 -1.5114 -0.3250
 2929SOL    HW220250   2.389   0.386   4.033 -0.4028  1.8782  0.7624
 2930SOL     OW20251   1.041   4.025  11.740  0.1092  0.0814 -0.2798
 2930SOL    HW120252   0.983   3.999  11.669 -1.2860  0.1251  0.8279
 2930SOL    HW220253   0.977   4.066  11.799 -1.3793 -1.2856 -0.9186
 2931SOL     OW20254   3.814   0.138   7.138  0.1945  0.1497  0.3921
 2931SOL    HW120255   3.891   0.168   7.185  1.2413  2.8053 -3.0247
 2931SOL    HW220256   3.779   0.083   7.207 -0.0992  0.2274  0.3070
 2932SOL     OW20257   1.836   3.522   6.987  0.3826  0.0122  0.2440
 2932SOL    HW120258   1.896   3.451   7.008  1.0073  0.2965 -0.6040
 2932SOL    HW220259   1.749   3.485   7.000  1.0162 -0.6812  2.5657
 2933SOL     OW20260   3.898   0.933   4.551  0.0336  0.1041  0.1784
 2933SOL    HW120261   3.962   0.941   4.622  1.8267 -3.6014 -1.0123
 2933SOL    HW220262   3.890   1.023   4.519 -1.4585 -0.7739 -1.9625
 2934SOL     OW20263   2.345   0.918   5.694 -0.1960 -0.6509  0.1163
 2934SOL    HW120264   2.251   0.933   5.696  0.2197  1.9225  0.2682
 2934SOL    HW220265   2.387   0.999   5.667 -1.5169  0.2957  0.9089
 2935SOL     OW20266   1.827   1.519  17.552 -0.6065  0.1889 -0.1803
 2935SOL    HW120267   1.861   1.530  17.640 -0.2650 -0.0185 -0.2884
 2935SOL    HW220268   1.734   1.540  17.562 -0.6878 -0.1364 -0.2374
 2936SOL     OW20269   4.012   0.429   6.783 -1.0334  0.1728 -0.0941
 2936SOL    HW120270   3.966   0.510   6.760 -0.8189 -0.1816 -1.7218
 2936SOL    HW220271   4.010   0.439   6.878 -1.5563  1.3902 -0.2287
 2937SOL     OW20272   1.028   3.739   5.485  1.0977 -0.6057  0.5267
 2937SOL    HW120273   1.031   3.684   5.562 -1.8944 -0.5208  0.7144
 2937SOL    HW220274   1.118   3.729   5.455  0.8645 -0.8089 -0.1113
 2938SOL     OW20275   1.558   2.417  14.019 -0.5088 -0.5268  0.4919
 2938SOL    HW120276   1.470   2.378  14.022 -0.1725 -1.1384  2.1933
 2938SOL    HW220277   1.582   2.413  13.926 -2.5836  0.6228 -0.0974
 2939SOL     OW20278   3.791   2.172   6.120 -0.2519 -0.5716  0.1720
 2939SOL    HW120279   3.879   2.186   6.086  0.3478 -0.1350  1.9558
 2939SOL    HW220280   3.807   2.107   6.188  2.0923  0.5351  0.6761
 2940SOL     OW20281   3.748   1.990   2.886 -0.7488 -0.0639  0.0451
 2940SOL    HW120282   3.702   1.991   2.802  1.0850  0.5426 -0.9414
 2940SOL    HW220283   3.771   2.082   2.902 -0.0718 -0.2381  0.0788
 2941SOL     OW20284   2.808   1.427   2.875 -0.1685  0.2132 -0.5347
 2941SOL    HW120285   2.741   1.369   2.838  0.3515  1.1261 -2.8739
 2941SOL    HW220286   2.774   1.510   2.843 -2.6063 -0.0574  1.4066
 2942SOL     OW20287   3.388   2.605   4.859 -0.4996  0.1150  0.0354
 2942SOL    HW120288   3.392   2.681   4.918 -0.2875  3.2003 -3.9285
 2942SOL    HW220289   3.375   2.654   4.777 -1.1967  0.2663  0.2392
 2943SOL     OW20290   1.639   0.250   2.481 -0.5023 -0.1867  0.3825
 2943SOL    HW120291   1.610   0.165   2.448 -2.1887  0.4836  0.1417
 2943SOL    HW220292   1.558   0.301   2.480 -0.5551 -0.3328 -1.4619
 2944SOL     OW20293   4.658   3.193  12.309  0.1045  0.3131  0.5963
 2944SOL    HW120294   0.026   3.184  12.332  0.4989 -0.1332 -1.2141
 2944SOL    HW220295   4.624   3.135  12.377  0.0853 -0.4970 -0.1097
 2945SOL     OW20296   1.843   2.814   3.587  0.3129  0.1888  0.0861
 2945SOL    HW120297   1.774   2.771   3.537  0.2042 -1.6327  1.7947
 2945SOL    HW220298   1.791   2.892   3.603  2.0252  1.1501  1.0650
 2946SOL     OW20299   1.365   0.356   9.331  0.4782 -0.1408  0.2009
 2946SOL    HW120300   1.443   0.402   9.300  1.0844 -1.7310 -0.6158
 2946SOL    HW220301   1.353   0.305   9.251 -0.7021 -1.1531  1.0392
 2947SOL     OW20302   1.000   0.789   2.468 -0.3416  0.2227  0.8449
 2947SOL    HW120303   1.086   0.753   2.447 -0.6068 -1.1190  2.1194
 2947SOL    HW220304   1.023   0.882   2.464 -0.6965  0.3368  1.4150
 2948SOL     OW20305   2.395   0.193  11.042 -0.5658 -0.6582 -0.1120
 2948SOL    HW120306   2.316   0.203  11.094 -0.6840 -0.1202 -0.4048
 2948SOL    HW220307   2.354   0.209  10.958 -0.3258 -0.7120 -0.2415
 2949SOL     OW20308   2.069   3.486   9.421 -0.0868  0.4585 -0.6377
 2949SOL    HW120309   2.016   3.407   9.423 -0.1160  0.4823 -0.3487
 2949SOL    HW220310   2.125   3.481   9.499  0.9631 -0.3783 -1.4471
 2950SOL     OW20311   0.426   3.022   5.088 -0.1931  0.2858  0.0963
 2950SOL    HW120312   0.469   3.069   5.016 -0.0976 -0.6676 -0.4706
 2950SOL    HW220313   0.469   2.937   5.094 -2.7697 -1.0836 -0.8635
 2951SOL     OW20314   0.425   0.774   7.572 -0.2610  0.8431  0.0215
 2951SOL    HW120315   0.505   0.826   7.585  0.3679  0.4334 -2.2374
 2951SOL    HW220316   0.363   0.842   7.544 -1.2148  0.3107  0.8626
 2952SOL     OW20317   1.401   0.389   2.495  0.1409  0.5278 -0.8467
 2952SOL    HW120318   1.322   0.430   2.530 -2.4877 -2.7881 -2.8828
 2952SOL    HW220319   1.367   0.301   2.478 -1.0239  1.2004 -1.9145
 2953SOL     OW20320   3.181   2.201  11.745  0.3849 -0.3940 -0.0409
 2953SOL    HW120321   3.123   2.276  11.737  2.4804  1.1910 -0.2750
 2953SOL    HW220322   3.243   2.219  11.816  0.2486  1.3086 -0.3635
 2954SOL     OW20323   3.260   3.183   9.177  0.1879  0.2353 -0.4858
 2954SOL    HW120324   3.301   3.250   9.232 -0.0423 -2.2854  2.7024
 2954SOL    HW220325   3.168   3.209   9.175 -0.1475 -0.8844  0.7399
 2955SOL     OW20326   0.702   4.609   2.155  0.1157 -0.0492  0.3239
 2955SOL    HW120327   0.649   4.530   2.149  0.1769 -0.0841  0.2344
 2955SOL    HW220328   0.711   4.628   2.061  1.8623  1.5283  0.8057
 2956SOL     OW20329   3.230   2.123   9.952  0.1999 -0.4815 -0.0594
 2956SOL    HW120330   3.204   2.052  10.010  1.0107 -0.2044  0.6424
 2956SOL    HW220331   3.272   2.179  10.018  0.4933 -0.2509 -0.4376
 2957SOL     OW20332   2.108   4.694  12.845  0.5419  0.2364 -0.5291
 2957SOL    HW120333   2.054   4.643  12.906  0.7926  0.8439  0.1995
 2957SOL    HW220334   2.104   4.638  12.768  2.0759 -0.2150 -0.2791
 2958SOL     OW20335   1.801   3.052   2.976 -0.3557 -0.5067 -0.2367
 2958SOL    HW120336   1.859   3.062   2.900  1.0468 -0.4734  0.8296
 2958SOL    HW220337   1.839   2.978   3.022  0.7916  1.4472  1.9748
 2959SOL     OW20338   2.082   1.929  12.457 -0.6732 -0.0637  0.4785
 2959SOL    HW120339   2.038   2.004  12.497 -1.7232 -0.9287  0.9505
 2959SOL    HW220340   2.082   1.862  12.526  2.2083 -1.2028 -0.6271
 2960SOL     OW20341   1.572   0.966   3.218 -0.3331  0.0857 -0.4533
 2960SOL    HW120342   1.534   0.930   3.298 -0.2050  0.8554 -0.0450
 2960SOL    HW220343   1.607   1.050   3.249  1.1395  0.1047 -2.1678
 2961SOL     OW20344   1.128   0.249  11.751  0.2090  0.3819  0.4451
 2961SOL    HW120345   1.096   0.192  11.681 -2.2840  0.0006  1.9057
 2961SOL    HW220346   1.076   0.329  11.750 -0.1304  0.1573 -0.0155
 2962SOL     OW20347   2.936   1.676   3.476 -0.3997 -0.3571 -0.2249
 2962SOL    HW120348   2.990   1.729   3.418 -1.3908 -1.0820 -1.8177
 2962SOL    HW220349   2.849   1.694   3.439  0.4392  1.1688 -1.4228
 2963SOL     OW20350   0.149   2.978  12.730 -0.4204  0.3526  0.3505
 2963SOL    HW120351   0.233   3.013  12.761 -0.0626 -0.2475  0.0609
 2963SOL    HW220352   0.102   3.061  12.729  0.8353  1.0627 -2.7848
 2964SOL     OW20353   4.394   1.594   4.387 -0.0434  0.0432  0.3361
 2964SOL    HW120354   4.357   1.508   4.409 -2.3049  0.4606 -1.8646
 2964SOL    HW220355   4.334   1.642   4.443  1.7544  1.5167  0.9861
 2965SOL     OW20356   1.070   0.418   6.839  0.7297  0.7500 -0.6568
 2965SOL    HW120357   1.134   0.391   6.905 -0.4611 -0.6144 -0.0462
 2965SOL    HW220358   1.107   0.388   6.757  1.0468  0.5285 -0.4334
 2966SOL     OW20359   0.071   4.413  12.640  0.0709  0.2259 -0.1615
 2966SOL    HW120360   0.135   4.439  12.574  1.0259  2.0397  1.5167
 2966SOL    HW220361   0.054   4.322  12.613  0.0567  0.3920 -0.7164
 2967SOL     OW20362   0.678   3.893   0.625 -0.4459  0.6197 -0.2949
 2967SOL    HW120363   0.697   3.959   0.692  0.5490 -0.1261  0.1468
 2967SOL    HW220364   0.732   3.821   0.657  0.8703  0.4245 -2.9698
 2968SOL     OW20365   0.296   1.959   4.738 -0.0834 -0.7449  0.2698
 2968SOL    HW120366   0.328   2.016   4.668 -0.6401 -2.7376 -1.6370
 2968SOL    HW220367   0.210   1.938   4.701  1.1393 -2.0705 -1.8453
 2969SOL     OW20368   3.902   3.853  14.488 -0.4048  0.3738 -0.0748
 2969SOL    HW120369   3.975   3.871  14.547 -0.9659  0.0581  0.7094
 2969SOL    HW220370   3.921   3.768  14.447  4.3826  1.5638 -0.3324
 2970SOL     OW20371   0.437   0.487   7.097 -0.2740  0.1655  0.2676
 2970SOL    HW120372   0.479   0.424   7.039 -3.5794 -1.8067 -0.0136
 2970SOL    HW220373   0.356   0.481   7.046  0.7230 -0.7594 -1.1838
 2971SOL     OW20374   0.407   1.421  12.364  0.0657 -0.1165  0.0224
 2971SOL    HW120375   0.385   1.328  12.365 -2.0969  0.3774 -0.9936
 2971SOL    HW220376   0.367   1.444  12.448 -0.1918 -1.5447  0.2955
 2972SOL     OW20377   2.036   0.848   8.509 -0.0107  0.1283  0.0327
 2972SOL    HW120378   2.047   0.834   8.603  0.1041  0.4333  0.0663
 2972SOL    HW220379   1.940   0.854   8.508  0.1105  2.5627  0.7406
 2973SOL     OW20380   4.580   3.219  11.467  0.4144 -0.2927 -0.2135
 2973SOL    HW120381   4.585   3.199  11.560  0.8169  0.0948 -0.1516
 2973SOL    HW220382   4.626   3.146  11.425  0.1732 -0.8236  0.4451
 2974SOL     OW20383   1.743   0.423  10.670  0.4741  0.3232  0.2053
 2974SOL    HW120384   1.665   0.461  10.630 -1.1060  0.0382  3.0110
 2974SOL    HW220385   1.755   0.478  10.748  0.4047  1.0111 -0.2724
 2975SOL     OW20386   4.472   4.069   4.800  0.1886  0.2360  0.2148
 2975SOL    HW120387   4.387   4.111   4.817  0.5780  0.1542  2.3519
 2975SOL    HW220388   4.525   4.104   4.871  0.8445 -1.2785  0.4618
 2976SOL     OW20389   0.541   1.885   2.435  0.3213  0.1640 -0.0843
 2976SOL    HW120390   0.458   1.837   2.432  0.4660 -0.2489  2.5572
 2976SOL    HW220391   0.586   1.826   2.374 -0.8191  0.2939 -1.0677
 2977SOL     OW20392   0.530   1.250  11.208  0.5700 -0.3562  0.1345
 2977SOL    HW120393   0.441   1.274  11.184 -0.1947 -0.3850  2.9460
 2977SOL    HW220394   0.572   1.304  11.141 -0.1027  0.1009  0.0916
 2978SOL     OW20395   1.524   4.085   3.210  0.5799 -0.1956 -0.4658
 2978SOL    HW120396   1.613   4.116   3.224  0.8248 -0.8270 -0.6143
 2978SOL    HW220397   1.496   4.155   3.151 -1.8720  0.8089  1.8831
 2979SOL     OW20398   2.419   2.949   7.352 -0.2319 -0.0295  0.1691
 2979SOL    HW120399   2.421   2.980   7.442 -1.2393 -0.9780  0.4987
 2979SOL    HW220400   2.488   3.004   7.313 -0.4660 -1.2400 -1.9821
 2980SOL     OW20401   3.394   1.115   5.898 -0.0954 -0.4571 -0.5344
 2980SOL    HW120402   3.390   1.126   5.803  5.2013  0.1245 -0.7205
 2980SOL    HW220403   3.301   1.124   5.914 -0.0028 -0.3742 -0.0376
 2981SOL     OW20404   4.185   2.208   9.345 -0.0267  0.0685  0.2306
 2981SOL    HW120405   4.163   2.115   9.343  0.2112  0.0541 -1.8310
 2981SOL    HW220406   4.104   2.247   9.378 -0.4012 -0.9492  0.5061
 2982SOL     OW20407   4.037   1.796   4.136  0.3942  0.7005  0.4144
 2982SOL    HW120408   4.041   1.702   4.154  0.7420  0.8715  1.1966
 2982SOL    HW220409   4.060   1.792   4.043 -1.3572  1.3318 -0.0500
 2983SOL     OW20410   2.271   3.417  10.210  0.1855 -0.4833  0.0736
 2983SOL    HW120411   2.257   3.463  10.128 -0.5718 -2.9044 -1.1481
 2983SOL    HW220412   2.229   3.335  10.184 -0.6143 -0.2941  0.7408
 2984SOL     OW20413   1.016   1.145  13.442  0.5559 -0.2780 -0.0980
 2984SOL    HW120414   0.923   1.128  13.427  0.7877 -0.9730 -0.7465
 2984SOL    HW220415   1.032   1.226  13.393 -0.3488 -0.5434 -0.8442
 2985SOL     OW20416   3.769   0.695  15.758  0.5974 -0.7920  0.2850
 2985SOL    HW120417   3.824   0.621  15.735  1.1483 -0.9897  2.2641
 2985SOL    HW220418   3.839   0.760  15.753 -1.4217  1.3084 -0.7557
 2986SOL     OW20419   3.623   1.090  13.013  0.0718  0.0220 -1.0831
 2986SOL    HW120420   3.563   1.039  13.068  2.1657  0.5582  1.7417
 2986SOL    HW220421   3.638   1.016  12.954 -1.7293 -0.1666 -1.2815
 2987SOL     OW20422   1.790   0.418   3.471  0.2163 -0.2608 -0.4767
 2987SOL    HW120423   1.733   0.343   3.485 -1.4376  1.3690  1.3900
 2987SOL    HW220424   1.845   0.426   3.549  0.6386  0.5777 -0.8584
 2988SOL     OW20425   0.703   3.037   8.556  0.4057  0.3710  0.6151
 2988SOL    HW120426   0.611   3.013   8.567  0.2424 -0.0808 -1.7428
 2988SOL    HW220427   0.711   3.104   8.488  0.3621  0.4954  0.7321
 2989SOL     OW20428   2.476   2.037   3.445 -0.1959  0.0524  0.3657
 2989SOL    HW120429   2.437   2.072   3.365  2.8210  2.3972 -0.0884
 2989SOL    HW220430   2.546   1.979   3.414  1.1963  1.2816  1.2131
 2990SOL     OW20431   1.812   4.628   2.400  0.0159  0.6386 -0.6252
 2990SOL    HW120432   1.835   4.655   2.489  0.2342  0.2572 -0.5682
 2990SOL    HW220433   1.721   4.600   2.401  0.3122 -0.1939  1.6527
 2991SOL     OW20434   1.149   2.434  15.750 -0.4461 -0.2483  0.6147
 2991SOL    HW120435   1.171   2.349  15.712 -0.2546  0.7577 -1.5672
 2991SOL    HW220436   1.054   2.439  15.745 -0.3404 -0.4701 -1.7824
 2992SOL     OW20437   1.239   0.649   7.812 -0.0604 -0.1522  0.0423
 2992SOL    HW120438   1.315   0.594   7.831  0.5479  0.8335  0.4960
 2992SOL    HW220439   1.224   0.687   7.899 -1.3085  2.4565 -1.3280
 2993SOL     OW20440   1.962   3.531  12.683  0.1463  0.1044  0.4931
 2993SOL    HW120441   1.947   3.514  12.590  0.1089  1.3231  0.2690
 2993SOL    HW220442   1.932   3.622  12.690 -0.0842  0.1448 -1.1053
 2994SOL     OW20443   3.132   2.426   5.844  0.7220  0.3921 -0.3281
 2994SOL    HW120444   3.177   2.417   5.928  0.6341  1.2297 -0.1929
 2994SOL    HW220445   3.065   2.360   5.861 -1.4466  2.9985  1.3713
 2995SOL     OW20446   2.348   3.626  16.896  0.3740 -0.2410 -0.1398
 2995SOL    HW120447   2.377   3.583  16.816  2.0232  1.6593 -0.5569
 2995SOL    HW220448   2.400   3.706  16.890 -0.2411  0.0829 -1.1202
 2996SOL     OW20449   0.316   1.884  17.569  0.0072 -0.4037  0.0935
 2996SOL    HW120450   0.257   1.846  17.504  0.7698  0.8598 -1.3150
 2996SOL    HW220451   0.247   1.901  17.633 -1.1350 -1.6803 -0.7899
 2997SOL     OW20452   4.069   0.788   7.593  0.8501  0.1122  0.0359
 2997SOL    HW120453   4.006   0.750   7.654  1.3311  0.6147  0.8468
 2997SOL    HW220454   4.124   0.845   7.648  1.5087  0.2617 -0.7709
 2998SOL     OW20455   0.592   2.067  15.794 -0.5839 -0.4234 -0.0522
 2998SOL    HW120456   0.643   2.071  15.713 -0.4732 -1.3332 -0.0278
 2998SOL    HW220457   0.579   1.974  15.813 -1.7094 -0.6346 -1.9357
 2999SOL     OW20458   2.844   3.500   4.129 -0.4556 -0.4093 -0.5805
 2999SOL    HW120459   2.804   3.417   4.154 -0.0173 -0.8319 -1.2632
 2999SOL    HW220460   2.861   3.504   4.035  0.0411 -0.4919 -0.4965
 3000SOL     OW20461   4.202   1.287  17.178 -0.3706  0.4418  0.1484
 3000SOL    HW120462   4.287   1.326  17.197  0.3581 -1.5945  1.0980
 3000SOL    HW220463   4.168   1.351  17.116  0.9968  0.3797 -0.6677
 3001SOL     OW20464   2.243   2.158   4.913  0.0781  0.4403 -0.6941
 3001SOL    HW120465   2.173   2.168   4.978  0.9237 -0.1330  0.2853
 3001SOL    HW220466   2.231   2.240   4.864 -0.5187  0.1564 -1.0277
 3002SOL     OW20467   1.931   2.500  10.906 -0.1254  0.1718 -0.2117
 3002SOL    HW120468   1.998   2.438  10.877 -0.7709  0.4188 -2.2418
 3002SOL    HW220469   1.971   2.577  10.866  0.2199  0.5040  0.7924
 3003SOL     OW20470   2.717   2.684  12.702 -0.3270 -0.0553  0.1960
 3003SOL    HW120471   2.704   2.686  12.608  1.8563 -0.6326 -0.1166
 3003SOL    HW220472   2.630   2.665  12.739  0.8743  0.8503  3.5371
 3004SOL     OW20473   1.611   3.397   1.081  0.4340  0.6088 -0.0344
 3004SOL    HW120474   1.697   3.377   1.119 -1.1817  0.5328  3.5339
 3004SOL    HW220475   1.620   3.492   1.075 -0.8364  0.7700  0.6243
 3005SOL     OW20476   1.768   1.849   6.820  0.0724 -0.6270  0.5713
 3005SOL    HW120477   1.736   1.828   6.732  0.5442 -0.7910  0.4407
 3005SOL    HW220478   1.863   1.842   6.812  0.1207 -1.5869  2.1775
 3006SOL     OW20479   0.828   1.931   9.325  0.0636  0.3144 -0.3418
 3006SOL    HW120480   0.836   1.840   9.352  1.4194  0.4307 -0.3763
 3006SOL    HW220481   0.853   1.968   9.409 -1.0447  0.8820 -0.2644
 3007SOL     OW20482   4.710   2.751   0.953  0.0384  0.2310 -0.0092
 3007SOL    HW120483   4.686   2.811   0.883  0.2108  0.7650  0.3828
 3007SOL    HW220484   4.637   2.690   0.957 -0.1745  0.3736 -1.7817
 3008SOL     OW20485   2.769   1.697   6.343  0.7675  0.3814  0.5882
 3008SOL    HW120486   2.805   1.717   6.257  1.7560  0.0262  0.9157
 3008SOL    HW220487   2.754   1.784   6.380  0.9211  0.4086  0.5870
 3009SOL     OW20488   0.794   1.370  14.265  0.7338 -0.0605 -0.2988
 3009SOL    HW120489   0.748   1.331  14.191 -0.2877 -0.2353  0.4168
 3009SOL    HW220490   0.871   1.315  14.274  0.5516 -0.3584 -0.5682
 3010SOL     OW20491   3.486   4.227   9.250 -0.1092  0.8958  0.0656
 3010SOL    HW120492   3.510   4.164   9.318  0.3934 -0.4182 -1.3133
 3010SOL    HW220493   3.392   4.221   9.269 -0.1671 -0.3298 -0.5637
 3011SOL     OW20494   2.287   1.319   6.292  0.0340  0.2441  0.4032
 3011SOL    HW120495   2.290   1.233   6.334 -1.1028 -0.2804 -0.6182
 3011SOL    HW220496   2.259   1.384   6.357 -1.6426 -2.4423  2.3672
 3012SOL     OW20497   0.869   3.086   3.093 -0.1357  0.2729 -0.0201
 3012SOL    HW120498   0.815   3.145   3.145  0.2571  1.3656 -0.8383
 3012SOL    HW220499   0.857   3.013   3.153  1.1731 -2.4132 -3.0501
 3013SOL     OW20500   1.516   0.490  12.244 -0.1842  0.3276  0.0809
 3013SOL    HW120501   1.523   0.568  12.300 -4.0112 -1.1046  2.5174
 3013SOL    HW220502   1.475   0.428  12.304  1.3607  1.4199  2.2850
 3014SOL     OW20503   0.308   2.959   1.473  0.0500  0.2123  0.2524
 3014SOL    HW120504   0.391   2.932   1.512  0.0673  0.9936  0.7478
 3014SOL    HW220505   0.272   3.011   1.544 -1.4907  0.0451 -0.3990
 3015SOL     OW20506   0.224   2.482  11.575 -0.0085  0.2532  0.2434
 3015SOL    HW120507   0.171   2.512  11.648 -0.0384  1.0460 -0.1074
 3015SOL    HW220508   0.205   2.388  11.580 -0.2691  0.1994 -1.8053
 3016SOL     OW20509   2.437   0.433   2.053 -0.2484  0.9582  0.5299
 3016SOL    HW120510   2.386   0.477   1.985 -0.4569 -1.3135 -0.7862
 3016SOL    HW220511   2.366   0.390   2.099 -1.0790  0.4015 -1.2819
 3017SOL     OW20512   4.311   2.382   7.463 -0.2211  0.0477 -0.0399
 3017SOL    HW120513   4.339   2.299   7.425 -0.2259  0.3508 -0.6994
 3017SOL    HW220514   4.278   2.344   7.544 -0.5708 -1.0847 -0.7248
 3018SOL     OW20515   2.502   2.455  17.172 -0.3074 -0.3722  0.1030
 3018SOL    HW120516   2.434   2.443  17.107  0.1494  0.3169 -0.5062
 3018SOL    HW220517   2.490   2.546  17.200  1.8659  0.6488 -2.3093
 3019SOL     OW20518   2.044   4.622   9.477  0.3670  0.4080  0.3173
 3019SOL    HW120519   2.135   4.611   9.450  0.3056 -1.5909  0.9634
 3019SOL    HW220520   2.001   4.541   9.448 -0.1008  1.4101 -1.7807
 3020SOL     OW20521   3.583   2.054   8.491 -0.2856  0.0249  0.0468
 3020SOL    HW120522   3.579   1.985   8.558  0.3417  2.1045  2.2300
 3020SOL    HW220523   3.513   2.015   8.438 -2.1795  0.8232  1.9187
 3021SOL     OW20524   3.966   4.163   7.930 -0.0443  0.2754 -0.0432
 3021SOL    HW120525   3.885   4.112   7.931 -0.1684  0.5200  2.7947
 3021SOL    HW220526   4.002   4.136   8.015 -2.0230 -0.0454  0.6809
 3022SOL     OW20527   0.865   3.100   7.435 -0.6156 -0.2249 -0.5974
 3022SOL    HW120528   0.896   3.036   7.370 -0.9232  0.0800 -1.0448
 3022SOL    HW220529   0.940   3.159   7.441 -1.2126  0.3795  0.9787
 3023SOL     OW20530   2.803   3.836  10.574  0.0968  0.2626  0.0222
 3023SOL    HW120531   2.748   3.758  10.563 -0.3746  0.7699 -1.2090
 3023SOL    HW220532   2.839   3.845  10.486  0.0405 -0.8202 -0.1191
 3024SOL     OW20533   4.462   2.295   5.552  0.3163  0.5076 -0.9917
 3024SOL    HW120534   4.532   2.257   5.498  1.5136  1.0996  0.1634
 3024SOL    HW220535   4.518   2.334   5.619  0.0319 -0.5421 -0.1542
 3025SOL     OW20536   4.195   3.179  12.985 -0.5249  0.4081 -0.1362
 3025SOL    HW120537   4.109   3.160  12.948 -0.3303  0.7935 -0.7984
 3025SOL    HW220538   4.180   3.173  13.079  3.6562 -0.6477  0.4862
 3026SOL     OW20539   2.296   1.225   8.127  0.5772  0.0122 -0.1809
 3026SOL    HW120540   2.274   1.318   8.137  0.9886  0.1028 -0.1189
 3026SOL    HW220541   2.217   1.192   8.084 -1.2554  0.7116  2.6162
 3027SOL     OW20542   0.611   0.523   5.481  0.0150  0.8351 -0.0043
 3027SOL    HW120543   0.646   0.458   5.541 -0.5010  1.5659  1.0968
 3027SOL    HW220544   0.639   0.610   5.511  1.0593  1.9270 -4.1131
 3028SOL     OW20545   1.253   3.508   1.104 -0.3960  0.3770 -0.6813
 3028SOL    HW120546   1.322   3.532   1.042 -0.4598 -1.3691 -1.4362
 3028SOL    HW220547   1.252   3.412   1.092  0.7625  0.2450  0.3506
 3029SOL     OW20548   0.426   1.344   7.227 -0.0963  0.2059  0.2040
 3029SOL    HW120549   0.444   1.321   7.318  0.9759  1.9512  0.4368
 3029SOL    HW220550   0.364   1.281   7.190  0.0764  0.4306 -0.4805
 3030SOL     OW20551   1.598   4.080   0.156 -0.0072 -0.0362  0.6749
 3030SOL    HW120552   1.624   4.172   0.164  0.1751 -0.1646  1.5590
 3030SOL    HW220553   1.523   4.073   0.215 -0.2241  0.1032  0.4140
 3031SOL     OW20554   1.685   0.287   5.773  0.0770 -0.7831 -0.2706
 3031SOL    HW120555   1.731   0.216   5.728 -2.2946 -2.1962 -0.4513
 3031SOL    HW220556   1.653   0.238   5.848  0.4023 -1.2634 -0.4410
 3032SOL     OW20557   1.952   2.299   4.173  0.3732  0.2005 -0.4504
 3032SOL    HW120558   1.966   2.394   4.178  1.3863  0.1109 -1.6760
 3032SOL    HW220559   1.995   2.283   4.089  0.8759  0.7446 -0.2982
 3033SOL     OW20560   3.023   1.178   3.560  0.3027  0.1258  0.1135
 3033SOL    HW120561   3.083   1.200   3.488  1.2767  0.5801  1.0543
 3033SOL    HW220562   2.936   1.186   3.522  0.4348  0.9674 -0.0162
 3034SOL     OW20563   0.823   4.082  14.366  0.6900 -0.0308 -0.6555
 3034SOL    HW120564   0.838   4.134  14.445  0.6985  0.1426 -0.7733
 3034SOL    HW220565   0.728   4.091  14.353  0.8626  1.7689 -0.6346
 3035SOL     OW20566   1.868   3.549   6.440 -0.2793 -0.4106  0.0741
 3035SOL    HW120567   1.883   3.456   6.425 -0.4732 -0.6889  1.6840
 3035SOL    HW220568   1.871   3.547   6.535 -2.0867  0.0980  0.1605
 3036SOL     OW20569   2.574   4.392  11.264  0.0119  0.2101 -0.8867
 3036SOL    HW120570   2.541   4.305  11.238 -0.9193  0.3918 -0.3162
 3036SOL    HW220571   2.616   4.373  11.347  3.2092 -1.5318 -2.9138
 3037SOL     OW20572   3.567   0.984   8.175  0.0863  0.2684 -0.0137
 3037SOL    HW120573   3.523   1.010   8.256 -2.0209 -2.5269 -0.2486
 3037SOL    HW220574   3.504   1.018   8.111 -0.2627  0.1350  0.2600
 3038SOL     OW20575   3.938   3.534   1.492  0.4906  0.0179  0.2671
 3038SOL    HW120576   3.849   3.501   1.480  0.5457 -0.4346  1.1172
 3038SOL    HW220577   3.980   3.515   1.408  2.2221  1.5733  0.7805
 3039SOL     OW20578   0.916   4.041  16.496 -0.4975 -0.2253  0.3642
 3039SOL    HW120579   0.866   4.100  16.440  1.9170 -0.4094 -1.9812
 3039SOL    HW220580   0.854   3.968  16.494 -1.3708  0.5047  0.8864
 3040SOL     OW20581   3.961   0.103  12.872 -0.8198 -0.8610  0.7090
 3040SOL    HW120582   3.984   0.017  12.906 -1.6719 -0.5889  1.9736
 3040SOL    HW220583   4.045   0.139  12.844 -1.0018 -0.5457  0.5627
 3041SOL     OW20584   1.434   2.173  15.472 -0.1029  0.1868  0.3368
 3041SOL    HW120585   1.410   2.138  15.386  0.9255  2.4813 -0.8736
 3041SOL    HW220586   1.372   2.116  15.518  0.2664 -1.9574 -1.8142
 3042SOL     OW20587   4.408   1.315  12.837  0.1280 -0.1009  0.1686
 3042SOL    HW120588   4.340   1.268  12.885  0.8843  1.1143  2.4226
 3042SOL    HW220589   4.387   1.402  12.871 -0.3247  0.2191 -0.9397
 3043SOL     OW20590   3.636   1.646   7.438  0.1478 -0.0803  0.6162
 3043SOL    HW120591   3.573   1.574   7.439  0.3463 -0.2659 -0.1423
 3043SOL    HW220592   3.711   1.604   7.396 -0.4606 -2.2517  1.7137
 3044SOL     OW20593   4.326   0.003   6.699 -0.0746 -0.5759 -0.2396
 3044SOL    HW120594   4.385   0.014   6.774 -2.1489  0.7650  1.1981
 3044SOL    HW220595   4.250   0.052   6.728 -0.6208 -1.4457 -0.2160
 3045SOL     OW20596   2.675   2.202   1.654 -0.1763 -0.5555 -0.3861
 3045SOL    HW120597   2.638   2.134   1.710 -1.8932  2.1308  1.7275
 3045SOL    HW220598   2.769   2.190   1.667 -0.2043  1.0587  1.3485
 3046SOL     OW20599   4.122   2.172  11.557  0.2143  0.2064  0.4412
 3046SOL    HW120600   4.048   2.151  11.499  0.5766  0.6132 -0.1719
 3046SOL    HW220601   4.197   2.165  11.497 -0.8066  0.3817 -0.8526
 3047SOL     OW20602   3.003   3.595  10.787  0.6169 -0.2084  0.0338
 3047SOL    HW120603   2.989   3.690  10.794  3.2861  0.2969 -1.4119
 3047SOL    HW220604   3.092   3.582  10.818  1.4282  1.4510 -1.5781
 3048SOL     OW20605   0.820   0.516   7.259 -0.0463  0.0381  0.1063
 3048SOL    HW120606   0.790   0.425   7.261 -3.0021  1.0460  2.9980
 3048SOL    HW220607   0.859   0.515   7.172  0.9429  1.5103  0.5278
 3049SOL     OW20608   3.602   2.226   8.023  0.1164  0.0443 -0.1254
 3049SOL    HW120609   3.634   2.150   7.974 -0.6558  1.8436 -3.4022
 3049SOL    HW220610   3.519   2.188   8.054 -1.7050  3.7615 -0.3973
 3050SOL     OW20611   2.548   1.774   4.260  0.3254  0.0240  0.3675
 3050SOL    HW120612   2.637   1.807   4.255 -0.6690  2.7866  0.8394
 3050SOL    HW220613   2.558   1.755   4.354 -2.3188 -0.5435  0.5330
 3051SOL     OW20614   0.468   2.367   4.801 -0.5676 -0.4556  0.1795
 3051SOL    HW120615   0.417   2.387   4.880 -1.0090 -1.2333  0.0956
 3051SOL    HW220616   0.477   2.275   4.827 -2.1754 -1.2925 -2.1596
 3052SOL     OW20617   2.638   2.065   4.150  0.2146  0.0586 -0.5603
 3052SOL    HW120618   2.692   2.013   4.209 -0.9134  0.4519  0.8253
 3052SOL    HW220619   2.675   2.041   4.066  0.7961 -0.2366 -0.2232
 3053SOL     OW20620   2.486   4.628   1.165  0.0651  0.0491  0.3502
 3053SOL    HW120621   2.550   4.671   1.107  2.4371 -2.8874  0.8177
 3053SOL    HW220622   2.503   4.536   1.145  0.8434  0.4988 -1.0902
 3054SOL     OW20623   1.355   3.566  16.393  0.1124 -0.3292  0.2011
 3054SOL    HW120624   1.282   3.606  16.345  0.8464  0.0875 -0.5529
 3054SOL    HW220625   1.365   3.627  16.466  0.3020 -1.0151  0.7510
 3055SOL     OW20626   2.368   0.534   4.723  0.0964 -0.1695  0.0161
 3055SOL    HW120627   2.450   0.563   4.682 -0.4793  0.5071 -0.6588
 3055SOL    HW220628   2.394   0.526   4.815  0.1306 -0.1020  0.0128
 3056SOL     OW20629   2.007   0.800  16.991  0.0052 -0.1432  0.1058
 3056SOL    HW120630   2.031   0.892  16.984  0.5872 -0.2170  1.0157
 3056SOL    HW220631   1.941   0.798  16.922 -0.9769  0.8835  1.0219
 3057SOL     OW20632   0.915   2.532   0.312 -0.0140 -0.0470  0.4259
 3057SOL    HW120633   0.842   2.503   0.367 -0.3096 -1.0586 -0.4957
 3057SOL    HW220634   0.994   2.498   0.353 -1.8511 -2.3856  1.9857
 3058SOL     OW20635   4.136   0.346   4.694  0.6838 -0.2193 -0.0976
 3058SOL    HW120636   4.137   0.341   4.598 -3.6253 -0.2658 -0.1461
 3058SOL    HW220637   4.105   0.436   4.706 -1.9836 -1.1204 -0.1769
 3059SOL     OW20638   2.354   1.317  15.294  0.3741 -0.0189 -0.3135
 3059SOL    HW120639   2.437   1.317  15.342 -0.1442  2.7500  0.6185
 3059SOL    HW220640   2.306   1.398  15.312 -0.3625 -0.6483  0.5888
 3060SOL     OW20641   2.945   3.392  12.258 -0.5227 -0.1799  0.2878
 3060SOL    HW120642   2.985   3.473  12.290  1.1720 -0.0423 -2.2471
 3060SOL    HW220643   3.015   3.339  12.221 -0.6418  0.5844 -1.0145
 3061SOL     OW20644   3.988   3.094   0.022 -0.0565 -0.5515  0.2994
 3061SOL    HW120645   3.915   3.151  17.698  0.2472  0.1145  0.9898
 3061SOL    HW220646   3.962   3.020  17.666 -0.0019 -0.7023  0.4745
 3062SOL     OW20647   3.459   1.005   8.434 -0.1050 -0.0194  0.5802
 3062SOL    HW120648   3.366   0.992   8.451 -0.3069 -0.2628 -0.7732
 3062SOL    HW220649   3.496   0.925   8.470 -2.5915 -0.7543  1.5143
 3063SOL     OW20650   1.426   2.498  10.603  0.1228  0.8310  0.0513
 3063SOL    HW120651   1.439   2.443  10.680 -0.1358  0.6163 -0.0589
 3063SOL    HW220652   1.378   2.430  10.555 -2.3884  1.9480  0.9518
 3064SOL     OW20653   3.264   0.175   0.224  0.1464  0.2531 -0.0069
 3064SOL    HW120654   3.177   0.196   0.259  1.4055 -0.5622  3.5903
 3064SOL    HW220655   3.273   0.207   0.134 -1.2328 -1.4490 -0.7393
 3065SOL     OW20656   2.592   2.572   6.860  0.1400 -0.2181  0.5646
 3065SOL    HW120657   2.530   2.576   6.932 -1.1782 -1.7308 -0.5028
 3065SOL    HW220658   2.658   2.634   6.892  0.7806  0.5002 -2.1456
 3066SOL     OW20659   3.361   3.037   3.382 -0.2666  0.4032 -0.1668
 3066SOL    HW120660   3.335   3.078   3.300  0.8319 -0.7917 -1.1148
 3066SOL    HW220661   3.287   2.976   3.391  1.0697 -1.2624 -0.4899
 3067SOL     OW20662   0.380   1.376   6.579 -0.1563  1.0427  0.4548
 3067SOL    HW120663   0.455   1.423   6.615  0.4454  0.4144  0.0162
 3067SOL    HW220664   0.369   1.437   6.507  1.0828 -1.3478 -1.7559
 3068SOL     OW20665   3.805   1.851   8.602  0.6341  0.0757  0.2026
 3068SOL    HW120666   3.792   1.935   8.557 -0.3486 -0.5084 -0.6143
 3068SOL    HW220667   3.717   1.820   8.624  0.7681  0.0578  0.7092
 3069SOL     OW20668   1.382   3.605  10.566 -0.1897 -0.7503 -0.0034
 3069SOL    HW120669   1.467   3.639  10.536 -0.5484 -0.0326 -0.2095
 3069SOL    HW220670   1.323   3.615  10.492 -0.1396 -1.4911 -0.1383
 3070SOL     OW20671   4.626   2.279   2.491 -0.3171  0.1802  0.5631
 3070SOL    HW120672   4.620   2.350   2.556  1.0891  1.4734 -0.7071
 3070SOL    HW220673   4.552   2.300   2.434  0.9692 -1.3741 -1.6536
 3071SOL     OW20674   4.271   3.178  13.673  0.3017  0.4345 -0.1450
 3071SOL    HW120675   4.279   3.124  13.751  1.2158 -0.2724 -0.7418
 3071SOL    HW220676   4.222   3.118  13.617 -0.4647 -1.8366  2.9637
 3072SOL     OW20677   4.390   2.642   6.636 -0.0028  0.0823  0.0050
 3072SOL    HW120678   4.455   2.575   6.657 -0.8780 -0.3531  1.3460
 3072SOL    HW220679   4.440   2.721   6.656 -0.9927  0.4182  1.1547
 3073SOL     OW20680   2.665   4.092   0.229 -0.1259 -0.3660 -0.0368
 3073SOL    HW120681   2.761   4.096   0.224  0.0277 -2.8457  0.6307
 3073SOL    HW220682   2.643   4.045   0.149 -1.1494  1.0450 -0.5716
 3074SOL     OW20683   3.756   1.079  11.434  0.1107  0.6989 -0.3492
 3074SOL    HW120684   3.762   1.079  11.338 -0.7118 -1.3811 -0.4078
 3074SOL    HW220685   3.848   1.094  11.456 -0.0392 -2.0973  2.2601
 3075SOL     OW20686   3.791   1.506  15.452  0.9156  0.5817 -0.3595
 3075SOL    HW120687   3.821   1.517  15.361 -1.7394  2.1416 -1.0546
 3075SOL    HW220688   3.825   1.421  15.477 -0.6429  0.0865  0.1189
 3076SOL     OW20689   1.356   0.201   9.113  0.4943 -0.9014  0.1801
 3076SOL    HW120690   1.337   0.108   9.102  0.2395 -1.0046  1.4310
 3076SOL    HW220691   1.413   0.211   9.037 -0.1482  0.7459 -0.0689
 3077SOL     OW20692   2.332   2.230  10.206  0.2924  0.1120 -0.4557
 3077SOL    HW120693   2.252   2.214  10.256  0.5682  1.3586  0.3910
 3077SOL    HW220694   2.304   2.193  10.123 -0.6757 -2.5968  1.0853
 3078SOL     OW20695   4.053   4.203   5.889 -0.8379 -0.3567  0.2759
 3078SOL    HW120696   4.057   4.297   5.868 -0.8372 -0.1647  1.1154
 3078SOL    HW220697   4.101   4.218   5.971  1.8612  0.5264 -1.4779
 3079SOL     OW20698   2.541   0.829   8.401 -0.0096  0.2613 -0.1564
 3079SOL    HW120699   2.474   0.896   8.388 -0.2290  0.2572  0.9170
 3079SOL    HW220700   2.597   0.870   8.336  0.6185  1.2573  1.0166
 3080SOL     OW20701   2.946   2.365  17.610 -0.1061 -0.3843  0.6997
 3080SOL    HW120702   2.881   2.419  17.655  1.1393  1.2450  0.5422
 3080SOL    HW220703   3.030   2.406  17.629  0.4945 -0.6370 -1.4018
 3081SOL     OW20704   2.843   1.438  12.069  0.2366 -0.0732 -0.2680
 3081SOL    HW120705   2.872   1.461  11.981  1.2788 -1.5909 -0.3255
 3081SOL    HW220706   2.926   1.417  12.113  0.4260  1.2392  0.0246
 3082SOL     OW20707   1.914   4.136   2.453 -1.4270  0.5767  0.4888
 3082SOL    HW120708   1.992   4.106   2.406 -1.4466  0.0457  0.7907
 3082SOL    HW220709   1.913   4.075   2.527  0.8360 -0.9886 -0.7818
 3083SOL     OW20710   1.074   2.853   6.751  0.2854 -0.6072 -0.3582
 3083SOL    HW120711   1.144   2.916   6.733  0.1911 -0.0959  1.0535
 3083SOL    HW220712   1.003   2.918   6.756  0.8061  0.0411 -1.1994
 3084SOL     OW20713   3.193   4.057   4.398  0.1758 -0.0056 -0.5304
 3084SOL    HW120714   3.275   4.101   4.423  0.1142  0.4490 -1.1170
 3084SOL    HW220715   3.136   4.132   4.380 -1.0831 -1.0753 -0.9848
 3085SOL     OW20716   2.493   1.416  14.594  0.4010  0.1926  0.3127
 3085SOL    HW120717   2.553   1.471  14.644 -0.3824  1.1690  0.1755
 3085SOL    HW220718   2.417   1.474  14.603 -0.6631 -0.8759 -1.8658
 3086SOL     OW20719   2.469   2.787   7.777 -0.1467  0.3342  0.4202
 3086SOL    HW120720   2.394   2.843   7.756  1.0881  1.8468  0.0381
 3086SOL    HW220721   2.543   2.848   7.775  0.7118 -0.8002 -3.3867
 3087SOL     OW20722   1.900   4.263   0.046  1.2326 -0.4119 -0.4567
 3087SOL    HW120723   1.952   4.186   0.069  2.2890 -0.5407 -3.3137
 3087SOL    HW220724   1.848   4.230  17.673 -1.3789  2.1751  0.2315
 3088SOL     OW20725   0.409   0.627   0.828 -0.1424 -0.4800 -0.0281
 3088SOL    HW120726   0.357   0.586   0.759 -0.5767 -1.5615  0.9382
 3088SOL    HW220727   0.501   0.604   0.814  0.1017  0.3161  0.2809
 3089SOL     OW20728   4.663   3.716   0.408  0.1174  0.5732  0.1760
 3089SOL    HW120729   4.711   3.776   0.465 -1.3300  0.7349  1.2433
 3089SOL    HW220730   0.010   3.661   0.377 -0.4128 -0.6189  1.0290
 3090SOL     OW20731   3.064   3.344   1.189  0.0027  0.0839  0.2514
 3090SOL    HW120732   3.145   3.309   1.225 -0.1333 -1.8651 -1.3033
 3090SOL    HW220733   3.097   3.432   1.169 -1.0394  0.6817  1.1498
 3091SOL     OW20734   2.467   4.262   8.061 -0.3461  0.5053 -0.6376
 3091SOL    HW120735   2.404   4.227   7.999 -1.5144  1.9802 -0.2954
 3091SOL    HW220736   2.410   4.261   8.139  1.8724  2.0910  1.0099
 3092SOL     OW20737   2.708   4.136   7.970  0.1595 -0.3015 -1.0020
 3092SOL    HW120738   2.634   4.176   8.016  0.1384 -1.8823  0.3559
 3092SOL    HW220739   2.721   4.047   8.004  2.3402 -0.1099 -1.3077
 3093SOL     OW20740   0.612   3.916   6.887  0.3682 -0.3644  0.0556
 3093SOL    HW120741   0.578   4.005   6.884  1.5285  0.0294 -1.6534
 3093SOL    HW220742   0.677   3.920   6.958 -0.1347  1.6889  0.3865
 3094SOL     OW20743   4.441   0.220   7.670 -0.1927 -0.1780  0.4289
 3094SOL    HW120744   4.420   0.127   7.661  1.8664 -0.6060 -0.1194
 3094SOL    HW220745   4.532   0.211   7.639 -0.4170 -0.7933 -0.0481
 3095SOL     OW20746   2.877   4.558   7.164  0.3934  0.0141 -0.2053
 3095SOL    HW120747   2.874   4.644   7.206 -1.6888  1.2403 -2.8793
 3095SOL    HW220748   2.811   4.576   7.097  0.8841  0.0179 -0.6844
 3096SOL     OW20749   4.121   2.301   0.376  0.2215 -0.3181 -0.4116
 3096SOL    HW120750   4.107   2.208   0.362  1.6320 -0.7244  0.8537
 3096SOL    HW220751   4.033   2.326   0.403  1.2040  1.7452  0.9422
 3097SOL     OW20752   4.664   2.142   6.148 -0.3541  0.8416  0.7494
 3097SOL    HW120753   4.682   2.151   6.242  2.7921  0.7325  0.1592
 3097SOL    HW220754   4.692   2.052   6.131  1.3810  1.2950  1.0999
 3098SOL     OW20755   0.934   1.205   4.731  0.6306 -0.3959 -0.1102
 3098SOL    HW120756   0.896   1.154   4.659  0.1213 -0.2235  0.0371
 3098SOL    HW220757   0.860   1.204   4.792  1.1460 -2.6970  0.4851
 3099SOL     OW20758   2.780   3.489   6.946  0.5360  0.2180 -0.3976
 3099SOL    HW120759   2.774   3.579   6.915 -2.2944  0.0326 -0.4337
 3099SOL    HW220760   2.753   3.435   6.872 -0.8259 -0.4700  0.5771
 3100SOL     OW20761   0.203   4.309  10.442 -0.3482 -0.3947  0.5711
 3100SOL    HW120762   0.260   4.290  10.367  0.7739 -0.2254  1.3814
 3100SOL    HW220763   0.261   4.292  10.516 -1.6362 -2.2573  1.1715
 3101SOL     OW20764   2.131   4.577  11.472  0.3326  0.2051 -0.2412
 3101SOL    HW120765   2.163   4.667  11.467  2.4870 -0.5092  0.6552
 3101SOL    HW220766   2.208   4.544  11.426 -0.8556 -3.4336  0.3188
 3102SOL     OW20767   2.832   2.482   1.507 -0.7729  0.2979 -0.4542
 3102SOL    HW120768   2.790   2.455   1.425 -2.6196  2.8937 -0.3749
 3102SOL    HW220769   2.907   2.424   1.515  1.4659  3.0802 -0.9906
 3103SOL     OW20770   0.756   4.043  15.862 -0.0704 -0.0688  0.1857
 3103SOL    HW120771   0.675   4.087  15.837 -0.9521 -0.6895  1.9660
 3103SOL    HW220772   0.775   4.001  15.778  0.8666  0.5861  0.0773
 3104SOL     OW20773   1.107   1.712   9.572  0.6395  0.2752 -0.1128
 3104SOL    HW120774   1.159   1.766   9.632  0.0324 -0.5404  1.1557
 3104SOL    HW220775   1.019   1.744   9.591 -0.0491 -0.9604 -1.3013
 3105SOL     OW20776   3.183   1.624   6.372  0.2440 -0.1757 -0.0225
 3105SOL    HW120777   3.177   1.658   6.283 -1.4769 -2.4497 -0.7509
 3105SOL    HW220778   3.165   1.703   6.423  1.9627  0.5622 -0.5668
 3106SOL     OW20779   3.509   2.200   6.396 -0.1473 -0.1752 -0.2860
 3106SOL    HW120780   3.594   2.244   6.405  1.1608 -2.7038 -0.3250
 3106SOL    HW220781   3.463   2.271   6.350  1.7508  1.7703  0.8193
 3107SOL     OW20782   1.825   1.626   6.113  0.1332  1.0430 -0.1930
 3107SOL    HW120783   1.783   1.566   6.051  0.6788  1.5076 -1.0186
 3107SOL    HW220784   1.833   1.707   6.062  0.5910  0.0027 -1.7791
 3108SOL     OW20785   0.708   0.748   5.583 -0.5594 -0.1595 -0.1881
 3108SOL    HW120786   0.698   0.749   5.678 -0.8200  0.2785 -0.2205
 3108SOL    HW220787   0.685   0.839   5.567 -2.2262 -0.6649 -0.6325
 3109SOL     OW20788   2.472   2.602  12.028 -0.1933 -0.2292 -0.7371
 3109SOL    HW120789   2.455   2.693  12.002  0.9303  0.3878  0.7044
 3109SOL    HW220790   2.388   2.566  12.056  0.5869 -1.8567 -0.5405
 3110SOL     OW20791   3.525   1.875  14.499 -0.6302  0.2421  0.0470
 3110SOL    HW120792   3.476   1.802  14.537 -1.4338  1.1652  0.7596
 3110SOL    HW220793   3.540   1.935  14.572 -0.2048 -0.7214  0.7536
 3111SOL     OW20794   2.727   4.220   8.983 -0.4345 -0.1216  0.0099
 3111SOL    HW120795   2.738   4.174   8.899 -1.6869 -0.3798 -0.0088
 3111SOL    HW220796   2.813   4.262   8.987  0.4284 -1.9696  1.1985
 3112SOL     OW20797   4.443   4.066  12.474 -0.4482 -0.5335  0.2149
 3112SOL    HW120798   4.350   4.081  12.455 -0.5441 -0.5768  0.6382
 3112SOL    HW220799   4.451   4.117  12.554 -1.1971  1.5392 -1.0448
 3113SOL     OW20800   3.643   0.854  12.858 -0.2626 -0.4337 -0.5153
 3113SOL    HW120801   3.642   0.765  12.822 -1.0018 -0.8081  0.4290
 3113SOL    HW220802   3.672   0.907  12.784 -0.6350 -1.9637 -1.7609
 3114SOL     OW20803   0.777   2.911   5.774 -0.0186 -0.0001 -0.1427
 3114SOL    HW120804   0.741   2.853   5.841 -0.2910 -1.7446 -1.7908
 3114SOL    HW220805   0.737   2.885   5.691  1.2902 -0.7348 -0.5425
 3115SOL     OW20806   3.785   1.139   2.316  0.5916 -0.5699 -0.2924
 3115SOL    HW120807   3.848   1.191   2.366 -0.0319 -0.1728  0.0824
 3115SOL    HW220808   3.841   1.095   2.252  1.1693  0.1427 -0.2871
 3116SOL     OW20809   2.829   3.641   3.278 -0.0749  0.1399 -0.2870
 3116SOL    HW120810   2.870   3.621   3.193  2.2591  2.5980  0.2589
 3116SOL    HW220811   2.850   3.733   3.296 -0.0515  0.7513 -3.3820
 3117SOL     OW20812   1.910   0.182   7.552  0.9159 -0.0152 -0.3082
 3117SOL    HW120813   1.921   0.087   7.546 -0.8240 -0.1035 -1.9944
 3117SOL    HW220814   1.829   0.190   7.603 -0.7005 -0.2484 -2.8611
 3118SOL     OW20815   2.951   1.974   1.679 -0.1253 -0.5436 -0.6444
 3118SOL    HW120816   3.005   2.051   1.664  0.5914 -0.7935  0.6898
 3118SOL    HW220817   3.011   1.927   1.737 -0.7988 -0.8266 -0.1741
 3119SOL     OW20818   3.871   1.599   3.058 -0.0915  0.1019 -0.0226
 3119SOL    HW120819   3.842   1.633   3.143 -0.9980 -0.6375 -0.0412
 3119SOL    HW220820   3.801   1.620   2.996 -0.0945  0.5079  0.1167
 3120SOL     OW20821   0.348   2.941   3.140  0.2589 -0.2644  0.3168
 3120SOL    HW120822   0.327   2.857   3.100 -0.8862  1.8147 -3.5423
 3120SOL    HW220823   0.264   2.962   3.182 -1.5540  2.4838 -4.6596
 3121SOL     OW20824   2.527   0.660  16.578  0.4011  0.8232 -0.1358
 3121SOL    HW120825   2.509   0.754  16.583  0.9908  0.7362  3.9810
 3121SOL    HW220826   2.511   0.644  16.485  0.2948 -0.0511  0.0310
 3122SOL     OW20827   2.192   0.693   4.306  0.1310 -0.3998 -0.4937
 3122SOL    HW120828   2.282   0.715   4.328  0.0165 -0.5011  0.0947
 3122SOL    HW220829   2.182   0.623   4.371 -2.4427  1.9661  1.7073
 3123SOL     OW20830   0.737   3.611   7.802  0.1341  0.5941 -0.3793
 3123SOL    HW120831   0.690   3.575   7.726  1.9218  0.2309 -1.3014
 3123SOL    HW220832   0.798   3.666   7.753  0.6364  1.0398  0.7705
 3124SOL     OW20833   3.315   2.023   6.469  0.1261  0.1017 -0.4581
 3124SOL    HW120834   3.333   1.931   6.488 -0.5633  0.1926  0.6759
 3124SOL    HW220835   3.399   2.052   6.432  1.0957  0.2003  1.8116
 3125SOL     OW20836   2.822   4.485   6.255 -0.3829  0.7539  0.0889
 3125SOL    HW120837   2.750   4.524   6.305 -1.8120 -0.1758 -1.2756
 3125SOL    HW220838   2.783   4.404   6.224  2.3455 -0.6318  0.2620
 3126SOL     OW20839   4.346   3.641   2.694  0.0368  0.0580 -0.3189
 3126SOL    HW120840   4.265   3.595   2.671  0.2541 -0.0565 -0.8640
 3126SOL    HW220841   4.345   3.723   2.645  0.2966 -0.0456 -0.5017
 3127SOL     OW20842   0.181   1.939   4.036  0.0524  0.6012 -0.0444
 3127SOL    HW120843   0.218   2.028   4.033  1.0935  0.2133  1.2095
 3127SOL    HW220844   0.221   1.908   4.118  2.9637  1.9527 -0.9341
 3128SOL     OW20845   2.683   3.788  12.900 -0.5566 -0.2578  0.0699
 3128SOL    HW120846   2.713   3.863  12.951  2.5620 -1.9220  0.6283
 3128SOL    HW220847   2.727   3.716  12.944 -0.6328 -0.7591 -0.6723
 3129SOL     OW20848   3.183   0.881   8.490  0.2745 -0.5055  0.5869
 3129SOL    HW120849   3.214   0.816   8.428  2.9995  0.1696  1.2449
 3129SOL    HW220850   3.155   0.828   8.564  1.8954 -2.9752 -0.6058
 3130SOL     OW20851   3.518   0.048   0.614  0.7257  0.3199 -0.5881
 3130SOL    HW120852   3.466   4.694   0.632  2.9496 -0.8717  0.7042
 3130SOL    HW220853   3.533   0.046   0.520 -1.8267 -1.3223 -0.9453
 3131SOL     OW20854   3.980   4.002   0.220  0.1528  0.0169  0.0766
 3131SOL    HW120855   4.001   3.990   0.128 -0.1325  4.0618 -0.5219
 3131SOL    HW220856   3.888   4.024   0.204 -0.7394 -1.9563  2.4175
 3132SOL     OW20857   0.692   4.036   3.835  0.2607  0.1622  0.2207
 3132SOL    HW120858   0.695   4.044   3.930 -0.5501  2.4705  0.0667
 3132SOL    HW220859   0.762   3.978   3.807 -1.2938 -1.1330 -1.0168
 3133SOL     OW20860   0.705   0.920   7.543 -0.6128  0.0152 -0.9463
 3133SOL    HW120861   0.736   0.892   7.456 -1.4426  2.5570 -2.0583
 3133SOL    HW220862   0.754   1.002   7.550  0.4295 -0.5772 -1.2827
 3134SOL     OW20863   2.105   0.236  10.801 -0.3039  0.2978 -0.6276
 3134SOL    HW120864   2.046   0.270  10.734  2.6716  4.1132 -1.2569
 3134SOL    HW220865   2.043   0.199  10.865 -0.0076 -2.6083 -2.0198
 3135SOL     OW20866   0.630   3.149   3.216 -0.7984  0.4646  0.3133
 3135SOL    HW120867   0.584   3.114   3.140  1.1198  1.6095 -1.3962
 3135SOL    HW220868   0.569   3.126   3.286 -1.2738  3.4902  0.8945
 3136SOL     OW20869   2.874   2.440   2.469 -0.1225 -0.2617  0.7672
 3136SOL    HW120870   2.893   2.380   2.397 -2.0825  1.7913 -1.4499
 3136SOL    HW220871   2.958   2.480   2.491  0.1183  0.0984 -0.8331
 3137SOL     OW20872   2.217   2.733  10.994 -0.2053 -0.3379  0.4583
 3137SOL    HW120873   2.155   2.743  10.921 -0.8838 -0.1827  1.0482
 3137SOL    HW220874   2.275   2.665  10.962 -2.2885 -1.5386 -0.7570
 3138SOL     OW20875   3.836   1.450   8.212 -0.6099  0.0572  0.0476
 3138SOL    HW120876   3.760   1.392   8.210 -0.0414 -0.7609  2.0033
 3138SOL    HW220877   3.801   1.529   8.252  0.0758  1.8874 -2.9262
 3139SOL     OW20878   4.413   2.831   2.914  0.0201 -0.3111 -0.1617
 3139SOL    HW120879   4.318   2.837   2.927  0.2939  1.9688  0.6577
 3139SOL    HW220880   4.426   2.924   2.900  0.7797 -0.5324 -0.9067
 3140SOL     OW20881   4.377   0.633  15.080  0.1764  0.9937 -0.1846
 3140SOL    HW120882   4.468   0.626  15.052  0.3599  2.0191  0.1575
 3140SOL    HW220883   4.366   0.542  15.106 -2.2723  0.3239 -3.4950
 3141SOL     OW20884   4.457   0.948   4.932 -0.2692 -0.0647 -0.2270
 3141SOL    HW120885   4.446   0.971   5.025  1.3987 -4.5446  1.0945
 3141SOL    HW220886   4.367   0.945   4.900 -1.0337 -0.0035  1.9032
 3142SOL     OW20887   0.289   4.219   3.477 -0.2024 -0.1320 -0.2546
 3142SOL    HW120888   0.302   4.131   3.515  0.5310 -0.9268 -2.3625
 3142SOL    HW220889   0.257   4.204   3.388  0.0477 -0.4668 -0.2895
 3143SOL     OW20890   3.291   4.371   9.778 -0.2254  0.1435  0.7309
 3143SOL    HW120891   3.365   4.310   9.778 -1.8169 -1.7918  0.8735
 3143SOL    HW220892   3.273   4.387   9.686  2.8483 -2.9402 -0.4062
 3144SOL     OW20893   0.765   4.557   8.689  0.4704 -0.3137  0.3033
 3144SOL    HW120894   0.755   4.600   8.604 -1.4026 -0.2405  0.5650
 3144SOL    HW220895   0.716   4.475   8.681 -0.6438  0.1660  2.1623
 3145SOL     OW20896   1.654   1.220   3.380 -0.5359  0.3440  0.0900
 3145SOL    HW120897   1.652   1.200   3.474 -0.6220 -1.8677 -0.3867
 3145SOL    HW220898   1.603   1.301   3.382 -2.9484 -1.1681 -0.4433
 3146SOL     OW20899   2.596   1.338  12.980 -0.2179 -0.4110  0.4365
 3146SOL    HW120900   2.637   1.388  13.051 -0.4143  3.9177 -2.5136
 3146SOL    HW220901   2.548   1.405  12.931  1.9440  1.4228  0.8264
 3147SOL     OW20902   0.373   3.414   4.506  0.2976 -0.4559 -0.0698
 3147SOL    HW120903   0.405   3.497   4.542 -0.1152 -0.9092  1.3634
 3147SOL    HW220904   0.409   3.421   4.418 -0.5584 -0.0070 -0.3848
 3148SOL     OW20905   1.233   1.548   3.221  0.7499  0.0559  0.2843
 3148SOL    HW120906   1.150   1.542   3.268  0.5576  3.0576  0.3425
 3148SOL    HW220907   1.228   1.498   3.140 -1.5956 -0.2800  0.6618
 3149SOL     OW20908   0.546   0.723   5.263  0.2235  0.5980  0.1686
 3149SOL    HW120909   0.640   0.728   5.246  0.2863  0.2176  0.4024
 3149SOL    HW220910   0.550   0.679   5.348 -0.5007 -0.9069 -0.5590
 3150SOL     OW20911   2.339   0.134   0.892 -0.2643 -0.1732 -0.3081
 3150SOL    HW120912   2.250   0.106   0.913  0.6349 -1.0629  2.3751
 3150SOL    HW220913   2.391   0.053   0.888 -0.0964 -0.1894  1.8764
 3151SOL     OW20914   2.124   4.724  11.101  0.9979 -0.2251 -0.1580
 3151SOL    HW120915   2.127   0.086  11.143  0.5408  0.4486 -1.5211
 3151SOL    HW220916   2.179   4.672  11.160 -0.2041 -1.1756  0.1310
 3152SOL     OW20917   1.023   0.018   2.984  0.4022  0.0893  0.7739
 3152SOL    HW120918   1.066   0.104   2.988 -2.0574  1.4102 -1.7586
 3152SOL    HW220919   1.042   4.710   3.072  1.7940  1.5435  1.0199
 3153SOL     OW20920   2.956   3.538   7.434 -0.4203 -0.4879 -0.1535
 3153SOL    HW120921   3.046   3.562   7.413 -0.0851  0.5010  2.4245
 3153SOL    HW220922   2.945   3.575   7.522 -1.7001 -0.5436 -0.2985
 3154SOL     OW20923   2.755   1.091   3.182 -0.4984  0.2850  0.2502
 3154SOL    HW120924   2.728   1.182   3.197 -1.3870 -0.4419  3.2097
 3154SOL    HW220925   2.749   1.068   3.090  0.2487 -0.3984  0.3735
 3155SOL     OW20926   1.893   3.811  12.718  0.3557 -0.0371  0.6797
 3155SOL    HW120927   1.817   3.864  12.740 -1.3367 -2.2502  0.2292
 3155SOL    HW220928   1.952   3.819  12.793 -2.1251  1.2569  2.4764
 3156SOL     OW20929   1.259   4.278   5.266  0.2222  0.2500  0.4875
 3156SOL    HW120930   1.243   4.183   5.265  0.9626  0.1174  0.8087
 3156SOL    HW220931   1.197   4.306   5.333 -2.3338 -2.2019 -0.8738
 3157SOL     OW20932   2.918   4.586   0.956  0.1500 -0.3106  0.3125
 3157SOL    HW120933   2.931   4.492   0.970 -0.4860 -0.4949 -0.3962
 3157SOL    HW220934   2.994   4.628   0.997  1.8707 -2.5579 -0.5332
 3158SOL     OW20935   3.094   1.965  11.876  0.3058  0.2568  0.3312
 3158SOL    HW120936   3.048   2.003  11.952 -1.0581 -4.4968  1.8727
 3158SOL    HW220937   3.183   1.954  11.909  1.0787 -2.4571 -2.7188
 3159SOL     OW20938   0.857   2.621  13.938  0.1099 -0.5628  0.1901
 3159SOL    HW120939   0.906   2.557  13.886  1.2505  0.6479 -0.1883
 3159SOL    HW220940   0.928   2.665  13.985 -2.0665  1.0220  1.9879
 3160SOL     OW20941   2.848   2.010   3.957 -0.2549  0.0875 -0.6788
 3160SOL    HW120942   2.854   1.974   3.869  1.7289  3.7710 -2.0352
 3160SOL    HW220943   2.917   1.957   3.998 -0.6188 -0.1464 -0.3662
 3161SOL     OW20944   3.777   3.449   2.095 -0.4706  0.2075 -0.3294
 3161SOL    HW120945   3.872   3.448   2.078 -0.3050 -0.5053  0.5777
 3161SOL    HW220946   3.765   3.363   2.137  2.6083  1.5260  3.2959
 3162SOL     OW20947   3.218   2.989   4.119 -0.1333 -0.2454  0.3516
 3162SOL    HW120948   3.225   2.920   4.053 -0.3931  1.4738 -1.4821
 3162SOL    HW220949   3.300   3.035   4.102 -0.5175  0.9771  1.7748
 3163SOL     OW20950   4.187   1.715   3.208 -0.2803  0.3406  0.1300
 3163SOL    HW120951   4.214   1.807   3.209 -0.5127  0.4480 -2.0325
 3163SOL    HW220952   4.223   1.678   3.127  0.3380 -0.1293  0.6256
 3164SOL     OW20953   2.700   4.101   7.489  0.1383 -0.3388  0.1798
 3164SOL    HW120954   2.630   4.039   7.468  0.5349 -0.4234 -0.8883
 3164SOL    HW220955   2.664   4.157   7.558 -0.5194 -2.0251  1.2006
 3165SOL     OW20956   2.024   3.008   0.769 -0.4931 -0.1230 -0.3220
 3165SOL    HW120957   2.093   3.063   0.734 -2.5602  1.8783 -1.2391
 3165SOL    HW220958   2.069   2.925   0.785  0.7104  0.3728 -1.2044
 3166SOL     OW20959   2.560   4.689   0.620 -0.0779 -0.3520  0.0377
 3166SOL    HW120960   2.562   0.060   0.618 -1.2282 -0.3411 -0.4629
 3166SOL    HW220961   2.648   4.669   0.589  1.0838  0.9214  2.5002
 3167SOL     OW20962   1.320   3.221   8.956  0.2923  0.3057  0.1477
 3167SOL    HW120963   1.318   3.157   9.027 -0.1783  0.9661  0.7344
 3167SOL    HW220964   1.404   3.266   8.967 -1.5091  3.3676  1.5109
 3168SOL     OW20965   2.504   2.054   8.671  0.1403 -0.4263 -0.5618
 3168SOL    HW120966   2.570   2.121   8.689  1.1314 -2.0512  1.7364
 3168SOL    HW220967   2.463   2.032   8.754  2.8628  2.5608  1.5363
 3169SOL     OW20968   3.538   3.503   3.223 -0.0028  0.2746  0.2382
 3169SOL    HW120969   3.577   3.478   3.139  0.6479  0.3926  0.5053
 3169SOL    HW220970   3.616   3.546   3.258 -0.5754  1.9516 -0.5786
 3170SOL     OW20971   3.125   2.265   1.781 -1.1795  0.0789 -0.0940
 3170SOL    HW120972   3.194   2.198   1.781 -0.7315  0.5348  0.7936
 3170SOL    HW220973   3.101   2.274   1.689 -3.8160  1.3746  0.7255
 3171SOL     OW20974   3.864   2.344  16.042  0.2943 -0.6347  0.0644
 3171SOL    HW120975   3.877   2.425  16.091  0.6757 -0.9698  0.5154
 3171SOL    HW220976   3.954   2.316  16.025  0.7131  0.2359  0.8214
 3172SOL     OW20977   2.877   0.216   5.590 -0.6577  0.3239 -0.3572
 3172SOL    HW120978   2.909   0.188   5.504  1.0035 -0.3097  0.4755
 3172SOL    HW220979   2.877   0.136   5.643  0.4847  1.7411  1.7958
 3173SOL     OW20980   0.191   3.274   7.719  0.5358  0.1053  0.2339
 3173SOL    HW120981   0.105   3.240   7.743  0.1603  2.2105  1.9229
 3173SOL    HW220982   0.245   3.195   7.721  1.8298  0.9507 -0.9426
 3174SOL     OW20983   3.727   1.252   6.379 -0.2116 -0.4110 -0.2056
 3174SOL    HW120984   3.735   1.182   6.443 -1.7059 -1.8615 -1.6182
 3174SOL    HW220985   3.706   1.208   6.296 -0.7274 -0.3904 -0.0820
 3175SOL     OW20986   2.901   3.421  13.713  0.0823  0.5213  0.4778
 3175SOL    HW120987   2.897   3.517  13.715  0.6603  0.5267  1.4015
 3175SOL    HW220988   2.829   3.395  13.770  1.2156 -0.5326  1.4405
 3176SOL     OW20989   2.566   3.853   7.402  0.7939  0.0187  0.4455
 3176SOL    HW120990   2.474   3.828   7.409 -0.1299  3.3921  0.2793
 3176SOL    HW220991   2.594   3.798   7.475 -1.3118 -1.3155  0.2567
 3177SOL     OW20992   1.985   0.842  17.272 -0.1231 -0.1946  0.3647
 3177SOL    HW120993   1.960   0.757  17.307  0.3733 -0.5014 -0.0275
 3177SOL    HW220994   2.013   0.815  17.184  2.7234  2.3429  0.5062
 3178SOL     OW20995   3.631   2.141   6.656 -0.1123  0.4546 -0.5429
 3178SOL    HW120996   3.566   2.157   6.587 -0.0966  2.5893 -0.0704
 3178SOL    HW220997   3.625   2.229   6.695 -0.2561 -0.4176  1.4061
 3179SOL     OW20998   0.504   0.368   3.701  0.2308 -0.0273 -0.2155
 3179SOL    HW120999   0.564   0.295   3.686 -0.9660 -1.0192 -0.1699
 3179SOL    HW221000   0.426   0.334   3.657  0.5642 -0.4705 -0.4561
 3180SOL     OW21001   4.724   3.070   0.224  0.1161  0.0402  0.1067
 3180SOL    HW121002   4.679   3.140   0.270 -1.2623 -1.3263  0.8446
 3180SOL    HW221003   4.645   3.028   0.190 -0.1343 -0.2754  1.0601
 3181SOL     OW21004   1.134   1.632   4.203 -0.1759  0.0199  0.1302
 3181SOL    HW121005   1.165   1.713   4.163  0.0557  0.1466  0.5664
 3181SOL    HW221006   1.097   1.664   4.285  1.9998 -2.1385  1.9420
 3182SOL     OW21007   1.500   0.352   0.120  0.5283  0.6697  0.2588
 3182SOL    HW121008   1.587   0.360   0.080  2.3870  0.3415  4.1384
 3182SOL    HW221009   1.476   0.263   0.098  0.3111  0.9083 -0.4650
 3183SOL     OW21010   2.680   2.811   4.007  0.0554  0.0648 -0.1842
 3183SOL    HW121011   2.749   2.758   4.045 -1.4740 -2.0448 -0.3224
 3183SOL    HW221012   2.617   2.744   3.979 -0.5812 -0.0455  1.5401
 3184SOL     OW21013   2.439   3.315   8.771 -0.0131  0.1791  0.0920
 3184SOL    HW121014   2.427   3.372   8.847 -1.6202 -0.5837  0.4182
 3184SOL    HW221015   2.533   3.300   8.758  0.3452  0.3470  2.5011
 3185SOL     OW21016   1.168   2.505   4.018 -0.3861  0.2681 -0.2849
 3185SOL    HW121017   1.240   2.443   4.036 -0.1738  0.2083 -1.3376
 3185SOL    HW221018   1.123   2.460   3.946 -0.7130  3.4342 -2.0453
 3186SOL     OW21019   2.095   2.987   3.114 -0.6184 -0.2037 -0.7166
 3186SOL    HW121020   2.164   2.990   3.047 -1.4186 -2.8990 -1.6577
 3186SOL    HW221021   2.029   2.929   3.077  1.6747 -2.5931 -1.0658
 3187SOL     OW21022   3.075   2.687   8.252  0.6032  0.1446  0.1014
 3187SOL    HW121023   3.128   2.628   8.199 -0.6544  1.1833 -2.3284
 3187SOL    HW221024   3.130   2.753   8.294  0.3067  1.1161 -1.0321
 3188SOL     OW21025   2.373   1.902   5.758 -0.4163  0.0446 -0.4048
 3188SOL    HW121026   2.284   1.883   5.730 -0.8474 -0.2361  1.1649
 3188SOL    HW221027   2.399   1.822   5.803 -3.1722 -1.2546 -1.1166
 3189SOL     OW21028   1.209   2.611   6.085 -0.1957 -0.2492 -0.7539
 3189SOL    HW121029   1.209   2.647   6.174 -2.6365  3.6174 -2.3138
 3189SOL    HW221030   1.161   2.529   6.089 -0.4132 -0.0936 -0.0557
 3190SOL     OW21031   1.525   2.263   5.526  0.5215  0.2444 -0.7141
 3190SOL    HW121032   1.442   2.307   5.505  0.2999  0.4307  0.5157
 3190SOL    HW221033   1.530   2.293   5.617  1.2895 -1.0031 -0.3405
 3191SOL     OW21034   2.149   0.468   2.574 -0.1509 -0.3212  0.1116
 3191SOL    HW121035   2.094   0.483   2.651  2.2545 -0.2667  1.8325
 3191SOL    HW221036   2.211   0.540   2.586  1.9170 -1.8104 -1.7751
 3192SOL     OW21037   1.866   3.397   1.171 -0.6617  0.1308 -0.1064
 3192SOL    HW121038   1.888   3.482   1.208  2.4062 -0.1933 -1.2153
 3192SOL    HW221039   1.921   3.397   1.093 -0.9068 -1.0005 -0.2785
 3193SOL     OW21040   0.830   4.036  12.329  0.1499  0.5688 -0.7192
 3193SOL    HW121041   0.912   4.023  12.377  0.6829 -0.9106 -2.0242
 3193SOL    HW221042   0.871   4.057  12.245 -2.6341  0.9944 -1.9482
 3194SOL     OW21043   2.763   3.465   1.776 -0.0768  0.7291  0.3175
 3194SOL    HW121044   2.818   3.476   1.854 -0.4296  0.7956  0.5533
 3194SOL    HW221045   2.803   3.520   1.708 -0.4744 -0.7690 -1.1382
 3195SOL     OW21046   2.193   2.722  12.627 -0.3658  0.0117  0.1409
 3195SOL    HW121047   2.254   2.777  12.676 -0.1344 -0.7770  0.7395
 3195SOL    HW221048   2.243   2.643  12.605 -0.5762 -0.1818  0.3444
 3196SOL     OW21049   2.114   1.730  14.684 -0.2948 -0.4250 -0.1766
 3196SOL    HW121050   2.106   1.656  14.624 -0.0372 -0.5892 -0.0066
 3196SOL    HW221051   2.043   1.726  14.748  1.1962  0.3035  1.5431
 3197SOL     OW21052   3.432   4.200   8.871 -0.0312  0.0851 -0.1370
 3197SOL    HW121053   3.463   4.288   8.852  1.2850 -0.2254  0.5577
 3197SOL    HW221054   3.512   4.155   8.897 -0.0496  0.2316  0.1777
 3198SOL     OW21055   0.809   2.845  11.499  0.6723  0.2845  0.3411
 3198SOL    HW121056   0.904   2.847  11.512  0.8292 -0.4312 -0.6589
 3198SOL    HW221057   0.774   2.871  11.584  0.2586  2.1121 -0.3818
 3199SOL     OW21058   2.780   3.168   5.550 -0.5003 -0.3927 -0.3256
 3199SOL    HW121059   2.696   3.154   5.593 -0.3511 -1.7216 -0.4707
 3199SOL    HW221060   2.762   3.136   5.461 -1.3192  2.4249 -1.1830
 3200SOL     OW21061   3.764   3.177   3.377 -0.0068 -0.1218  0.3501
 3200SOL    HW121062   3.779   3.246   3.313 -1.3795  0.2862  0.4720
 3200SOL    HW221063   3.681   3.187   3.422 -0.6072 -0.7686 -0.6178
 3201SOL     OW21064   0.995   1.928   2.514  0.1845 -0.3986  0.3670
 3201SOL    HW121065   1.076   1.900   2.559  2.1504 -1.6596 -3.9318
 3201SOL    HW221066   0.940   1.965   2.582 -1.2575 -2.3860  0.2684
 3202SOL     OW21067   2.088   3.529  16.688 -0.2172 -0.0801  0.4204
 3202SOL    HW121068   2.150   3.476  16.636 -1.3283 -1.3768  0.4298
 3202SOL    HW221069   2.080   3.615  16.648  2.8486  0.7858  1.6555
 3203SOL     OW21070   0.157   4.361  15.546 -0.2879 -0.3765 -0.0158
 3203SOL    HW121071   0.070   4.321  15.541 -0.8978  0.9974 -0.3584
 3203SOL    HW221072   0.136   4.454  15.547 -1.9402 -0.7585  0.1496
 3204SOL     OW21073   3.743   4.605   9.746 -0.2607 -0.0607 -0.2840
 3204SOL    HW121074   3.758   4.696   9.720  1.4577  0.2401  1.7849
 3204SOL    HW221075   3.760   4.560   9.663  2.2050  0.3903 -0.0162
 3205SOL     OW21076   3.278   3.730  16.401 -0.4888 -0.3891 -0.1359
 3205SOL    HW121077   3.288   3.825  16.407 -1.5982 -0.2000 -1.3665
 3205SOL    HW221078   3.182   3.725  16.395 -0.5502 -0.0446  0.4740
 3206SOL     OW21079   3.879   2.582   2.998 -0.1597 -0.1504 -0.1387
 3206SOL    HW121080   3.954   2.604   2.942  1.1671 -1.3566  1.1827
 3206SOL    HW221081   3.917   2.600   3.084  0.8345  2.8308 -1.1946
 3207SOL     OW21082   2.473   0.635   8.861  0.4438  0.2597  0.1138
 3207SOL    HW121083   2.378   0.628   8.865  0.5649  0.2003  2.9375
 3207SOL    HW221084   2.493   0.661   8.951  1.9328 -1.8493  0.3842
 3208SOL     OW21085   0.244   3.862   2.120  0.2032  0.0013 -0.4819
 3208SOL    HW121086   0.319   3.861   2.061 -0.9007  2.1341 -1.9546
 3208SOL    HW221087   0.287   3.846   2.204 -0.9329 -2.0576 -0.2983
 3209SOL     OW21088   0.729   2.823  13.751  0.1515  0.2282 -0.2015
 3209SOL    HW121089   0.681   2.789  13.676  0.0937 -0.3166  0.0824
 3209SOL    HW221090   0.812   2.843  13.707  0.8083 -0.8765  0.5269
 3210SOL     OW21091   4.405   2.790  13.446  0.2421 -0.3872 -0.1336
 3210SOL    HW121092   4.350   2.778  13.524  0.1768 -1.4635 -0.3533
 3210SOL    HW221093   4.368   2.727  13.385 -1.3464  0.1709  0.2636
 3211SOL     OW21094   1.356   3.888   4.767  0.1286  0.0253  0.1454
 3211SOL    HW121095   1.320   3.818   4.712  0.2078 -2.0160  2.6796
 3211SOL    HW221096   1.448   3.862   4.771 -0.1076 -1.2588 -2.6558
 3212SOL     OW21097   0.416   4.527   6.639  0.0057 -0.1300 -0.4023
 3212SOL    HW121098   0.326   4.518   6.670  0.4675 -1.7052  0.4739
 3212SOL    HW221099   0.422   4.541   6.545  2.1142  2.1427  0.0668
 3213SOL     OW21100   3.989   1.796   8.070 -0.3910  0.2251 -0.0639
 3213SOL    HW121101   3.959   1.836   7.988  0.7416  1.7935  0.2910
 3213SOL    HW221102   3.928   1.845   8.125 -0.9836  0.6597 -1.1042
 3214SOL     OW21103   1.699   0.681  17.600 -0.0640  0.0942 -0.2181
 3214SOL    HW121104   1.782   0.728  17.599 -0.9154  1.6493  0.7173
 3214SOL    HW221105   1.721   0.603  17.650 -1.4860  0.7591  1.4450
 3215SOL     OW21106   4.088   4.207   1.769 -0.4205 -0.2391 -0.4940
 3215SOL    HW121107   4.184   4.199   1.771 -0.3034  1.3397  0.0618
 3215SOL    HW221108   4.085   4.296   1.805 -0.0549  0.0773 -1.2406
 3216SOL     OW21109   3.707   2.106  14.412 -0.5474 -0.5062 -0.3082
 3216SOL    HW121110   3.679   2.112  14.321 -0.7790 -0.0152 -0.2020
 3216SOL    HW221111   3.734   2.015  14.420 -3.1550 -1.4069 -1.8395
 3217SOL     OW21112   0.617   4.113   7.307  0.0614  0.3707 -0.4464
 3217SOL    HW121113   0.564   4.178   7.354 -2.0659 -0.5739 -1.5144
 3217SOL    HW221114   0.554   4.066   7.252 -0.1815 -1.0053  1.0238
 3218SOL     OW21115   3.022   3.405   8.040 -0.3391 -0.1713  0.1991
 3218SOL    HW121116   2.961   3.341   8.077  0.3857 -0.7123  0.4560
 3218SOL    HW221117   3.108   3.378   8.074 -0.8258 -1.8179  0.1476
 3219SOL     OW21118   4.386   3.472  12.749  0.4922 -0.3147  0.0833
 3219SOL    HW121119   4.321   3.466  12.819 -0.5432  0.4258 -0.8125
 3219SOL    HW221120   4.421   3.383  12.757  2.5537  0.4422 -0.5872
 3220SOL     OW21121   0.970   2.487  11.304  0.2356  0.5012 -0.0478
 3220SOL    HW121122   0.894   2.438  11.335 -1.1582  2.4261 -0.4297
 3220SOL    HW221123   0.923   2.550  11.249 -0.5010 -0.9148 -1.0544
 3221SOL     OW21124   2.292   1.467   9.795  0.5154 -0.0424 -0.1786
 3221SOL    HW121125   2.379   1.448   9.761  0.5703  0.5664 -0.3845
 3221SOL    HW221126   2.260   1.378   9.812  0.1311  0.4043  1.3954
 3222SOL     OW21127   0.419   4.709   0.031  0.7765 -0.0512  0.1173
 3222SOL    HW121128   0.333   4.682   0.064 -0.5709  1.6247 -2.0300
 3222SOL    HW221129   0.407   0.010  17.639  0.1055 -1.4042 -0.1680
 3223SOL     OW21130   4.676   1.574  11.523 -0.2054 -0.3804  0.6512
 3223SOL    HW121131   4.637   1.491  11.550 -1.9680  0.9417  2.1466
 3223SOL    HW221132   0.009   1.550  11.451  3.2169  2.1717  2.5286
 3224SOL     OW21133   4.002   1.611   5.160  0.0464  0.2470 -0.5825
 3224SOL    HW121134   3.936   1.680   5.159  2.3588  2.4480 -2.8266
 3224SOL    HW221135   4.056   1.630   5.083 -0.8151 -2.4927 -1.8672
 3225SOL     OW21136   2.408   1.811  17.057  0.0842 -0.2531 -0.1656
 3225SOL    HW121137   2.431   1.843  17.144 -1.6177  0.7508 -0.0918
 3225SOL    HW221138   2.322   1.775  17.075  0.1913 -0.6243 -0.3798
 3226SOL     OW21139   1.493   4.169   7.645  0.6273  0.3082 -0.7678
 3226SOL    HW121140   1.403   4.145   7.667  1.7082 -1.1723  1.9941
 3226SOL    HW221141   1.530   4.099   7.591  0.6042 -0.2567 -0.0591
 3227SOL     OW21142   0.330   3.718   3.026 -0.1195 -0.5262  0.1895
 3227SOL    HW121143   0.353   3.809   3.012  0.7786 -0.5798  1.3759
 3227SOL    HW221144   0.318   3.713   3.121 -0.5167 -1.1296  0.1134
 3228SOL     OW21145   1.388   2.260   2.954  0.1898 -0.2709  0.0503
 3228SOL    HW121146   1.466   2.273   2.900 -0.7924 -2.8610 -1.9614
 3228SOL    HW221147   1.382   2.165   2.964  2.1742 -0.1212  2.6426
 3229SOL     OW21148   4.236   3.748   7.737 -0.1653 -0.0816 -0.0403
 3229SOL    HW121149   4.177   3.813   7.776  2.0576  1.7593  0.2266
 3229SOL    HW221150   4.171   3.692   7.695  0.3716 -0.0605 -0.8964
 3230SOL     OW21151   4.588   1.582   1.982 -0.5119  0.0763 -1.1774
 3230SOL    HW121152   4.546   1.659   1.944  1.8638  2.0416  0.1742
 3230SOL    HW221153   4.616   1.529   1.908  1.4435 -0.3904 -0.1257
 3231SOL     OW21154   3.548   2.058   9.283 -0.7925 -0.2454 -0.0886
 3231SOL    HW121155   3.597   2.140   9.276 -0.4121 -0.2797  2.0399
 3231SOL    HW221156   3.465   2.093   9.253 -0.4357 -1.2281 -2.1881
 3232SOL     OW21157   0.763   3.875  11.525  0.1247 -0.2100 -0.4347
 3232SOL    HW121158   0.804   3.961  11.517 -1.3444  0.5481  0.0905
 3232SOL    HW221159   0.732   3.873  11.434 -2.3748 -1.1821  0.4249
 3233SOL     OW21160   1.091   0.664  16.259  0.4652 -0.8152  0.4347
 3233SOL    HW121161   1.157   0.625  16.202  0.1781 -0.5684 -0.0710
 3233SOL    HW221162   1.046   0.714  16.191  0.0934 -0.1448  1.1748
 3234SOL     OW21163   3.937   4.446   8.032 -0.2867  0.1719  0.1310
 3234SOL    HW121164   3.932   4.363   7.986  0.9007 -0.5481  1.3194
 3234SOL    HW221165   3.847   4.449   8.066 -0.6008  0.2470 -0.7134
 3235SOL     OW21166   1.741   3.487  15.723  0.3512  0.2553  0.1821
 3235SOL    HW121167   1.655   3.446  15.724  1.2406 -1.6666  0.0642
 3235SOL    HW221168   1.740   3.564  15.779 -2.3888  0.8093 -0.6445
 3236SOL     OW21169   2.564   1.524  17.600  0.2598  0.4440 -0.5694
 3236SOL    HW121170   2.621   1.555  17.530  0.8797  1.0922  0.2249
 3236SOL    HW221171   2.611   1.543  17.681 -0.0395 -1.2419  0.0043
 3237SOL     OW21172   2.074   1.511   8.153 -0.2696 -0.0189  0.0897
 3237SOL    HW121173   2.071   1.556   8.069  1.8255 -0.4752 -0.2508
 3237SOL    HW221174   2.004   1.447   8.142 -0.3684  0.3408 -1.3481
 3238SOL     OW21175   1.969   3.810  13.296 -0.1647  0.2680 -0.2759
 3238SOL    HW121176   1.911   3.821  13.221  0.0301  4.2240  0.1511
 3238SOL    HW221177   2.058   3.817  13.261 -0.8701  0.1038 -2.1316
 3239SOL     OW21178   1.731   2.991  10.119  0.0796  0.1852 -0.4062
 3239SOL    HW121179   1.801   3.019  10.178 -0.2235 -2.9754  1.4625
 3239SOL    HW221180   1.706   2.907  10.158  0.0026 -0.5614 -2.0627
 3240SOL     OW21181   2.537   4.193   1.942 -0.1219 -0.2820 -0.3188
 3240SOL    HW121182   2.449   4.224   1.920 -0.0715 -0.1963 -0.4041
 3240SOL    HW221183   2.583   4.194   1.858  0.9074 -0.7220  0.2354
 3241SOL     OW21184   3.676   2.391   3.923  0.6418  0.1337  0.1105
 3241SOL    HW121185   3.642   2.432   4.002  1.9088 -0.3248  0.8973
 3241SOL    HW221186   3.742   2.336   3.966 -0.5710 -1.0484  0.4760
 3242SOL     OW21187   3.099   0.353   3.756 -0.1787  0.2361 -0.4086
 3242SOL    HW121188   3.042   0.338   3.831 -0.2941  0.3034 -0.4835
 3242SOL    HW221189   3.031   0.386   3.698 -0.5528  0.2592  0.0505
 3243SOL     OW21190   3.921   0.091   4.602  0.6052 -0.3659  0.3326
 3243SOL    HW121191   4.012   0.075   4.576  0.7850  1.5975 -0.2399
 3243SOL    HW221192   3.875   0.064   4.522  0.5209 -1.3237  0.6997
 3244SOL     OW21193   2.954   2.954   5.745  0.1826  0.2916 -0.2619
 3244SOL    HW121194   2.920   3.042   5.729 -0.6683  0.6682  3.5595
 3244SOL    HW221195   3.042   2.979   5.773 -0.5970  1.7888  0.8752
 3245SOL     OW21196   1.009   3.851   3.439  0.7142 -0.5060 -0.4138
 3245SOL    HW121197   1.033   3.885   3.353  1.7036  3.5227  1.4835
 3245SOL    HW221198   1.092   3.867   3.484 -0.0849 -0.3276  0.9949
 3246SOL     OW21199   4.667   2.218   8.018 -0.1419 -0.2444 -0.6700
 3246SOL    HW121200   4.614   2.209   8.096  0.0932  0.8650 -0.3848
 3246SOL    HW221201   4.685   2.310   8.039 -1.0490 -0.1392 -0.3555
 3247SOL     OW21202   1.884   0.935   3.431 -0.4316  0.3950  0.1458
 3247SOL    HW121203   1.851   0.846   3.418 -0.1243  0.1933  0.7548
 3247SOL    HW221204   1.878   0.981   3.347 -0.1359  0.0994 -0.0397
 3248SOL     OW21205   3.450   3.473   4.409  0.0366  0.3717  0.4582
 3248SOL    HW121206   3.531   3.422   4.415 -1.3127 -1.5027  2.6991
 3248SOL    HW221207   3.381   3.418   4.446 -1.0983  0.9481 -0.7993
 3249SOL     OW21208   0.149   3.164   3.021  0.2803 -0.1502 -0.1799
 3249SOL    HW121209   0.162   3.227   2.950 -0.0258  0.8426  0.6518
 3249SOL    HW221210   0.160   3.082   2.973  3.4930 -0.0290  0.4008
 3250SOL     OW21211   1.604   2.825   3.821  0.2243 -0.2199 -0.4769
 3250SOL    HW121212   1.531   2.766   3.842  1.8546 -1.2151  2.3184
 3250SOL    HW221213   1.597   2.839   3.726 -0.9597 -0.2217 -0.3905
 3251SOL     OW21214   3.161   3.438   3.525  0.2445 -0.4448 -0.1345
 3251SOL    HW121215   3.187   3.376   3.457 -1.4236  0.5692 -1.6857
 3251SOL    HW221216   3.225   3.414   3.592  1.5256  0.3267 -1.0881
 3252SOL     OW21217   4.568   4.372   2.165 -0.0874 -0.0226 -0.2990
 3252SOL    HW121218   4.512   4.409   2.233 -1.0816  0.4088 -1.3331
 3252SOL    HW221219   4.569   4.447   2.105  0.9368  0.4806  0.3572
 3253SOL     OW21220   2.288   1.947   4.726  0.2149  0.5673  0.3715
 3253SOL    HW121221   2.297   2.034   4.763 -0.9973  0.6138  0.5830
 3253SOL    HW221222   2.214   1.966   4.668 -1.6770 -1.1703  2.1793
 3254SOL     OW21223   0.794   3.847   7.106  0.4527  0.3585  0.4936
 3254SOL    HW121224   0.869   3.788   7.111 -1.3953 -2.0322  0.0295
 3254SOL    HW221225   0.734   3.773   7.109  1.2226 -0.2872 -0.0090
 3255SOL     OW21226   3.707   2.726   4.717 -0.2889 -0.2919 -0.6951
 3255SOL    HW121227   3.709   2.734   4.621  1.1488 -0.8118 -0.7021
 3255SOL    HW221228   3.651   2.798   4.747 -1.7316 -0.4818 -2.8604
 3256SOL     OW21229   3.389   4.163   1.275 -0.3026 -0.0499  0.0466
 3256SOL    HW121230   3.458   4.116   1.322 -0.3353 -0.1583 -0.0142
 3256SOL    HW221231   3.403   4.253   1.306 -0.9787 -0.3500  1.2255
 3257SOL     OW21232   3.604   2.522   3.318 -0.2478  0.2601  0.0458
 3257SOL    HW121233   3.600   2.589   3.250  0.3287 -0.5643 -0.8020
 3257SOL    HW221234   3.697   2.500   3.325  0.0809  1.0397 -2.0971
 3258SOL     OW21235   4.096   2.299   7.841  0.0675 -0.1426 -0.6377
 3258SOL    HW121236   4.173   2.285   7.785  0.7360  0.2879  0.1760
 3258SOL    HW221237   4.027   2.248   7.798  0.5102  0.6671 -2.3044
 3259SOL     OW21238   2.992   3.952   4.590  0.4433 -0.1210 -0.1602
 3259SOL    HW121239   3.039   3.981   4.668 -1.6656  0.7603  0.7785
 3259SOL    HW221240   3.044   3.982   4.515 -1.6702  1.8660 -0.8383
 3260SOL     OW21241   1.530   1.356   8.156  0.5597 -0.4579  0.7912
 3260SOL    HW121242   1.544   1.269   8.194  0.8716 -0.7633 -0.0225
 3260SOL    HW221243   1.600   1.401   8.204 -1.1348  1.4123  1.5148
 3261SOL     OW21244   1.074   2.146  15.685 -0.1566 -0.0781 -0.9374
 3261SOL    HW121245   1.011   2.076  15.703 -1.2864  0.7717 -1.5918
 3261SOL    HW221246   1.071   2.164  15.591 -2.9849  1.8308 -0.4735
 3262SOL     OW21247   1.945   2.916   1.141 -0.4236 -0.1758 -0.2157
 3262SOL    HW121248   2.038   2.905   1.160 -0.5497 -0.2167  0.3578
 3262SOL    HW221249   1.932   2.856   1.067  1.0999 -0.1291 -0.5305
 3263SOL     OW21250   1.439   4.043  12.107 -0.1153 -0.7938 -0.3787
 3263SOL    HW121251   1.443   4.028  12.012  1.7630  0.7466 -0.5301
 3263SOL    HW221252   1.344   4.055  12.109 -0.0267 -0.3255  0.8834
 3264SOL     OW21253   1.998   0.785   6.338 -0.0481  0.3865 -0.4146
 3264SOL    HW121254   1.931   0.797   6.270  0.3959 -2.0738 -1.2657
 3264SOL    HW221255   2.041   0.710   6.297 -0.0026 -0.1530  0.6255
 3265SOL     OW21256   0.183   3.386   3.479  0.0220  0.3660  0.1997
 3265SOL    HW121257   0.200   3.373   3.385  2.4133 -0.4133  0.7602
 3265SOL    HW221258   0.123   3.461   3.483  1.7496  1.7109  0.9689
 3266SOL     OW21259   3.829   4.241  12.607 -0.4503  0.6532 -0.4692
 3266SOL    HW121260   3.848   4.288  12.526 -1.0427  2.0645  0.2030
 3266SOL    HW221261   3.742   4.270  12.632  0.0938  1.4230  0.5559
 3267SOL     OW21262   2.913   0.485   0.517  0.3219  0.6955  0.1539
 3267SOL    HW121263   2.843   0.536   0.476  1.1976  0.3108 -1.8315
 3267SOL    HW221264   2.889   0.494   0.609 -0.5956 -2.0391  0.1700
 3268SOL     OW21265   0.171   4.337   6.950 -0.0129  0.6523 -0.2092
 3268SOL    HW121266   0.236   4.335   7.021 -0.7859  0.0099  0.4803
 3268SOL    HW221267   0.109   4.278   6.992 -0.6878 -0.5062 -2.8115
 3269SOL     OW21268   1.464   1.504   2.815  0.7769  0.7336  0.5914
 3269SOL    HW121269   1.472   1.571   2.748  1.2068  0.4721  0.3779
 3269SOL    HW221270   1.514   1.430   2.779 -0.9726 -0.4255  0.5501
 3270SOL     OW21271   4.094   3.999   3.301 -0.1201 -0.2572  0.0662
 3270SOL    HW121272   4.184   4.027   3.317 -0.5266  0.9930  0.1513
 3270SOL    HW221273   4.093   3.911   3.339  0.6145  0.1003  0.9147
 3271SOL     OW21274   3.829   0.725   0.846  0.0742  0.2437  0.3993
 3271SOL    HW121275   3.884   0.798   0.873 -1.0553  0.9991  0.6488
 3271SOL    HW221276   3.868   0.698   0.762  0.9888  0.9055  0.6099
 3272SOL     OW21277   2.015   3.823   3.892  0.1778 -0.0336  0.1129
 3272SOL    HW121278   2.008   3.793   3.983 -0.3739  3.3147  1.1502
 3272SOL    HW221279   2.073   3.753   3.860 -1.2452  0.3873 -3.3358
 3273SOL     OW21280   2.312   2.640   4.178 -0.5457 -0.0707 -0.0832
 3273SOL    HW121281   2.337   2.551   4.151  1.2196  0.7665 -1.2222
 3273SOL    HW221282   2.278   2.670   4.093 -1.5925  1.5387  0.9047
 3274SOL     OW21283   0.734   0.009  16.379  0.0819  0.2258 -0.3766
 3274SOL    HW121284   0.657   4.688  16.415 -1.2421  2.4393 -0.4136
 3274SOL    HW221285   0.699   0.084  16.331  0.1888 -0.2820 -1.2615
 3275SOL     OW21286   2.370   3.246   6.005 -0.2709 -0.4420  0.1069
 3275SOL    HW121287   2.453   3.268   6.047 -1.1198  1.7442  0.5906
 3275SOL    HW221288   2.390   3.273   5.915  1.6282 -0.6191  0.4872
 3276SOL     OW21289   4.505   2.849   7.696  0.1559 -0.2048 -0.5692
 3276SOL    HW121290   4.438   2.787   7.668  0.8899 -0.8406 -0.9023
 3276SOL    HW221291   4.458   2.929   7.672 -1.9773 -0.4033  2.8907
 3277SOL     OW21292   4.120   2.678   7.657  0.1202 -0.1485 -0.5095
 3277SOL    HW121293   4.078   2.600   7.621 -1.3148 -0.1814  1.2461
 3277SOL    HW221294   4.183   2.697   7.587 -1.5192 -0.9387 -2.2102
 3278SOL     OW21295   4.137   2.274   9.745 -0.0974  0.2053  0.7847
 3278SOL    HW121296   4.047   2.243   9.748  0.9979 -3.1550 -1.2690
 3278SOL    HW221297   4.138   2.316   9.659 -3.4719  1.4216  1.3277
 3279SOL     OW21298   3.416   1.262  13.985 -0.1864  0.7475  0.2021
 3279SOL    HW121299   3.392   1.349  13.953 -1.7088  0.4137  0.4063
 3279SOL    HW221300   3.350   1.205  13.946  0.5735  0.3912 -0.5600
 3280SOL     OW21301   3.770   3.002   4.545  0.0346 -0.0586 -0.7977
 3280SOL    HW121302   3.736   2.953   4.469 -0.9107 -0.9271  0.1868
 3280SOL    HW221303   3.730   2.959   4.620  0.1890  1.9050  0.4050
 3281SOL     OW21304   3.878   4.441  17.251  0.2334  0.0404  0.1185
 3281SOL    HW121305   3.895   4.380  17.179 -2.5604  2.4644 -2.5404
 3281SOL    HW221306   3.804   4.492  17.219  0.2542  0.1289  0.2112
 3282SOL     OW21307   0.060   2.874  12.504  0.0779 -0.2998  0.3604
 3282SOL    HW121308   0.097   2.903  12.587  1.1398  1.5444 -0.7513
 3282SOL    HW221309   4.692   2.873  12.530  0.2651 -1.2964  0.9951
 3283SOL     OW21310   2.351   0.938   3.198  0.2007 -0.6210 -0.0814
 3283SOL    HW121311   2.299   0.940   3.118  0.8672 -3.7343 -0.5582
 3283SOL    HW221312   2.381   1.029   3.204  1.7101 -1.0496 -1.2806
 3284SOL     OW21313   0.751   1.168   4.933  0.2833  0.2090  0.2704
 3284SOL    HW121314   0.767   1.191   5.024 -0.5782 -1.4905  0.8528
 3284SOL    HW221315   0.685   1.101   4.948  0.9317 -0.6483 -0.6936
 3285SOL     OW21316   0.687   3.569   0.383  1.1429 -0.3969 -0.8210
 3285SOL    HW121317   0.630   3.634   0.425 -1.0852 -2.4325 -0.6406
 3285SOL    HW221318   0.622   3.517   0.335  2.5570 -1.2898 -1.7629
 3286SOL     OW21319   2.757   1.150   2.305  0.5921  0.2161 -0.4069
 3286SOL    HW121320   2.814   1.227   2.298  0.6018  0.1764 -0.7904
 3286SOL    HW221321   2.710   1.139   2.222  0.9194 -1.0387 -0.4295
 3287SOL     OW21322   2.456   2.213   5.081  0.4813 -0.3188  0.3616
 3287SOL    HW121323   2.462   2.307   5.068 -0.5890 -0.7191 -3.1076
 3287SOL    HW221324   2.374   2.184   5.040  2.1555  0.8166 -3.7961
 3288SOL     OW21325   3.970   3.355   5.159  0.0866 -0.2445  0.2803
 3288SOL    HW121326   3.874   3.354   5.152  0.0725 -0.2972  0.4963
 3288SOL    HW221327   3.987   3.441   5.121 -0.4551  0.0930  0.7985
 3289SOL     OW21328   0.890   4.587   2.798 -0.2023 -0.3942  0.1236
 3289SOL    HW121329   0.921   4.645   2.867  0.4268 -0.7876  0.1718
 3289SOL    HW221330   0.960   4.522   2.795 -0.0683 -0.2416 -0.0158
 3290SOL     OW21331   1.154   0.752   3.807  0.3144 -0.7680 -0.2440
 3290SOL    HW121332   1.143   0.834   3.759 -1.2301 -1.1198 -0.4834
 3290SOL    HW221333   1.069   0.734   3.848 -0.3793  4.4189  0.5223
 3291SOL     OW21334   2.192   1.016  11.321  0.1681  0.5066  0.2580
 3291SOL    HW121335   2.280   0.981  11.304  0.1518  0.5065  0.1744
 3291SOL    HW221336   2.171   0.962  11.397  0.6696  0.5643  0.4425
 3292SOL     OW21337   4.152   1.554   2.460 -0.0184  0.2093  0.3161
 3292SOL    HW121338   4.123   1.464   2.476  1.3109 -0.2744  0.0208
 3292SOL    HW221339   4.073   1.585   2.416  0.5226  0.5406 -0.4135
 3293SOL     OW21340   1.500   0.810  10.488  0.0201  0.0819 -0.1200
 3293SOL    HW121341   1.562   0.883  10.496 -1.8813  1.9051 -1.8902
 3293SOL    HW221342   1.417   0.855  10.503 -0.1159 -0.7894  1.7092
 3294SOL     OW21343   2.705   2.470   3.777 -0.5424 -0.8199  0.6503
 3294SOL    HW121344   2.749   2.438   3.855  1.2574  0.4213  0.1584
 3294SOL    HW221345   2.716   2.393   3.722  1.3760  0.3108 -0.5682
 3295SOL     OW21346   0.377   0.703  14.883  0.4149 -0.4042 -0.4044
 3295SOL    HW121347   0.314   0.775  14.878 -0.2811 -0.6454  4.8596
 3295SOL    HW221348   0.443   0.721  14.817  1.2408  1.0433  0.7981
 3296SOL     OW21349   0.895   0.782  16.064  0.2676  0.2132  0.3962
 3296SOL    HW121350   0.834   0.852  16.038  1.2760  0.0734 -2.3154
 3296SOL    HW221351   0.890   0.731  15.983  0.5759 -1.3490  1.3683
 3297SOL     OW21352   4.046   0.982   8.617  0.4290 -0.3336 -0.9140
 3297SOL    HW121353   4.112   0.937   8.669 -1.4262 -0.1256  1.6533
 3297SOL    HW221354   4.054   0.935   8.534  1.3125 -2.3758  0.3374
 3298SOL     OW21355   0.898   3.330   8.504 -0.1077  0.7502  0.5900
 3298SOL    HW121356   0.972   3.272   8.490 -1.1324 -0.9720  2.3115
 3298SOL    HW221357   0.853   3.291   8.579 -0.5697  2.0492  0.9908
 3299SOL     OW21358   3.098   1.872   3.086  0.2051 -0.8526  0.2503
 3299SOL    HW121359   3.056   1.786   3.097  2.5650 -2.0368  0.1546
 3299SOL    HW221360   3.032   1.925   3.042  0.3295 -1.2214 -0.3806
 3300SOL     OW21361   3.416   2.148   4.126  0.2264  0.1467  0.1509
 3300SOL    HW121362   3.480   2.151   4.055  1.0457  0.3650  0.9027
 3300SOL    HW221363   3.471   2.111   4.194 -0.2145 -0.4416  0.1884
 3301SOL     OW21364   0.336   4.617   4.095 -1.0615 -0.1022  0.1845
 3301SOL    HW121365   0.397   4.611   4.021 -2.1171 -0.4512 -0.6552
 3301SOL    HW221366   0.384   4.646   4.173  1.3990 -0.2937 -1.2502
 3302SOL     OW21367   1.743   3.637   8.619  0.6874  0.0712  0.8590
 3302SOL    HW121368   1.733   3.608   8.709 -1.8638 -2.2133 -0.1227
 3302SOL    HW221369   1.799   3.572   8.578  2.3344  0.9949  1.6720
 3303SOL     OW21370   2.930   0.772   8.645 -0.5242  0.0037 -1.4260
 3303SOL    HW121371   2.845   0.756   8.686  0.2730 -1.7216 -0.4242
 3303SOL    HW221372   2.971   0.686   8.655  0.8332  0.8752  0.6786
 3304SOL     OW21373   4.627   2.578  12.350  0.2302  0.1468 -0.2293
 3304SOL    HW121374   4.588   2.603  12.434 -0.8835  1.7684 -1.2465
 3304SOL    HW221375   4.635   2.662  12.306  0.3432 -0.1101 -0.7010
 3305SOL     OW21376   2.891   0.423   8.649  0.2149  0.1295  0.3610
 3305SOL    HW121377   2.910   0.460   8.736  0.9220  1.4179 -0.3456
 3305SOL    HW221378   2.909   0.330   8.664  1.9867  0.3119 -0.6426
 3306SOL     OW21379   3.323   1.756   2.694  0.3682  0.5420  0.1566
 3306SOL    HW121380   3.273   1.680   2.725  0.1184  0.1100 -1.2923
 3306SOL    HW221381   3.324   1.816   2.769  0.2176  0.1800  0.4512
 3307SOL     OW21382   1.937   1.894   6.070 -0.2358  0.3264  0.0542
 3307SOL    HW121383   1.959   1.935   6.154  0.1177 -1.0688  0.6438
 3307SOL    HW221384   2.004   1.926   6.010 -1.6413 -1.5714 -2.5552
 3308SOL     OW21385   4.152   0.904  13.365  0.2958 -0.1979 -0.3262
 3308SOL    HW121386   4.150   0.810  13.386 -0.8976  0.4616  2.5461
 3308SOL    HW221387   4.063   0.922  13.335  0.1483  0.5580  0.5363
 3309SOL     OW21388   2.481   3.250   6.426  0.3150 -0.7351  0.0454
 3309SOL    HW121389   2.478   3.202   6.509  0.2631  0.3427  0.6723
 3309SOL    HW221390   2.416   3.319   6.442  1.2242  0.3002 -0.7570
 3310SOL     OW21391   0.642   1.988   7.918  0.0679  0.1286 -0.6851
 3310SOL    HW121392   0.695   1.912   7.943 -0.5183 -0.1688 -0.3378
 3310SOL    HW221393   0.555   1.948   7.910  1.3315 -2.6243 -0.6789
 3311SOL     OW21394   3.792   1.940   4.092 -0.0811 -0.0297  0.0250
 3311SOL    HW121395   3.742   1.873   4.045  1.3145  0.2063 -1.7930
 3311SOL    HW221396   3.868   1.890   4.121 -0.0155 -0.6280 -1.2049
 3312SOL     OW21397   4.506   1.144  13.463 -0.2581 -0.0749 -0.0047
 3312SOL    HW121398   4.550   1.140  13.548  0.5087 -2.4090 -0.5185
 3312SOL    HW221399   4.429   1.094  13.489  0.0572  0.1556  1.3533
 3313SOL     OW21400   2.287   0.869  16.776  0.0769 -0.5802  0.9086
 3313SOL    HW121401   2.309   0.925  16.850  2.7504 -1.3723  0.7182
 3313SOL    HW221402   2.288   0.781  16.813  0.0383 -1.3409 -0.8857
 3314SOL     OW21403   4.600   4.524  13.191 -0.4252 -0.0936 -0.1014
 3314SOL    HW121404   4.680   4.477  13.217 -0.7897 -0.1638  0.8861
 3314SOL    HW221405   4.576   4.469  13.116  1.2558  0.1435 -0.8093
 3315SOL     OW21406   3.259   3.975   6.499 -0.1170 -0.4990  0.5402
 3315SOL    HW121407   3.222   3.887   6.490 -0.2412 -0.3841 -0.0352
 3315SOL    HW221408   3.215   4.003   6.419  0.3676 -0.4114  0.3097
 3316SOL     OW21409   0.151   1.329  12.898  0.2919  0.2678  0.0011
 3316SOL    HW121410   0.167   1.247  12.852 -0.6043 -0.6292  1.2828
 3316SOL    HW221411   0.170   1.398  12.834 -0.9450 -0.3372 -1.0216
 3317SOL     OW21412   3.561   1.574   9.491  0.5277 -0.7659 -1.1223
 3317SOL    HW121413   3.540   1.658   9.451 -0.2895 -0.5746 -0.2986
 3317SOL    HW221414   3.587   1.524   9.414  0.8841 -1.1716 -0.7409
 3318SOL     OW21415   1.220   0.553   7.540  0.8508 -0.0171 -0.0737
 3318SOL    HW121416   1.134   0.585   7.511 -0.0043  0.1188  2.6270
 3318SOL    HW221417   1.242   0.611   7.613 -0.2137  2.0899 -1.4028
 3319SOL     OW21418   3.788   2.097  15.034 -0.0632 -0.0043  0.2341
 3319SOL    HW121419   3.873   2.060  15.060  0.4858  0.7129 -0.5491
 3319SOL    HW221420   3.769   2.160  15.103  0.8995  1.8451 -1.2104
 3320SOL     OW21421   3.549   3.310   3.574 -0.1552  0.5882 -0.0953
 3320SOL    HW121422   3.613   3.301   3.645  0.3560 -0.0509 -0.6343
 3320SOL    HW221423   3.480   3.253   3.608  1.6291 -1.5103  0.0457
 3321SOL     OW21424   2.810   0.569   4.464 -0.2155 -0.3539 -0.0082
 3321SOL    HW121425   2.887   0.521   4.495  0.5629 -0.9207 -2.8190
 3321SOL    HW221426   2.850   0.654   4.443 -0.2353  0.0537  1.6017
 3322SOL     OW21427   1.546   3.393  13.100 -0.0912 -0.2806  0.3666
 3322SOL    HW121428   1.454   3.401  13.127 -0.3414 -0.4719 -0.4287
 3322SOL    HW221429   1.531   3.360  13.011 -3.0301  0.8196  0.4434
 3323SOL     OW21430   0.174   2.730   4.315 -0.1601 -0.0236 -0.9556
 3323SOL    HW121431   0.250   2.688   4.354  0.6993  0.7143 -1.8224
 3323SOL    HW221432   0.099   2.671   4.307 -0.6437  0.2243  1.9655
 3324SOL     OW21433   3.734   0.993   5.614 -0.0110  0.7611  0.5647
 3324SOL    HW121434   3.767   0.956   5.695 -0.1576  3.5043  1.8765
 3324SOL    HW221435   3.710   1.079   5.649  0.1492  1.7433 -1.6985
 3325SOL     OW21436   0.832   4.535  16.612  0.1057 -0.2569 -0.1812
 3325SOL    HW121437   0.801   4.560  16.699  0.6111 -2.3620  0.5997
 3325SOL    HW221438   0.809   4.614  16.562 -2.3635 -0.8284  0.0878
 3326SOL     OW21439   4.245   3.699   0.368  0.1673 -0.3559 -0.5730
 3326SOL    HW121440   4.176   3.683   0.433  0.6308  1.7277  0.4471
 3326SOL    HW221441   4.321   3.682   0.424 -0.3270  1.3683  0.6266
 3327SOL     OW21442   0.182   0.146   2.222  0.5093  0.3027 -0.2016
 3327SOL    HW121443   0.270   0.119   2.198  0.2148 -1.0113  0.1803
 3327SOL    HW221444   0.194   0.188   2.307  1.0467 -0.7359  0.2447
 3328SOL     OW21445   1.237   1.988  15.377  0.3670 -0.1494  0.2094
 3328SOL    HW121446   1.160   2.021  15.330 -0.2555  0.6913  1.8380
 3328SOL    HW221447   1.252   1.917  15.314 -1.2789 -1.0008  0.8063
 3329SOL     OW21448   2.347   2.289  12.345  0.0426  0.0706 -0.0387
 3329SOL    HW121449   2.287   2.214  12.341 -1.2511  1.0220  1.0641
 3329SOL    HW221450   2.419   2.257  12.399 -0.0418  2.0449  1.2530
 3330SOL     OW21451   2.255   4.537   7.117 -0.1245  0.1623 -0.0806
 3330SOL    HW121452   2.215   4.456   7.149 -0.1376 -0.2896 -1.2400
 3330SOL    HW221453   2.192   4.605   7.140 -2.0121 -1.7660  0.5062
 3331SOL     OW21454   3.171   0.711  10.978 -0.2939  0.0822  0.1916
 3331SOL    HW121455   3.149   0.748  10.893  3.0034 -1.8523 -1.4773
 3331SOL    HW221456   3.143   0.781  11.037 -0.8644 -2.0985  2.5231
 3332SOL     OW21457   1.778   1.537   2.834 -0.0680 -0.6953 -0.0087
 3332SOL    HW121458   1.821   1.548   2.749  0.1017  1.8947  0.4394
 3332SOL    HW221459   1.714   1.466   2.820 -2.8973  1.6593  0.9898
 3333SOL     OW21460   2.589   1.102  14.476 -0.7480  0.0930  0.1024
 3333SOL    HW121461   2.614   1.193  14.456 -1.7471  0.1639 -0.8159
 3333SOL    HW221462   2.646   1.051  14.419 -0.0817  2.5474 -1.4271
 3334SOL     OW21463   4.703   4.682   2.240  0.2789 -0.0940  0.1133
 3334SOL    HW121464   4.661   4.668   2.156  1.0796 -2.5867  0.1370
 3334SOL    HW221465   0.056   0.011   2.223  0.4965 -0.5414 -0.3087
 3335SOL     OW21466   2.755   3.600  14.820 -0.8437 -0.4984 -0.2411
 3335SOL    HW121467   2.818   3.665  14.787  0.5725 -1.4548  0.6013
 3335SOL    HW221468   2.678   3.636  14.775 -0.3727 -1.0564 -1.4929
 3336SOL     OW21469   0.074   4.005  15.348  0.2287  0.1001  0.3799
 3336SOL    HW121470   0.035   4.012  15.435 -2.9645  0.1672 -1.0707
 3336SOL    HW221471   0.133   3.936  15.376  2.3273  3.3168  3.9514
 3337SOL     OW21472   0.996   1.798   6.432  0.6031 -0.0235 -0.2391
 3337SOL    HW121473   0.990   1.871   6.370  0.9416  1.5596  1.5983
 3337SOL    HW221474   0.930   1.819   6.498 -0.6971  0.0308 -1.5489
 3338SOL     OW21475   0.426   4.389   6.307  0.0742 -0.4657 -0.4815
 3338SOL    HW121476   0.397   4.300   6.288 -2.9791  0.5468 -0.6190
 3338SOL    HW221477   0.513   4.376   6.345  0.0547 -1.4892 -0.7777
 3339SOL     OW21478   2.138   1.523   9.600  0.4845 -0.1436  0.5168
 3339SOL    HW121479   2.066   1.461   9.615  0.3829  0.3000  1.8615
 3339SOL    HW221480   2.167   1.517   9.691  0.3545 -0.8682  0.5109
 3340SOL     OW21481   3.573   1.908   0.380  0.1037 -0.3741 -0.4163
 3340SOL    HW121482   3.617   1.991   0.401 -0.2833 -0.2800  0.0372
 3340SOL    HW221483   3.634   1.837   0.402 -0.7006 -0.6910  0.8250
 3341SOL     OW21484   3.998   2.393   5.430 -0.2517  0.5554 -0.1413
 3341SOL    HW121485   3.943   2.469   5.449 -0.5789  0.2710  0.0540
 3341SOL    HW221486   3.993   2.415   5.337 -1.0923 -1.0325 -0.4806
 3342SOL     OW21487   2.321   0.058   0.293  0.3311 -0.7360  0.0554
 3342SOL    HW121488   2.411   0.069   0.263  0.2973 -0.4403  0.0653
 3342SOL    HW221489   2.332   0.077   0.386  0.4842 -2.0823  0.3206
 3343SOL     OW21490   4.350   4.478   7.402 -0.4503 -0.3872 -0.4299
 3343SOL    HW121491   4.316   4.536   7.334  0.2504 -0.8728 -1.1924
 3343SOL    HW221492   4.388   4.408   7.349 -0.4757 -0.1890 -0.7120
 3344SOL     OW21493   0.274   4.303  13.794 -0.2750 -0.4844  0.6153
 3344SOL    HW121494   0.358   4.304  13.839 -0.6918 -0.8025  1.4119
 3344SOL    HW221495   0.291   4.234  13.730  3.0582  0.7256  0.2202
 3345SOL     OW21496   1.804   1.288   9.312 -0.7032 -0.5417 -0.1006
 3345SOL    HW121497   1.742   1.348   9.271 -0.8971 -1.4222 -1.0748
 3345SOL    HW221498   1.755   1.268   9.392  2.2132 -0.4698  1.7096
 3346SOL     OW21499   0.155   2.460   1.006  0.0789  0.2217 -0.0492
 3346SOL    HW121500   0.087   2.426   0.948  1.5773  1.2202 -2.3764
 3346SOL    HW221501   0.211   2.382   1.008 -1.1317 -0.6074  1.3826
 3347SOL     OW21502   1.582   1.931   8.666  0.3768 -0.0677 -0.6845
 3347SOL    HW121503   1.674   1.905   8.674  0.0639 -0.9386  0.1216
 3347SOL    HW221504   1.594   2.025   8.674 -1.1304  0.1700 -1.3611
 3348SOL     OW21505   0.244   1.874   3.560 -0.0430  0.0400 -0.8340
 3348SOL    HW121506   0.284   1.868   3.647 -0.3645  2.9527 -0.4871
 3348SOL    HW221507   0.169   1.814   3.567  0.4397 -0.7731 -2.5241
 3349SOL     OW21508   0.262   4.204   6.679  0.3807  0.2074 -0.5732
 3349SOL    HW121509   0.285   4.266   6.748  0.2378  0.1406 -0.4652
 3349SOL    HW221510   0.192   4.153   6.720  1.3899 -2.5750 -2.3126
 3350SOL     OW21511   0.299   0.247   4.831 -0.0182 -0.2556 -0.4937
 3350SOL    HW121512   0.366   0.219   4.894 -2.2861 -0.3145  1.9207
 3350SOL    HW221513   0.230   0.262   4.897  0.0486 -1.7554 -0.0767
 3351SOL     OW21514   1.427   2.420  15.897  0.3908 -0.4312 -0.1767
 3351SOL    HW121515   1.482   2.345  15.918  2.0806  1.5281  2.4573
 3351SOL    HW221516   1.346   2.379  15.867 -1.0247  1.6435  0.8465
 3352SOL     OW21517   2.285   0.438   9.849  0.3930 -0.1576  0.3225
 3352SOL    HW121518   2.348   0.413   9.917 -0.8723 -2.1497  0.7767
 3352SOL    HW221519   2.323   0.518   9.813 -0.6487  1.2707  2.4015
 3353SOL     OW21520   3.856   0.203  15.253  0.6105  0.4220 -0.1984
 3353SOL    HW121521   3.816   0.221  15.168 -0.5505 -0.6249  0.1358
 3353SOL    HW221522   3.910   0.135  15.212  0.6332 -0.5403  1.4489
 3354SOL     OW21523   3.107   4.564  13.603 -0.1463 -0.2386  0.4716
 3354SOL    HW121524   3.135   4.556  13.695 -0.7625 -1.8834  0.5114
 3354SOL    HW221525   3.184   4.571  13.547 -0.5896  2.1541  0.1692
 3355SOL     OW21526   0.764   1.005   5.346  0.0651 -0.6593  0.3269
 3355SOL    HW121527   0.797   1.072   5.286  2.5816 -0.1893  2.2335
 3355SOL    HW221528   0.798   1.037   5.430  0.5106  1.1309 -0.5198
 3356SOL     OW21529   2.646   0.027   5.449  0.0305  0.2753  0.5376
 3356SOL    HW121530   2.633   0.110   5.404 -0.1386  0.9807  1.8808
 3356SOL    HW221531   2.716   4.717   5.393 -0.9152 -0.4347 -0.2027
 3357SOL     OW21532   0.729   3.602   2.291 -0.3091 -0.6388  0.6014
 3357SOL    HW121533   0.704   3.692   2.272  0.3379 -0.7009 -0.5504
 3357SOL    HW221534   0.723   3.597   2.387 -1.2438 -0.6163  0.5372
 3358SOL     OW21535   1.852   1.731   9.129  0.2434  0.1909  0.2394
 3358SOL    HW121536   1.900   1.656   9.093  0.7074  0.3909  0.4400
 3358SOL    HW221537   1.847   1.694   9.217 -0.1921  0.7723  0.4562
 3359SOL     OW21538   2.084   0.055   1.379 -0.4894 -0.4020 -0.3986
 3359SOL    HW121539   2.089   0.028   1.288 -0.0922  1.8134 -1.0282
 3359SOL    HW221540   2.005   0.011   1.412 -0.3798 -0.2131  0.1190
 3360SOL     OW21541   1.112   2.041   9.264 -0.2525 -0.1694 -0.8626
 3360SOL    HW121542   1.035   1.997   9.299  0.4543  0.8543  2.0036
 3360SOL    HW221543   1.082   2.128   9.237  1.5009 -0.0073 -2.3415
 3361SOL     OW21544   3.368   4.406   8.343  0.3772 -0.1786 -0.0024
 3361SOL    HW121545   3.297   4.430   8.284 -1.1670 -1.7918  1.1940
 3361SOL    HW221546   3.326   4.385   8.426 -0.1168  0.0917 -0.1831
 3362SOL     OW21547   2.802   3.030   6.925  0.2286  0.0170  0.2826
 3362SOL    HW121548   2.875   2.968   6.922  0.5907  0.4509  0.0490
 3362SOL    HW221549   2.854   3.105   6.956 -1.0662  0.7019  0.7769
 3363SOL     OW21550   1.588   2.037  11.958 -0.4542 -0.4209  0.3584
 3363SOL    HW121551   1.587   2.046  12.054 -1.4980 -0.0077  0.3047
 3363SOL    HW221552   1.595   1.942  11.965  2.0299 -0.3572 -1.4100
 3364SOL     OW21553   1.668   1.758  14.053  0.1596  0.4672 -0.0261
 3364SOL    HW121554   1.604   1.778  13.985 -0.3650 -1.2193 -0.0228
 3364SOL    HW221555   1.719   1.839  14.057  0.0698  0.5217  0.0130
 3365SOL     OW21556   2.465   1.624   8.298 -0.3310  0.4579  0.0283
 3365SOL    HW121557   2.499   1.636   8.386  0.6503 -1.1288 -0.1398
 3365SOL    HW221558   2.445   1.715   8.276 -0.9338  0.2752 -0.1829
 3366SOL     OW21559   3.877   4.243   0.011  0.6060 -0.1178  0.1956
 3366SOL    HW121560   3.790   4.255   0.049  1.0331 -0.3560  1.2554
 3366SOL    HW221561   3.865   4.246  17.615 -0.4947 -2.5500  0.2572
 3367SOL     OW21562   4.631   4.073  17.001 -0.2447  0.0949 -0.1025
 3367SOL    HW121563   4.721   4.077  17.033 -0.9298 -1.9687  2.1185
 3367SOL    HW221564   4.583   4.051  17.081  3.3365  0.0499  2.0275
 3368SOL     OW21565   2.120   3.955   0.063 -0.3828  0.0050  0.2510
 3368SOL    HW121566   2.071   3.948  17.680  1.0039  1.1669 -0.6640
 3368SOL    HW221567   2.205   3.961   0.020 -1.3001 -1.2423 -1.7294
 3369SOL     OW21568   4.103   1.290   3.169  0.4825 -0.3630  0.0291
 3369SOL    HW121569   4.040   1.332   3.228  0.5124  1.8572 -1.5312
 3369SOL    HW221570   4.102   1.197   3.190  0.8205 -0.4058 -0.1488
 3370SOL     OW21571   0.913   4.300   1.413 -1.0785 -0.2786 -0.3884
 3370SOL    HW121572   0.966   4.240   1.466 -1.0431  0.6551  0.6394
 3370SOL    HW221573   0.978   4.353   1.367  0.7721 -1.2636  1.0726
 3371SOL     OW21574   3.470   0.153   5.331  0.4829  0.1241  0.1132
 3371SOL    HW121575   3.401   0.090   5.311 -0.0245  1.1157 -1.2635
 3371SOL    HW221576   3.405   0.206   5.377 -2.4393 -1.3881 -2.2474
 3372SOL     OW21577   4.392   3.847  15.587  0.6610 -0.1797  0.1565
 3372SOL    HW121578   4.319   3.799  15.550 -0.4220 -0.0984  2.2229
 3372SOL    HW221579   4.386   3.834  15.681 -0.7940 -0.0099  0.0857
 3373SOL     OW21580   0.753   2.192   5.738  0.2050  0.3975 -0.0289
 3373SOL    HW121581   0.767   2.273   5.690 -1.3351  0.3378 -0.5920
 3373SOL    HW221582   0.844   2.188   5.767 -0.0474 -1.1356  0.5449
 3374SOL     OW21583   3.282   0.405   5.107 -0.2483  0.5007  0.5463
 3374SOL    HW121584   3.266   0.313   5.091 -1.3705  0.9212 -0.6603
 3374SOL    HW221585   3.351   0.435   5.048 -1.7875  4.5201  0.7456
 3375SOL     OW21586   4.141   2.217  15.709  0.3713  0.3633 -0.1926
 3375SOL    HW121587   4.165   2.303  15.675  0.6308  0.7272  0.8986
 3375SOL    HW221588   4.120   2.237  15.800 -0.2252  0.9614 -0.4624
 3376SOL     OW21589   3.383   2.596   6.683 -0.0659 -0.1198  0.3453
 3376SOL    HW121590   3.469   2.567   6.652  0.3362 -1.8622  3.0091
 3376SOL    HW221591   3.399   2.690   6.677  0.9485 -0.1630  2.2381
 3377SOL     OW21592   0.050   1.598   6.774 -0.2141  0.0851  0.3272
 3377SOL    HW121593   0.069   1.653   6.850 -0.0343  2.0370 -1.1399
 3377SOL    HW221594   4.718   1.531   6.812  0.8578  0.0192  1.8079
 3378SOL     OW21595   4.253   3.347   9.921 -0.2395  0.3520 -0.7180
 3378SOL    HW121596   4.294   3.433   9.926 -0.8802  0.5001  2.0540
 3378SOL    HW221597   4.262   3.314  10.011  0.7580  0.5700 -0.7379
 3379SOL     OW21598   3.655   2.863   4.265  1.1702 -0.3001  0.0149
 3379SOL    HW121599   3.722   2.899   4.207 -0.9481 -0.1272 -2.3340
 3379SOL    HW221600   3.607   2.807   4.205 -0.3018  1.8668 -0.7971
 3380SOL     OW21601   2.521   0.723   9.561  0.3252 -0.1408 -0.7202
 3380SOL    HW121602   2.548   0.815   9.557 -0.0368 -0.0524 -1.0850
 3380SOL    HW221603   2.509   0.700   9.469 -1.8488 -1.3319 -0.1407
 3381SOL     OW21604   1.032   1.580  12.074 -0.0752 -0.1440 -0.4250
 3381SOL    HW121605   1.058   1.604  11.985  2.7415 -0.7445  0.2200
 3381SOL    HW221606   0.941   1.553  12.069 -0.0676 -0.0566 -0.9849
 3382SOL     OW21607   3.148   2.473  13.839 -0.1808  0.3022  0.0600
 3382SOL    HW121608   3.215   2.417  13.799 -0.4415 -0.6044  0.8671
 3382SOL    HW221609   3.153   2.447  13.931  0.2849  0.3624  0.0509
 3383SOL     OW21610   1.874   2.014   5.059  0.4437  0.2781  0.2011
 3383SOL    HW121611   1.945   1.957   5.030 -0.9778 -1.3485 -0.0559
 3383SOL    HW221612   1.921   2.097   5.063 -0.1552  0.6562 -0.6994
 3384SOL     OW21613   3.157   2.089   4.058  0.7315 -0.0227  0.1806
 3384SOL    HW121614   3.246   2.111   4.084  1.2076 -1.4444 -0.2502
 3384SOL    HW221615   3.173   2.051   3.972 -2.8955  0.4449 -0.7153
 3385SOL     OW21616   4.449   2.978   0.142  0.5457 -0.4592  0.1026
 3385SOL    HW121617   4.456   2.954   0.050  0.7498 -2.2455  0.5846
 3385SOL    HW221618   4.379   3.044   0.149 -2.2614 -3.3100 -1.1197
 3386SOL     OW21619   4.715   1.402   4.524 -0.0114  0.2861 -0.0282
 3386SOL    HW121620   4.683   1.312   4.521  1.8034 -0.3290 -1.0983
 3386SOL    HW221621   4.709   1.424   4.431 -0.5316 -2.8057 -0.7222
 3387SOL     OW21622   4.066   0.850   4.362  0.2801 -0.0781 -0.6889
 3387SOL    HW121623   4.002   0.880   4.427  1.4679 -1.0776  0.9293
 3387SOL    HW221624   4.027   0.865   4.276  0.4435  2.8060 -0.2824
 3388SOL     OW21625   1.427   3.733  14.097 -0.6118  0.2188 -0.0802
 3388SOL    HW121626   1.396   3.737  14.187  0.4409  0.1926  0.2854
 3388SOL    HW221627   1.394   3.813  14.056  0.0411  0.7029  0.3505
 3389SOL     OW21628   3.804   0.947   8.771  0.0869 -0.3605 -0.0691
 3389SOL    HW121629   3.889   0.939   8.730 -0.5242 -1.7061 -1.0829
 3389SOL    HW221630   3.761   1.014   8.718  0.2976  1.1954  1.6935
 3390SOL     OW21631   1.733   4.326   5.898  0.3566  0.3598  0.3509
 3390SOL    HW121632   1.801   4.284   5.844 -1.1014  1.0151 -2.0033
 3390SOL    HW221633   1.706   4.247   5.945  2.5241  0.8578  2.4364
 3391SOL     OW21634   2.384   1.724  17.509  0.6221 -0.2125 -0.1378
 3391SOL    HW121635   2.426   1.786  17.450 -2.2603 -0.2230 -2.1600
 3391SOL    HW221636   2.463   1.669  17.514  1.9637  1.7864  0.3713
 3392SOL     OW21637   3.265   2.783   3.956  0.5020  0.4350  0.0326
 3392SOL    HW121638   3.232   2.708   3.907  0.8099  0.7467 -0.6589
 3392SOL    HW221639   3.278   2.840   3.879 -0.1899 -0.8162 -1.0079
 3393SOL     OW21640   0.520   3.005  11.347  0.4956 -0.0655 -0.3897
 3393SOL    HW121641   0.528   2.976  11.438  0.1919  0.5703 -0.1560
 3393SOL    HW221642   0.517   3.100  11.364  1.8960  0.2591 -2.0543
 3394SOL     OW21643   2.450   1.682   5.535 -0.1421 -0.2303  1.0670
 3394SOL    HW121644   2.453   1.702   5.441 -1.5828  0.6521  1.1981
 3394SOL    HW221645   2.521   1.735   5.573 -0.5778  0.1877  1.2977
 3395SOL     OW21646   2.722   2.814   8.922  0.3281  0.5206 -0.0504
 3395SOL    HW121647   2.690   2.838   8.835  0.3555 -1.2928 -0.5664
 3395SOL    HW221648   2.768   2.731   8.908  0.2719  0.1596  1.8983
 3396SOL     OW21649   3.493   4.479   9.512 -0.6346  0.0422  0.2746
 3396SOL    HW121650   3.548   4.470   9.591 -1.1204 -1.6528  0.4331
 3396SOL    HW221651   3.430   4.408   9.523 -0.2241 -0.1783  1.2847
 3397SOL     OW21652   4.020   0.820  17.032  0.2638 -0.6566 -0.4387
 3397SOL    HW121653   4.086   0.888  17.019 -0.7814  0.7194  1.4845
 3397SOL    HW221654   3.951   0.859  16.978  0.2762  0.3726  0.2993
 3398SOL     OW21655   0.293   2.976  14.359  0.3925 -0.2194 -0.4321
 3398SOL    HW121656   0.315   2.975  14.266  1.3578  2.7644 -0.2241
 3398SOL    HW221657   0.349   2.906  14.394  0.0487 -0.1462  0.2667
 3399SOL     OW21658   4.587   4.397   2.588 -0.0191  0.3168  0.5692
 3399SOL    HW121659   4.645   4.469   2.563  0.2381 -1.0927 -2.7807
 3399SOL    HW221660   4.519   4.422   2.526  1.0937  0.6344 -0.5272
 3400SOL     OW21661   4.213   4.084   3.930 -0.0848 -0.1629 -0.1406
 3400SOL    HW121662   4.277   4.153   3.950  0.3532 -0.2130 -1.3246
 3400SOL    HW221663   4.247   4.064   3.842  1.8491  0.8485  0.3655
 3401SOL     OW21664   0.871   2.624  10.524  0.1088 -0.3445  0.0478
 3401SOL    HW121665   0.838   2.576  10.447 -0.0340  0.0813 -0.1601
 3401SOL    HW221666   0.913   2.692  10.470 -0.3497  0.5392  0.7975
 3402SOL     OW21667   2.923   1.350   4.244 -0.5902 -0.3082  0.1982
 3402SOL    HW121668   2.955   1.282   4.185 -0.9526 -0.6769  0.4203
 3402SOL    HW221669   2.838   1.368   4.205  0.4618 -2.3776 -3.0707
 3403SOL     OW21670   0.883   2.863   4.056  0.3982  0.6828 -0.0655
 3403SOL    HW121671   0.906   2.941   4.107 -1.8081  0.7878  0.7569
 3403SOL    HW221672   0.844   2.815   4.129  1.6357 -0.6692 -0.2907
 3404SOL     OW21673   1.892   4.403   3.025 -0.3056  0.0392 -0.2608
 3404SOL    HW121674   1.956   4.343   2.986 -1.1912 -1.2764  0.2875
 3404SOL    HW221675   1.955   4.448   3.082 -0.2507  0.5532 -0.7402
 3405SOL     OW21676   3.685   2.990   3.850  0.6259 -0.0161  0.5004
 3405SOL    HW121677   3.673   3.060   3.785  0.9533  0.6568  1.1743
 3405SOL    HW221678   3.747   2.941   3.796  2.1946  2.1227  0.3832
 3406SOL     OW21679   4.031   0.608   4.639 -0.0019 -0.3480 -0.1260
 3406SOL    HW121680   4.038   0.702   4.620 -2.0626 -0.7577 -2.9370
 3406SOL    HW221681   3.937   0.603   4.654 -0.2627  2.4165 -0.8260
 3407SOL     OW21682   1.841   1.499   5.577  0.2562 -0.0878 -0.3131
 3407SOL    HW121683   1.852   1.550   5.497 -0.7119  0.4698 -0.0843
 3407SOL    HW221684   1.806   1.416   5.542 -0.6899 -0.5060  1.6491
 3408SOL     OW21685   0.802   1.890  11.438 -0.0979 -1.2217  0.4285
 3408SOL    HW121686   0.738   1.933  11.494 -3.9238 -2.6409 -2.8906
 3408SOL    HW221687   0.800   1.948  11.361 -2.2472  0.3243  1.6445
 3409SOL     OW21688   0.246   2.569   0.660 -0.4725  0.3226 -0.0832
 3409SOL    HW121689   0.205   2.494   0.702 -1.1818  1.0173  0.4509
 3409SOL    HW221690   0.245   2.629   0.734 -1.5232  0.4294 -0.1805
 3410SOL     OW21691   1.897   1.359   5.163 -0.1175 -0.2209  0.3920
 3410SOL    HW121692   1.971   1.418   5.179 -0.3231  0.0139  0.4773
 3410SOL    HW221693   1.937   1.274   5.182  3.2407  1.2273 -0.2309
 3411SOL     OW21694   0.848   1.432   6.588  0.1488  0.1765  0.2950
 3411SOL    HW121695   0.764   1.442   6.633 -1.5205 -0.8272 -2.6331
 3411SOL    HW221696   0.903   1.463   6.660  1.1637 -3.0373  0.9052
 3412SOL     OW21697   1.757   3.273   5.332 -0.0527  0.6297  0.3519
 3412SOL    HW121698   1.807   3.192   5.337  0.5178  0.9757  0.2011
 3412SOL    HW221699   1.684   3.251   5.274  0.5044  3.0801 -1.2807
 3413SOL     OW21700   0.327   2.437  15.539  0.2839 -0.3230 -0.6385
 3413SOL    HW121701   0.276   2.363  15.570  0.8922 -0.1953  0.6335
 3413SOL    HW221702   0.407   2.419  15.588 -0.1090  1.0195  0.5011
 3414SOL     OW21703   2.194   0.869   6.521  0.3943 -0.1801 -0.3515
 3414SOL    HW121704   2.109   0.851   6.483 -0.3091  2.1439  0.1122
 3414SOL    HW221705   2.175   0.921   6.599 -1.1935 -2.1604  0.5650
 3415SOL     OW21706   1.979   4.529   8.695 -0.0836  0.2988  0.5593
 3415SOL    HW121707   2.068   4.497   8.704 -0.5103 -0.9322  0.4332
 3415SOL    HW221708   1.948   4.501   8.782 -2.2611 -1.0600 -0.6501
 3416SOL     OW21709   0.016   0.235   4.683  0.2837  0.1537 -0.0020
 3416SOL    HW121710   0.029   0.330   4.671  1.8804 -0.1528 -0.7359
 3416SOL    HW221711   0.101   0.192   4.679 -0.1596 -0.9540  2.8328
 3417SOL     OW21712   2.627   3.259   5.010  0.3200 -0.4146  0.8042
 3417SOL    HW121713   2.574   3.337   5.025  1.1913  0.0918  1.2840
 3417SOL    HW221714   2.664   3.272   4.923  0.2969 -1.1924  0.6801
 3418SOL     OW21715   1.661   0.604   6.019  0.2634 -0.2230 -0.7419
 3418SOL    HW121716   1.734   0.555   6.057  1.3834  1.3799 -0.8210
 3418SOL    HW221717   1.672   0.563   5.933  0.5262 -2.7987  0.5182
 3419SOL     OW21718   2.102   2.645  14.176 -0.0149 -0.4403  0.1068
 3419SOL    HW121719   2.165   2.698  14.225  0.5911  1.9104 -3.2699
 3419SOL    HW221720   2.058   2.709  14.120  0.2279 -0.8328 -0.5347
 3420SOL     OW21721   3.619   0.701   4.445 -0.7949 -0.2212 -0.1832
 3420SOL    HW121722   3.697   0.696   4.499 -1.9999 -0.7654  1.5121
 3420SOL    HW221723   3.658   0.680   4.360 -2.0252 -1.0736 -0.5501
 3421SOL     OW21724   0.490   4.570   3.868 -0.3195  0.2155  0.5165
 3421SOL    HW121725   0.499   4.492   3.813  1.4319  0.3951  0.5755
 3421SOL    HW221726   0.543   4.630   3.816 -1.1560 -0.0778 -0.6807
 3422SOL     OW21727   3.819   2.153   2.571 -0.1978 -0.0861 -0.3918
 3422SOL    HW121728   3.770   2.221   2.524  1.3249  1.9579  1.0296
 3422SOL    HW221729   3.871   2.115   2.500 -1.5436 -1.0992 -0.8371
 3423SOL     OW21730   0.306   1.651   1.790  0.7830 -0.2891  0.3163
 3423SOL    HW121731   0.262   1.703   1.857  0.9401 -0.1091  0.2794
 3423SOL    HW221732   0.241   1.649   1.719  2.5396 -2.3814 -1.2526
 3424SOL     OW21733   1.207   3.161  13.168  0.3452  0.2920 -0.2761
 3424SOL    HW121734   1.267   3.189  13.236  1.0576  0.8834 -1.1525
 3424SOL    HW221735   1.268   3.132  13.100  1.7826  2.9284 -0.1017
 3425SOL     OW21736   0.146   1.313   2.872 -0.4996  0.2492  0.2038
 3425SOL    HW121737   0.071   1.257   2.851 -0.8086 -0.0158  2.0572
 3425SOL    HW221738   0.139   1.360   2.789  0.6401  1.6271  0.8935
 3426SOL     OW21739   3.839   3.114   8.695  0.0097 -0.1555 -0.3996
 3426SOL    HW121740   3.872   3.126   8.606  0.0321  1.6244 -0.1465
 3426SOL    HW221741   3.922   3.123   8.744  0.5031 -3.3980 -0.6573
 3427SOL     OW21742   1.331   2.954   6.035  0.7662  0.4894  0.1598
 3427SOL    HW121743   1.266   2.896   6.074  0.1897  1.4911  0.7030
 3427SOL    HW221744   1.280   3.035   6.029 -1.4181 -0.8909  0.4151
 3428SOL     OW21745   1.654   4.329   0.948 -0.3762  0.4499  0.0139
 3428SOL    HW121746   1.575   4.331   0.894  0.0819 -0.9504 -0.6883
 3428SOL    HW221747   1.618   4.311   1.035  0.3099 -0.7611  0.0430
 3429SOL     OW21748   3.280   2.068  16.664  0.3322  0.4722  0.7638
 3429SOL    HW121749   3.227   2.037  16.738 -1.3133  2.2205  0.3308
 3429SOL    HW221750   3.355   2.010  16.678  1.1817  1.0002 -1.5757
 3430SOL     OW21751   0.956   2.892   7.199 -0.4257 -0.5926 -0.2769
 3430SOL    HW121752   0.936   2.978   7.162 -0.9061 -0.0762  1.1615
 3430SOL    HW221753   1.026   2.857   7.144 -0.2896 -0.6408 -0.0724
 3431SOL     OW21754   1.283   2.523   2.907  0.0131  0.0149  0.3100
 3431SOL    HW121755   1.326   2.439   2.921  0.2577  0.1639  0.4584
 3431SOL    HW221756   1.207   2.523   2.965 -1.7137 -3.9514 -1.9640
 3432SOL     OW21757   3.302   4.363   6.645  0.3252  0.4040  0.0449
 3432SOL    HW121758   3.379   4.403   6.605 -1.6175  2.2745 -1.8494
 3432SOL    HW221759   3.226   4.419   6.626  0.6519  0.9484  0.3627
 3433SOL     OW21760   2.027   2.026   6.290  0.3329  0.9804 -0.0561
 3433SOL    HW121761   2.090   2.098   6.300  0.6579  0.3804  2.0685
 3433SOL    HW221762   1.990   2.031   6.378  1.7164  1.5677  0.5043
 3434SOL     OW21763   4.108   0.955   9.099  0.1300  0.1437 -0.1936
 3434SOL    HW121764   4.061   1.029   9.059 -0.2219 -0.3553 -0.6960
 3434SOL    HW221765   4.054   0.942   9.177 -0.4595  1.7981 -0.3145
 3435SOL     OW21766   0.248   0.163   0.596  0.4739 -0.0096 -0.2610
 3435SOL    HW121767   0.253   0.075   0.559  1.9296 -1.4721  3.3796
 3435SOL    HW221768   0.242   0.149   0.691  0.2687  2.3099  0.0850
 3436SOL     OW21769   3.334   0.488   6.644 -0.1875 -0.3314  0.0860
 3436SOL    HW121770   3.410   0.433   6.664 -1.4287 -1.8613  0.6105
 3436SOL    HW221771   3.296   0.436   6.573 -0.0697  0.0656 -0.2700
 3437SOL     OW21772   1.196   2.000   3.351 -0.1898 -0.1937 -0.1830
 3437SOL    HW121773   1.217   2.059   3.279 -2.0318  0.1967 -0.4044
 3437SOL    HW221774   1.157   2.063   3.411 -0.6174 -1.8498  1.3018
 3438SOL     OW21775   0.371   2.043   7.750  0.0387 -0.6234  0.0324
 3438SOL    HW121776   0.359   1.966   7.807  1.4909 -0.4665  0.5403
 3438SOL    HW221777   0.332   2.109   7.808 -1.8500 -1.3279 -0.4472
 3439SOL     OW21778   0.167   3.316   8.717 -0.2102  0.2480  0.2454
 3439SOL    HW121779   0.204   3.360   8.640 -0.1781 -1.2378 -0.5876
 3439SOL    HW221780   0.080   3.352   8.702 -0.4927 -1.0765 -1.2605
 3440SOL     OW21781   4.338   4.310   4.604  0.3009 -0.2444 -0.0095
 3440SOL    HW121782   4.374   4.243   4.545  1.9154  2.3701 -2.0080
 3440SOL    HW221783   4.419   4.326   4.652  0.2446 -0.8350  0.2852
 3441SOL     OW21784   2.552   3.615  16.500  0.1897  0.1794 -0.4588
 3441SOL    HW121785   2.635   3.578  16.471 -0.4915 -0.2719 -1.8589
 3441SOL    HW221786   2.545   3.691  16.443  0.6170 -1.1959 -2.3362
 3442SOL     OW21787   4.363   0.178  13.449 -0.4222  0.3105  0.2581
 3442SOL    HW121788   4.385   0.093  13.486 -0.9277 -0.4220 -1.1480
 3442SOL    HW221789   4.426   0.224  13.504 -0.0440 -1.1685  1.0427
 3443SOL     OW21790   3.015   1.948   6.802  0.8473 -0.0987 -0.9067
 3443SOL    HW121791   3.067   2.001   6.862  1.6053 -1.4778 -0.3560
 3443SOL    HW221792   2.963   2.014   6.755 -0.3589  0.4610  1.2112
 3444SOL     OW21793   1.583   4.184   8.648  0.6684 -0.3867  0.2327
 3444SOL    HW121794   1.512   4.147   8.594  0.1116 -0.9555  1.3439
 3444SOL    HW221795   1.555   4.182   8.740 -0.8947 -0.5665 -0.2377
 3445SOL     OW21796   3.866   2.485   3.303 -0.3826  0.0755  0.0250
 3445SOL    HW121797   3.830   2.405   3.266 -0.4437  0.6526 -1.1445
 3445SOL    HW221798   3.935   2.440   3.352  1.3098 -0.3259 -2.7870
 3446SOL     OW21799   2.191   4.102   0.595  0.1469 -0.1492  0.5001
 3446SOL    HW121800   2.272   4.086   0.546 -0.7070 -0.2129 -0.8744
 3446SOL    HW221801   2.170   4.188   0.561 -0.6891  0.0008  1.3867
 3447SOL     OW21802   0.633   2.613   2.375  0.3273  0.0628  0.6722
 3447SOL    HW121803   0.659   2.696   2.336 -0.2065 -0.7460 -1.4201
 3447SOL    HW221804   0.545   2.632   2.407 -0.4507 -0.6532 -1.0092
 3448SOL     OW21805   2.291   0.097   6.919 -0.4514 -0.3963  0.1453
 3448SOL    HW121806   2.243   0.056   6.991 -2.3595  0.6919 -0.5090
 3448SOL    HW221807   2.285   0.190   6.942 -0.0404 -0.5076  0.7137
 3449SOL     OW21808   1.889   3.074   6.772 -0.0031  0.4034  0.3281
 3449SOL    HW121809   1.798   3.047   6.783  0.4332 -0.7718  1.0213
 3449SOL    HW221810   1.936   3.046   6.851  2.7380  2.0825 -0.6995
 3450SOL     OW21811   4.358   1.746   7.825 -0.1508  0.2075  0.0932
 3450SOL    HW121812   4.358   1.757   7.920  1.4129  1.5264 -0.0596
 3450SOL    HW221813   4.344   1.652   7.810 -0.8703  0.7909 -3.0190
 3451SOL     OW21814   2.298   1.962   3.210  0.4709  0.0297  0.0764
 3451SOL    HW121815   2.371   1.972   3.149  2.2168 -1.4824  1.9161
 3451SOL    HW221816   2.235   2.007   3.154 -0.0501  1.7205  2.0328
 3452SOL     OW21817   2.751   1.990  11.333  0.0564 -0.7731  0.0696
 3452SOL    HW121818   2.727   2.003  11.241  1.7178 -0.6682 -0.3432
 3452SOL    HW221819   2.824   2.049  11.350  0.3184 -0.8008 -0.9737
 3453SOL     OW21820   3.093   3.322   4.845 -0.2191 -0.2759 -0.0137
 3453SOL    HW121821   3.128   3.382   4.911  0.2311  0.3628 -0.8273
 3453SOL    HW221822   3.147   3.338   4.768  1.2667  1.5061  1.3844
 3454SOL     OW21823   1.932   2.372   8.076 -0.1224  0.4242 -0.0683
 3454SOL    HW121824   1.865   2.310   8.047  0.2055  1.1029 -2.2618
 3454SOL    HW221825   1.881   2.452   8.092 -0.8466  0.2571 -1.5479
 3455SOL     OW21826   4.096   1.856   9.855 -0.0295 -0.4983  0.9449
 3455SOL    HW121827   4.165   1.843   9.789 -0.0387 -0.7262  0.9774
 3455SOL    HW221828   4.026   1.799   9.825 -1.0618  0.7298  1.0520
 3456SOL     OW21829   2.008   2.375  11.525 -0.0151 -0.7487  0.6813
 3456SOL    HW121830   1.951   2.452  11.532  2.0104  0.7368  0.8325
 3456SOL    HW221831   1.959   2.313  11.472 -0.8360  0.7913 -0.3698
 3457SOL     OW21832   0.144   2.351  16.438 -0.4169  0.9297 -0.4925
 3457SOL    HW121833   0.226   2.392  16.465  0.3677 -1.5083  0.8058
 3457SOL    HW221834   0.130   2.399  16.356 -0.9055  0.1043 -0.8965
 3458SOL     OW21835   3.559   0.701   8.171 -0.5344 -0.0191 -0.8077
 3458SOL    HW121836   3.485   0.720   8.229 -0.6027 -2.3237 -0.1604
 3458SOL    HW221837   3.585   0.793   8.164  0.8559 -0.3239  0.3206
 3459SOL     OW21838   2.756   1.449   5.177 -0.6135  0.3443 -0.0575
 3459SOL    HW121839   2.788   1.538   5.193  1.0490 -0.0362 -1.2735
 3459SOL    HW221840   2.716   1.458   5.091 -1.0915 -0.0509  0.1200
 3460SOL     OW21841   3.440   0.666  11.223  0.0218  0.3996  0.0851
 3460SOL    HW121842   3.495   0.641  11.297 -1.5021  2.0877  1.8001
 3460SOL    HW221843   3.357   0.679  11.270  1.3290  1.2552  2.1375
 3461SOL     OW21844   1.113   3.846   1.833  0.1345  0.1538  0.2103
 3461SOL    HW121845   1.155   3.931   1.845  1.5467 -0.5323  0.1293
 3461SOL    HW221846   1.183   3.786   1.807 -0.8602 -0.5070 -0.9064
 3462SOL     OW21847   2.660   3.030   8.029  0.0240  0.4799  0.0871
 3462SOL    HW121848   2.682   2.948   8.074 -1.5928  0.1178  0.2149
 3462SOL    HW221849   2.681   3.007   7.938  0.5978  0.5201  0.2107
 3463SOL     OW21850   4.167   2.976   3.390 -0.1307  0.2100 -0.5039
 3463SOL    HW121851   4.193   2.999   3.479 -1.5366  1.5823 -0.4500
 3463SOL    HW221852   4.246   2.929   3.362 -1.3961 -2.5913  0.5720
 3464SOL     OW21853   1.305   3.895   3.388 -0.4555  0.1747 -0.6649
 3464SOL    HW121854   1.277   3.819   3.336 -2.0467 -0.0478  0.5519
 3464SOL    HW221855   1.398   3.874   3.395 -0.3011  0.7618 -0.9155
 3465SOL     OW21856   1.168   2.559  14.702 -0.3271 -0.4343 -0.1978
 3465SOL    HW121857   1.148   2.478  14.655 -2.3436 -0.3511  0.5172
 3465SOL    HW221858   1.251   2.584  14.662 -1.5208  1.3097 -1.6136
 3466SOL     OW21859   2.085   1.574   5.210 -0.2232 -0.2504 -0.2776
 3466SOL    HW121860   2.115   1.569   5.301  2.9576  0.7163 -1.2678
 3466SOL    HW221861   2.018   1.640   5.225  0.9145  0.8894 -0.2570
 3467SOL     OW21862   3.545   1.347   6.993  0.5772 -0.1384 -0.1316
 3467SOL    HW121863   3.619   1.366   6.935 -0.1842  1.9414 -0.4064
 3467SOL    HW221864   3.570   1.262   7.031  1.4350 -0.5800 -1.6838
 3468SOL     OW21865   2.569   2.534   8.798 -0.0873  0.5933 -0.2087
 3468SOL    HW121866   2.579   2.456   8.853 -0.3682 -1.2415 -2.7712
 3468SOL    HW221867   2.657   2.572   8.794 -0.0179  0.3972 -0.5901
 3469SOL     OW21868   4.442   2.371   1.280  0.0979  0.2164 -0.1316
 3469SOL    HW121869   4.387   2.381   1.203  0.2223 -1.6135 -0.4407
 3469SOL    HW221870   4.514   2.430   1.257  1.6241 -1.2780  0.8101
 3470SOL     OW21871   4.354   2.407   5.823 -0.2481 -0.2088 -0.1373
 3470SOL    HW121872   4.445   2.381   5.809 -0.8063 -1.6983 -1.1010
 3470SOL    HW221873   4.353   2.410   5.919  0.7467 -1.3559 -0.0860
 3471SOL     OW21874   2.119   1.114  12.552  0.3971 -0.4466 -0.6884
 3471SOL    HW121875   2.173   1.039  12.577  1.0863 -0.3436 -1.8557
 3471SOL    HW221876   2.175   1.171  12.500  0.6684 -0.3284 -0.2590
 3472SOL     OW21877   4.018   1.181   8.997  0.1295  0.0621  0.1895
 3472SOL    HW121878   4.062   1.228   8.927 -0.2130  0.2909  0.1255
 3472SOL    HW221879   3.945   1.239   9.021  1.4840  0.4136  3.4082
 3473SOL     OW21880   4.699   2.462   8.104  0.3983 -0.3106 -0.2873
 3473SOL    HW121881   4.652   2.543   8.124  1.3821  0.4995 -1.2378
 3473SOL    HW221882   0.013   2.440   8.188  1.0388  0.1406 -0.4581
 3474SOL     OW21883   1.780   0.740   4.322  0.0672  0.4941  0.0727
 3474SOL    HW121884   1.695   0.784   4.312  1.8986  4.2803  1.2463
 3474SOL    HW221885   1.823   0.791   4.391  0.4380  0.8672 -0.4348
 3475SOL     OW21886   0.464   1.759  17.101  0.4973  0.1195 -0.6161
 3475SOL    HW121887   0.481   1.677  17.053 -1.4952 -0.6753  0.0429
 3475SOL    HW221888   0.518   1.759  17.179  0.5557  2.2019 -0.6501
 3476SOL     OW21889   0.160   3.314   5.123  0.3184 -0.1863 -0.6153
 3476SOL    HW121890   0.207   3.352   5.049 -1.2374  2.1551 -0.3792
 3476SOL    HW221891   0.154   3.224   5.092 -1.4777  0.0352 -0.8981
 3477SOL     OW21892   1.245   1.878   6.851  0.1683  0.0714 -0.3436
 3477SOL    HW121893   1.162   1.831   6.844  0.0731  0.4378 -1.7250
 3477SOL    HW221894   1.223   1.967   6.824  1.1848 -0.3208 -2.4649
 3478SOL     OW21895   1.264   3.228   6.395  0.0200  0.5420  0.4112
 3478SOL    HW121896   1.224   3.283   6.462 -1.4652 -0.0444  0.0028
 3478SOL    HW221897   1.348   3.271   6.381 -0.3327  0.6057 -1.5655
 3479SOL     OW21898   1.342   3.163  10.124 -0.5517  0.8456  0.2666
 3479SOL    HW121899   1.330   3.211  10.206  0.6786 -1.3622  1.7333
 3479SOL    HW221900   1.267   3.104  10.125 -0.5178  0.7975 -0.5950
 3480SOL     OW21901   2.094   1.518   4.324 -0.2268  0.2766 -0.2547
 3480SOL    HW121902   2.068   1.465   4.399  0.8740  0.7919  0.4910
 3480SOL    HW221903   2.011   1.507   4.277 -0.3577  1.1132 -0.2263
 3481SOL     OW21904   1.458   0.580  10.983  0.1202 -0.0663 -0.0519
 3481SOL    HW121905   1.454   0.651  10.918  1.6301 -0.1771 -0.2677
 3481SOL    HW221906   1.388   0.609  11.040 -0.6734  0.2897 -1.2011
 3482SOL     OW21907   4.255   2.023   5.162  0.3285 -0.5530 -0.7356
 3482SOL    HW121908   4.192   2.008   5.232  1.1393 -0.1702  0.0780
 3482SOL    HW221909   4.226   2.111   5.137  3.6037  0.8616  0.4821
 3483SOL     OW21910   3.335   1.054  10.051 -0.0732  0.3143  0.3318
 3483SOL    HW121911   3.377   1.140  10.054 -0.9197  0.7520 -0.3888
 3483SOL    HW221912   3.253   1.083  10.092 -0.2624 -0.2927  0.3845
 3484SOL     OW21913   0.250   3.055   1.716 -0.1084  0.5770  0.1122
 3484SOL    HW121914   0.248   2.972   1.763 -1.6962  0.9667  0.7389
 3484SOL    HW221915   0.187   3.104   1.768  0.1507  0.6387  0.3668
 3485SOL     OW21916   3.338   2.683  11.044 -0.2729  0.0430  0.8086
 3485SOL    HW121917   3.340   2.758  11.103  0.2281  1.2676 -0.7843
 3485SOL    HW221918   3.431   2.665  11.031  0.1815  2.9830 -0.0823
 3486SOL     OW21919   2.981   3.597  12.823 -0.1093 -0.4385 -0.3956
 3486SOL    HW121920   2.914   3.529  12.821 -0.7031  0.0690  2.7925
 3486SOL    HW221921   3.044   3.563  12.759 -2.7140 -2.2355 -2.0130
 3487SOL     OW21922   1.046   1.561   0.378  0.1084  0.0979 -0.4148
 3487SOL    HW121923   1.040   1.535   0.470 -2.9203 -2.1739 -1.2597
 3487SOL    HW221924   0.956   1.592   0.372 -0.1936 -0.7794 -0.5532
 3488SOL     OW21925   0.546   2.406  10.353 -0.2899  0.2119  0.7417
 3488SOL    HW121926   0.461   2.386  10.392 -0.0473 -1.9384  0.1482
 3488SOL    HW221927   0.594   2.391  10.434  3.5052  2.5031 -1.0504
 3489SOL     OW21928   4.257   1.089  12.676 -0.8095  0.0496 -0.0372
 3489SOL    HW121929   4.229   1.166  12.627  1.9082  1.4498  0.6099
 3489SOL    HW221930   4.229   1.122  12.762 -0.8523  1.6976 -0.6848
 3490SOL     OW21931   0.578   0.860  10.091  0.1676 -0.0362 -0.1107
 3490SOL    HW121932   0.551   0.768  10.090  0.5144 -0.1375 -0.0223
 3490SOL    HW221933   0.657   0.860  10.036 -0.3132  0.2409 -0.8001
 3491SOL     OW21934   1.857   2.337   5.453  0.0124  0.1137 -0.0766
 3491SOL    HW121935   1.816   2.309   5.535 -1.5921  0.2935 -0.8131
 3491SOL    HW221936   1.897   2.255   5.424 -0.0201  0.3335 -0.7380
 3492SOL     OW21937   2.323   0.970   1.698 -0.5908  0.6816 -0.9758
 3492SOL    HW121938   2.229   0.988   1.694 -0.8337 -0.8331 -2.1231
 3492SOL    HW221939   2.344   0.970   1.605  2.7013  1.0314 -0.2504
 3493SOL     OW21940   1.745   4.443  15.028 -0.1613 -0.7498 -0.3490
 3493SOL    HW121941   1.764   4.377  15.094  0.0949  1.0987  1.4109
 3493SOL    HW221942   1.662   4.410  14.994 -1.3822  1.2112  0.7740
 3494SOL     OW21943   0.223   2.829   4.929 -0.8951 -0.5720  0.2964
 3494SOL    HW121944   0.197   2.748   4.972  1.8295 -2.5438 -1.7797
 3494SOL    HW221945   0.318   2.824   4.919 -0.6408  1.5010  1.5490
 3495SOL     OW21946   2.838   1.300  17.613  0.0240  0.0267  0.0952
 3495SOL    HW121947   2.805   1.219  17.651 -1.0460  0.0651 -0.7494
 3495SOL    HW221948   2.801   1.310  17.525 -1.3707  2.7919  0.9714
 3496SOL     OW21949   1.888   3.741   7.204  0.0245 -0.0882  0.7550
 3496SOL    HW121950   1.908   3.648   7.194 -0.5236 -0.0369 -0.7729
 3496SOL    HW221951   1.976   3.773   7.181  0.6007 -1.9614  0.3390
 3497SOL     OW21952   0.742   0.494   1.952 -0.2337  0.3264 -0.2337
 3497SOL    HW121953   0.811   0.452   1.900  1.0463 -1.0998  2.6580
 3497SOL    HW221954   0.776   0.583   1.964  2.3512 -0.9619  2.0751
 3498SOL     OW21955   3.113   4.625   6.659 -0.2191  0.2595 -0.6066
 3498SOL    HW121956   3.128   4.702   6.714  0.6141  0.3493 -0.9621
 3498SOL    HW221957   3.110   4.666   6.572 -0.7039 -0.3446 -0.8758
 3499SOL     OW21958   1.725   2.520   3.685 -0.3385  0.1355  0.9389
 3499SOL    HW121959   1.719   2.539   3.591 -1.2917 -3.0285  0.3695
 3499SOL    HW221960   1.662   2.583   3.719 -1.3867 -0.9731  1.0247
 3500SOL     OW21961   2.964   4.097   0.202  0.2358  0.2291  0.1749
 3500SOL    HW121962   3.042   4.110   0.147 -0.3701 -1.5488 -1.1084
 3500SOL    HW221963   3.009   4.078   0.284 -1.1167 -1.4912  0.5029
 3501SOL     OW21964   4.600   3.465   3.687 -0.5571  0.1768  0.4457
 3501SOL    HW121965   4.551   3.489   3.608  0.7539 -0.7527 -0.6525
 3501SOL    HW221966   4.538   3.401   3.720  2.7836 -2.6680  1.1120
 3502SOL     OW21967   1.006   1.415   3.060 -0.1333 -0.0916 -0.9679
 3502SOL    HW121968   0.946   1.360   3.111  0.0402  1.0488  0.4816
 3502SOL    HW221969   1.085   1.362   3.054  0.3921  0.3514  1.8445
 3503SOL     OW21970   0.856   0.906  15.477  0.1345 -0.7440 -0.1335
 3503SOL    HW121971   0.933   0.891  15.422  0.8774  2.3335  0.0696
 3503SOL    HW221972   0.815   0.982  15.435  0.4946 -0.7684 -0.5250
 3504SOL     OW21973   1.601   3.874   6.147  0.4783 -0.4152 -1.0906
 3504SOL    HW121974   1.556   3.892   6.064 -2.8273  0.2569  0.8213
 3504SOL    HW221975   1.612   3.781   6.161 -1.3453 -0.7629 -1.9196
 3505SOL     OW21976   0.304   0.893   6.152 -0.9958  0.1724  0.2715
 3505SOL    HW121977   0.359   0.828   6.194 -0.2859  1.5114  1.3928
 3505SOL    HW221978   0.243   0.836   6.104 -2.2302  2.0837 -0.4285
 3506SOL     OW21979   0.963   3.572   6.783 -0.2015 -0.6386  0.2532
 3506SOL    HW121980   0.878   3.530   6.800 -0.2615 -0.3977  0.5579
 3506SOL    HW221981   0.978   3.507   6.714  1.5156  0.2766 -0.2253
 3507SOL     OW21982   1.079   1.998   2.256  0.8331  0.4800 -0.2775
 3507SOL    HW121983   1.023   1.970   2.183  0.8831 -1.7469  0.5580
 3507SOL    HW221984   1.012   2.012   2.323  0.9756  1.6876 -0.3891
 3508SOL     OW21985   3.873   1.789   1.542 -0.1601  0.0166 -0.5777
 3508SOL    HW121986   3.920   1.719   1.587  0.4089  0.4582 -0.4910
 3508SOL    HW221987   3.937   1.817   1.477  2.2848  0.9747  2.2762
 3509SOL     OW21988   0.292   3.744   3.313  0.6612 -0.4688  0.2568
 3509SOL    HW121989   0.372   3.765   3.362  0.4181 -1.9769  1.3137
 3509SOL    HW221990   0.225   3.770   3.376  1.4404 -0.0428  0.9065
 3510SOL     OW21991   0.937   1.121  16.659 -0.4977  0.3651 -0.1666
 3510SOL    HW121992   0.980   1.184  16.602  1.9773 -2.1986 -1.0992
 3510SOL    HW221993   0.984   1.110  16.742 -0.8024 -0.3879 -0.0951
 3511SOL     OW21994   3.908   4.048   1.640 -0.2115 -0.1773  0.0495
 3511SOL    HW121995   3.890   4.133   1.599  2.2862  0.4293  0.2333
 3511SOL    HW221996   3.990   4.078   1.679 -0.5949 -0.4849  1.0977
 3512SOL     OW21997   0.107   2.507  10.185  0.6830  0.2005  0.6699
 3512SOL    HW121998   0.142   2.477  10.269  0.7696  1.0920  0.9549
 3512SOL    HW221999   0.181   2.547  10.138 -0.2627  1.0224 -0.1289
 3513SOL     OW22000   3.685   4.095   6.394  0.2116  0.1647  0.4980
 3513SOL    HW122001   3.624   4.088   6.468  0.0861  0.4946  0.4242
 3513SOL    HW222002   3.716   4.185   6.389 -0.5092  0.5512  2.7573
 3514SOL     OW22003   3.173   3.430  12.677 -0.0877  0.1798  0.0463
 3514SOL    HW122004   3.216   3.501  12.726 -1.0526  0.3591  0.6342
 3514SOL    HW222005   3.246   3.407  12.620 -0.6449 -2.8759  0.5864
 3515SOL     OW22006   1.161   3.596   0.311  0.1585 -0.1332  0.1818
 3515SOL    HW122007   1.131   3.629   0.226 -1.2519  3.4408  2.0719
 3515SOL    HW222008   1.254   3.585   0.293  0.1543  2.0803 -1.1679
 3516SOL     OW22009   1.898   0.935   4.473  0.2729  0.3118 -0.0499
 3516SOL    HW122010   1.831   0.994   4.509  0.1710 -1.7032  3.0547
 3516SOL    HW222011   1.938   0.907   4.555 -1.9170 -1.1503  0.5103
 3517SOL     OW22012   1.086   4.083  12.521  0.1920  0.0597  1.1008
 3517SOL    HW122013   1.160   4.059  12.466 -1.1510 -0.9139 -0.2477
 3517SOL    HW222014   1.087   4.014  12.588 -0.7084 -0.0362  1.0100
 3518SOL     OW22015   1.489   0.120   6.400 -0.1943 -0.1258 -0.2078
 3518SOL    HW122016   1.421   0.068   6.358 -0.7529  0.1331  0.3741
 3518SOL    HW222017   1.523   0.050   6.457  2.9990  1.5920  0.0297
 3519SOL     OW22018   0.344   4.263   5.814 -0.2104 -0.4735  0.0318
 3519SOL    HW122019   0.376   4.353   5.811 -0.8395 -0.2555 -0.1563
 3519SOL    HW222020   0.415   4.215   5.770 -0.5679 -0.3103 -0.7342
 3520SOL     OW22021   1.827   2.082   8.988 -0.5705 -0.2702  0.2842
 3520SOL    HW122022   1.778   2.034   9.054 -2.9517  2.6172  0.5995
 3520SOL    HW222023   1.913   2.039   8.982 -0.3250  0.0646  1.3481
 3521SOL     OW22024   3.481   4.524   5.537 -0.4054 -0.0173  0.6001
 3521SOL    HW122025   3.535   4.592   5.497 -1.0191  0.2230  0.1932
 3521SOL    HW222026   3.497   4.533   5.631  1.4124  1.3329  0.1646
 3522SOL     OW22027   4.320   4.272  13.093 -0.1444  0.2597  0.7229
 3522SOL    HW122028   4.320   4.184  13.055 -0.7382  1.2839 -1.6364
 3522SOL    HW222029   4.396   4.316  13.056 -0.6000  0.3998 -0.0312
 3523SOL     OW22030   3.858   1.258  12.186  0.2657 -0.1832 -0.2545
 3523SOL    HW122031   3.836   1.300  12.269 -1.2245 -0.0309 -0.7456
 3523SOL    HW222032   3.822   1.322  12.125 -2.1367 -0.0105  1.3490
 3524SOL     OW22033   0.651   4.124   0.795 -0.2653  0.1899 -0.2701
 3524SOL    HW122034   0.616   4.150   0.881  0.9606  0.4908  0.1355
 3524SOL    HW222035   0.677   4.214   0.776  2.9199 -0.6287  0.2666
 3525SOL     OW22036   3.638   3.205   2.812  0.2118  0.1764 -0.0122
 3525SOL    HW122037   3.623   3.169   2.724 -0.4009 -0.3907  0.3292
 3525SOL    HW222038   3.708   3.152   2.850  1.8253  1.5136 -1.1351
 3526SOL     OW22039   1.190   3.170   4.849 -0.2886 -0.2394 -0.1749
 3526SOL    HW122040   1.217   3.085   4.815 -1.8723  0.4412 -3.1695
 3526SOL    HW222041   1.270   3.194   4.895 -0.8708  2.2622 -0.4789
 3527SOL     OW22042   3.007   1.222   9.082  0.1493 -0.2152  0.4109
 3527SOL    HW122043   3.016   1.303   9.032  0.8362 -0.6787 -0.2357
 3527SOL    HW222044   3.074   1.170   9.036  0.6240 -1.0610  2.0259
 3528SOL     OW22045   0.028   0.645   6.365  0.2092  0.3655 -0.2035
 3528SOL    HW122046   0.106   0.590   6.358  0.6812  1.1016 -0.5838
 3528SOL    HW222047   4.680   0.584   6.350  0.8431 -0.0267 -1.6481
 3529SOL     OW22048   3.563   1.715   6.568  0.2094  0.7352  0.0312
 3529SOL    HW122049   3.610   1.776   6.511  0.6512 -0.3984 -0.8285
 3529SOL    HW222050   3.529   1.646   6.511 -0.1432  1.0420 -0.1266
 3530SOL     OW22051   3.641   1.045  10.084 -0.0874  0.2330  0.3108
 3530SOL    HW122052   3.573   1.113  10.091 -1.4367 -1.0928  0.1538
 3530SOL    HW222053   3.621   0.995  10.163  1.5297 -0.7239  0.0991
 3531SOL     OW22054   1.911   0.675   5.474  0.2868 -0.1481  0.1737
 3531SOL    HW122055   1.823   0.639   5.463  0.3118  0.0771 -0.7371
 3531SOL    HW222056   1.883   0.756   5.517  0.7328  0.0099  0.1651
 3532SOL     OW22057   2.958   1.834  12.241 -0.6959  0.3005 -0.3476
 3532SOL    HW122058   2.995   1.832  12.329  0.9392  0.5970 -1.0441
 3532SOL    HW222059   2.982   1.751  12.200 -1.2975  0.5878 -1.3064
 3533SOL     OW22060   1.117   4.235   4.802 -0.1887 -0.5033 -0.8002
 3533SOL    HW122061   1.041   4.281   4.768  1.5321  1.7920 -1.5106
 3533SOL    HW222062   1.135   4.284   4.882 -1.0499 -0.9165 -0.3503
 3534SOL     OW22063   3.785   4.059   9.518  0.2492  0.2533  0.1843
 3534SOL    HW122064   3.824   4.122   9.578  2.3764 -1.3762  0.5026
 3534SOL    HW222065   3.833   3.983   9.551  1.6435  0.5722 -1.1335
 3535SOL     OW22066   1.604   0.010  16.669 -0.1484  0.4622 -0.0145
 3535SOL    HW122067   1.674   0.044  16.613  0.7052 -0.1367  0.7072
 3535SOL    HW222068   1.595   0.082  16.732 -2.4006 -0.2622  0.4943
 3536SOL     OW22069   1.212   4.264   8.339  0.3968  0.1397  0.0909
 3536SOL    HW122070   1.171   4.201   8.280 -1.2828 -1.3295  2.8160
 3536SOL    HW222071   1.224   4.328   8.269  0.2174  1.6699  1.4525
 3537SOL     OW22072   3.043   2.296  10.294 -0.3585 -0.0930 -0.3668
 3537SOL    HW122073   3.028   2.373  10.348  1.1283  1.1399 -1.7232
 3537SOL    HW222074   2.961   2.251  10.314 -1.1740  1.3184 -0.5328
 3538SOL     OW22075   4.626   3.188   7.561  0.0975  0.5008  0.3764
 3538SOL    HW122076   4.677   3.257   7.518  0.6083 -0.7519 -1.0211
 3538SOL    HW222077   4.674   3.109   7.536 -0.4319 -0.3819  2.1712
 3539SOL     OW22078   2.056   4.333   9.794 -0.1668 -0.0402  0.4516
 3539SOL    HW122079   1.965   4.356   9.780 -0.0166  0.0370 -0.4205
 3539SOL    HW222080   2.072   4.301   9.705  0.8625 -0.0489  0.6405
 3540SOL     OW22081   1.742   2.738   5.619  0.6039 -0.2451  0.2832
 3540SOL    HW122082   1.824   2.774   5.653  1.3176 -0.2978 -1.3532
 3540SOL    HW222083   1.720   2.682   5.693 -1.3813  0.4720  0.2303
 3541SOL     OW22084   2.871   4.001   6.490 -0.2949  0.0779  0.0654
 3541SOL    HW122085   2.914   4.086   6.476  2.9909 -1.5054  0.5484
 3541SOL    HW222086   2.894   3.981   6.581  1.8910  1.0883 -0.2455
 3542SOL     OW22087   0.701   3.712   4.464  0.1745  0.1780  0.0947
 3542SOL    HW122088   0.613   3.708   4.426  0.2551  2.2142 -0.3031
 3542SOL    HW222089   0.745   3.681   4.384 -0.2056  0.1919 -0.1209
 3543SOL     OW22090   4.159   0.943   5.279  0.6106  0.5819  0.0627
 3543SOL    HW122091   4.162   1.039   5.272  1.0794  0.5687  0.0850
 3543SOL    HW222092   4.104   0.929   5.356 -0.5442  1.2207 -0.6383
 3544SOL     OW22093   0.479   4.500   2.875 -0.5667 -0.3707 -0.0885
 3544SOL    HW122094   0.528   4.559   2.818  0.0601  1.1663  2.0459
 3544SOL    HW222095   0.507   4.416   2.839 -1.8893 -1.4289  1.3452
 3545SOL     OW22096   3.013   2.218   1.543  0.0260  0.9664 -0.0049
 3545SOL    HW122097   2.948   2.203   1.475  3.5912 -1.0036 -3.0214
 3545SOL    HW222098   3.092   2.222   1.490 -0.3040  2.2800 -0.3964
 3546SOL     OW22099   2.188   0.548  14.584  0.1467 -0.2857  0.7587
 3546SOL    HW122100   2.211   0.518  14.496 -0.2302 -1.6043  1.1205
 3546SOL    HW222101   2.230   0.477  14.633  1.3815  0.6223  1.0398
 3547SOL     OW22102   2.835   0.288   8.359  0.3439  0.6049 -0.9647
 3547SOL    HW122103   2.841   0.364   8.417 -0.2893  0.9378 -1.3333
 3547SOL    HW222104   2.741   0.279   8.345 -0.0070 -0.6434  2.1113
 3548SOL     OW22105   2.175   0.535   3.391 -0.6258  0.2215  0.1117
 3548SOL    HW122106   2.100   0.518   3.449  1.3260 -0.9706  2.2914
 3548SOL    HW222107   2.171   0.631   3.385 -1.9439  0.0969 -0.9595
 3549SOL     OW22108   4.586   3.830   7.952 -0.2405  0.5734  0.0810
 3549SOL    HW122109   4.493   3.820   7.974 -0.6136 -0.0250 -1.8183
 3549SOL    HW222110   4.614   3.835   8.043 -2.3748 -2.1575  0.8857
 3550SOL     OW22111   3.162   0.809   1.406  0.7392 -0.2435  0.2393
 3550SOL    HW122112   3.215   0.762   1.471 -0.5861 -0.3698  1.2322
 3550SOL    HW222113   3.141   0.890   1.452  0.5942 -0.6084  0.8136
 3551SOL     OW22114   4.655   0.175   5.728 -0.4327 -0.1563 -0.3394
 3551SOL    HW122115   0.017   0.138   5.747  0.3279  1.1885 -1.1706
 3551SOL    HW222116   4.608   0.147   5.806 -0.1107  2.5215  0.7974
 3552SOL     OW22117   3.953   0.974   7.389  0.9313  0.1872  0.2308
 3552SOL    HW122118   3.985   0.922   7.463  0.1927 -0.9855 -0.2748
 3552SOL    HW222119   3.871   1.010   7.423 -0.4126 -2.7791  0.0883
 3553SOL     OW22120   2.231   3.844   9.146  0.5999 -0.6005  0.0154
 3553SOL    HW122121   2.242   3.750   9.162 -0.6000 -0.8318 -0.5325
 3553SOL    HW222122   2.310   3.875   9.103 -0.5484  1.8692 -0.2770
 3554SOL     OW22123   4.712   0.488   5.237  0.0122  0.5682 -0.1043
 3554SOL    HW122124   4.720   0.438   5.318  2.4126 -2.4658 -2.2385
 3554SOL    HW222125   4.634   0.465   5.186 -0.7166  1.0613  0.7761
 3555SOL     OW22126   1.778   0.993   5.129 -0.0212  1.3475  0.1475
 3555SOL    HW122127   1.798   0.990   5.035  1.6676  2.8309  0.4551
 3555SOL    HW222128   1.695   0.949   5.145  0.1001  1.2588  0.5248
 3556SOL     OW22129   1.633   4.190   4.191  0.0732 -0.3277  0.1039
 3556SOL    HW122130   1.626   4.096   4.174  1.3390 -0.2749 -0.7816
 3556SOL    HW222131   1.625   4.176   4.285  2.6959  3.8598  0.9190
 3557SOL     OW22132   1.384   4.154  12.855 -0.2961  0.2775  0.0392
 3557SOL    HW122133   1.325   4.172  12.928  1.8235  1.3309  1.4859
 3557SOL    HW222134   1.445   4.088  12.889  1.3467  2.4429  1.2992
 3558SOL     OW22135   3.188   1.033   7.837 -0.4778  0.1580 -0.3194
 3558SOL    HW122136   3.159   1.115   7.799 -1.5809  0.3080  0.8142
 3558SOL    HW222137   3.111   1.021   7.893  1.9608  2.6241  3.6076
 3559SOL     OW22138   2.171   3.526   6.815 -0.2756 -0.4011 -0.3799
 3559SOL    HW122139   2.191   3.507   6.723  0.1576 -0.5256 -0.2585
 3559SOL    HW222140   2.133   3.612   6.799  3.4237  1.0797 -0.9765
 3560SOL     OW22141   3.312   3.377   3.797 -0.3315  0.2699 -0.1797
 3560SOL    HW122142   3.336   3.292   3.760  0.1525  0.3865 -0.1328
 3560SOL    HW222143   3.264   3.338   3.869  0.1703  1.9495  1.0758
 3561SOL     OW22144   2.039   4.356  11.073 -0.2308  0.1614  0.5736
 3561SOL    HW122145   2.131   4.356  11.100  0.4302  2.2149 -1.6496
 3561SOL    HW222146   2.009   4.274  11.112  0.0787 -0.8438 -1.3144
 3562SOL     OW22147   4.321   4.063  14.741  0.1787  0.0941 -0.1442
 3562SOL    HW122148   4.338   3.996  14.807  1.1924  2.1921  1.7225
 3562SOL    HW222149   4.407   4.106  14.741  0.4754 -0.4964 -2.7451
 3563SOL     OW22150   2.492   1.365  10.642  0.1106 -0.0592  0.1852
 3563SOL    HW122151   2.582   1.398  10.642  0.4395 -0.9740 -0.4613
 3563SOL    HW222152   2.483   1.349  10.548 -0.2543  1.6614 -0.0861
 3564SOL     OW22153   0.536   1.483  12.757 -0.4547 -0.1241 -0.6506
 3564SOL    HW122154   0.559   1.544  12.828  0.7136 -2.3777  0.9022
 3564SOL    HW222155   0.441   1.490  12.757 -0.3057  2.0111  1.7130
 3565SOL     OW22156   1.216   1.088  15.137  0.4174  0.2817  0.2336
 3565SOL    HW122157   1.293   1.138  15.166  1.3223 -0.9553 -0.0185
 3565SOL    HW222158   1.266   1.024  15.086  1.0172 -0.0328  1.2048
 3566SOL     OW22159   1.137   3.827  16.022  0.3728  0.7208  0.1247
 3566SOL    HW122160   1.118   3.841  15.929  1.6157 -1.2295 -0.4204
 3566SOL    HW222161   1.057   3.855  16.068  1.5305 -1.5258  3.5170
 3567SOL     OW22162   3.698   0.545   6.954  0.0262 -0.0673  0.1577
 3567SOL    HW122163   3.772   0.603   6.939 -1.7333  1.7845 -1.3868
 3567SOL    HW222164   3.690   0.559   7.049 -0.7693  0.9048 -0.0469
 3568SOL     OW22165   3.118   0.389   0.839  0.2295  0.1727 -0.8204
 3568SOL    HW122166   3.104   0.356   0.928 -1.1183 -3.2115 -2.2868
 3568SOL    HW222167   3.035   0.435   0.825  0.7632  0.9308 -1.5046
 3569SOL     OW22168   3.332   0.139  17.315  0.2865  0.1242  0.4234
 3569SOL    HW122169   3.242   0.172  17.303 -0.3366 -1.2471  1.3976
 3569SOL    HW222170   3.375   0.224  17.315 -1.3935  0.9914  1.5807
 3570SOL     OW22171   4.143   4.263   1.444  0.5770  0.1006  0.0061
 3570SOL    HW122172   4.203   4.204   1.400 -0.1585 -1.1801  0.7138
 3570SOL    HW222173   4.131   4.313   1.363 -0.3781  0.5823  0.4392
 3571SOL     OW22174   0.458   2.889   3.541 -0.4374  0.7497  0.1670
 3571SOL    HW122175   0.456   2.900   3.636 -0.9629 -0.4250  0.3004
 3571SOL    HW222176   0.433   2.976   3.510 -0.0940  1.1305  0.9426
 3572SOL     OW22177   3.663   1.341   3.984 -0.4593  0.0607  0.2802
 3572SOL    HW122178   3.635   1.250   3.978  0.1589 -0.2386  1.7416
 3572SOL    HW222179   3.756   1.324   3.969 -0.9157 -1.2721 -0.9834
 3573SOL     OW22180   1.270   2.314  12.888 -0.1586  0.3728  0.3823
 3573SOL    HW122181   1.199   2.278  12.835  1.5727 -0.3792 -1.4538
 3573SOL    HW222182   1.320   2.232  12.881  0.8976  0.4718  6.8329
 3574SOL     OW22183   0.715   4.303  16.573  0.7417 -0.1105 -0.0271
 3574SOL    HW122184   0.677   4.285  16.486  1.5490 -0.8854 -0.2147
 3574SOL    HW222185   0.725   4.398  16.563 -0.1573 -0.1487 -1.4220
 3575SOL     OW22186   0.737   3.756   1.314 -0.3590  0.5651  0.0416
 3575SOL    HW122187   0.808   3.820   1.321 -0.7874  0.8496  2.0676
 3575SOL    HW222188   0.702   3.767   1.403  2.1389 -0.2801  1.1231
 3576SOL     OW22189   4.107   0.416   7.742 -0.0858 -0.2201  0.0037
 3576SOL    HW122190   4.017   0.420   7.774  0.1986 -1.2269  0.9121
 3576SOL    HW222191   4.139   0.502   7.767  0.9641 -0.5605 -0.1857
 3577SOL     OW22192   3.319   1.387   8.047 -0.4866 -0.3778 -0.9257
 3577SOL    HW122193   3.317   1.350   7.959 -0.4195  0.4622 -1.2767
 3577SOL    HW222194   3.227   1.391   8.075 -0.1673  2.4060 -0.2576
 3578SOL     OW22195   3.629   3.567   3.677 -0.1555 -0.0830  0.2085
 3578SOL    HW122196   3.544   3.580   3.720 -1.1817 -1.7903 -1.2882
 3578SOL    HW222197   3.625   3.483   3.630  0.4350 -0.4225  0.7559
 3579SOL     OW22198   1.690   3.884  13.917  0.0485 -0.3495  0.0224
 3579SOL    HW122199   1.770   3.856  13.961  1.1180  0.6667 -1.2629
 3579SOL    HW222200   1.663   3.951  13.979 -1.0689  0.7987 -1.6961
 3580SOL     OW22201   3.504   0.184  13.223 -0.1871 -0.4918  0.5771
 3580SOL    HW122202   3.436   0.122  13.248 -0.8721 -0.0814 -0.2943
 3580SOL    HW222203   3.556   0.129  13.165 -1.7252  0.0710 -1.3123
 3581SOL     OW22204   1.765   2.971   1.348  0.1256  0.1549 -0.1175
 3581SOL    HW122205   1.820   3.041   1.383 -0.6167  1.9588 -2.5682
 3581SOL    HW222206   1.824   2.926   1.287  0.0576 -2.1533  1.5013
 3582SOL     OW22207   4.380   3.103   8.586  0.3261  0.5199 -0.9168
 3582SOL    HW122208   4.309   3.041   8.568  0.9561 -0.4577 -0.0831
 3582SOL    HW222209   4.430   3.099   8.505  1.6201 -0.2600 -0.0858
 3583SOL     OW22210   2.486   4.125  11.236 -0.2624  0.4588  0.2182
 3583SOL    HW122211   2.560   4.069  11.210 -0.5119  0.4870 -0.5301
 3583SOL    HW222212   2.486   4.099  11.329  0.2002  0.9368  0.3496
 3584SOL     OW22213   3.422   0.393   5.603 -0.1909 -0.4583 -0.2846
 3584SOL    HW122214   3.403   0.377   5.511  0.2405  0.1297 -0.4737
 3584SOL    HW222215   3.342   0.384   5.655  0.5012  1.7441  1.1735
 3585SOL     OW22216   2.053   3.846   8.287 -0.5706 -0.3910  0.0993
 3585SOL    HW122217   2.001   3.843   8.367  1.4690  0.5283  1.4383
 3585SOL    HW222218   2.038   3.754   8.265 -2.2086 -0.7443  2.6357
 3586SOL     OW22219   4.699   1.088   2.829  0.3320 -0.1803 -0.0813
 3586SOL    HW122220   0.046   1.033   2.862  0.2635 -0.0965  0.2057
 3586SOL    HW222221   4.642   1.027   2.782 -0.7548  2.7263 -2.4651
 3587SOL     OW22222   4.243   3.743  13.887  0.2217 -0.2403  0.3094
 3587SOL    HW122223   4.287   3.670  13.930  1.0332  1.3149  2.1638
 3587SOL    HW222224   4.184   3.773  13.957 -1.8598 -3.9494  0.1591
 3588SOL     OW22225   2.798   1.888   4.269  0.2264  0.0381  0.1260
 3588SOL    HW122226   2.862   1.858   4.204  0.6084 -0.6742  0.8259
 3588SOL    HW222227   2.843   1.858   4.348 -0.8010  0.3393  0.8173
 3589SOL     OW22228   1.658   4.477   6.152  0.2439  0.1143 -0.5238
 3589SOL    HW122229   1.741   4.493   6.196 -0.3255  1.5234  0.0223
 3589SOL    HW222230   1.665   4.386   6.123  1.8879  0.7851 -2.2235
 3590SOL     OW22231   1.921   1.065   2.667  0.3888  0.0870 -0.1723
 3590SOL    HW122232   1.866   1.096   2.739 -0.7030  2.0941 -1.8823
 3590SOL    HW222233   1.916   1.143   2.612  1.7941  0.4584  0.2385
 3591SOL     OW22234   1.094   1.221   5.388  0.2128  0.0559 -0.0052
 3591SOL    HW122235   1.088   1.275   5.466 -1.8002  1.9585 -1.4622
 3591SOL    HW222236   1.076   1.291   5.325 -0.3004  0.5619  0.7133
 3592SOL     OW22237   0.404   3.791   2.350 -0.0341 -0.1445  0.6060
 3592SOL    HW122238   0.403   3.867   2.408 -1.8273 -1.2362  1.9666
 3592SOL    HW222239   0.380   3.728   2.418 -1.0306  0.5726  0.9278
 3593SOL     OW22240   1.624   2.030   5.664  0.0173 -0.9443  0.4227
 3593SOL    HW122241   1.685   2.061   5.731  1.2175 -0.6463 -0.8323
 3593SOL    HW222242   1.564   2.103   5.646  1.6447  0.6430  1.3423
 3594SOL     OW22243   0.380   4.383  14.390  0.6751 -0.4801  0.2376
 3594SOL    HW122244   0.378   4.375  14.485  3.1925  0.9598  0.4075
 3594SOL    HW222245   0.459   4.438  14.387  0.5550 -0.3882 -1.2177
 3595SOL     OW22246   2.593   4.075   4.992  0.1903 -0.1063  0.0059
 3595SOL    HW122247   2.588   4.037   5.079  1.4769 -1.5712 -0.5604
 3595SOL    HW222248   2.542   4.012   4.939  1.1586 -0.1385 -0.8946
 3596SOL     OW22249   3.680   1.921   6.451  0.2020 -0.4418 -0.5593
 3596SOL    HW122250   3.772   1.945   6.439 -0.4277  2.5960  0.7032
 3596SOL    HW222251   3.671   1.996   6.510 -0.2376 -0.1194 -1.0366
 3597SOL     OW22252   0.863   2.297   5.173  0.0377  0.1195 -0.2070
 3597SOL    HW122253   0.780   2.344   5.175  0.0620  0.1024  1.4907
 3597SOL    HW222254   0.915   2.343   5.239 -0.1440  0.3271 -0.2123
 3598SOL     OW22255   3.893   3.999   6.825  0.0995 -0.1581  0.2110
 3598SOL    HW122256   3.813   3.973   6.779  0.3255 -1.6718  0.6663
 3598SOL    HW222257   3.957   3.968   6.760  0.0292  0.5245 -0.1804
 3599SOL     OW22258   2.213   1.560   5.467  0.1180 -0.1470  0.8527
 3599SOL    HW122259   2.276   1.619   5.508 -0.3799  1.9374 -1.3861
 3599SOL    HW222260   2.250   1.473   5.476 -1.0410 -0.5402  1.8516
 3600SOL     OW22261   3.613   1.194   5.723  0.1175 -0.5192  0.0792
 3600SOL    HW122262   3.543   1.230   5.668 -1.0180 -1.0128  1.1935
 3600SOL    HW222263   3.657   1.275   5.749 -1.7962  0.4854  0.1542
 3601SOL     OW22264   0.541   4.196  15.273 -0.1439 -0.0366  0.4554
 3601SOL    HW122265   0.517   4.113  15.232 -0.3171  1.1565 -1.8022
 3601SOL    HW222266   0.498   4.179  15.357  0.3102 -1.2192  0.4596
 3602SOL     OW22267   4.304   1.124   7.552 -0.7213 -0.4191 -0.5633
 3602SOL    HW122268   4.217   1.148   7.584  0.3541  1.7142  0.7667
 3602SOL    HW222269   4.310   1.187   7.479 -0.6713 -1.2433 -1.2746
 3603SOL     OW22270   1.014   2.085   5.427 -0.0890  0.2683 -0.1832
 3603SOL    HW122271   1.010   2.000   5.471  0.2056 -0.8319 -2.2696
 3603SOL    HW222272   1.088   2.117   5.478 -2.7459  1.0209  3.1833
 3604SOL     OW22273   4.183   2.266  16.204  0.2912 -0.1845 -0.4243
 3604SOL    HW122274   4.186   2.214  16.284  1.0735 -2.2509 -1.7988
 3604SOL    HW222275   4.144   2.342  16.248  0.0217 -1.0431  0.8314
 3605SOL     OW22276   4.385   2.423   8.784 -0.2702  0.5778 -0.5015
 3605SOL    HW122277   4.368   2.374   8.864 -1.2714 -0.0476 -1.0962
 3605SOL    HW222278   4.345   2.367   8.717 -0.5320  1.0795 -0.7641
 3606SOL     OW22279   0.900   0.892   8.823  0.1025 -0.1951  0.0621
 3606SOL    HW122280   0.900   0.818   8.762 -0.4164 -0.9172  0.9194
 3606SOL    HW222281   0.983   0.934   8.804 -1.3876  1.8250 -1.8913
 3607SOL     OW22282   2.031   4.660   5.507  0.2900 -0.6606  0.1846
 3607SOL    HW122283   2.018   4.632   5.598  0.2431 -1.6459 -0.1333
 3607SOL    HW222284   2.009   4.580   5.461  0.0556 -0.7559  0.4624
 3608SOL     OW22285   3.987   3.448   4.663  0.2491  0.3419 -0.3925
 3608SOL    HW122286   4.082   3.440   4.658  0.1629 -1.1985  0.1838
 3608SOL    HW222287   3.961   3.358   4.685 -2.4691  0.8291 -1.6210
 3609SOL     OW22288   0.282   4.138  15.055  0.3001 -0.1639  0.4267
 3609SOL    HW122289   0.333   4.136  15.136 -0.9550 -0.7567  1.1893
 3609SOL    HW222290   0.300   4.052  15.019 -0.6868 -0.0209 -0.4019
 3610SOL     OW22291   0.411   2.957   8.520  0.2944 -0.4044 -0.3233
 3610SOL    HW122292   0.458   2.922   8.444  1.0934 -2.2814  1.0358
 3610SOL    HW222293   0.321   2.931   8.501  0.1953  0.7086 -1.3550
 3611SOL     OW22294   2.506   0.633   5.031  0.0351 -0.2199 -0.5432
 3611SOL    HW122295   2.440   0.623   5.099 -0.4361  2.2471 -0.6431
 3611SOL    HW222296   2.563   0.702   5.063 -0.6493 -0.0919  0.4095
 3612SOL     OW22297   0.133   3.569   3.185 -0.1191 -0.0838 -0.0958
 3612SOL    HW122298   0.072   3.572   3.259 -0.1811  0.2912 -0.1626
 3612SOL    HW222299   0.200   3.611   3.240 -0.9898  0.6199  0.4333
 3613SOL     OW22300   0.468   3.741   0.480  0.0656 -0.1946 -0.0220
 3613SOL    HW122301   0.519   3.795   0.541 -2.3935  1.3974  0.5986
 3613SOL    HW222302   0.417   3.677   0.530 -2.1375  0.2323 -1.7394
 3614SOL     OW22303   0.360   3.465  14.877 -0.3468 -0.3749 -0.3095
 3614SOL    HW122304   0.410   3.452  14.797 -1.6396  1.7422 -1.4759
 3614SOL    HW222305   0.267   3.449  14.858 -0.8562  0.9413  1.0386
 3615SOL     OW22306   2.949   4.385   9.237  0.3777  0.3854 -0.0025
 3615SOL    HW122307   2.981   4.301   9.271  1.5883  0.7373 -0.2883
 3615SOL    HW222308   2.941   4.360   9.145 -2.8646 -0.7264  0.5701
 3616SOL     OW22309   3.615   4.147  13.461  0.5834 -0.0067 -0.2822
 3616SOL    HW122310   3.705   4.156  13.433 -0.1081 -0.0476 -2.4877
 3616SOL    HW222311   3.621   4.220  13.523 -0.2042 -0.5204  0.4075
 3617SOL     OW22312   4.557   0.438   3.875  0.1456  0.4201 -0.1536
 3617SOL    HW122313   4.593   0.452   3.787 -0.6804 -1.1317 -0.7454
 3617SOL    HW222314   4.519   0.350   3.874 -1.1010  0.9565 -0.2799
 3618SOL     OW22315   4.499   3.948  15.355  0.6228  0.1201  0.3729
 3618SOL    HW122316   4.492   3.903  15.439 -0.9773 -1.1041 -0.4233
 3618SOL    HW222317   4.588   3.923  15.330  0.8829  0.8921  0.5281
 3619SOL     OW22318   1.153   1.458   5.886 -0.3388  0.0751  0.0227
 3619SOL    HW122319   1.095   1.487   5.957  0.1784  0.7317  0.1750
 3619SOL    HW222320   1.099   1.400   5.831 -0.7418  0.2537  0.2258
 3620SOL     OW22321   3.370   1.442   5.101  0.4831  1.0139 -0.7650
 3620SOL    HW122322   3.465   1.426   5.097  0.3232  0.0333 -0.6243
 3620SOL    HW222323   3.370   1.537   5.110 -2.9425  0.9153  0.0295
 3621SOL     OW22324   2.170   0.142   8.173 -0.3193  0.1149 -0.1967
 3621SOL    HW122325   2.153   0.233   8.197  0.9115  0.4083 -0.4075
 3621SOL    HW222326   2.094   0.099   8.212  2.3241  0.0736  4.8136
 3622SOL     OW22327   0.987   3.305   5.006  0.0082  0.0617 -0.3685
 3622SOL    HW122328   1.030   3.229   4.966 -3.1938 -0.4755 -2.7374
 3622SOL    HW222329   0.912   3.272   5.055  0.1963  0.9249  0.5005
 3623SOL     OW22330   1.188   2.707  10.485 -0.0517  0.4695 -0.2989
 3623SOL    HW122331   1.121   2.774  10.497  0.3463  1.5772 -4.1932
 3623SOL    HW222332   1.185   2.692  10.390 -1.0020  0.2251 -0.2315
 3624SOL     OW22333   3.287   0.720  15.393  0.3689  0.1467  0.3032
 3624SOL    HW122334   3.345   0.676  15.331  1.2155  0.8134  0.6317
 3624SOL    HW222335   3.317   0.685  15.477  3.0027  2.0857  0.1700
 3625SOL     OW22336   0.160   1.663  17.036 -0.2691 -0.4672  0.1832
 3625SOL    HW122337   0.253   1.677  17.057 -0.0577  0.3936 -1.3086
 3625SOL    HW222338   0.118   1.734  17.084  0.8183  1.4745 -1.7245
 3626SOL     OW22339   3.631   3.110   2.559  0.1581  0.1541 -1.0306
 3626SOL    HW122340   3.560   3.124   2.497 -0.1970 -0.1937 -0.6969
 3626SOL    HW222341   3.699   3.064   2.508  0.4900 -0.2453 -0.2314
 3627SOL     OW22342   3.235   0.119   6.073 -0.3215 -0.5003 -0.1829
 3627SOL    HW122343   3.285   0.139   5.993  0.2520 -0.8661  0.0814
 3627SOL    HW222344   3.270   0.184   6.133  0.9499 -1.1086 -0.2590
 3628SOL     OW22345   3.702   3.082  11.120 -0.3475 -0.0997  0.2703
 3628SOL    HW122346   3.781   3.123  11.157  0.2288 -1.5042  0.5848
 3628SOL    HW222347   3.635   3.130  11.168  1.1092  1.0495  1.1681
 3629SOL     OW22348   1.369   3.657  15.952  0.2084 -0.7082 -0.2698
 3629SOL    HW122349   1.293   3.675  16.008 -1.0799  0.0629 -2.2669
 3629SOL    HW222350   1.424   3.732  15.973  0.2933 -0.8881  0.1640
 3630SOL     OW22351   0.407   2.302   8.498 -0.5394  0.3241 -0.1897
 3630SOL    HW122352   0.359   2.345   8.568 -2.9679  1.7749 -2.7391
 3630SOL    HW222353   0.478   2.362   8.477 -1.2406  1.4042  0.5909
 3631SOL     OW22354   3.676   0.477  13.228 -0.2081  0.0721  0.0550
 3631SOL    HW122355   3.707   0.553  13.179 -1.4776  0.7293  0.2819
 3631SOL    HW222356   3.698   0.403  13.172 -1.2135 -0.1606 -0.0220
 3632SOL     OW22357   3.888   0.284   3.532  0.0741 -0.3711 -0.3050
 3632SOL    HW122358   3.858   0.196   3.553 -0.0120 -0.3688 -0.4212
 3632SOL    HW222359   3.831   0.301   3.457  1.5161 -0.3083 -1.3871
 3633SOL     OW22360   3.538   4.028  11.014  0.3847  0.0951 -0.0265
 3633SOL    HW122361   3.561   4.032  11.107 -2.0495  1.1924  0.5295
 3633SOL    HW222362   3.485   3.948  11.023  0.8449  0.0157  1.8923
 3634SOL     OW22363   4.722   4.666   2.544 -0.1798 -0.5291  0.4586
 3634SOL    HW122364   4.657   0.010   2.564  1.5591  0.6885  1.9420
 3634SOL    HW222365   0.012   4.680   2.451  1.5721  0.3119  0.8582
 3635SOL     OW22366   3.444   0.558   3.562 -0.4195  0.3932  0.0188
 3635SOL    HW122367   3.373   0.618   3.538 -0.3331 -0.2799 -1.9193
 3635SOL    HW222368   3.503   0.622   3.601  0.4209 -1.7233  2.2344
 3636SOL     OW22369   3.239   0.892   4.946 -0.3888  0.6417 -0.0771
 3636SOL    HW122370   3.314   0.889   4.886  0.9722  1.2917  1.5664
 3636SOL    HW222371   3.209   0.981   4.928  0.4241  0.6564 -1.3840
 3637SOL     OW22372   0.129   1.270   8.775 -0.5268  0.4507  0.2791
 3637SOL    HW122373   0.114   1.184   8.815  0.6137 -0.3389 -0.9442
 3637SOL    HW222374   0.066   1.322   8.823 -0.5869 -0.6934  1.4379
 3638SOL     OW22375   0.239   1.554  14.083 -0.2903  0.3928  0.4688
 3638SOL    HW122376   0.319   1.583  14.125 -0.3076  1.1931 -0.0570
 3638SOL    HW222377   0.256   1.597  14.000 -2.2713 -0.5301 -0.4246
 3639SOL     OW22378   1.641   3.830   5.288  0.2004  0.0946  0.8935
 3639SOL    HW122379   1.727   3.841   5.247 -0.4101  1.0131 -0.1579
 3639SOL    HW222380   1.592   3.778   5.223  0.1204  0.0258  1.0094
 3640SOL     OW22381   1.474   4.261   2.983  0.0385  0.1829 -0.2072
 3640SOL    HW122382   1.464   4.352   2.955  1.2257  0.5040  0.4192
 3640SOL    HW222383   1.520   4.229   2.905  0.2268  1.3669 -0.5952
 3641SOL     OW22384   1.462   1.732   4.974  0.1746  0.3120 -0.4223
 3641SOL    HW122385   1.407   1.766   4.903 -2.7453 -0.9318  1.2667
 3641SOL    HW222386   1.409   1.661   5.008 -0.2371  0.3252 -1.0347
 3642SOL     OW22387   1.142   3.648  13.242 -0.2124 -0.1473 -0.6537
 3642SOL    HW122388   1.085   3.686  13.309 -0.2519 -0.2661 -0.6181
 3642SOL    HW222389   1.198   3.725  13.239 -1.6687  0.9548  0.3988
 3643SOL     OW22390   0.065   1.032   7.032 -0.3846 -0.1100 -0.1724
 3643SOL    HW122391   0.050   0.947   6.990  0.3104 -1.0692  1.5193
 3643SOL    HW222392   4.697   1.057   7.033 -0.7284 -1.3379 -1.1696
 3644SOL     OW22393   4.477   4.193   6.810 -0.8998 -0.3431 -0.2619
 3644SOL    HW122394   4.508   4.187   6.900  0.2691  2.5689 -0.4804
 3644SOL    HW222395   4.395   4.144   6.807 -1.2284  0.3043 -2.5614
 3645SOL     OW22396   1.121   0.907   6.488 -0.1408 -0.0253 -0.1190
 3645SOL    HW122397   1.185   0.952   6.544 -0.1297  0.3219 -0.4064
 3645SOL    HW222398   1.116   0.968   6.415 -0.2546 -0.3846 -0.4097
 3646SOL     OW22399   1.121   0.415   9.175 -0.3065 -0.0390 -0.1077
 3646SOL    HW122400   1.166   0.338   9.140 -3.0273 -1.5308 -0.3160
 3646SOL    HW222401   1.189   0.481   9.161  0.8522 -1.1856  0.0739
 3647SOL     OW22402   2.903   4.648   9.295 -0.6113  0.7629  0.1337
 3647SOL    HW122403   2.914   4.558   9.262 -3.0141  0.4298  0.1756
 3647SOL    HW222404   2.951   4.648   9.377 -1.1423 -0.0935  0.4493
 3648SOL     OW22405   4.186   0.004   3.857  0.1628 -0.1798 -0.0802
 3648SOL    HW122406   4.161   0.095   3.869 -0.3824 -0.5742  1.8215
 3648SOL    HW222407   4.140   4.713   3.775 -0.9357  0.4357  0.4209
 3649SOL     OW22408   3.263   1.845   9.087  0.9277  0.5026  0.4548
 3649SOL    HW122409   3.310   1.927   9.070  0.4086  1.2036  2.4434
 3649SOL    HW222410   3.234   1.857   9.177 -2.2306 -1.0829 -0.3388
 3650SOL     OW22411   1.958   1.552   0.091  0.0039  0.3459  0.7028
 3650SOL    HW122412   2.045   1.592   0.098  0.0977  0.5052 -1.2726
 3650SOL    HW222413   1.911   1.583   0.169 -1.0876 -1.2268  0.6651
 3651SOL     OW22414   3.625   0.810  16.311  0.0432 -0.1453  0.4030
 3651SOL    HW122415   3.633   0.903  16.287  2.1855 -0.6638 -0.8642
 3651SOL    HW222416   3.700   0.767  16.271  0.4098  0.6043  0.2845
 3652SOL     OW22417   2.202   3.968   4.372 -0.1576 -0.6419  0.2521
 3652SOL    HW122418   2.114   4.006   4.369 -0.4096 -1.2539 -0.0075
 3652SOL    HW222419   2.241   4.017   4.299 -2.8932 -0.4661 -1.1090
 3653SOL     OW22420   4.245   4.257  14.963  0.0024  0.2057 -0.4012
 3653SOL    HW122421   4.301   4.219  15.030 -0.5763 -1.5796 -0.9281
 3653SOL    HW222422   4.240   4.185  14.900  0.6266 -0.9650  0.9081
 3654SOL     OW22423   0.511   3.177   1.595 -0.2914 -0.1922 -0.1064
 3654SOL    HW122424   0.448   3.142   1.658  0.3734  0.5733  0.9828
 3654SOL    HW222425   0.452   3.185   1.520  0.9393 -1.8214 -1.2608
 3655SOL     OW22426   3.957   0.600  10.805  0.1027  0.5205 -0.7345
 3655SOL    HW122427   3.965   0.540  10.731  1.1982  0.0353 -0.2246
 3655SOL    HW222428   4.051   0.616  10.800 -0.1642  2.0430 -0.7059
 3656SOL     OW22429   0.343   3.471   6.842 -0.1601 -0.6017  0.5972
 3656SOL    HW122430   0.404   3.542   6.823  0.4330 -0.5594  2.6527
 3656SOL    HW222431   0.389   3.396   6.805 -2.0248 -0.9363 -1.0480
 3657SOL     OW22432   4.469   0.647   7.817  0.1336 -0.1690 -0.2401
 3657SOL    HW122433   4.531   0.641   7.890  1.7767  2.6282 -1.3838
 3657SOL    HW222434   4.392   0.633   7.872  0.0383  1.1332 -0.0435
 3658SOL     OW22435   3.235   2.255  12.757  0.4062  0.0231  0.4536
 3658SOL    HW122436   3.212   2.346  12.736  0.7352  0.0167  0.0679
 3658SOL    HW222437   3.188   2.242  12.840 -0.5559  0.0987 -0.0700
 3659SOL     OW22438   3.300   3.643   3.383 -0.1696  0.1079  0.0267
 3659SOL    HW122439   3.250   3.578   3.431 -0.9571  0.4413 -0.3404
 3659SOL    HW222440   3.344   3.595   3.313  0.3869  2.1569 -1.0355
 3660SOL     OW22441   2.780   1.213   7.060  0.1501 -0.0684 -0.1461
 3660SOL    HW122442   2.701   1.172   7.097 -0.4396 -0.5378 -1.9254
 3660SOL    HW222443   2.854   1.158   7.086  1.2601  0.4404 -2.2702
 3661SOL     OW22444   1.252   1.714   7.704  0.5451 -0.0497  0.5251
 3661SOL    HW122445   1.265   1.809   7.709  0.5821 -0.0610  0.6450
 3661SOL    HW222446   1.321   1.698   7.641  0.2090  1.3200 -0.1943
 3662SOL     OW22447   2.301   1.025   4.245 -0.2888 -0.2318  0.0868
 3662SOL    HW122448   2.217   0.980   4.233  0.4298 -0.8819 -2.3755
 3662SOL    HW222449   2.339   1.005   4.160 -3.8269 -5.0850 -0.3704
 3663SOL     OW22450   1.406   1.405   4.039 -0.3599  0.1582  0.2277
 3663SOL    HW122451   1.412   1.495   4.010 -4.0939 -0.1453 -1.4588
 3663SOL    HW222452   1.395   1.412   4.134  0.1950  2.4389  0.1165
 3664SOL     OW22453   4.388   2.880   4.463 -0.4114  0.3446 -0.2016
 3664SOL    HW122454   4.346   2.860   4.379 -0.4002  0.0800 -0.1434
 3664SOL    HW222455   4.316   2.902   4.521  1.3331  1.2393  1.6068
 3665SOL     OW22456   3.353   1.543   3.965  0.6179 -0.4468  0.2769
 3665SOL    HW122457   3.306   1.507   3.889 -0.7187 -0.3172  1.0398
 3665SOL    HW222458   3.412   1.470   3.986 -0.3227  0.1003  4.8499
 3666SOL     OW22459   4.320   3.538  14.113 -0.3256 -0.4082 -0.7227
 3666SOL    HW122460   4.409   3.511  14.136 -0.3030  0.6829  0.4470
 3666SOL    HW222461   4.317   3.625  14.154  1.7670 -0.1556 -1.1106
 3667SOL     OW22462   4.335   3.155   5.781  0.1397 -0.4697  0.0835
 3667SOL    HW122463   4.334   3.216   5.855  1.4936 -1.8744  1.2579
 3667SOL    HW222464   4.352   3.210   5.704  0.0090 -1.9480 -0.9883
 3668SOL     OW22465   2.071   2.038   4.578 -0.0522 -0.2118 -0.4380
 3668SOL    HW122466   2.023   1.972   4.527  1.7822  0.9900 -3.7138
 3668SOL    HW222467   2.107   2.087   4.504 -1.5690  0.5061 -0.7074
 3669SOL     OW22468   3.739   1.849  13.630 -0.5689  0.3317 -0.0861
 3669SOL    HW122469   3.758   1.934  13.670 -0.9910  1.6729 -2.7901
 3669SOL    HW222470   3.818   1.815  13.589 -1.6355 -1.6945 -0.4719
 3670SOL     OW22471   3.308   1.081   4.103 -0.6792  0.8334 -0.0331
 3670SOL    HW122472   3.270   0.993   4.097  2.2092 -0.4959  1.4533
 3670SOL    HW222473   3.315   1.095   4.197  2.2323 -0.2446 -0.1039
 3671SOL     OW22474   2.132   2.251   4.381  0.1396 -0.4882 -0.1051
 3671SOL    HW122475   2.220   2.268   4.346 -0.5378  0.8076 -1.1549
 3671SOL    HW222476   2.069   2.245   4.310 -0.2520 -1.5303  0.3180
 3672SOL     OW22477   0.287   3.111   1.221 -0.3220 -0.2062 -0.6776
 3672SOL    HW122478   0.260   3.198   1.251 -2.0714 -0.3597 -1.8241
 3672SOL    HW222479   0.333   3.082   1.300  0.3004 -0.8668 -1.2785
 3673SOL     OW22480   0.492   2.764  15.516 -0.1063  0.4838 -0.0951
 3673SOL    HW122481   0.543   2.717  15.449  2.1999  0.8290  1.4020
 3673SOL    HW222482   0.520   2.854  15.499  1.2085 -0.3498 -2.4115
 3674SOL     OW22483   2.213   0.187   3.552 -0.0222  0.4033 -0.2126
 3674SOL    HW122484   2.169   0.261   3.595 -0.1056  1.3939 -1.9980
 3674SOL    HW222485   2.260   0.156   3.629 -2.6035 -1.7575  0.4756
 3675SOL     OW22486   1.967   2.242   9.763  0.5397 -0.4713 -0.4932
 3675SOL    HW122487   1.991   2.281   9.847  0.2784 -3.3922  0.9239
 3675SOL    HW222488   2.027   2.289   9.705 -1.1135 -1.9888 -3.4461
 3676SOL     OW22489   3.028   2.975   3.008 -0.1485  0.3908  0.0137
 3676SOL    HW122490   2.943   2.974   2.964 -0.6634  2.9960  0.9633
 3676SOL    HW222491   3.094   2.986   2.938  0.1112 -0.4450  0.1369
 3677SOL     OW22492   1.589   4.189   2.749 -0.2683 -0.0850  0.1067
 3677SOL    HW122493   1.619   4.265   2.699  0.6585  2.0018  3.8396
 3677SOL    HW222494   1.578   4.128   2.677  1.4211 -0.8858  0.5129
 3678SOL     OW22495   3.648   0.040   1.066  0.1507 -0.8430  0.1989
 3678SOL    HW122496   3.585   0.102   1.103  1.9764  1.0094  0.1933
 3678SOL    HW222497   3.661   4.698   1.134 -0.4074 -2.6029 -1.3957
 3679SOL     OW22498   0.509   3.422  14.211  0.0042  0.1400  0.1041
 3679SOL    HW122499   0.425   3.436  14.168  0.2894 -0.7242 -0.7403
 3679SOL    HW222500   0.493   3.332  14.240  0.5359  0.6693  2.0149
 3680SOL     OW22501   1.018   4.287   5.423 -0.2784 -0.3504  0.0755
 3680SOL    HW122502   1.039   4.261   5.512  1.1109  2.4301  0.5500
 3680SOL    HW222503   0.970   4.211   5.388  0.0848 -0.8593  0.6839
 3681SOL     OW22504   1.270   0.634   7.173  0.6873  0.3334  0.2016
 3681SOL    HW122505   1.236   0.720   7.195  3.3735  0.8594  2.2446
 3681SOL    HW222506   1.199   0.590   7.219  0.3217 -1.2266 -1.8422
 3682SOL     OW22507   1.039   4.402  14.717  0.1742  0.4256 -0.0085
 3682SOL    HW122508   0.984   4.480  14.711  0.8085  1.0675  2.6580
 3682SOL    HW222509   1.097   4.423  14.790  1.5094 -1.8988 -0.3865
 3683SOL     OW22510   0.419   1.555  11.967 -0.4028 -0.4794 -0.6571
 3683SOL    HW122511   0.478   1.514  12.030  2.2025  2.2043 -1.3673
 3683SOL    HW222512   0.333   1.539  12.007 -0.1349  0.2946  0.2652
 3684SOL     OW22513   2.217   2.265  14.491 -0.1569 -0.3323 -0.1795
 3684SOL    HW122514   2.180   2.333  14.434  2.0308  0.8269 -0.2120
 3684SOL    HW222515   2.310   2.286  14.492 -0.2126 -0.1678  1.4540
 3685SOL     OW22516   0.403   3.980  14.278  0.3250  0.1114  0.5705
 3685SOL    HW122517   0.360   4.054  14.236 -1.4689 -0.6367  1.0903
 3685SOL    HW222518   0.462   4.023  14.340 -1.7676  1.6176  1.5115
 3686SOL     OW22519   2.481   1.295   4.500  0.2555  0.3651 -0.0405
 3686SOL    HW122520   2.418   1.223   4.513 -2.6822  2.9117 -0.1723
 3686SOL    HW222521   2.487   1.295   4.404 -0.5581  0.2949 -0.0921
 3687SOL     OW22522   3.991   3.630  14.378 -0.6149  0.3026  0.6705
 3687SOL    HW122523   4.027   3.576  14.307 -1.2842  0.0698  0.5028
 3687SOL    HW222524   3.922   3.569  14.406  0.2063  0.3463  2.7677
 3688SOL     OW22525   0.450   1.875   5.573 -0.0035  0.5246 -0.4544
 3688SOL    HW122526   0.520   1.924   5.529  0.6550  1.3645  1.4961
 3688SOL    HW222527   0.409   1.945   5.625 -0.5515 -1.1001  1.2839
 3689SOL     OW22528   1.572   1.591   4.248 -0.2338  0.3304 -0.0758
 3689SOL    HW122529   1.503   1.578   4.313 -1.7227 -0.8341 -1.8729
 3689SOL    HW222530   1.560   1.684   4.230 -1.5657  0.7441  2.9584
 3690SOL     OW22531   0.806   3.298  15.734 -0.3685 -0.5013  0.5515
 3690SOL    HW122532   0.717   3.265  15.745 -0.2772 -0.8473  0.2768
 3690SOL    HW222533   0.847   3.233  15.791 -0.2328 -1.3521 -0.5149
 3691SOL     OW22534   1.706   3.296  10.481 -0.1825 -0.3311 -0.1363
 3691SOL    HW122535   1.676   3.305  10.390 -0.6517 -0.5125  0.0012
 3691SOL    HW222536   1.635   3.236  10.502  0.3109 -1.1179 -0.6753
 3692SOL     OW22537   2.956   3.055   3.285 -0.5857 -0.5715 -0.4749
 3692SOL    HW122538   2.888   3.121   3.296  1.0443  0.6681  2.4865
 3692SOL    HW222539   2.967   3.046   3.191  1.4471  0.5191 -0.3550
 3693SOL     OW22540   0.482   4.702   5.201 -0.5577 -0.2158 -0.1207
 3693SOL    HW122541   0.494   4.723   5.293 -0.6724 -2.4318  0.4191
 3693SOL    HW222542   0.556   4.647   5.175 -1.4116 -1.2126 -0.4834
 3694SOL     OW22543   2.443   2.671   3.761  0.2229 -0.1711  0.2529
 3694SOL    HW122544   2.503   2.644   3.691 -1.0575  1.7957 -1.5843
 3694SOL    HW222545   2.434   2.594   3.817  0.0520 -0.0653  0.3682
 3695SOL     OW22546   4.299   0.658   5.152 -0.6420  0.1862  0.0791
 3695SOL    HW122547   4.232   0.700   5.097  0.1527  0.8428 -0.3870
 3695SOL    HW222548   4.255   0.652   5.237  2.6376  1.0862  1.8233
 3696SOL     OW22549   1.503   4.174   1.813 -0.2773 -0.0378  0.1221
 3696SOL    HW122550   1.466   4.262   1.826 -0.6717 -0.3228  0.9244
 3696SOL    HW222551   1.561   4.174   1.889 -0.4419  0.9858  0.2511
 3697SOL     OW22552   1.242   4.500  13.002 -0.5146  0.1657  0.0829
 3697SOL    HW122553   1.218   4.412  13.031 -0.5443  0.4733  1.0049
 3697SOL    HW222554   1.186   4.515  12.926  0.6786 -2.4356 -1.3044
 3698SOL     OW22555   0.447   4.152   7.693  0.4109  0.5175  0.0848
 3698SOL    HW122556   0.468   4.223   7.753  1.4799 -0.6759  1.1175
 3698SOL    HW222557   0.441   4.075   7.750 -1.3139 -0.5855 -1.5978
 3699SOL     OW22558   0.388   0.962  13.191  0.3922  0.0455  0.3967
 3699SOL    HW122559   0.364   1.025  13.259 -1.7347 -0.2633 -0.0527
 3699SOL    HW222560   0.345   1.004  13.116 -0.0845 -1.0818  0.0347
 3700SOL     OW22561   2.035   3.907   1.717  0.6858 -0.0594 -0.6583
 3700SOL    HW122562   2.081   3.918   1.634  0.2063  1.8320 -0.6591
 3700SOL    HW222563   1.984   3.988   1.713 -0.8812 -0.9608  1.3608
 3701SOL     OW22564   3.430   1.514   5.696 -0.1993  0.1666  0.0140
 3701SOL    HW122565   3.515   1.526   5.737 -0.9031 -0.2286  1.6070
 3701SOL    HW222566   3.469   1.489   5.613 -0.7711 -0.8934  0.0619
 3702SOL     OW22567   0.614   2.704   6.800 -0.0913 -0.2152 -0.0366
 3702SOL    HW122568   0.690   2.753   6.831  0.1712 -0.6598  0.0307
 3702SOL    HW222569   0.642   2.613   6.788  0.9922  0.2879 -1.2635
 3703SOL     OW22570   1.743   2.090   2.014 -0.7975  0.2306  0.3484
 3703SOL    HW122571   1.676   2.158   2.020 -2.5916 -1.0920 -4.6283
 3703SOL    HW222572   1.694   2.024   2.063 -0.9576  0.5640  0.6412
 3704SOL     OW22573   1.193   0.906   5.812  0.5112  0.1970 -0.0592
 3704SOL    HW122574   1.163   0.939   5.728  0.2886  0.2630  0.0450
 3704SOL    HW222575   1.158   0.818   5.797  1.0782 -0.0765  0.2308
 3705SOL     OW22576   3.127   3.592  11.754 -0.0868 -0.1966  0.3183
 3705SOL    HW122577   3.045   3.541  11.750 -0.5280  0.6622 -1.3806
 3705SOL    HW222578   3.113   3.655  11.825  1.1253 -0.3512  0.6946
 3706SOL     OW22579   3.237   1.683  16.041  0.8371 -0.6074  0.0624
 3706SOL    HW122580   3.182   1.662  16.117 -1.2416 -0.6756 -1.4594
 3706SOL    HW222581   3.178   1.660  15.969  0.9838 -2.1768  0.4499
 3707SOL     OW22582   2.931   0.032   3.169  0.1251 -0.2307  0.4160
 3707SOL    HW122583   2.965   0.003   3.084  1.6578  1.4186  0.4630
 3707SOL    HW222584   2.846   0.070   3.147  0.3917  0.6349  0.8500
 3708SOL     OW22585   0.383   1.720   3.148 -0.6036  0.3359  0.4888
 3708SOL    HW122586   0.452   1.766   3.098 -0.1210 -1.9752 -0.9719
 3708SOL    HW222587   0.381   1.772   3.228  2.3371 -0.0665  0.8198
 3709SOL     OW22588   2.803   2.651   9.186 -0.5064 -0.5315  0.3412
 3709SOL    HW122589   2.870   2.710   9.218 -0.0463 -1.2258  0.6470
 3709SOL    HW222590   2.847   2.581   9.137  0.3034  0.4752 -0.3661
 3710SOL     OW22591   4.514   3.258   3.306 -0.1021 -0.4252  0.3064
 3710SOL    HW122592   4.522   3.173   3.349 -0.3314 -0.8247 -0.4541
 3710SOL    HW222593   4.514   3.238   3.213  1.0461  0.6811  0.0745
 3711SOL     OW22594   0.061   0.861   5.338 -0.1196  0.4145 -0.5106
 3711SOL    HW122595   4.696   0.827   5.342  1.2935 -3.0488  0.8764
 3711SOL    HW222596   0.092   0.819   5.418  0.2232 -0.4814 -1.1171
 3712SOL     OW22597   2.851   3.955   4.994  0.0191  0.3051  0.6747
 3712SOL    HW122598   2.783   3.989   4.935 -0.4367  2.7075  2.5823
 3712SOL    HW222599   2.885   4.032   5.039  0.2381 -0.5948  2.0412
 3713SOL     OW22600   0.993   4.373   2.302 -0.1709  0.3523 -0.2099
 3713SOL    HW122601   0.963   4.325   2.225  1.3078 -0.0895 -0.4981
 3713SOL    HW222602   1.043   4.440   2.256 -0.3070  0.6605  0.0860
 3714SOL     OW22603   0.462   4.443   9.981 -0.7431 -0.0146 -0.3796
 3714SOL    HW122604   0.376   4.424   9.943 -1.3348  1.6647  0.1235
 3714SOL    HW222605   0.521   4.420   9.909  1.2037  1.7350  0.6325
 3715SOL     OW22606   2.204   4.550  15.913 -0.1687  0.4812  0.2625
 3715SOL    HW122607   2.185   4.457  15.897  1.0021  0.6195 -2.0297
 3715SOL    HW222608   2.135   4.592  15.861 -1.5109  0.0745  1.7141
 3716SOL     OW22609   4.340   2.565   7.261  0.2979  0.0162  0.0039
 3716SOL    HW122610   4.424   2.526   7.238  0.7625  1.7631 -1.2254
 3716SOL    HW222611   4.302   2.493   7.311  2.4723 -0.7410  0.5450
 3717SOL     OW22612   3.387   4.529   9.273  0.2143 -0.6192  0.1207
 3717SOL    HW122613   3.426   4.518   9.360  3.5726  1.9718 -1.0486
 3717SOL    HW222614   3.457   4.508   9.211 -0.1045 -0.3300 -0.3377
 3718SOL     OW22615   0.548   0.947   4.909  0.5016  0.3658 -0.5435
 3718SOL    HW122616   0.456   0.926   4.928  1.1283 -0.7375  1.2878
 3718SOL    HW222617   0.536   0.983   4.821 -1.4951 -1.1279 -0.9144
 3719SOL     OW22618   0.149   2.304   4.893  0.3282  0.7210  0.2593
 3719SOL    HW122619   0.105   2.223   4.918  1.4556  0.4445  1.2880
 3719SOL    HW222620   0.115   2.312   4.803  0.9401 -2.6575 -0.2712
 3720SOL     OW22621   1.076   2.620   8.993 -0.1945 -1.4310 -0.0483
 3720SOL    HW122622   1.021   2.554   8.950 -3.1531  1.3822 -0.5879
 3720SOL    HW222623   1.142   2.621   8.924  0.0028 -1.0510  0.1483
 3721SOL     OW22624   4.392   3.205   2.148 -0.6136  0.0948  0.1882
 3721SOL    HW122625   4.369   3.294   2.122  0.0707  0.5515  1.1337
 3721SOL    HW222626   4.317   3.182   2.203 -0.8654  3.1171  1.1195
 3722SOL     OW22627   1.909   2.893  10.613  0.0847  0.7686 -0.0510
 3722SOL    HW122628   1.919   2.988  10.606  1.8790  0.6184  0.4438
 3722SOL    HW222629   1.818   2.878  10.639  0.5528  0.7749  1.5426
 3723SOL     OW22630   3.807   4.269  15.573  0.5313  0.6591  0.5430
 3723SOL    HW122631   3.765   4.315  15.500 -0.3475 -2.1382 -0.7229
 3723SOL    HW222632   3.737   4.206  15.592 -0.3139  0.9311 -1.5891
 3724SOL     OW22633   1.394   2.568   4.869 -0.4459  0.0437 -0.2510
 3724SOL    HW122634   1.408   2.598   4.959 -0.1882 -0.6950 -0.0482
 3724SOL    HW222635   1.482   2.571   4.831  0.3490  1.2109  1.7025
 3725SOL     OW22636   0.816   1.969  14.380 -0.4714 -0.0727  0.8238
 3725SOL    HW122637   0.826   2.059  14.413  2.4628  0.3466 -1.1819
 3725SOL    HW222638   0.866   1.978  14.298 -0.5416 -3.2449  0.4525
 3726SOL     OW22639   0.487   2.543   5.599  0.3226 -0.2957  0.1903
 3726SOL    HW122640   0.454   2.632   5.614  2.9520  1.1021 -2.2347
 3726SOL    HW222641   0.495   2.511   5.689  0.3808  1.3787  0.7802
 3727SOL     OW22642   3.177   3.014   5.854  0.3434  0.8007 -0.7244
 3727SOL    HW122643   3.236   3.072   5.805 -1.3421  1.9282 -1.4026
 3727SOL    HW222644   3.187   3.052   5.941 -4.2257  1.2308 -0.4118
 3728SOL     OW22645   0.026   2.735   9.786 -0.1524  0.2110  0.0579
 3728SOL    HW122646   0.109   2.750   9.830  0.2979 -0.8512 -0.4185
 3728SOL    HW222647   0.019   2.817   9.737 -0.0821 -0.7641 -1.5892
 3729SOL     OW22648   3.782   4.427  15.321  0.3338  0.2860  0.0904
 3729SOL    HW122649   3.877   4.427  15.334  0.2873 -1.7202  0.4202
 3729SOL    HW222650   3.776   4.382  15.237  0.6098  3.4620 -1.6298
 3730SOL     OW22651   4.380   0.589   3.529  0.7097  0.1336  0.4308
 3730SOL    HW122652   4.333   0.520   3.576 -0.3807  1.4578  1.3266
 3730SOL    HW222653   4.398   0.560   3.440 -0.7469 -3.3526  1.2640
 3731SOL     OW22654   0.744   3.576  13.284  0.4712 -0.7437 -0.4359
 3731SOL    HW122655   0.801   3.649  13.310 -2.9578  1.4138  1.0539
 3731SOL    HW222656   0.785   3.510  13.339 -1.3154 -2.1211 -0.7615
 3732SOL     OW22657   1.914   4.639   1.532 -0.2421  0.5650 -0.0499
 3732SOL    HW122658   1.880   4.713   1.583 -0.9047 -0.1830  0.5945
 3732SOL    HW222659   1.825   4.607   1.514  0.1894 -0.7462  0.1416
 3733SOL     OW22660   0.835   4.635   6.213  0.2631 -0.4673  0.4578
 3733SOL    HW122661   0.906   4.651   6.151  0.0462 -0.4677  0.2074
 3733SOL    HW222662   0.823   4.723   6.249 -0.2740 -0.8185  1.1410
 3734SOL     OW22663   2.997   4.563   4.568  0.0503 -0.0438  0.2967
 3734SOL    HW122664   2.968   4.590   4.655 -0.4345 -0.2497  0.2032
 3734SOL    HW222665   3.086   4.537   4.590 -0.2698 -0.7476  0.7670
 3735SOL     OW22666   0.147   1.142   4.970  0.3617 -0.3342  0.0679
 3735SOL    HW122667   0.121   1.105   5.055 -1.4604 -1.3345 -0.9264
 3735SOL    HW222668   0.065   1.127   4.924 -0.4758  0.8267  1.1775
 3736SOL     OW22669   4.170   0.439   8.096  0.3539  0.0524  0.2535
 3736SOL    HW122670   4.232   0.394   8.039 -0.3863 -0.0123 -0.4932
 3736SOL    HW222671   4.178   0.525   8.056 -0.0340  0.2085  0.5135
 3737SOL     OW22672   2.086   0.533   1.397  0.6015  0.0327 -0.1211
 3737SOL    HW122673   2.051   0.450   1.430  0.8240  0.6597  1.7451
 3737SOL    HW222674   2.035   0.600   1.443  0.4383 -1.0252  1.2430
 3738SOL     OW22675   2.395   1.543   9.464 -0.3208 -1.3495  0.6680
 3738SOL    HW122676   2.319   1.563   9.519  0.1751  2.6344 -0.0771
 3738SOL    HW222677   2.343   1.508   9.392 -2.0622  0.3115  1.1109
 3739SOL     OW22678   0.694   3.999  15.596  0.2249 -0.3360 -0.0504
 3739SOL    HW122679   0.743   3.973  15.518 -0.8625  0.4714 -1.0027
 3739SOL    HW222680   0.622   3.937  15.605  0.7926 -0.9194  0.4993
 3740SOL     OW22681   3.517   0.772   6.312 -0.6526  0.1857 -0.2663
 3740SOL    HW122682   3.518   0.726   6.396 -1.8414  0.9080  0.1471
 3740SOL    HW222683   3.539   0.861   6.340  1.8178  0.3096 -2.6034
 3741SOL     OW22684   4.286   1.514   9.625  0.0855  0.0254 -0.3032
 3741SOL    HW122685   4.266   1.589   9.568  1.1938  0.6444  0.1331
 3741SOL    HW222686   4.379   1.529   9.641 -0.6475  1.1612  2.8630
 3742SOL     OW22687   0.910   2.418   8.920 -0.4304  0.4917  1.0097
 3742SOL    HW122688   0.879   2.332   8.893  1.7490  0.4919 -1.4114
 3742SOL    HW222689   0.834   2.451   8.968 -1.8483 -1.8851  0.3922
 3743SOL     OW22690   3.148   3.216   6.492 -0.2587 -0.1221 -0.2368
 3743SOL    HW122691   3.161   3.309   6.472 -0.5203 -0.4603 -1.9964
 3743SOL    HW222692   3.055   3.206   6.472 -0.0462 -1.5216 -0.5295
 3744SOL     OW22693   0.128   0.718   5.999  0.5227 -0.3504 -0.1854
 3744SOL    HW122694   0.172   0.635   6.018 -0.0124 -0.6355 -0.1942
 3744SOL    HW222695   0.155   0.729   5.908  3.7213  1.7919  1.0132
 3745SOL     OW22696   0.984   1.527   6.061  0.1413  0.5424  0.6147
 3745SOL    HW122697   0.996   1.622   6.071 -0.1570  0.4143  2.1597
 3745SOL    HW222698   0.897   1.526   6.020 -0.8663  0.5511  2.7462
 3746SOL     OW22699   2.836   2.183   7.855 -0.0572 -0.2596 -0.5063
 3746SOL    HW122700   2.759   2.216   7.902  1.1652 -0.9401  1.9565
 3746SOL    HW222701   2.807   2.093   7.869 -1.4248  0.3941  0.8828
 3747SOL     OW22702   3.725   1.832  15.498 -0.1802  0.0548  0.0397
 3747SOL    HW122703   3.817   1.840  15.523  0.5845  0.8677 -3.0477
 3747SOL    HW222704   3.717   1.924  15.472 -1.1642  0.2587  1.0540
 3748SOL     OW22705   3.156   1.907   1.921 -0.9849 -1.0373 -0.0026
 3748SOL    HW122706   3.142   1.812   1.914 -1.8593 -0.8422 -0.8369
 3748SOL    HW222707   3.090   1.931   1.986  0.4481  2.7767  0.0207
 3749SOL     OW22708   4.446   1.673   7.067 -0.0345  0.1072  0.4680
 3749SOL    HW122709   4.522   1.649   7.119  0.7221  0.9763 -0.2439
 3749SOL    HW222710   4.439   1.615   6.991  3.1767  2.3872 -1.5481
 3750SOL     OW22711   0.204   4.518   2.138 -0.1890 -0.3396 -0.2646
 3750SOL    HW122712   0.170   4.519   2.048 -1.0860 -1.2700  0.0637
 3750SOL    HW222713   0.273   4.583   2.128  1.3709 -1.6732  1.8834
 3751SOL     OW22714   0.165   4.434   1.022 -0.4999  0.0354  0.3165
 3751SOL    HW122715   0.226   4.495   1.065 -0.4168  0.0127  0.2322
 3751SOL    HW222716   0.152   4.488   0.943  2.9010 -3.1316 -2.4537
 3752SOL     OW22717   1.995   4.461  14.881  0.1213  0.2966  0.2058
 3752SOL    HW122718   2.047   4.498  14.952  0.4063 -0.0625  0.1878
 3752SOL    HW222719   1.921   4.417  14.925 -0.9352  0.6810 -1.2027
 3753SOL     OW22720   2.375   3.940  16.542 -0.4237 -0.1319 -0.0479
 3753SOL    HW122721   2.446   3.913  16.484 -0.6528 -2.3497  0.7026
 3753SOL    HW222722   2.316   3.865  16.539  1.8756 -1.9381 -0.5879
 3754SOL     OW22723   1.905   0.902  12.517  0.2200  0.0071 -0.1845
 3754SOL    HW122724   1.914   0.992  12.548 -0.6236 -0.0790  0.2893
 3754SOL    HW222725   1.984   0.876  12.564  0.5242  2.8712  0.8964
 3755SOL     OW22726   1.711   2.476  14.245 -0.0283  0.2782 -0.2195
 3755SOL    HW122727   1.772   2.402  14.251 -1.0088 -0.3857  1.4654
 3755SOL    HW222728   1.668   2.453  14.164  1.7983  0.5105 -1.2604
 3756SOL     OW22729   0.278   4.722   2.522  0.0627  0.0569 -0.2986
 3756SOL    HW122730   0.191   0.014   2.559  0.6774  0.1097  1.1007
 3756SOL    HW222731   0.256   4.693   2.433  0.4089 -0.1732 -0.3062
 3757SOL     OW22732   1.946   1.334   9.980  0.2757  0.1021  0.2614
 3757SOL    HW122733   2.040   1.342   9.960  0.3936 -0.6714  0.5197
 3757SOL    HW222734   1.952   1.266  10.047  2.0863  0.1650  0.1827
 3758SOL     OW22735   1.728   0.490  10.963  0.1349  0.2299  0.2197
 3758SOL    HW122736   1.635   0.512  10.957 -0.2368 -1.1888  0.6900
 3758SOL    HW222737   1.754   0.519  11.050  1.4916 -2.5051  0.7184
 3759SOL     OW22738   3.583   3.616   4.025 -0.5907 -0.4285 -0.2317
 3759SOL    HW122739   3.553   3.641   3.937 -1.0585  2.0804  0.6433
 3759SOL    HW222740   3.524   3.658   4.087  1.1857  0.5291  0.8072
 3760SOL     OW22741   3.134   2.075   5.641 -0.1067 -0.3589 -0.3554
 3760SOL    HW122742   3.038   2.077   5.633 -0.1708  0.0639  0.4745
 3760SOL    HW222743   3.141   2.054   5.734 -0.7542  1.2771  0.0640
 3761SOL     OW22744   0.306   2.432   1.663 -0.4342  0.6355 -0.6575
 3761SOL    HW122745   0.317   2.353   1.611 -0.3628  1.4285 -1.8619
 3761SOL    HW222746   0.329   2.495   1.595 -1.3103  0.2162 -1.3422
 3762SOL     OW22747   4.013   2.466   8.455  0.3068  0.7293 -0.6724
 3762SOL    HW122748   3.953   2.452   8.382  0.1910  0.2518 -0.4861
 3762SOL    HW222749   4.093   2.438   8.411  1.0226 -0.0165  1.0871
 3763SOL     OW22750   0.918   3.490   2.980 -0.1539  0.0661 -0.5645
 3763SOL    HW122751   0.996   3.470   2.928  0.0306  0.2461 -0.3540
 3763SOL    HW222752   0.954   3.492   3.069  0.3509  0.0005 -0.7651
 3764SOL     OW22753   4.167   1.307   3.727 -0.2316  0.3341  0.3462
 3764SOL    HW122754   4.193   1.310   3.635 -0.9210  0.5218  0.1633
 3764SOL    HW222755   4.248   1.270   3.764  0.4291  1.5021  0.0776
 3765SOL     OW22756   3.553   3.669  13.408 -0.6586 -0.1488 -0.1178
 3765SOL    HW122757   3.581   3.657  13.318  1.4692 -0.6239  0.6000
 3765SOL    HW222758   3.597   3.752  13.425 -1.5112  0.4627 -0.9003
 3766SOL     OW22759   3.612   1.753   6.835 -0.3440 -0.6958 -0.1552
 3766SOL    HW122760   3.609   1.754   6.739  1.4057 -2.1960 -0.2230
 3766SOL    HW222761   3.568   1.669   6.848  0.2141 -1.0879 -0.7856
 3767SOL     OW22762   3.264   0.643   4.430 -0.0191  0.1065  0.9396
 3767SOL    HW122763   3.195   0.638   4.497 -2.4109  1.2381 -1.4652
 3767SOL    HW222764   3.310   0.562   4.452 -1.6425 -0.6514  1.5764
 3768SOL     OW22765   1.614   1.854   3.290 -0.0584 -0.0086  0.2105
 3768SOL    HW122766   1.616   1.776   3.234 -0.6561  0.0227  0.1389
 3768SOL    HW222767   1.540   1.829   3.345  0.3315  0.0754  0.7656
 3769SOL     OW22768   4.682   4.665  12.158 -0.2312  0.7282 -0.2754
 3769SOL    HW122769   4.626   4.597  12.196 -0.0482 -0.2796 -1.8169
 3769SOL    HW222770   0.006   4.607  12.099 -2.1359 -0.8196 -0.3188
 3770SOL     OW22771   1.764   2.909  17.481  0.2281  0.5073 -0.2001
 3770SOL    HW122772   1.683   2.942  17.518 -0.2691 -0.0663 -0.7696
 3770SOL    HW222773   1.733   2.828  17.439  2.1168 -0.6699  0.6811
 3771SOL     OW22774   1.469   1.962   9.750 -0.2175 -0.8112  0.0010
 3771SOL    HW122775   1.557   1.991   9.726 -0.6450  2.3367  2.1483
 3771SOL    HW222776   1.485   1.938   9.841  0.0415  1.5410  0.5927
 3772SOL     OW22777   1.365   1.986   5.407  0.3350  0.1049  0.1546
 3772SOL    HW122778   1.364   1.893   5.433  0.9919 -0.8018 -3.1259
 3772SOL    HW222779   1.451   2.018   5.437  0.2350 -0.5413  1.1667
 3773SOL     OW22780   1.419   4.170   7.952 -0.2762  0.9356 -0.2958
 3773SOL    HW122781   1.466   4.093   7.984  1.6369  1.9784 -0.6115
 3773SOL    HW222782   1.463   4.193   7.871  1.7369 -0.9287  0.2808
 3774SOL     OW22783   3.176   2.690   5.733 -0.5798  0.1232 -0.1743
 3774SOL    HW122784   3.184   2.596   5.749  0.5298  0.3520  0.6025
 3774SOL    HW222785   3.113   2.708   5.803 -0.7219 -0.1211 -0.2366
 3775SOL     OW22786   2.345   3.899   8.172 -0.2741 -0.2156 -0.7133
 3775SOL    HW122787   2.256   3.867   8.188 -0.0172 -0.0252  1.1488
 3775SOL    HW222788   2.336   3.988   8.205  0.3689 -0.7559  0.9147
 3776SOL     OW22789   1.907   4.658   6.227 -0.1457  0.1585  0.2299
 3776SOL    HW122790   1.959   4.578   6.235 -1.2285 -0.5348  0.3318
 3776SOL    HW222791   1.970   0.003   6.249  2.9054 -1.7586 -2.4105
 3777SOL     OW22792   1.524   2.565   1.726  0.8001  0.2756 -0.2706
 3777SOL    HW122793   1.529   2.545   1.633  0.6032 -2.3191  0.2841
 3777SOL    HW222794   1.521   2.661   1.723  1.8632  0.3049 -0.5310
 3778SOL     OW22795   0.554   1.276  11.736 -0.0189 -0.3353  0.2272
 3778SOL    HW122796   0.596   1.361  11.742  0.5435 -0.5487 -0.7002
 3778SOL    HW222797   0.510   1.269  11.651  0.5101 -3.3470  0.1840
 3779SOL     OW22798   2.541   0.813   1.317 -0.0518 -0.4519  0.0407
 3779SOL    HW122799   2.473   0.790   1.253 -0.2567  0.9456 -0.2356
 3779SOL    HW222800   2.612   0.771   1.268  0.3735  1.2306 -0.8043
 3780SOL     OW22801   3.296   0.825   4.174 -0.1349  0.2896 -0.2379
 3780SOL    HW122802   3.363   0.778   4.125  0.4784  0.9998 -0.0811
 3780SOL    HW222803   3.321   0.790   4.260  0.8525 -0.1959 -0.7333
 3781SOL     OW22804   3.942   3.709   4.045  0.3527  0.1684 -0.0605
 3781SOL    HW122805   3.917   3.756   3.965 -1.1404 -1.0915 -0.3236
 3781SOL    HW222806   4.020   3.763   4.060 -0.5961  1.7209 -0.6577
 3782SOL     OW22807   3.980   1.682   9.220 -0.6611  0.2853  0.0966
 3782SOL    HW122808   3.966   1.725   9.304 -0.6269 -0.4107  0.4565
 3782SOL    HW222809   4.074   1.665   9.218 -0.6881  0.1245  0.2865
 3783SOL     OW22810   1.516   0.097   9.962 -0.0108  0.0767 -0.2978
 3783SOL    HW122811   1.545   0.006   9.963 -0.0814  0.1238  4.0382
 3783SOL    HW222812   1.592   0.154   9.975  1.5943 -1.9924 -0.5389
 3784SOL     OW22813   2.246   2.499  11.527 -0.1108  0.4059  0.0258
 3784SOL    HW122814   2.169   2.444  11.543  1.3035 -1.7699 -0.5650
 3784SOL    HW222815   2.234   2.566  11.594 -2.3268  0.8514 -0.7939
 3785SOL     OW22816   2.244   0.055   3.250  0.1260  0.5754  0.3273
 3785SOL    HW122817   2.251   0.100   3.165  0.6397 -3.2385 -1.6213
 3785SOL    HW222818   2.335   0.056   3.279  0.0554  2.0275  0.5214
 3786SOL     OW22819   3.664   1.414   5.075 -1.0253  0.0163 -0.0864
 3786SOL    HW122820   3.674   1.319   5.077 -0.0762  0.0701 -2.3049
 3786SOL    HW222821   3.754   1.432   5.102 -0.1735 -0.6811 -2.5201
 3787SOL     OW22822   2.734   1.788   2.468 -0.0480  0.6208  0.8476
 3787SOL    HW122823   2.764   1.874   2.436  0.0058 -0.5046 -2.0803
 3787SOL    HW222824   2.643   1.803   2.494 -0.4017  0.4497 -0.3201
 3788SOL     OW22825   4.687   0.081   6.711  0.0944  0.5770 -0.0340
 3788SOL    HW122826   4.665   0.066   6.803  3.8009  0.6457  0.8987
 3788SOL    HW222827   4.681   4.713   6.685 -0.1036  0.0485  1.8820
 3789SOL     OW22828   0.249   2.736   3.018 -0.0781 -0.0678 -0.3431
 3789SOL    HW122829   0.286   2.655   2.983 -1.3526  1.8150 -6.0661
 3789SOL    HW222830   0.227   2.792   2.943  1.9869  0.8493 -0.2677
 3790SOL     OW22831   3.748   0.312  12.240  0.0246  0.1838 -0.1016
 3790SOL    HW122832   3.670   0.260  12.223  0.6539 -0.9679  0.5685
 3790SOL    HW222833   3.706   0.394  12.266 -1.4940 -0.8067  0.5870
 3791SOL     OW22834   2.117   2.744  10.185  0.4350  0.1831  0.2702
 3791SOL    HW122835   2.199   2.706  10.152  0.1032 -0.7370  0.5329
 3791SOL    HW222836   2.095   2.798  10.109  0.6891 -2.4604 -1.6845
 3792SOL     OW22837   0.232   2.230   7.245 -0.1729 -0.0902  0.4227
 3792SOL    HW122838   0.303   2.282   7.283  1.6404 -1.7787 -0.6506
 3792SOL    HW222839   0.171   2.303   7.234 -0.3670 -0.6402 -2.1646
 3793SOL     OW22840   1.132   1.430  17.317 -0.7330 -0.1710  0.4011
 3793SOL    HW122841   1.222   1.438  17.283 -1.2689 -1.1232 -1.2495
 3793SOL    HW222842   1.147   1.395  17.405 -0.4861 -3.2973 -0.8678
 3794SOL     OW22843   0.986   1.893   7.116  0.3933  0.1523  0.5408
 3794SOL    HW122844   1.065   1.863   7.162  1.3304  1.2676 -0.3312
 3794SOL    HW222845   1.008   1.984   7.094 -1.3515 -0.6089 -4.1351
 3795SOL     OW22846   4.484   3.201   5.195 -0.3806  0.2333 -0.3426
 3795SOL    HW122847   4.407   3.145   5.201  0.2409 -0.3654  1.9034
 3795SOL    HW222848   4.462   3.260   5.123 -0.2384 -0.2107 -0.7511
 3796SOL     OW22849   3.425   3.562   5.828 -0.0847  0.4101 -0.6267
 3796SOL    HW122850   3.463   3.604   5.906  0.4641  0.1766 -0.7640
 3796SOL    HW222851   3.332   3.581   5.830 -0.4475 -1.4795  1.0342
 3797SOL     OW22852   0.290   2.681   8.997 -0.1945 -0.4128  0.0267
 3797SOL    HW122853   0.342   2.608   8.963  1.1230  0.1165  0.9254
 3797SOL    HW222854   0.202   2.664   8.961  0.8632 -0.7619 -2.4071
 3798SOL     OW22855   4.547   1.352  11.607 -0.0691 -0.1241 -0.1607
 3798SOL    HW122856   4.572   1.370  11.697 -3.9246 -1.5501  1.2316
 3798SOL    HW222857   4.452   1.366  11.610 -0.0949 -0.3881  0.2827
 3799SOL     OW22858   2.110   3.198   6.611  0.3167  0.3154 -0.4148
 3799SOL    HW122859   2.122   3.112   6.571  1.0956  0.2703 -0.0785
 3799SOL    HW222860   2.028   3.188   6.659  1.4573 -0.2055  1.4220
 3800SOL     OW22861   2.622   4.103   6.409  0.1236  0.2004 -0.1784
 3800SOL    HW122862   2.702   4.055   6.428  0.1307  1.0039  1.8143
 3800SOL    HW222863   2.640   4.150   6.327  0.4181  1.2745  0.4968
 3801SOL     OW22864   3.681   0.997   6.163  0.2339 -0.2603 -0.2028
 3801SOL    HW122865   3.742   1.014   6.092  1.7526 -0.6001  1.0231
 3801SOL    HW222866   3.616   0.945   6.115 -0.4297  1.2266 -0.9222
 3802SOL     OW22867   1.218   3.132   2.097 -0.2638  0.4539 -0.1642
 3802SOL    HW122868   1.185   3.180   2.173  0.3206  0.3000  0.1800
 3802SOL    HW222869   1.157   3.143   2.024  1.5955  0.7009 -1.6756
 3803SOL     OW22870   3.105   2.545   6.731 -0.0775  0.3266 -0.3020
 3803SOL    HW122871   3.193   2.580   6.718  0.3136 -0.0314  1.3411
 3803SOL    HW222872   3.082   2.515   6.643  0.0768 -0.7512  0.0162
 3804SOL     OW22873   2.217   4.610  10.864 -0.2675 -0.0996 -0.6371
 3804SOL    HW122874   2.229   4.675  10.795  0.5974 -0.1839 -0.5631
 3804SOL    HW222875   2.176   4.661  10.934 -0.3950  0.8706 -1.4016
 3805SOL     OW22876   0.445   3.231   3.901 -0.2434 -0.4289  0.2007
 3805SOL    HW122877   0.361   3.188   3.887 -1.6365  2.9275 -1.8518
 3805SOL    HW222878   0.422   3.314   3.858 -0.2640 -0.1517  0.7339
 3806SOL     OW22879   2.562   2.728   8.228  0.2304  0.3332  1.0000
 3806SOL    HW122880   2.467   2.728   8.241  0.3874  2.2894  2.1473
 3806SOL    HW222881   2.578   2.689   8.142 -0.9739 -2.4180  2.0487
 3807SOL     OW22882   0.915   1.311  11.040  0.0363  0.0225 -0.0190
 3807SOL    HW122883   0.897   1.338  11.130  1.1321  0.1628  0.1574
 3807SOL    HW222884   0.833   1.323  10.992 -0.1983 -1.5098  0.0135
 3808SOL     OW22885   2.131   4.047   1.209  0.4944  0.0159  0.2496
 3808SOL    HW122886   2.214   4.040   1.163  1.1327  0.8325  1.2949
 3808SOL    HW222887   2.128   4.143   1.210  0.5229  0.0138  0.4246
 3809SOL     OW22888   3.863   1.576   6.637  0.1340  0.3022  0.2699
 3809SOL    HW122889   3.789   1.604   6.583  0.7782  0.1554 -0.6836
 3809SOL    HW222890   3.932   1.592   6.572 -0.1162  0.6305  0.0864
 3810SOL     OW22891   2.838   3.518   5.269  0.3461  0.0909  0.4315
 3810SOL    HW122892   2.889   3.599   5.264  1.1077 -0.4498 -0.7154
 3810SOL    HW222893   2.786   3.527   5.189  1.3989  0.6381 -0.1907
 3811SOL     OW22894   2.383   0.176   3.769 -0.8292 -0.6294 -0.5595
 3811SOL    HW122895   2.389   0.249   3.830 -2.1459  0.4213 -1.6981
 3811SOL    HW222896   2.478   0.166   3.760 -0.6431  2.0452 -1.3163
 3812SOL     OW22897   2.486   3.622   5.791  0.0265 -0.1394 -0.0541
 3812SOL    HW122898   2.564   3.677   5.801 -0.0827 -0.1875  1.0426
 3812SOL    HW222899   2.452   3.665   5.713  0.3343  0.1306 -0.0389
 3813SOL     OW22900   4.610   2.899   6.416 -0.0982  0.1669  0.1877
 3813SOL    HW122901   4.661   2.834   6.367 -1.5738  1.5292 -3.1392
 3813SOL    HW222902   4.562   2.955   6.354  1.0563  0.0436 -0.8247
 3814SOL     OW22903   2.855   2.399  12.959  0.3131 -1.0025  0.7562
 3814SOL    HW122904   2.761   2.409  12.973  0.8760  1.6365  2.6841
 3814SOL    HW222905   2.875   2.464  12.892  0.7423  0.1305  1.9712
 3815SOL     OW22906   0.287   0.008   3.732 -0.1831  0.0026 -0.2653
 3815SOL    HW122907   0.341   4.663   3.770 -1.4186 -0.9239 -0.2127
 3815SOL    HW222908   0.197   4.713   3.757  0.4733 -1.4552  0.9642
 3816SOL     OW22909   1.454   1.984  16.339 -0.1337 -0.1987  0.1074
 3816SOL    HW122910   1.511   2.021  16.272  0.1593 -1.5828 -0.3928
 3816SOL    HW222911   1.403   2.061  16.365  1.2738  0.8639 -0.3079
 3817SOL     OW22912   1.292   4.574   1.818  0.3492  0.5802  0.4046
 3817SOL    HW122913   1.207   4.562   1.776  0.1709  1.9624  0.3754
 3817SOL    HW222914   1.294   4.658   1.864 -1.6636  0.2244  1.1351
 3818SOL     OW22915   0.542   0.336   1.841  0.0692  0.1825 -0.0578
 3818SOL    HW122916   0.611   0.380   1.892  0.6001 -0.2095 -0.4373
 3818SOL    HW222917   0.584   0.315   1.757  1.5603 -1.4771  1.1125
 3819SOL     OW22918   2.690   2.193   2.665  0.3206  0.7160 -0.6329
 3819SOL    HW122919   2.639   2.241   2.600  0.3755  0.8113 -0.6057
 3819SOL    HW222920   2.619   2.160   2.720  1.4596  3.4527  2.5057
 3820SOL     OW22921   2.309   0.602   0.553  0.5266 -0.2897  0.8355
 3820SOL    HW122922   2.296   0.581   0.646 -0.0398 -0.0119  0.8219
 3820SOL    HW222923   2.394   0.647   0.550 -0.7251  1.9615 -1.1405
 3821SOL     OW22924   2.846   2.640   7.865  0.0344  0.2225  0.2667
 3821SOL    HW122925   2.751   2.632   7.871 -0.1452  1.8922 -0.5123
 3821SOL    HW222926   2.866   2.548   7.885 -1.0157  0.1819  1.1477
 3822SOL     OW22927   0.422   3.165  16.371  0.0845 -0.1115 -0.5838
 3822SOL    HW122928   0.400   3.132  16.458 -0.2328  0.3316 -0.4964
 3822SOL    HW222929   0.409   3.259  16.385 -0.1759 -0.3576  0.8364
 3823SOL     OW22930   0.762   1.469   4.563 -0.4778  0.5879 -0.0694
 3823SOL    HW122931   0.789   1.456   4.654  1.1783  0.6415 -0.5643
 3823SOL    HW222932   0.694   1.535   4.577 -2.7973 -1.0220 -3.7951
 3824SOL     OW22933   0.792   0.747  12.358  0.5090 -0.3497  0.1414
 3824SOL    HW122934   0.768   0.662  12.394  4.2071 -1.5759 -0.3833
 3824SOL    HW222935   0.844   0.789  12.427  0.5237  0.6063 -0.4539
 3825SOL     OW22936   4.596   1.332  13.091 -0.3355  0.3320 -0.2616
 3825SOL    HW122937   4.532   1.346  13.021 -1.4590  1.6025  1.0220
 3825SOL    HW222938   4.540   1.321  13.169  0.9881 -1.7415  0.3969
 3826SOL     OW22939   0.417   0.660  16.920 -0.5019  0.0740  0.1530
 3826SOL    HW122940   0.477   0.727  16.954  0.0146  0.4401 -1.4783
 3826SOL    HW222941   0.346   0.713  16.884 -1.4903 -1.7851 -0.5646
 3827SOL     OW22942   0.639   0.779   9.312 -0.0257  0.6940 -0.2261
 3827SOL    HW122943   0.692   0.823   9.378  0.5506 -2.8384  1.6713
 3827SOL    HW222944   0.707   0.779   9.244 -0.0956 -2.4974 -0.3312
 3828SOL     OW22945   1.791   1.621   9.713 -0.2780 -0.7775  0.5888
 3828SOL    HW122946   1.798   1.525   9.712  3.0269 -0.5459 -0.2897
 3828SOL    HW222947   1.696   1.622   9.702 -0.5150  1.2394  2.8731
 3829SOL     OW22948   1.245   2.608   5.291 -0.4251 -0.1601  0.1583
 3829SOL    HW122949   1.200   2.680   5.336 -0.9515 -0.6839  0.4627
 3829SOL    HW222950   1.317   2.665   5.266 -1.2278 -0.4562 -2.8592
 3830SOL     OW22951   1.799   1.001   6.942  0.5390  0.5258 -0.6470
 3830SOL    HW122952   1.818   0.925   6.997 -0.0277 -0.1264 -1.3621
 3830SOL    HW222953   1.704   1.006   6.955  0.9711  2.1870  1.9143
 3831SOL     OW22954   3.460   0.889  11.050  0.2764  0.6057 -0.5110
 3831SOL    HW122955   3.448   0.825  11.121  1.4322  0.5936 -0.3298
 3831SOL    HW222956   3.549   0.921  11.066  0.4184 -1.1011  2.0705
 3832SOL     OW22957   0.675   2.417   3.022 -0.3798  0.1089  0.2989
 3832SOL    HW122958   0.749   2.400   3.079  0.8769  0.6211 -1.1882
 3832SOL    HW222959   0.723   2.469   2.958 -0.9929 -0.9702 -1.0436
 3833SOL     OW22960   3.979   4.284  14.534  0.6134 -0.5514  0.6394
 3833SOL    HW122961   4.062   4.311  14.573  1.7836  1.5067 -3.2458
 3833SOL    HW222962   3.927   4.273  14.614  0.8633 -0.5709  0.7984
 3834SOL     OW22963   4.037   1.022   2.244  0.0131  0.1950  1.0285
 3834SOL    HW122964   4.115   1.075   2.230  0.5321 -0.4182  1.6255
 3834SOL    HW222965   4.033   0.996   2.152 -2.6363  1.4829  0.7717
 3835SOL     OW22966   3.537   2.884   8.351 -0.3881  0.1251 -0.6685
 3835SOL    HW122967   3.476   2.949   8.384  0.3779 -0.1497  1.2423
 3835SOL    HW222968   3.599   2.888   8.423  0.4787 -0.2807 -1.3973
 3836SOL     OW22969   2.507   1.715  11.638  0.0098  0.0566  0.3796
 3836SOL    HW122970   2.491   1.626  11.668  0.4422  0.5936  2.2141
 3836SOL    HW222971   2.601   1.711  11.657 -0.0835 -0.5507  0.7295
 3837SOL     OW22972   1.176   1.823   5.272 -0.0285  0.1734  0.5977
 3837SOL    HW122973   1.256   1.873   5.257 -0.0451  0.5977  1.9013
 3837SOL    HW222974   1.209   1.758   5.335 -0.8906 -1.0627 -0.2403
 3838SOL     OW22975   4.676   4.610   1.266  0.2121  0.4229 -0.0014
 3838SOL    HW122976   0.037   4.566   1.268  0.4494  0.7463 -3.0022
 3838SOL    HW222977   4.668   4.632   1.173 -1.1911  3.5697  0.8852
 3839SOL     OW22978   2.477   4.442   1.789  0.3087 -0.6326  0.2503
 3839SOL    HW122979   2.405   4.399   1.834 -0.2248  1.4278  1.3140
 3839SOL    HW222980   2.452   4.427   1.698  2.3979 -0.7979 -0.3090
 3840SOL     OW22981   1.485   1.689  10.355 -0.8931 -0.6287  0.3375
 3840SOL    HW122982   1.501   1.643  10.437 -0.0536  0.6721  0.8957
 3840SOL    HW222983   1.551   1.654  10.296 -0.6635 -1.3323  1.0184
 3841SOL     OW22984   4.113   2.071   2.452 -0.2835 -0.2983 -0.0789
 3841SOL    HW122985   4.169   2.057   2.528  0.6475  0.2886 -0.6661
 3841SOL    HW222986   4.094   2.164   2.455 -2.1998 -0.5847 -3.1562
 3842SOL     OW22987   3.835   0.870  11.703  0.1276  0.4481 -0.1819
 3842SOL    HW122988   3.778   0.812  11.755 -0.9617  2.2284  0.6073
 3842SOL    HW222989   3.920   0.825  11.701 -0.0824 -0.0255  1.1649
 3843SOL     OW22990   4.245   3.598   9.173  0.2509 -0.2469 -0.2424
 3843SOL    HW122991   4.304   3.672   9.158  0.0426  0.0473  0.4010
 3843SOL    HW222992   4.296   3.531   9.217 -1.3756 -1.0325  0.4123
 3844SOL     OW22993   1.725   3.386   9.058 -0.1778 -0.6423 -0.2806
 3844SOL    HW122994   1.631   3.397   9.043  0.3956  1.2626 -2.5037
 3844SOL    HW222995   1.732   3.423   9.146  1.1744 -2.1968  0.2650
 3845SOL     OW22996   0.938   3.518   4.838 -0.1616 -0.1464  0.0336
 3845SOL    HW122997   0.911   3.604   4.871  2.3929  0.2434  1.1019
 3845SOL    HW222998   0.952   3.461   4.913  1.0492 -1.7996 -1.4523
 3846SOL     OW22999   4.264   4.545   1.016  0.2371 -0.0731 -0.3762
 3846SOL    HW123000   4.189   4.486   1.008  0.9916 -0.9047 -1.2258
 3846SOL    HW223001   4.283   4.534   1.109  2.5223  0.5144 -0.7826
 3847SOL     OW23002   2.980   1.378   1.584  0.3374 -0.0941  0.5742
 3847SOL    HW123003   2.991   1.446   1.518  0.6639 -0.6494  0.0645
 3847SOL    HW223004   3.065   1.334   1.583 -0.0899 -0.8856 -0.9353
 3848SOL     OW23005   4.330   2.375   0.831 -0.5172 -0.4730 -0.4756
 3848SOL    HW123006   4.380   2.314   0.777 -2.7082 -2.6035 -0.0891
 3848SOL    HW223007   4.292   2.436   0.767 -0.0646 -1.3824 -1.6081
 3849SOL     OW23008   2.701   2.945   7.759  0.1689  0.4011  0.0802
 3849SOL    HW123009   2.743   3.030   7.744  0.1765  0.6144  1.2659
 3849SOL    HW223010   2.764   2.894   7.709  0.0470 -0.5520  0.8979
 3850SOL     OW23011   0.947   2.060  14.902 -0.3554  0.6161 -0.4804
 3850SOL    HW123012   0.930   1.997  14.831  0.5600  0.0007 -0.1604
 3850SOL    HW223013   1.015   2.120  14.870  0.5042 -0.1866 -0.1733
 3851SOL     OW23014   3.990   2.607   8.039 -0.5202  0.2071 -0.1792
 3851SOL    HW123015   4.009   2.569   7.952 -0.5282 -0.9004  0.2954
 3851SOL    HW223016   3.990   2.529   8.094 -0.3567  0.8265  0.6873
 3852SOL     OW23017   0.073   3.326   1.020 -0.0647 -0.5517  0.5168
 3852SOL    HW123018   0.028   3.344   1.102  0.1398 -1.6724  0.8712
 3852SOL    HW223019   0.092   3.232   1.024  1.9316 -0.2169 -0.9903
 3853SOL     OW23020   0.967   2.575   4.237  0.1609  0.9680 -0.7129
 3853SOL    HW123021   1.048   2.546   4.196  0.5674  0.4649  0.4322
 3853SOL    HW223022   0.986   2.606   4.326  0.7367  0.8384 -0.7933
 3854SOL     OW23023   0.831   1.650  14.183 -0.6493  0.5328 -1.3857
 3854SOL    HW123024   0.854   1.557  14.194 -0.0331  1.1364  2.3490
 3854SOL    HW223025   0.772   1.634  14.109 -1.2180  2.9973 -1.4591
 3855SOL     OW23026   3.652   3.685   5.993 -0.4926  0.1495 -0.4369
 3855SOL    HW123027   3.739   3.651   5.976 -0.2325  1.8690 -2.5487
 3855SOL    HW223028   3.665   3.713   6.084  0.2752 -0.5976 -0.3141
 3856SOL     OW23029   4.701   2.567   3.511 -0.1170 -0.3568 -0.0660
 3856SOL    HW123030   0.046   2.508   3.482  1.3900  1.5173 -0.2529
 3856SOL    HW223031   4.670   2.615   3.434  1.2022  2.6075  1.2599
 3857SOL     OW23032   3.658   0.224   0.140  0.1211  0.1009 -0.2071
 3857SOL    HW123033   3.721   0.201   0.072  2.8857  3.3760  1.2364
 3857SOL    HW223034   3.685   0.314   0.157 -1.2970  0.6955 -1.0765
 3858SOL     OW23035   3.184   0.225   4.642 -0.1533 -0.5382 -0.2348
 3858SOL    HW123036   3.252   0.257   4.701  0.0371 -1.6015  0.1145
 3858SOL    HW223037   3.107   0.241   4.697  0.5969  1.1201  0.3392
 3859SOL     OW23038   3.077   2.206   2.471 -0.7387 -0.3737  0.0082
 3859SOL    HW123039   3.128   2.159   2.537  0.2294  1.6158  0.6895
 3859SOL    HW223040   3.013   2.139   2.445 -1.8590  1.3451 -1.6463
 3860SOL     OW23041   3.749   0.363   3.301 -0.6198  0.7948 -0.0904
 3860SOL    HW123042   3.684   0.311   3.255  1.4401  0.6037 -2.8112
 3860SOL    HW223043   3.807   0.387   3.229  1.1946  0.0074  1.0821
 3861SOL     OW23044   3.360   4.111   1.661  0.2207 -0.8127 -0.8813
 3861SOL    HW123045   3.372   4.151   1.575 -1.4438 -2.0609 -1.6900
 3861SOL    HW223046   3.451   4.099   1.687 -0.1504 -0.3680  0.5870
 3862SOL     OW23047   0.039   3.931   6.613  0.1843 -0.5879  0.1451
 3862SOL    HW123048   0.129   3.900   6.601 -0.0200 -0.9315 -0.4918
 3862SOL    HW223049   0.004   3.862   6.670  1.7282 -1.5916 -0.1089
 3863SOL     OW23050   1.676   4.342   3.415 -0.0151  0.1169 -0.1234
 3863SOL    HW123051   1.718   4.302   3.339 -2.1505 -0.3393 -1.0670
 3863SOL    HW223052   1.587   4.345   3.380  0.4434  0.7076 -1.2456
 3864SOL     OW23053   2.270   4.618   5.125 -0.0401  1.4937  0.2582
 3864SOL    HW123054   2.337   4.682   5.146  1.0673  1.3134 -2.8264
 3864SOL    HW223055   2.324   4.539   5.133 -0.3600  1.3885  1.4626
 3865SOL     OW23056   2.730   4.408  14.035  0.2245  0.2195 -0.1608
 3865SOL    HW123057   2.656   4.468  14.034 -1.5731 -1.9795  1.7097
 3865SOL    HW223058   2.719   4.364  14.119  2.0975 -0.5562 -0.3217
 3866SOL     OW23059   1.774   1.606   3.444  0.1028 -0.0443  0.4974
 3866SOL    HW123060   1.784   1.567   3.358 -0.0266 -0.8689  0.8630
 3866SOL    HW223061   1.820   1.690   3.438 -0.6487  0.5062  2.5379
 3867SOL     OW23062   3.751   0.154   2.110 -0.0877 -0.1017 -0.6643
 3867SOL    HW123063   3.777   0.062   2.109 -3.4719 -1.0766 -0.9942
 3867SOL    HW223064   3.657   0.152   2.126 -0.0340 -1.7263 -0.5803
 3868SOL     OW23065   3.401   0.621  16.499  0.7885 -0.3206 -0.5791
 3868SOL    HW123066   3.389   0.578  16.583 -1.2233 -1.7197 -1.5821
 3868SOL    HW223067   3.461   0.565  16.450  0.4259 -0.9177 -0.3310
 3869SOL     OW23068   2.140   1.745   6.479 -0.3380  0.0877 -0.1549
 3869SOL    HW123069   2.105   1.708   6.398 -0.7986  1.8579 -0.7702
 3869SOL    HW223070   2.218   1.794   6.456 -0.4250  0.5477  0.5150
 3870SOL     OW23071   2.031   3.482  15.781 -0.3500  0.2689  0.0333
 3870SOL    HW123072   2.059   3.571  15.758  1.8067  0.3846  3.1257
 3870SOL    HW223073   1.940   3.482  15.751  0.4807  0.2389 -2.5228
 3871SOL     OW23074   2.554   4.034   5.292 -0.0198  0.0832  0.2983
 3871SOL    HW123075   2.642   4.070   5.288 -1.2549  3.3927  2.6817
 3871SOL    HW223076   2.535   4.054   5.384  0.6121  0.0948  0.4261
 3872SOL     OW23077   0.296   0.410   1.914 -0.2425  0.3479  0.1520
 3872SOL    HW123078   0.306   0.493   1.962 -0.9003  0.8648 -0.6028
 3872SOL    HW223079   0.377   0.389   1.869  1.0630 -0.9134  3.0528
 3873SOL     OW23080   2.189   4.531   2.905  0.5511  0.3425 -0.1949
 3873SOL    HW123081   2.190   4.573   2.991 -0.5814  0.9596 -0.4847
 3873SOL    HW223082   2.117   4.574   2.859  0.9619 -1.9678 -2.9722
 3874SOL     OW23083   2.584   0.278   3.277  0.1338 -0.2794 -0.6123
 3874SOL    HW123084   2.567   0.326   3.196  0.6195 -0.4318 -0.8053
 3874SOL    HW223085   2.527   0.324   3.339  1.3048 -1.3959  1.2828
 3875SOL     OW23086   3.023   2.107  14.007 -0.6836  0.5947 -0.0634
 3875SOL    HW123087   3.118   2.116  13.997 -0.8003  1.2708 -0.6161
 3875SOL    HW223088   2.997   2.128  13.917  1.8408 -0.4690 -1.0645
 3876SOL     OW23089   0.036   3.362  13.632  0.3152  0.1613  0.3983
 3876SOL    HW123090   4.688   3.307  13.602  0.5046  0.2720 -0.2660
 3876SOL    HW223091   0.001   3.448  13.611 -1.2004 -0.1998  1.4819
 3877SOL     OW23092   1.248   1.224   3.873  0.3511  0.0003 -0.1045
 3877SOL    HW123093   1.332   1.269   3.887 -0.9121  2.1801  0.3546
 3877SOL    HW223094   1.183   1.291   3.891  0.9985  0.1612  1.7364
 3878SOL     OW23095   4.413   1.841   9.782  0.7755  0.4601  0.1426
 3878SOL    HW123096   4.411   1.789   9.862 -0.3334  2.5459  1.4762
 3878SOL    HW223097   4.415   1.925   9.828  1.3918 -0.5146  1.9176
 3879SOL     OW23098   3.196   4.128  14.242 -0.5763 -0.6354  0.2066
 3879SOL    HW123099   3.196   4.033  14.228  4.3876 -0.5538 -0.1742
 3879SOL    HW223100   3.126   4.140  14.307  1.0214 -2.0743  2.1944
 3880SOL     OW23101   3.833   4.489   8.566  0.2512  0.8001 -0.6825
 3880SOL    HW123102   3.842   4.405   8.610 -1.7010  0.1302 -1.5569
 3880SOL    HW223103   3.850   4.549   8.638  0.5068  0.0899 -0.1575
 3881SOL     OW23104   1.850   1.163  10.662 -0.3287  0.1059  0.3007
 3881SOL    HW123105   1.902   1.212  10.599  0.5548 -1.0648  0.1218
 3881SOL    HW223106   1.910   1.096  10.696 -1.5199 -0.8199  0.5835
 3882SOL     OW23107   2.652   4.117   3.927  0.2863  0.2394  0.5687
 3882SOL    HW123108   2.728   4.059   3.936 -0.0619 -0.1495  0.9955
 3882SOL    HW223109   2.628   4.112   3.835 -0.3881 -0.1578  0.7662
 3883SOL     OW23110   2.208   0.324  11.482  0.2819 -0.0640  0.0649
 3883SOL    HW123111   2.131   0.372  11.513 -0.3038 -0.4276 -0.8308
 3883SOL    HW223112   2.208   0.256  11.550 -0.3195  1.0713  1.2105
 3884SOL     OW23113   1.419   2.642   3.767  0.0025 -0.6804  0.1992
 3884SOL    HW123114   1.365   2.566   3.747 -3.3117  1.3310  1.4710
 3884SOL    HW223115   1.377   2.708   3.712  1.7471 -0.7907 -1.2672
 3885SOL     OW23116   2.519   0.292  10.714  0.0850  0.2056  0.6726
 3885SOL    HW123117   2.567   0.320  10.792  0.2460 -1.3022  1.1285
 3885SOL    HW223118   2.585   0.259  10.652  1.0859 -0.4506  2.1020
 3886SOL     OW23119   0.778   2.079   7.398  0.1851 -0.1951 -0.1743
 3886SOL    HW123120   0.799   2.095   7.490 -1.4992 -0.9013  0.3391
 3886SOL    HW223121   0.825   2.144   7.346 -0.3518 -1.4391 -2.2283
 3887SOL     OW23122   3.692   4.613  17.231  0.0213 -0.0657  0.0501
 3887SOL    HW123123   3.686   4.652  17.318  0.2720 -0.7562  0.3811
 3887SOL    HW223124   3.617   4.662  17.199  2.0960  1.5870 -2.2148
 3888SOL     OW23125   4.263   1.108   8.817 -0.9208 -0.3909 -0.1593
 3888SOL    HW123126   4.352   1.143   8.814 -0.9034 -0.4479 -0.3172
 3888SOL    HW223127   4.263   1.013   8.804  0.7948 -0.6066  1.4330
 3889SOL     OW23128   0.552   4.402  15.935  0.2665  0.2867  0.0708
 3889SOL    HW123129   0.492   4.419  15.863 -0.9762  1.6488  1.4095
 3889SOL    HW223130   0.586   4.321  15.896  0.6764  1.2086 -1.4888
 3890SOL     OW23131   2.995   4.390   2.186 -0.0059 -0.3537  0.2360
 3890SOL    HW123132   3.020   4.465   2.240 -1.0648  0.0827  0.1210
 3890SOL    HW223133   2.905   4.383   2.217 -0.0401  0.9666  0.4700
 3891SOL     OW23134   1.157   3.958  16.404 -0.1647 -0.1662  0.0293
 3891SOL    HW123135   1.077   3.985  16.449 -0.8717  2.0552 -2.5360
 3891SOL    HW223136   1.179   4.030  16.345  2.6312  1.0992  2.5991
 3892SOL     OW23137   2.527   3.103   4.387  0.2361  0.3241  0.2413
 3892SOL    HW123138   2.476   3.027   4.360 -1.0568 -0.3194  4.3863
 3892SOL    HW223139   2.453   3.164   4.390 -1.0203 -1.1253 -1.8267
 3893SOL     OW23140   3.212   1.045   9.015 -0.6094  0.6102 -0.0417
 3893SOL    HW123141   3.211   0.962   9.064 -1.2093  1.5688  1.5665
 3893SOL    HW223142   3.271   1.024   8.943 -0.9253 -1.6711  0.3487
 3894SOL     OW23143   0.691   2.832  11.239 -0.2796  0.0559 -0.1986
 3894SOL    HW123144   0.621   2.897  11.236 -0.7162 -0.4012  0.0311
 3894SOL    HW223145   0.718   2.831  11.331 -0.4059 -3.6969 -0.1918
 3895SOL     OW23146   2.711   1.019   6.219 -0.7743 -0.2661  0.0945
 3895SOL    HW123147   2.671   1.047   6.301  1.4181 -0.4239  1.2070
 3895SOL    HW223148   2.644   1.053   6.160 -1.0339 -2.5340 -0.9543
 3896SOL     OW23149   0.000   2.868   1.607 -0.5983 -0.1038 -0.3465
 3896SOL    HW123150   4.721   2.854   1.701  0.4212 -1.5726 -0.5268
 3896SOL    HW223151   0.049   2.791   1.576 -0.1214 -0.3668  1.0577
 3897SOL     OW23152   0.527   1.986   7.517 -0.3203  0.2622 -0.3818
 3897SOL    HW123153   0.470   2.017   7.588 -1.3760 -0.7726 -0.7751
 3897SOL    HW223154   0.611   2.027   7.538 -0.1516 -0.7713  0.9401
 3898SOL     OW23155   3.099   4.454   4.062 -0.3920 -0.3366 -0.1682
 3898SOL    HW123156   3.079   4.482   3.973  2.6633  0.2201 -0.6802
 3898SOL    HW223157   3.113   4.539   4.105  0.3603  0.1182 -1.3156
 3899SOL     OW23158   1.710   2.326   9.334 -0.0919 -0.2460  0.3659
 3899SOL    HW123159   1.797   2.346   9.302  0.3023 -4.4711 -1.1385
 3899SOL    HW223160   1.687   2.238   9.304  2.1457 -1.3532  1.9397
 3900SOL     OW23161   4.016   3.791   1.380  0.8434 -0.2389 -0.7812
 3900SOL    HW123162   4.035   3.705   1.342 -0.1202 -1.1569  0.7894
 3900SOL    HW223163   3.944   3.766   1.439  0.6858  0.2698 -0.7539
 3901SOL     OW23164   3.080   2.501   7.093 -0.5349 -0.2982 -0.7863
 3901SOL    HW123165   2.994   2.539   7.111  0.6381  0.8458  2.4230
 3901SOL    HW223166   3.060   2.409   7.076 -2.6913 -0.3148  1.8673
 3902SOL     OW23167   1.264   4.672   4.091 -0.0315 -0.2156 -0.0246
 3902SOL    HW123168   1.175   4.688   4.122 -0.1194  2.5121 -1.5748
 3902SOL    HW223169   1.294   0.039   4.086  0.7193 -0.4126  1.1165
 3903SOL     OW23170   0.034   2.255   9.272  0.6338 -0.0474 -0.4170
 3903SOL    HW123171   0.016   2.164   9.297  0.8374  0.6273  2.2132
 3903SOL    HW223172   0.126   2.264   9.300  0.4088  0.7637  0.0679
 3904SOL     OW23173   1.823   1.583  13.844 -0.2220 -0.0680  0.0350
 3904SOL    HW123174   1.756   1.534  13.893 -1.3510  0.0900 -1.3446
 3904SOL    HW223175   1.886   1.604  13.913 -2.7605 -0.8961  2.6099
 3905SOL     OW23176   4.097   3.526   0.762  0.2683  0.3025  0.4216
 3905SOL    HW123177   4.056   3.446   0.728 -1.4948  1.8323 -1.0403
 3905SOL    HW223178   4.094   3.579   0.682  2.2859  1.2200  0.9782
 3906SOL     OW23179   1.703   1.403   5.976 -0.2402  0.5787  0.2676
 3906SOL    HW123180   1.636   1.345   6.013  0.5620 -1.0947 -0.9015
 3906SOL    HW223181   1.649   1.464   5.926 -2.7449 -1.3339  0.6388
 3907SOL     OW23182   4.031   1.109  11.524 -0.0763 -0.3662  0.4484
 3907SOL    HW123183   4.085   1.114  11.603 -0.4693 -0.6214  0.7353
 3907SOL    HW223184   4.064   1.028  11.485 -1.7682 -2.1683  2.7533
 3908SOL     OW23185   0.811   0.574  13.481 -0.0405 -0.0586  0.3972
 3908SOL    HW123186   0.813   0.500  13.542  1.1025 -1.4617 -1.3501
 3908SOL    HW223187   0.820   0.521  13.402  2.0944 -1.1344  1.3486
 3909SOL     OW23188   4.450   3.977   0.702 -0.3729 -0.3776  0.3154
 3909SOL    HW123189   4.370   3.941   0.741 -0.1216  0.1547  1.3174
 3909SOL    HW223190   4.483   4.026   0.778  2.3136 -2.8396  0.7554
 3910SOL     OW23191   0.117   3.903   0.163 -0.0551  0.5028  0.3600
 3910SOL    HW123192   0.092   3.957   0.239 -2.7683 -0.2002 -0.0318
 3910SOL    HW223193   0.212   3.901   0.172 -0.1219 -0.6139  0.8571
 3911SOL     OW23194   2.724   2.276   8.514 -0.1732  0.4585  0.2443
 3911SOL    HW123195   2.629   2.266   8.510 -0.1724  0.4897  0.1478
 3911SOL    HW223196   2.736   2.253   8.606 -1.1664 -0.0707  0.2410
 3912SOL     OW23197   4.446   1.974   6.882 -0.3169  0.8949 -0.3727
 3912SOL    HW123198   4.484   1.927   6.956 -0.9763 -0.9543 -1.2144
 3912SOL    HW223199   4.384   1.908   6.851 -2.1488  2.1516  0.5642
 3913SOL     OW23200   3.393   0.533  17.480  0.0188 -0.3655 -0.1560
 3913SOL    HW123201   3.482   0.551  17.509  0.0762  1.5004 -1.4676
 3913SOL    HW223202   3.413   0.463  17.417  0.1879  0.3949 -0.9452
 3914SOL     OW23203   3.418   4.282  14.268 -0.2849 -0.6781  0.0579
 3914SOL    HW123204   3.333   4.243  14.248 -0.6726  0.5674 -0.6387
 3914SOL    HW223205   3.430   4.235  14.351 -3.5931 -1.1011  0.3215
 3915SOL     OW23206   1.935   0.713   1.498 -0.6981  0.4623  0.0005
 3915SOL    HW123207   1.884   0.778   1.450  1.5037  0.0295 -2.9054
 3915SOL    HW223208   1.891   0.712   1.583  1.0653  2.7136  0.9475
 3916SOL     OW23209   4.608   1.816   7.736 -0.3826  0.3355 -0.3356
 3916SOL    HW123210   4.637   1.864   7.814 -1.8368 -0.7618  0.8988
 3916SOL    HW223211   4.519   1.789   7.760 -0.5073  1.8734  0.9315
 3917SOL     OW23212   0.002   1.481   6.066 -0.3878 -0.6486 -0.8551
 3917SOL    HW123213   4.718   1.518   6.154  0.7197 -1.1324 -0.5401
 3917SOL    HW223214   4.648   1.427   6.064  0.7965 -2.3451 -1.2182
 3918SOL     OW23215   2.721   1.553   4.931 -0.1723  0.2197 -0.3724
 3918SOL    HW123216   2.681   1.631   4.970  0.1125  0.7951 -1.2363
 3918SOL    HW223217   2.674   1.540   4.848  0.1264  0.0182 -0.5079
 3919SOL     OW23218   0.444   2.461  16.777 -0.0847 -0.9469  0.5797
 3919SOL    HW123219   0.535   2.447  16.751 -0.4419  1.5645 -2.1053
 3919SOL    HW223220   0.399   2.458  16.693 -0.3256  1.0419  0.6178
 3920SOL     OW23221   0.509   1.569   4.612  0.1508 -0.1713  0.2729
 3920SOL    HW123222   0.492   1.603   4.700 -1.8326 -0.2361 -0.0663
 3920SOL    HW223223   0.426   1.525   4.591 -0.9711  2.2162 -0.2790
 3921SOL     OW23224   1.677   1.116   9.737  0.2288 -0.1434  0.5646
 3921SOL    HW123225   1.735   1.042   9.752 -0.6680 -0.5425  2.0861
 3921SOL    HW223226   1.598   1.066   9.715 -0.6809  2.0254 -1.0777
 3922SOL     OW23227   3.764   3.782   7.551  0.1358 -0.3464  0.6292
 3922SOL    HW123228   3.736   3.706   7.603  0.2228 -1.0770 -0.3881
 3922SOL    HW223229   3.859   3.768   7.550  0.1268 -0.4026  0.5505
 3923SOL     OW23230   1.383   3.246   9.726  0.4547 -0.0505 -0.3958
 3923SOL    HW123231   1.304   3.223   9.776  0.5720  0.9222  0.2428
 3923SOL    HW223232   1.455   3.196   9.763  0.8355  0.5898 -0.2806
 3924SOL     OW23233   2.634   0.264   1.946 -0.5494 -0.1509  0.1847
 3924SOL    HW123234   2.674   0.281   1.861  1.2550  1.6271  1.3950
 3924SOL    HW223235   2.562   0.326   1.961 -1.3215 -0.7380 -1.0958
 3925SOL     OW23236   2.530   4.231   5.952  0.1599  0.5947 -0.4689
 3925SOL    HW123237   2.505   4.323   5.955 -0.1274  0.5148 -0.4250
 3925SOL    HW223238   2.479   4.188   6.020  0.4130  1.4400  0.2422
 3926SOL     OW23239   0.946   3.309   0.138 -0.2943  0.3536 -0.0775
 3926SOL    HW123240   0.927   3.321   0.231  1.8194  0.6561  0.3195
 3926SOL    HW223241   0.859   3.274   0.118 -0.0406 -1.3760  1.7884
 3927SOL     OW23242   1.757   4.303   8.488 -0.2690 -0.1789  0.5028
 3927SOL    HW123243   1.704   4.301   8.568 -0.4337  2.8315  0.4775
 3927SOL    HW223244   1.720   4.230   8.437  1.0214 -1.2188  1.0451
 3928SOL     OW23245   1.734   2.451   6.357 -0.1410  0.0808  0.1868
 3928SOL    HW123246   1.787   2.502   6.418  2.6182 -0.5236 -1.6905
 3928SOL    HW223247   1.804   2.441   6.292  0.2094 -0.9691  0.7157
 3929SOL     OW23248   4.638   3.539  15.632  0.4607  0.0380 -0.2620
 3929SOL    HW123249   4.547   3.560  15.610  0.2241 -0.7941 -0.0912
 3929SOL    HW223250   4.633   3.445  15.651 -0.4797  0.1615  0.1262
 3930SOL     OW23251   0.341   3.416  16.401 -0.3101  0.4019 -0.1068
 3930SOL    HW123252   0.357   3.510  16.404  0.1716  0.3057  0.2337
 3930SOL    HW223253   0.251   3.429  16.371  0.2161  0.9071 -1.4846
 3931SOL     OW23254   2.986   2.492   5.437  0.0791 -0.3970 -0.6188
 3931SOL    HW123255   2.934   2.506   5.517  1.0619 -3.7454  0.6265
 3931SOL    HW223256   3.027   2.578   5.427  1.0798 -0.5026  2.5454
 3932SOL     OW23257   3.069   0.870  11.171  0.0682  0.1248  0.0583
 3932SOL    HW123258   3.116   0.855  11.253 -0.8353  2.0636  0.9233
 3932SOL    HW223259   2.988   0.827  11.200 -0.5780  0.4266 -1.3010
 3933SOL     OW23260   1.918   1.816   4.410  0.2806  0.8801 -0.0111
 3933SOL    HW123261   1.908   1.746   4.474  0.8302  0.4590 -0.3858
 3933SOL    HW223262   1.945   1.769   4.331 -1.1312  0.5125 -0.2860
 3934SOL     OW23263   2.735   2.769  16.568 -0.3017 -0.4123  0.2487
 3934SOL    HW123264   2.681   2.838  16.608 -1.1101 -1.3478  0.7981
 3934SOL    HW223265   2.802   2.819  16.522 -1.4899 -1.6217 -2.8417
 3935SOL     OW23266   2.217   1.673   0.132 -0.2467  0.4136  0.4489
 3935SOL    HW123267   2.245   1.616   0.204  0.4201 -0.1210 -0.2244
 3935SOL    HW223268   2.252   1.750   0.175  0.0782  0.9124 -0.6999
 3936SOL     OW23269   2.681   2.878   3.752 -0.7271 -0.4753  0.7763
 3936SOL    HW123270   2.695   2.968   3.724  2.3623 -1.1454  0.1839
 3936SOL    HW223271   2.690   2.880   3.847 -0.2364  0.9798  0.6994
 3937SOL     OW23272   3.593   0.633   3.958 -0.0264 -0.4428  0.2406
 3937SOL    HW123273   3.585   0.539   3.968  0.0559 -0.3075  1.6538
 3937SOL    HW223274   3.676   0.636   3.909  0.1410  0.1712  0.5531
 3938SOL     OW23275   4.512   1.032   3.090 -0.0004 -0.0949  0.1838
 3938SOL    HW123276   4.604   1.009   3.103  0.6840  1.9622 -0.8789
 3938SOL    HW223277   4.498   1.012   2.998  0.3008 -0.9165  0.3232
 3939SOL     OW23278   3.432   0.481   4.542 -0.4362 -0.3793 -0.3252
 3939SOL    HW123279   3.489   0.537   4.489 -0.0136 -1.7850 -1.3573
 3939SOL    HW223280   3.461   0.392   4.523 -2.3633 -1.2518  0.9035
 3940SOL     OW23281   0.448   4.509   5.840  0.1554  0.2358  0.4350
 3940SOL    HW123282   0.456   4.538   5.931 -3.1992  1.8185  0.2144
 3940SOL    HW223283   0.485   4.589   5.803 -1.1098  0.5805 -0.1005
 3941SOL     OW23284   0.336   2.605  15.950 -0.2783  0.0820  0.0177
 3941SOL    HW123285   0.295   2.685  15.980 -0.1696  0.0520  0.2436
 3941SOL    HW223286   0.371   2.645  15.870  0.9231 -0.5897  0.2103
 3942SOL     OW23287   0.755   1.201   6.005 -0.5913 -0.0022 -0.0901
 3942SOL    HW123288   0.753   1.138   6.077 -2.3696  0.7472  0.5390
 3942SOL    HW223289   0.848   1.197   5.984 -0.3278 -1.5921  1.4149
 3943SOL     OW23290   1.201   0.515  13.494  0.3165  0.0348  0.9623
 3943SOL    HW123291   1.151   0.597  13.499  3.0776  1.8156 -0.4849
 3943SOL    HW223292   1.144   0.460  13.441  1.7477 -0.1562 -0.3754
 3944SOL     OW23293   3.685   2.520  16.457  0.4946 -0.1183  0.1840
 3944SOL    HW123294   3.613   2.520  16.520  0.3503 -0.1139  0.0185
 3944SOL    HW223295   3.637   2.556  16.382  2.1377 -0.7122 -1.1478
 3945SOL     OW23296   4.391   1.516   6.314 -0.3090  0.3485  0.2276
 3945SOL    HW123297   4.325   1.545   6.377  0.1186  0.6922  0.5245
 3945SOL    HW223298   4.404   1.428   6.349  0.5708 -0.2867 -1.7492
 3946SOL     OW23299   3.011   4.662   6.309 -0.4532 -0.2593  0.2751
 3946SOL    HW123300   3.080   4.682   6.246  0.2606  2.8513  2.0355
 3946SOL    HW223301   2.964   4.588   6.270  0.2239  0.4215 -1.7906
 3947SOL     OW23302   0.544   3.111   9.039 -0.2303 -0.1385  0.0944
 3947SOL    HW123303   0.536   3.034   9.094 -1.7075 -0.5822 -0.7293
 3947SOL    HW223304   0.519   3.076   8.953 -1.3135  0.4985  0.1346
 3948SOL     OW23305   3.920   2.143   7.703  0.3623 -0.2108  0.2655
 3948SOL    HW123306   3.948   2.097   7.624  2.6313  0.6571  0.5691
 3948SOL    HW223307   3.830   2.160   7.675 -0.0254 -2.0225  0.4128
 3949SOL     OW23308   4.719   1.569  13.035  0.5014  0.2120 -0.0701
 3949SOL    HW123309   4.670   1.491  13.062  1.0359 -0.3219 -0.6297
 3949SOL    HW223310   4.665   1.641  13.066  0.7166  0.3934 -0.1254
 3950SOL     OW23311   2.367   1.984   4.366  0.0635  0.0778  1.0203
 3950SOL    HW123312   2.338   1.918   4.429  0.2745 -0.3096  0.7182
 3950SOL    HW223313   2.410   1.915   4.314 -0.2638  0.5241  0.1551
 3951SOL     OW23314   3.599   0.434  15.606 -0.6757 -0.2594  0.4013
 3951SOL    HW123315   3.561   0.433  15.694 -1.5793  0.2935  0.0143
 3951SOL    HW223316   3.689   0.423  15.637  0.3361 -1.4063 -2.9578
 3952SOL     OW23317   0.275   1.329   4.221  0.1539 -0.2093 -0.6384
 3952SOL    HW123318   0.180   1.332   4.225  0.0983 -0.9414 -1.3883
 3952SOL    HW223319   0.282   1.356   4.130  1.0576 -0.3089 -0.5961
 3953SOL     OW23320   0.863   2.997   6.509  0.1272 -0.0595  0.3970
 3953SOL    HW123321   0.892   3.052   6.436  1.4331 -2.9861 -1.2920
 3953SOL    HW223322   0.892   3.046   6.587  0.8254 -0.6341  0.5045
 3954SOL     OW23323   3.499   0.414   4.931 -0.0999  0.4499  0.5742
 3954SOL    HW123324   3.517   0.339   4.987  0.8827  0.2837  0.0263
 3954SOL    HW223325   3.576   0.469   4.942  0.8893 -0.5280 -1.5101
 3955SOL     OW23326   2.885   2.247   7.592 -0.1419  0.7623  0.9246
 3955SOL    HW123327   2.957   2.190   7.564 -0.0591  0.6128  1.4460
 3955SOL    HW223328   2.862   2.213   7.678 -0.2919  1.4575  1.1560
 3956SOL     OW23329   3.784   4.649  12.535 -0.1966 -0.4367  0.0195
 3956SOL    HW123330   3.786   4.562  12.575 -0.0350 -2.0144 -3.4012
 3956SOL    HW223331   3.867   4.651  12.488  0.1147  0.5272  0.6134
 3957SOL     OW23332   1.472   1.250  10.446  0.3371 -0.3271 -0.8718
 3957SOL    HW123333   1.509   1.162  10.434  0.8723 -0.0294 -1.4424
 3957SOL    HW223334   1.380   1.236  10.424 -0.6437  3.5847  0.7331
 3958SOL     OW23335   1.041   1.389  11.441  0.4309  0.2813  0.0133
 3958SOL    HW123336   1.099   1.465  11.445  2.2710 -1.2095  1.2674
 3958SOL    HW223337   0.977   1.424  11.379  0.1014 -1.5995 -0.6973
 3959SOL     OW23338   4.601   3.166   6.294 -0.6266 -0.0019 -0.4302
 3959SOL    HW123339   4.528   3.141   6.239 -1.2921 -1.8348  1.2928
 3959SOL    HW223340   4.569   3.216   6.369  1.1663 -1.7984  1.5542
 3960SOL     OW23341   3.370   3.141   3.668 -0.3942  0.1287  0.1598
 3960SOL    HW123342   3.333   3.065   3.713  2.4534 -0.9181  0.7760
 3960SOL    HW223343   3.373   3.107   3.579 -0.1182  0.2717  0.1147
 3961SOL     OW23344   0.956   2.559  13.557  0.1526 -0.1455  0.2040
 3961SOL    HW123345   0.975   2.649  13.532 -1.1264 -0.3100 -1.3561
 3961SOL    HW223346   0.936   2.562  13.651  0.6243 -2.3237  0.3961
 3962SOL     OW23347   1.576   3.952   7.905 -0.4645  0.0066 -0.1760
 3962SOL    HW123348   1.645   3.924   7.845  0.5828  3.6818 -0.6707
 3962SOL    HW223349   1.508   3.889   7.883  0.0132 -1.2945  2.0302
 3963SOL     OW23350   0.488   2.631   3.406 -0.1673  0.3277  0.1777
 3963SOL    HW123351   0.395   2.624   3.386 -0.3101  3.2341 -0.2010
 3963SOL    HW223352   0.485   2.717   3.449 -0.3977  0.2065  0.4037
 3964SOL     OW23353   0.489   4.150   5.383 -0.9003  0.4425 -0.2368
 3964SOL    HW123354   0.420   4.122   5.323  0.2619 -2.5792 -0.1816
 3964SOL    HW223355   0.505   4.065   5.425  2.5720  1.1179 -0.2065
 3965SOL     OW23356   4.001   0.765   6.412 -0.0105 -0.2721  0.1087
 3965SOL    HW123357   3.957   0.705   6.352 -0.7461 -1.5632  1.9593
 3965SOL    HW223358   4.094   0.741   6.414  0.0968  0.1230 -0.0064
 3966SOL     OW23359   3.892   3.928  11.011  0.0769 -0.1001 -0.0109
 3966SOL    HW123360   3.970   3.899  11.057 -1.0784 -0.5086  1.6907
 3966SOL    HW223361   3.848   3.977  11.081  0.2865  3.2873 -2.2352
 3967SOL     OW23362   4.088   1.518   2.909  0.0303 -0.9473 -0.1140
 3967SOL    HW123363   4.179   1.508   2.934  0.5442  2.6847 -0.5065
 3967SOL    HW223364   4.049   1.553   2.989 -1.0170 -2.0729 -0.1290
 3968SOL     OW23365   0.642   4.287   4.581  0.0299 -0.1891  0.3966
 3968SOL    HW123366   0.607   4.273   4.669 -3.4658 -1.3274 -1.1800
 3968SOL    HW223367   0.636   4.382   4.570 -0.9631 -0.2399  0.5046
 3969SOL     OW23368   3.991   3.294  16.960  0.2052  0.3788  0.5122
 3969SOL    HW123369   4.048   3.330  16.892 -1.9930  0.4922 -1.2772
 3969SOL    HW223370   3.966   3.370  17.013 -0.4520  1.3184 -1.1534
 3970SOL     OW23371   1.705   1.425   7.290  0.4019  0.2140 -0.2943
 3970SOL    HW123372   1.769   1.355   7.276 -1.4240 -1.4784 -0.2116
 3970SOL    HW223373   1.751   1.506   7.270  2.1587 -0.1275  2.3202
 3971SOL     OW23374   2.667   0.388   4.030  0.2210  0.8011 -0.3709
 3971SOL    HW123375   2.656   0.317   4.093  0.8627  1.4244  0.4315
 3971SOL    HW223376   2.647   0.465   4.084 -0.6948  1.5529 -1.7771
 3972SOL     OW23377   4.144   1.649   4.525 -0.4761 -0.0897  0.4284
 3972SOL    HW123378   4.100   1.589   4.464  0.9867 -2.8589  2.1238
 3972SOL    HW223379   4.135   1.592   4.601 -1.7671 -1.2223 -0.5859
 3973SOL     OW23380   1.381   3.911   4.053 -0.3794 -0.1327  0.3869
 3973SOL    HW123381   1.322   3.872   3.989 -0.1902 -0.2137  0.2614
 3973SOL    HW223382   1.321   3.952   4.116 -0.1175  1.5138 -0.4333
 3974SOL     OW23383   4.249   2.265   9.024  0.4625 -0.8550 -0.0927
 3974SOL    HW123384   4.285   2.204   8.959 -1.9714 -0.8237 -1.4725
 3974SOL    HW223385   4.243   2.213   9.104  1.3741  3.3568  2.6607
 3975SOL     OW23386   1.209   1.497   7.359 -0.0281  0.3004  0.0976
 3975SOL    HW123387   1.167   1.464   7.280  0.0525  0.7478 -0.1291
 3975SOL    HW223388   1.302   1.483   7.342  0.1700  1.1726  0.4519
 3976SOL     OW23389   0.815   3.934   9.771  0.2483  0.2616  0.1381
 3976SOL    HW123390   0.811   4.012   9.826  2.5004  0.0211  0.6697
 3976SOL    HW223391   0.889   3.890   9.814 -0.0513 -1.8964 -1.5334
 3977SOL     OW23392   4.615   0.517   2.626 -0.7862  0.6272 -0.2096
 3977SOL    HW123393   4.663   0.597   2.646 -0.9100  0.6176  0.1359
 3977SOL    HW223394   4.621   0.467   2.708 -0.1563  0.1755 -0.5366
 3978SOL     OW23395   4.346   1.387   2.591 -0.2089 -0.3689 -0.3588
 3978SOL    HW123396   4.283   1.454   2.565 -0.2070  0.0361  0.6655
 3978SOL    HW223397   4.427   1.412   2.546  1.8908 -1.5058  2.8062
 3979SOL     OW23398   4.385   4.441   1.703 -0.0942  0.0396 -0.8003
 3979SOL    HW123399   4.472   4.473   1.678 -0.2085  0.6246 -0.4345
 3979SOL    HW223400   4.336   4.465   1.624 -0.5086  0.2112 -0.4870
 3980SOL     OW23401   2.843   3.019   6.579 -0.1655 -0.0340 -0.2991
 3980SOL    HW123402   2.858   3.109   6.552  2.4142 -0.4401 -0.2553
 3980SOL    HW223403   2.853   3.025   6.674 -1.0500  0.5888 -0.2544
 3981SOL     OW23404   1.522   4.352   0.274 -0.2240 -0.4341  0.6600
 3981SOL    HW123405   1.445   4.332   0.221  0.5992 -0.0945 -0.6612
 3981SOL    HW223406   1.492   4.408   0.346  0.1884  0.3821  0.1948
 3982SOL     OW23407   3.711   4.384   9.135  0.1466 -0.2369 -0.0508
 3982SOL    HW123408   3.758   4.390   9.218 -0.6166  3.7982  0.0701
 3982SOL    HW223409   3.644   4.321   9.163 -0.6141  0.0478 -1.2283
 3983SOL     OW23410   2.014   0.266   5.050 -0.3981  0.0983 -0.5003
 3983SOL    HW123411   2.039   0.269   4.958 -1.1329 -2.3161 -0.7719
 3983SOL    HW223412   2.029   0.176   5.077  0.2216  0.3212 -0.1100
 3984SOL     OW23413   0.292   0.671  10.439 -0.1091  0.3882  0.0469
 3984SOL    HW123414   0.296   0.679  10.534  0.1095  0.1964  0.0531
 3984SOL    HW223415   0.279   0.576  10.428  2.9149  0.1521 -1.5384
 3985SOL     OW23416   4.164   2.201   4.626  0.3136  0.3770 -0.3366
 3985SOL    HW123417   4.247   2.211   4.673 -1.3668  5.2958  1.5856
 3985SOL    HW223418   4.168   2.108   4.602 -0.5328  0.3271 -0.2979
 3986SOL     OW23419   2.279   0.333   5.531 -0.0556  0.0282 -0.6461
 3986SOL    HW123420   2.316   0.416   5.562 -0.3740 -1.0868  2.7603
 3986SOL    HW223421   2.190   0.358   5.505 -0.5551 -0.0027  1.0299
 3987SOL     OW23422   1.142   2.218   3.527  0.2415  0.7703  0.3796
 3987SOL    HW123423   1.152   2.280   3.599 -1.4181  0.7466  0.6365
 3987SOL    HW223424   1.168   2.263   3.447 -0.6590 -1.7238 -1.3023
 3988SOL     OW23425   0.092   2.949   2.338  0.7154  0.5465  0.7613
 3988SOL    HW123426   0.123   2.875   2.390  0.5487  0.8146  1.2497
 3988SOL    HW223427   0.014   2.981   2.384 -1.5709 -1.3979 -1.7477
 3989SOL     OW23428   2.450   1.694   3.599 -0.0199  0.0284 -0.3624
 3989SOL    HW123429   2.443   1.619   3.540 -0.4312  0.8819 -1.4022
 3989SOL    HW223430   2.382   1.680   3.666 -0.8831  3.1726 -0.5903
 3990SOL     OW23431   2.980   2.766   6.852 -0.2968 -0.0255 -0.7704
 3990SOL    HW123432   3.051   2.817   6.813  1.2671 -0.8804  0.9389
 3990SOL    HW223433   2.997   2.677   6.822 -0.7663  0.7635 -3.3406
 3991SOL     OW23434   2.003   3.254   8.776  0.0062  0.3789  0.6287
 3991SOL    HW123435   1.932   3.208   8.822  0.6570 -0.0424  1.2095
 3991SOL    HW223436   2.033   3.188   8.713  0.4247  2.1342 -0.9986
 3992SOL     OW23437   0.602   0.844   6.871  0.6087 -0.7031  0.0972
 3992SOL    HW123438   0.540   0.905   6.831  1.0245 -0.3773 -0.0571
 3992SOL    HW223439   0.585   0.765   6.818  1.4497 -1.1571  0.5079
 3993SOL     OW23440   1.598   0.497  11.933  0.3162 -0.1430  0.5308
 3993SOL    HW123441   1.525   0.469  11.878 -0.2156  3.1594 -0.4375
 3993SOL    HW223442   1.556   0.525  12.014 -1.0679 -0.1893 -0.1829
 3994SOL     OW23443   3.748   3.857  13.377  0.2040  0.2292  0.0430
 3994SOL    HW123444   3.768   3.941  13.337 -2.6802  1.0336  0.2677
 3994SOL    HW223445   3.832   3.829  13.412  0.1043  0.0390  0.1354
 3995SOL     OW23446   2.709   2.071   5.068  0.0336 -0.2633  0.1829
 3995SOL    HW123447   2.772   2.140   5.051 -1.6812  1.3776  0.4846
 3995SOL    HW223448   2.630   2.121   5.049  1.3114  2.1599  1.2319
 3996SOL     OW23449   4.315   0.740  14.839  0.3291  0.1155  0.3689
 3996SOL    HW123450   4.328   0.724  14.932  3.9693  0.8985  0.0325
 3996SOL    HW223451   4.272   0.660  14.811  0.0245  0.6971 -0.8233
 3997SOL     OW23452   2.703   3.564  10.522  0.1626  0.4143  0.0822
 3997SOL    HW123453   2.694   3.528  10.434 -1.1858 -1.3464  0.9606
 3997SOL    HW223454   2.620   3.538  10.562  0.0378  3.7606  2.0111
 3998SOL     OW23455   3.198   4.500   8.809 -0.6043 -0.1217  0.6818
 3998SOL    HW123456   3.209   4.467   8.898  2.0896  1.2740  0.8914
 3998SOL    HW223457   3.164   4.588   8.827 -0.1145 -0.1799  1.9283
 3999SOL     OW23458   0.813   0.163   2.803  0.2560 -0.2675 -0.2634
 3999SOL    HW123459   0.879   0.095   2.815 -0.3571 -0.8571 -0.2117
 3999SOL    HW223460   0.761   0.170   2.883 -0.0758  0.7462 -0.5744
 4000SOL     OW23461   3.280   2.804   4.717  0.9761 -0.1264 -0.4463
 4000SOL    HW123462   3.243   2.889   4.741 -0.5084 -0.0059 -3.0510
 4000SOL    HW223463   3.301   2.816   4.624 -1.1986  0.7415 -0.8291
 4001SOL     OW23464   0.423   1.099   6.544  0.0440 -0.0157 -0.1679
 4001SOL    HW123465   0.453   1.188   6.562 -0.1772  0.1259 -0.5188
 4001SOL    HW223466   0.337   1.116   6.506  0.1507 -0.4975 -0.6271
 4002SOL     OW23467   3.772   2.148  14.773  0.1542  0.0386 -0.4389
 4002SOL    HW123468   3.748   2.241  14.774 -3.0101 -0.7960  0.0001
 4002SOL    HW223469   3.773   2.136  14.868 -0.2796 -1.0328 -0.5720
 4003SOL     OW23470   4.579   2.302  16.561  0.0789  0.4794 -0.2598
 4003SOL    HW123471   4.590   2.250  16.481 -2.0995  1.6345 -1.2839
 4003SOL    HW223472   4.498   2.277  16.605  1.7925  2.3284  3.9614
 4004SOL     OW23473   3.062   4.010   3.903 -0.9092  0.8182  0.4627
 4004SOL    HW123474   3.096   4.037   3.818  2.0345  1.6700  1.9352
 4004SOL    HW223475   3.007   3.935   3.879 -1.4472  1.2835  0.2387
 4005SOL     OW23476   2.618   4.371   9.594  0.4724  0.1316 -0.4420
 4005SOL    HW123477   2.637   4.375   9.501 -1.5396 -0.4787 -0.8753
 4005SOL    HW223478   2.664   4.450   9.624  0.3787  0.2967 -0.7406
 4006SOL     OW23479   3.942   0.314   2.057  0.4366 -0.1000 -0.1043
 4006SOL    HW123480   3.949   0.301   1.962  0.1268  0.9529 -0.2667
 4006SOL    HW223481   3.876   0.252   2.087  1.4067 -0.7426  0.7353
 4007SOL     OW23482   4.086   3.522   1.287 -0.2888  0.1170 -0.0480
 4007SOL    HW123483   4.149   3.450   1.288  0.9172  1.1926  1.2622
 4007SOL    HW223484   4.080   3.527   1.191  0.6897  0.6708 -0.0761
 4008SOL     OW23485   4.350   2.106   9.846 -0.2339 -0.5020  0.2841
 4008SOL    HW123486   4.273   2.153   9.816  1.6363  1.1444 -1.8678
 4008SOL    HW223487   4.400   2.139   9.772 -0.0132  1.5460  1.3344
 4009SOL     OW23488   4.197   0.575  16.742  0.3990 -0.7708 -0.0904
 4009SOL    HW123489   4.255   0.515  16.696  1.1739 -0.2502  0.1999
 4009SOL    HW223490   4.110   0.565  16.705  0.2779 -1.3982  0.3642
 4010SOL     OW23491   3.199   4.062   7.701  0.5520  0.0013 -0.1111
 4010SOL    HW123492   3.104   4.057   7.700  0.5398  0.0338  1.1529
 4010SOL    HW223493   3.209   4.151   7.667  0.6335 -0.2597 -0.7669
 4011SOL     OW23494   1.340   3.276   3.371 -0.6178  0.0523 -0.0201
 4011SOL    HW123495   1.338   3.345   3.437  1.4009  0.1199 -0.0514
 4011SOL    HW223496   1.250   3.243   3.368 -0.6325  0.0620  0.2838
 4012SOL     OW23497   0.734   1.932   1.276 -0.6378 -0.1509 -0.1538
 4012SOL    HW123498   0.647   1.954   1.308 -0.8540 -0.0344 -0.8198
 4012SOL    HW223499   0.755   1.842   1.299 -0.3743  0.4845  2.0648
 4013SOL     OW23500   1.005   3.227   1.945  0.6608 -0.0950 -0.7855
 4013SOL    HW123501   0.964   3.257   1.865  0.7352  0.5133 -0.5939
 4013SOL    HW223502   0.944   3.250   2.016 -0.9451 -0.4407 -2.0518
 4014SOL     OW23503   0.396   1.257   7.724  0.1214 -0.3778 -0.1684
 4014SOL    HW123504   0.345   1.235   7.647  0.6566 -1.2239 -0.2799
 4014SOL    HW223505   0.468   1.305   7.684  0.0157 -0.7507 -0.8018
 4015SOL     OW23506   2.401   4.601   4.392 -0.2766  0.0064 -0.1276
 4015SOL    HW123507   2.320   4.649   4.413 -0.5443  0.2560 -1.6977
 4015SOL    HW223508   2.389   4.595   4.297  0.1824  0.8290 -0.2325
 4016SOL     OW23509   0.866   2.650   1.353 -0.6454 -0.0346  0.5765
 4016SOL    HW123510   0.882   2.560   1.327 -0.5539 -0.1216  0.9274
 4016SOL    HW223511   0.924   2.703   1.298  2.0682 -3.9946 -0.4120
 4017SOL     OW23512   2.385   4.419  11.023 -0.0737  0.8485 -0.2618
 4017SOL    HW123513   2.407   4.355  10.955 -2.9302  0.7073 -1.0594
 4017SOL    HW223514   2.357   4.491  10.967  1.5009  1.7180  0.0565
 4018SOL     OW23515   2.954   2.766   6.567  0.3240  0.1977  0.0053
 4018SOL    HW123516   2.865   2.745   6.593  0.6886 -0.4923  0.6734
 4018SOL    HW223517   2.942   2.839   6.505  1.9905 -2.1880 -3.1163
 4019SOL     OW23518   1.521   2.879   6.255  0.0305  0.0225 -0.2813
 4019SOL    HW123519   1.466   2.919   6.187 -3.3637  0.4226  2.7324
 4019SOL    HW223520   1.519   2.788   6.224 -2.7390 -0.0389  0.0658
 4020SOL     OW23521   3.265   3.039   4.973  0.3371 -0.4886  0.1748
 4020SOL    HW123522   3.182   2.994   4.982  0.4931 -0.9612 -0.7383
 4020SOL    HW223523   3.291   3.039   4.880 -1.5797  3.0550 -0.3550
 4021SOL     OW23524   4.463   3.454  11.380  0.3718  0.4318  0.2413
 4021SOL    HW123525   4.518   3.397  11.433  0.1996 -0.8504 -0.9622
 4021SOL    HW223526   4.451   3.418  11.292 -0.0141  2.4691 -0.5494
 4022SOL     OW23527   1.970   0.524   7.887  0.4784  0.4064 -0.6475
 4022SOL    HW123528   2.024   0.446   7.888 -0.0900  0.0338  0.9861
 4022SOL    HW223529   1.915   0.529   7.808 -0.5759  2.7499  0.2170
 4023SOL     OW23530   1.932   3.545  12.410  0.6564 -0.3807 -0.3136
 4023SOL    HW123531   1.937   3.463  12.361 -4.0662 -2.1349  2.1829
 4023SOL    HW223532   2.027   3.559  12.420  0.9148 -2.0466 -0.3608
 4024SOL     OW23533   1.470   0.488  10.174 -0.2321 -0.1623 -0.2924
 4024SOL    HW123534   1.421   0.430  10.115  1.2819 -0.9968 -0.7406
 4024SOL    HW223535   1.412   0.486  10.250  0.1352  1.6271  0.0241
 4025SOL     OW23536   3.429   4.141   3.768 -0.3913 -0.0072  0.0166
 4025SOL    HW123537   3.419   4.083   3.844 -2.0077  0.8621  0.4829
 4025SOL    HW223538   3.397   4.218   3.815  0.8789  1.3548 -1.3758
 4026SOL     OW23539   1.637   1.025  16.976  0.4563  0.0191  0.2265
 4026SOL    HW123540   1.698   1.007  17.048 -0.2910  1.1387  1.1420
 4026SOL    HW223541   1.560   1.005  17.029  1.1510  0.8096  1.5252
 4027SOL     OW23542   2.757   3.749   6.875 -0.5484  0.1543  0.4915
 4027SOL    HW123543   2.699   3.757   6.950 -1.7462  1.1015 -0.5336
 4027SOL    HW223544   2.690   3.782   6.816 -0.8425  0.7320  1.1576
 4028SOL     OW23545   4.657   4.636   1.747  0.2928 -0.3210 -0.2610
 4028SOL    HW123546   4.653   4.605   1.657  1.6179 -1.7989  0.1834
 4028SOL    HW223547   4.636   0.005   1.740  0.6330 -0.2357 -0.1478
 4029SOL     OW23548   3.708   4.455   4.762  0.1759  0.4183 -0.3514
 4029SOL    HW123549   3.760   4.423   4.688  1.0127 -1.0919  0.8726
 4029SOL    HW223550   3.744   4.543   4.775 -1.5303  1.2619 -1.3241
 4030SOL     OW23551   4.206   3.147   2.352 -0.1874 -0.0940 -0.7789
 4030SOL    HW123552   4.117   3.148   2.316 -0.6216 -0.8969  0.2739
 4030SOL    HW223553   4.211   3.233   2.393  0.3870 -0.0726 -0.8884
 4031SOL     OW23554   3.534   1.419   4.676 -0.4405  0.1699 -0.1303
 4031SOL    HW123555   3.461   1.466   4.635 -0.7163 -0.5303 -0.4360
 4031SOL    HW223556   3.601   1.420   4.608 -0.6780 -2.0460 -0.3851
 4032SOL     OW23557   2.961   4.372   7.552 -0.2180  0.8837 -0.0554
 4032SOL    HW123558   2.949   4.350   7.645 -0.3938 -0.1606 -0.3220
 4032SOL    HW223559   2.904   4.449   7.545 -0.8773  0.4971  1.0219
 4033SOL     OW23560   0.827   3.979  14.115 -0.0022 -0.3453 -0.2269
 4033SOL    HW123561   0.856   4.018  14.197  2.3869 -2.3165 -0.1219
 4033SOL    HW223562   0.908   3.968  14.065 -0.4282 -2.8396 -0.3519
 4034SOL     OW23563   3.340   1.239   5.630 -0.1963 -0.8095  0.2484
 4034SOL    HW123564   3.376   1.328   5.636  0.3099 -1.0486  0.8322
 4034SOL    HW223565   3.303   1.221   5.544 -4.3231 -1.4988  2.1758
 4035SOL     OW23566   4.131   1.282   7.156  0.0318 -0.1824 -0.1703
 4035SOL    HW123567   4.102   1.347   7.092  3.1328  1.8429  0.4931
 4035SOL    HW223568   4.074   1.205   7.154  1.6247 -1.3276 -1.1661
 4036SOL     OW23569   2.180   2.671   4.515  0.8471  0.0642  0.6930
 4036SOL    HW123570   2.130   2.606   4.466 -0.4501  1.6124 -0.0306
 4036SOL    HW223571   2.115   2.682   4.584 -0.8750  1.5162 -1.1699
 4037SOL     OW23572   2.454   4.517   3.462 -0.2262 -0.5688 -0.2513
 4037SOL    HW123573   2.465   4.593   3.405 -1.6908 -2.2195 -2.7833
 4037SOL    HW223574   2.413   4.441   3.419 -0.0631 -0.5359 -0.4675
 4038SOL     OW23575   3.985   4.013   2.095 -0.0771  0.8259  0.2146
 4038SOL    HW123576   4.017   4.065   2.169  1.1285  1.3488 -0.6901
 4038SOL    HW223577   4.008   3.923   2.119 -0.2243  0.9092  0.6848
 4039SOL     OW23578   0.679   1.736   6.856  0.3294 -0.7193  0.1813
 4039SOL    HW123579   0.614   1.785   6.805  1.5215  0.7567  0.1059
 4039SOL    HW223580   0.664   1.761   6.947  0.9277  0.6094 -0.0913
 4040SOL     OW23581   3.389   0.435   6.233  0.5865 -0.6659 -0.2311
 4040SOL    HW123582   3.320   0.447   6.168  3.3848  1.5491 -2.7705
 4040SOL    HW223583   3.341   0.426   6.316 -0.0126  0.0352 -0.4989
 4041SOL     OW23584   3.527   3.290   4.200  0.4871  0.1098 -0.1630
 4041SOL    HW123585   3.435   3.316   4.189  0.0821 -1.1911  0.1567
 4041SOL    HW223586   3.534   3.281   4.295  0.2543  1.7315  0.0108
 4042SOL     OW23587   1.198   2.441   5.075 -0.3022 -0.8609 -0.4392
 4042SOL    HW123588   1.172   2.380   5.144 -0.5547  1.2802  1.3627
 4042SOL    HW223589   1.220   2.517   5.129 -0.1936 -1.3850  0.2568
 4043SOL     OW23590   3.615   1.913   9.056 -0.3732 -0.2098  0.3162
 4043SOL    HW123591   3.623   1.989   8.998 -0.3027  1.0537  1.9879
 4043SOL    HW223592   3.605   1.946   9.145 -1.8719 -0.5640  0.2837
 4044SOL     OW23593   0.085   3.535   9.899 -0.4315 -0.1338  0.3441
 4044SOL    HW123594   0.167   3.505   9.861 -1.0771  0.9683 -1.9377
 4044SOL    HW223595   0.025   3.536   9.824 -1.0872  0.1341  0.8776
 4045SOL     OW23596   3.873   3.983   6.243  1.0082  0.6419  0.5975
 4045SOL    HW123597   3.805   4.013   6.303  2.0419  0.1366  2.0215
 4045SOL    HW223598   3.946   4.038   6.267  1.1910  0.9752 -0.6844
 4046SOL     OW23599   1.952   4.150   2.113  0.0824 -0.4820 -0.2000
 4046SOL    HW123600   1.921   4.218   2.173  0.7733 -2.2883  2.2022
 4046SOL    HW223601   1.956   4.199   2.031 -0.9091 -0.1841 -0.0723
 4047SOL     OW23602   0.100   4.029  11.826 -0.5553  0.2270 -0.1213
 4047SOL    HW123603   0.097   3.974  11.748 -2.6482  1.4215 -0.8986
 4047SOL    HW223604   0.090   3.963  11.895 -1.0725  0.1255 -0.2942
 4048SOL     OW23605   2.428   1.948   0.295 -0.0565  0.2743 -0.4219
 4048SOL    HW123606   2.477   2.004   0.355  5.2273 -2.3480 -2.2377
 4048SOL    HW223607   2.471   1.979   0.216  1.4128 -1.5673 -0.3445
 4049SOL     OW23608   0.084   1.607  15.998  0.2435  0.1444 -0.9088
 4049SOL    HW123609   0.045   1.534  16.048  2.0108 -0.4771 -0.4417
 4049SOL    HW223610   0.092   1.675  16.065 -1.8747  1.1881 -1.7194
 4050SOL     OW23611   3.501   2.266  14.008  0.2569  0.1137 -0.2201
 4050SOL    HW123612   3.579   2.301  14.052  0.9770 -0.4183 -1.0684
 4050SOL    HW223613   3.435   2.280  14.075 -0.5426 -0.9704 -0.7796
 4051SOL     OW23614   4.634   0.297  16.045 -0.6031  0.6387  0.4235
 4051SOL    HW123615   4.653   0.388  16.069  0.8796  0.5788 -0.5238
 4051SOL    HW223616   4.602   0.314  15.956  0.1816 -1.1955 -0.1987
 4052SOL     OW23617   0.004   3.585   3.418  0.1182 -0.2214  0.5749
 4052SOL    HW123618   0.009   3.671   3.460  0.1930  0.5074 -0.9085
 4052SOL    HW223619   4.634   3.574   3.430  0.1697 -1.0589  0.1644
 4053SOL     OW23620   2.595   4.024   3.671  0.6151 -0.0185  0.1717
 4053SOL    HW123621   2.508   4.064   3.673  0.4823 -0.3298  0.5498
 4053SOL    HW223622   2.574   3.933   3.693  0.2977  0.3049  1.2101
 4054SOL     OW23623   0.964   2.118   1.514 -0.1532 -0.1602 -0.3219
 4054SOL    HW123624   0.950   2.029   1.547  2.6916 -0.0258  1.2059
 4054SOL    HW223625   0.949   2.112   1.419  0.8358 -2.0819 -0.3495
 4055SOL     OW23626   1.678   2.543  10.821  0.0875 -0.0307  0.2487
 4055SOL    HW123627   1.692   2.493  10.741  3.9918 -0.3938  1.1669
 4055SOL    HW223628   1.766   2.534  10.858 -0.4132  0.9774  1.6735
 4056SOL     OW23629   0.378   1.020   8.159 -0.8887 -0.1408 -0.3653
 4056SOL    HW123630   0.465   1.009   8.196 -1.5411  0.3678  1.2961
 4056SOL    HW223631   0.320   1.052   8.229 -2.0606  0.9028 -1.7920
 4057SOL     OW23632   2.026   0.291   1.463 -0.1625  0.2906  0.0528
 4057SOL    HW123633   2.013   0.273   1.556  1.1191  3.9046  0.9232
 4057SOL    HW223634   2.071   0.213   1.430 -2.1997 -1.3863  1.2416
 4058SOL     OW23635   2.292   3.226   9.307 -0.2580  0.0891  0.0772
 4058SOL    HW123636   2.206   3.238   9.265 -0.2024  1.2650  0.2996
 4058SOL    HW223637   2.327   3.154   9.255  2.0220  0.6996  0.7613
 4059SOL     OW23638   0.566   1.454   6.974 -0.8940 -0.0151 -0.3185
 4059SOL    HW123639   0.510   1.529   6.956 -1.6605 -0.3478  0.6685
 4059SOL    HW223640   0.511   1.393   7.023  2.2595 -2.8430 -0.2244
 4060SOL     OW23641   0.016   1.987   8.696  0.2121 -0.0670  0.0513
 4060SOL    HW123642   4.707   2.073   8.720  0.1348 -0.4913  1.4899
 4060SOL    HW223643   0.025   1.941   8.780  1.1829  2.4719  1.3422
 4061SOL     OW23644   3.735   1.426   9.643 -0.2568 -0.1668 -0.1654
 4061SOL    HW123645   3.804   1.438   9.577  1.6507  2.4723  2.2922
 4061SOL    HW223646   3.657   1.446   9.592  0.1339  2.2793  0.1827
 4062SOL     OW23647   1.534   1.892   9.994  0.3464  0.4194  0.1096
 4062SOL    HW123648   1.478   1.833  10.044 -0.1940  1.1587  0.3687
 4062SOL    HW223649   1.617   1.882  10.040 -0.9396 -0.9357  2.1294
 4063SOL     OW23650   3.292   2.803   8.647  0.3629  0.0102 -0.6147
 4063SOL    HW123651   3.310   2.875   8.708 -1.8242 -1.5163  1.8102
 4063SOL    HW223652   3.245   2.741   8.702 -0.0537 -0.8172 -1.8990
 4064SOL     OW23653   3.589   1.350   8.152  0.2094  0.2613 -0.2297
 4064SOL    HW123654   3.582   1.298   8.232 -0.4505 -0.9356 -1.0771
 4064SOL    HW223655   3.495   1.365   8.147 -0.2624 -2.8745 -0.4014
 4065SOL     OW23656   3.908   0.430   8.130  0.0915  0.1698  0.4790
 4065SOL    HW123657   3.893   0.380   8.210 -1.1593  0.4448  0.4194
 4065SOL    HW223658   4.000   0.455   8.131  0.4685 -1.1701 -0.8732
 4066SOL     OW23659   0.130   1.892   5.368 -0.2679 -0.2443 -0.1076
 4066SOL    HW123660   0.093   1.830   5.305 -0.7084  0.4387 -0.5231
 4066SOL    HW223661   0.058   1.953   5.380 -0.3666 -0.3117 -0.3585
 4067SOL     OW23662   4.328   1.293  11.322 -0.3629 -0.5280  0.1947
 4067SOL    HW123663   4.240   1.277  11.288  0.0209  0.2680 -1.1777
 4067SOL    HW223664   4.361   1.203  11.315  1.0115 -0.1102  1.2218
 4068SOL     OW23665   2.327   2.970   8.347 -0.1287  0.3189  0.0983
 4068SOL    HW123666   2.308   2.879   8.323  3.3798 -0.9390  2.1054
 4068SOL    HW223667   2.348   2.960   8.440 -2.0603  0.5212  0.5490
 4069SOL     OW23668   1.928   2.246   2.811  0.1057 -0.2410  0.4930
 4069SOL    HW123669   1.853   2.212   2.762 -0.9991  1.4516  1.0072
 4069SOL    HW223670   1.986   2.275   2.740 -0.3686 -0.4057  0.0404
 4070SOL     OW23671   4.275   0.387   5.884 -0.3328 -0.1126 -0.3840
 4070SOL    HW123672   4.214   0.442   5.836 -1.9403  0.0436  1.8230
 4070SOL    HW223673   4.221   0.320   5.925  0.8435  0.6238  2.4167
 4071SOL     OW23674   1.407   4.336   0.789  0.4276  0.3524 -0.3989
 4071SOL    HW123675   1.334   4.312   0.846 -0.6852 -2.8214 -3.1224
 4071SOL    HW223676   1.375   4.419   0.755 -0.5636 -0.1303 -0.6565
 4072SOL     OW23677   4.613   2.932  15.011 -0.1972 -0.0018  0.3075
 4072SOL    HW123678   4.587   2.886  14.931 -1.2862 -2.1576  1.9405
 4072SOL    HW223679   4.707   2.926  14.994  0.1362  0.3359  2.0481
 4073SOL     OW23680   2.182   1.933   5.322 -0.9454  0.3606  0.4116
 4073SOL    HW123681   2.220   2.004   5.374  0.4898  0.8851 -1.3563
 4073SOL    HW223682   2.090   1.950   5.344 -1.8217 -0.5610 -2.5755
 4074SOL     OW23683   2.801   4.697  15.328  0.1742  0.2262 -0.3926
 4074SOL    HW123684   2.865   4.716  15.260 -0.5097 -0.7909 -1.3220
 4074SOL    HW223685   2.728   0.023  15.292  1.1106  2.5055  0.9433
 4075SOL     OW23686   4.657   0.615   4.412 -0.3251 -0.1605  0.4836
 4075SOL    HW123687   4.562   0.627   4.401 -0.2650  0.2227  0.3973
 4075SOL    HW223688   4.686   0.669   4.338 -1.0224  0.6586  0.8053
 4076SOL     OW23689   2.951   4.703   1.290 -0.4576 -0.3021 -0.1032
 4076SOL    HW123690   2.865   0.019   1.279  0.1013  1.1306  0.8305
 4076SOL    HW223691   2.924   4.611   1.288  0.9405 -0.7805  2.5389
 4077SOL     OW23692   4.700   3.419   7.381 -0.1527  0.0917  0.4173
 4077SOL    HW123693   4.650   3.437   7.301 -0.6370 -2.3089  0.1803
 4077SOL    HW223694   4.675   3.497   7.432  2.7719 -0.1645  2.2512
 4078SOL     OW23695   1.216   3.599   8.543 -0.0369  0.6465 -0.1271
 4078SOL    HW123696   1.210   3.552   8.626 -1.5947 -0.0258 -0.6184
 4078SOL    HW223697   1.155   3.672   8.558  0.5102  1.0945 -0.1155
 4079SOL     OW23698   3.075   1.351  10.263  0.6443 -0.1402 -0.1408
 4079SOL    HW123699   3.021   1.401  10.201  1.8373 -1.2028 -2.0554
 4079SOL    HW223700   3.059   1.260  10.238 -0.7155 -0.0662  0.4636
 4080SOL     OW23701   4.332   2.767   5.082  0.0339  0.1155 -0.2550
 4080SOL    HW123702   4.271   2.840   5.088 -1.2322 -0.9272 -0.3242
 4080SOL    HW223703   4.371   2.798   5.000 -0.5232  0.2897 -0.4478
 4081SOL     OW23704   0.047   3.085   4.510  0.1089 -0.3040  0.3722
 4081SOL    HW123705   0.028   2.999   4.474 -1.3035 -1.3063  3.4704
 4081SOL    HW223706   0.129   3.066   4.555  1.1452  0.3447 -1.2434
 4082SOL     OW23707   3.708   1.066  16.289 -0.0619 -0.2411  0.1628
 4082SOL    HW123708   3.670   1.104  16.210  1.4722 -1.8279 -1.3476
 4082SOL    HW223709   3.654   1.109  16.355 -0.6548 -0.9555  0.1386
 4083SOL     OW23710   0.133   1.443  15.002  0.2434  0.2211 -0.2196
 4083SOL    HW123711   0.056   1.492  14.975  0.5303  0.2779 -0.9274
 4083SOL    HW223712   0.206   1.495  14.969 -0.5620  1.1866 -0.4851
 4084SOL     OW23713   4.012   0.955   4.795 -0.0562 -0.5684  0.1976
 4084SOL    HW123714   4.085   0.964   4.856  0.6392 -2.3978 -0.3378
 4084SOL    HW223715   3.940   0.981   4.852 -1.4838 -1.5836 -1.1412
 4085SOL     OW23716   0.530   4.563  16.452 -0.1329 -0.0898 -0.6247
 4085SOL    HW123717   0.499   4.544  16.364 -2.0229  0.6075 -0.0977
 4085SOL    HW223718   0.462   4.511  16.496  0.4547 -1.0870 -0.8801
 4086SOL     OW23719   2.512   4.090   5.538  0.2890 -0.1434  0.1205
 4086SOL    HW123720   2.522   4.181   5.566  0.4846 -0.2039  0.2498
 4086SOL    HW223721   2.464   4.060   5.614 -2.0433  2.1671 -0.4662
 4087SOL     OW23722   4.647   3.799   8.579 -0.4734 -0.1736  0.2475
 4087SOL    HW123723   4.572   3.745   8.555 -1.2653  1.1406 -0.2232
 4087SOL    HW223724   4.631   3.850   8.659  0.5153 -1.1190  1.0522
 4088SOL     OW23725   4.341   2.942   0.958  0.0731  0.4830 -0.0646
 4088SOL    HW123726   4.399   2.965   1.031  0.7407  1.4760 -0.9024
 4088SOL    HW223727   4.403   2.919   0.889  0.8969 -1.2155  1.2575
 4089SOL     OW23728   1.249   3.537   2.130 -0.0594  0.1427 -0.7812
 4089SOL    HW123729   1.258   3.507   2.040 -1.7127 -0.5727 -0.7125
 4089SOL    HW223730   1.176   3.599   2.129  1.6911  2.2285  1.1519
 4090SOL     OW23731   2.659   3.190  13.435 -0.9923 -0.2461 -0.1362
 4090SOL    HW123732   2.721   3.170  13.365  0.0316  0.3478  0.6117
 4090SOL    HW223733   2.671   3.282  13.459 -1.0071 -0.3433  0.2457
 4091SOL     OW23734   1.631   0.169   3.368  0.1105 -0.0766  0.1904
 4091SOL    HW123735   1.679   0.184   3.287  1.2370 -1.7871  0.5422
 4091SOL    HW223736   1.625   0.073   3.360  0.8499  0.0702 -1.9631
 4092SOL     OW23737   0.396   4.385   0.815  0.2832 -0.1102 -0.5581
 4092SOL    HW123738   0.396   4.336   0.898  2.0056  0.3058 -0.3265
 4092SOL    HW223739   0.486   4.391   0.785  0.6120 -2.4259 -0.0555
 4093SOL     OW23740   1.533   3.529   7.037 -0.0762  0.2400  0.7435
 4093SOL    HW123741   1.527   3.479   7.119  1.1678 -0.4148  0.4332
 4093SOL    HW223742   1.447   3.570   7.033  0.7862  1.8976 -0.6254
 4094SOL     OW23743   2.694   1.170   9.452 -0.1244 -0.0342 -0.3534
 4094SOL    HW123744   2.614   1.171   9.505  1.2739  1.8509  1.7347
 4094SOL    HW223745   2.726   1.261   9.459 -1.1450  0.2720  0.3016
 4095SOL     OW23746   2.293   1.171  10.674 -0.0225  0.0875 -0.2336
 4095SOL    HW123747   2.314   1.101  10.736  0.5631  0.0917 -0.4246
 4095SOL    HW223748   2.376   1.218  10.680 -0.5755  1.3589 -2.6188
 4096SOL     OW23749   1.960   2.773   3.243 -0.1662  0.3856 -0.3925
 4096SOL    HW123750   1.982   2.753   3.152 -0.6785 -0.1388 -0.4069
 4096SOL    HW223751   1.865   2.777   3.247 -0.2142 -1.4582  0.9621
 4097SOL     OW23752   3.746   0.144   9.699  0.5944 -0.2972 -0.4909
 4097SOL    HW123753   3.838   0.163   9.721  0.3896 -3.1967  2.7724
 4097SOL    HW223754   3.711   0.229   9.671 -0.2149 -0.6828 -0.6238
 4098SOL     OW23755   1.782   1.523   3.176  0.5235 -0.4154 -0.2438
 4098SOL    HW123756   1.787   1.428   3.167 -0.7532 -0.3022 -2.2111
 4098SOL    HW223757   1.709   1.541   3.116 -0.2776  1.4732  1.2998
 4099SOL     OW23758   1.492   0.593   2.906  0.0469  0.1252 -0.2471
 4099SOL    HW123759   1.485   0.650   2.830 -0.3634 -0.6702 -0.8072
 4099SOL    HW223760   1.412   0.623   2.949  0.7064 -0.3784  1.3417
 4100SOL     OW23761   3.253   3.544   1.286 -0.1169 -0.1837  0.2119
 4100SOL    HW123762   3.340   3.503   1.281  0.3250  0.9602 -1.3476
 4100SOL    HW223763   3.234   3.515   1.376 -1.9775  1.1908  0.2641
 4101SOL     OW23764   0.326   2.581  10.070 -0.0898 -0.3122  0.5541
 4101SOL    HW123765   0.309   2.673  10.050  0.3885  0.1326  2.2086
 4101SOL    HW223766   0.422   2.587  10.075 -0.1219  2.7873 -2.2163
 4102SOL     OW23767   3.474   1.814   7.624 -0.2713 -0.2055  0.1534
 4102SOL    HW123768   3.532   1.779   7.557 -0.9510 -0.3921 -0.3440
 4102SOL    HW223769   3.449   1.732   7.666  0.6052  0.2831  1.6308
 4103SOL     OW23770   3.714   4.544   0.597 -0.0805 -0.0319 -0.6215
 4103SOL    HW123771   3.800   4.541   0.637 -0.5348 -1.6993  0.2122
 4103SOL    HW223772   3.664   4.568   0.675 -0.7961 -2.1608 -0.4223
 4104SOL     OW23773   4.586   1.681  15.023 -0.0337  0.5601  0.1103
 4104SOL    HW123774   4.501   1.721  15.001 -0.1945 -0.2048 -0.6740
 4104SOL    HW223775   4.612   1.636  14.943 -0.0774  1.3142 -0.3326
 4105SOL     OW23776   0.305   2.693  12.516  0.4299 -0.5775 -0.0497
 4105SOL    HW123777   0.359   2.745  12.456 -1.5607  1.0625 -0.4268
 4105SOL    HW223778   0.353   2.688  12.598  3.4781  0.3763 -1.7714
 4106SOL     OW23779   3.045   4.117   5.170  0.1869  0.1469 -0.3348
 4106SOL    HW123780   3.081   4.195   5.212 -0.4996 -0.8467  2.0985
 4106SOL    HW223781   3.045   4.056   5.244  1.0509  1.9365  1.1408
 4107SOL     OW23782   2.072   1.764   0.631  0.2531  0.0005  0.0025
 4107SOL    HW123783   1.986   1.720   0.626 -0.3667  1.1958  0.1010
 4107SOL    HW223784   2.115   1.702   0.690  0.2924  0.2583  0.2447
 4108SOL     OW23785   4.026   4.609  17.390 -0.2954  0.2688  0.2385
 4108SOL    HW123786   3.973   4.689  17.386  0.7337  1.0226  1.6191
 4108SOL    HW223787   3.964   4.541  17.366 -0.3781 -0.4222  2.3947
 4109SOL     OW23788   2.603   4.713  13.387  0.1715 -0.0213 -0.0423
 4109SOL    HW123789   2.656   0.055  13.431  0.4809  0.1656 -0.6941
 4109SOL    HW223790   2.668   4.644  13.399 -1.2233 -1.4212 -0.4531
 4110SOL     OW23791   2.020   4.404   6.275 -0.1555  0.0141 -0.0733
 4110SOL    HW123792   2.097   4.398   6.330 -1.1855  2.9965  1.7224
 4110SOL    HW223793   1.990   4.316   6.253  0.3886 -0.2283  0.1813
 4111SOL     OW23794   2.709   0.437   8.882 -0.4005 -0.4256  0.1725
 4111SOL    HW123795   2.757   0.475   8.956 -0.5510  3.3454 -1.6708
 4111SOL    HW223796   2.644   0.504   8.862  0.7320  0.2860 -1.1047
 4112SOL     OW23797   4.553   1.873   2.017  0.3776 -0.4284 -0.1256
 4112SOL    HW123798   4.594   1.958   2.036  0.9199 -0.4883 -1.0152
 4112SOL    HW223799   4.470   1.902   1.980  1.1669  1.8277 -0.1530
 4113SOL     OW23800   2.202   3.573   9.176 -0.0631  0.1878 -0.2824
 4113SOL    HW123801   2.165   3.512   9.239  2.2101  2.2524  2.9968
 4113SOL    HW223802   2.121   3.597   9.131 -0.0494 -0.3961 -0.6275
 4114SOL     OW23803   3.808   3.339   5.877  0.5083 -0.1385  0.0409
 4114SOL    HW123804   3.827   3.428   5.848  0.8931 -0.2457 -0.0433
 4114SOL    HW223805   3.713   3.331   5.881  0.4844 -0.2126 -0.5366
 4115SOL     OW23806   4.153   1.835   3.600  0.0662  0.2759 -0.3015
 4115SOL    HW123807   4.231   1.839   3.544 -0.5529  0.0854 -1.1698
 4115SOL    HW223808   4.152   1.740   3.613 -1.1707 -0.0607 -2.7603
 4116SOL     OW23809   1.973   4.526  13.002  0.4950 -0.6523  0.1741
 4116SOL    HW123810   1.910   4.538  13.074  1.7334  3.7925  0.5086
 4116SOL    HW223811   2.016   4.442  13.019 -1.1386 -1.9483 -2.1685
 4117SOL     OW23812   1.745   0.017   5.075 -0.4396 -0.4094 -0.6068
 4117SOL    HW123813   1.829   4.714   5.111 -1.2820  0.2407  1.7974
 4117SOL    HW223814   1.761   0.021   4.980 -0.9413  0.6129 -0.6492
 4118SOL     OW23815   3.987   0.778   4.091 -0.6325  0.2862  0.3379
 4118SOL    HW123816   3.965   0.854   4.036  0.3766  2.3490  2.8198
 4118SOL    HW223817   4.026   0.721   4.024  0.9649  0.6394  0.9789
 4119SOL     OW23818   1.567   2.709  14.097 -0.5460 -0.0888 -0.0343
 4119SOL    HW123819   1.650   2.682  14.056 -0.6093  1.3333 -1.1090
 4119SOL    HW223820   1.519   2.628  14.078 -2.4236  1.7150 -3.0311
 4120SOL     OW23821   3.682   1.809  13.251  0.2204 -0.0237  0.0472
 4120SOL    HW123822   3.611   1.850  13.300  1.2250  0.4444  1.0901
 4120SOL    HW223823   3.624   1.823  13.176 -0.1954 -3.3844 -0.2747
 4121SOL     OW23824   3.618   1.413   9.313  0.0344 -0.1928 -0.3237
 4121SOL    HW123825   3.600   1.357   9.238  0.4995  1.4758 -1.6821
 4121SOL    HW223826   3.713   1.402   9.323 -0.4093 -2.6939  1.1703
 4122SOL     OW23827   1.906   4.684   6.651 -0.4003 -0.0782  0.5740
 4122SOL    HW123828   1.905   0.006   6.568 -0.3244  0.5421  0.9180
 4122SOL    HW223829   1.920   4.600   6.609  0.4078 -0.0542  0.7878
 4123SOL     OW23830   0.924   1.858   1.575 -0.1174  0.1218  0.1783
 4123SOL    HW123831   0.917   1.812   1.659 -1.4612 -2.4174 -1.3512
 4123SOL    HW223832   0.864   1.806   1.522  0.0048 -0.3171  0.4750
 4124SOL     OW23833   2.617   1.268  13.263  0.4832 -0.0886  0.6244
 4124SOL    HW123834   2.688   1.320  13.225 -1.6490  1.6000 -1.0408
 4124SOL    HW223835   2.633   1.187  13.215 -2.4789  1.1755 -2.4841
 4125SOL     OW23836   2.807   0.041   4.591  0.2228 -0.2812 -0.6130
 4125SOL    HW123837   2.880   4.716   4.553  0.8366 -0.6258  1.0361
 4125SOL    HW223838   2.743   4.695   4.582  0.1686  0.0635 -3.1047
 4126SOL     OW23839   4.277   1.421  11.613 -0.0393  0.6247 -0.4919
 4126SOL    HW123840   4.226   1.403  11.534 -0.0963  1.6140 -0.6808
 4126SOL    HW223841   4.248   1.512  11.619  1.3796  1.0632 -0.2638
 4127SOL     OW23842   1.231   4.226  13.071  0.2361  0.0176 -0.1416
 4127SOL    HW123843   1.315   4.273  13.074 -0.0144  0.4482  0.2074
 4127SOL    HW223844   1.217   4.203  13.163 -0.0141  0.5096 -0.0518
 4128SOL     OW23845   0.515   0.423   3.311  0.3155  0.4145  0.0507
 4128SOL    HW123846   0.484   0.436   3.221  0.0798  0.4054  0.1317
 4128SOL    HW223847   0.510   0.328   3.324  0.5122  0.1345 -1.8765
 4129SOL     OW23848   0.034   0.129   5.426 -0.8740  0.6746  0.4295
 4129SOL    HW123849   0.019   0.217   5.461 -0.0779  1.2118 -0.5563
 4129SOL    HW223850   4.675   0.095   5.457 -0.7414  0.0816  0.1300
 4130SOL     OW23851   1.692   3.883   9.868  0.7455 -0.8083  0.5751
 4130SOL    HW123852   1.645   3.904   9.948  1.2717 -1.8460  1.1534
 4130SOL    HW223853   1.762   3.949   9.867 -0.7569  0.7706 -0.2856
 4131SOL     OW23854   1.867   2.699   0.992  0.1834  0.0008 -0.1834
 4131SOL    HW123855   1.821   2.636   1.048 -1.0667  0.7807 -0.3278
 4131SOL    HW223856   1.808   2.724   0.921  0.7419  0.7176 -0.4022
 4132SOL     OW23857   4.430   0.936   5.570 -0.1408  0.4523 -0.2789
 4132SOL    HW123858   4.426   0.858   5.625 -0.1641 -0.0516 -1.0000
 4132SOL    HW223859   4.448   0.903   5.482  2.8098 -1.1114  0.9009
 4133SOL     OW23860   4.258   2.060  11.107 -0.5167 -0.3750  0.3963
 4133SOL    HW123861   4.201   2.038  11.033  2.1863  0.8206 -2.0451
 4133SOL    HW223862   4.290   1.974  11.134  1.9634 -0.0596 -1.5466
 4134SOL     OW23863   3.573   4.131  15.583 -0.5211 -0.2208 -0.3398
 4134SOL    HW123864   3.613   4.064  15.528 -1.6371 -2.4376  1.5603
 4134SOL    HW223865   3.535   4.079  15.653  1.0031 -0.9701 -0.0670
 4135SOL     OW23866   3.785   1.674   5.921  0.1148  0.1431 -0.0253
 4135SOL    HW123867   3.697   1.679   5.958  0.2619 -0.6833  0.4459
 4135SOL    HW223868   3.800   1.765   5.897  1.9575  0.3401  1.8490
 4136SOL     OW23869   1.015   2.103   7.800 -0.1069  0.5359  0.6734
 4136SOL    HW123870   0.929   2.139   7.777  0.9059  2.0630 -0.6739
 4136SOL    HW223871   1.072   2.128   7.727 -1.4689  0.1347 -0.5295
 4137SOL     OW23872   4.673   3.218   2.149 -0.3571 -0.3329 -0.2752
 4137SOL    HW123873   4.685   3.226   2.244 -1.2248  1.9025 -0.3465
 4137SOL    HW223874   4.585   3.182   2.139  0.2082 -1.6907 -0.3657
 4138SOL     OW23875   1.339   2.545   6.452  0.2360  0.3494  0.0566
 4138SOL    HW123876   1.253   2.586   6.460  0.7318  1.3252  0.2653
 4138SOL    HW223877   1.394   2.605   6.402  1.1819 -0.7036 -0.1816
 4139SOL     OW23878   3.117   0.106  16.263 -0.4393  0.1953 -0.6357
 4139SOL    HW123879   3.149   0.029  16.216 -1.9698 -1.1921  0.5976
 4139SOL    HW223880   3.028   0.113  16.228 -1.3295  1.4731  1.9363
 4140SOL     OW23881   0.917   2.365  10.040  0.0475  0.1854 -0.3144
 4140SOL    HW123882   0.834   2.319  10.031  1.5719 -2.9977  1.5543
 4140SOL    HW223883   0.893   2.457  10.032 -0.2099  0.0669 -0.9513
 4141SOL     OW23884   0.309   2.682  13.853 -0.6732  0.2343  0.6020
 4141SOL    HW123885   0.378   2.742  13.882 -1.2798 -0.5349  3.6456
 4141SOL    HW223886   0.268   2.674  13.940  0.2240 -1.0404  0.9031
 4142SOL     OW23887   0.531   1.189   5.820  0.4870 -0.4891  0.7354
 4142SOL    HW123888   0.602   1.182   5.884 -0.0334  0.4279  1.4114
 4142SOL    HW223889   0.457   1.176   5.880 -0.1575  0.7068  0.1987
 4143SOL     OW23890   2.513   2.037   5.289 -0.8256 -0.1659  0.3396
 4143SOL    HW123891   2.530   2.099   5.360 -0.2802  0.9993 -0.8315
 4143SOL    HW223892   2.502   2.093   5.213  2.4972  1.6071  1.1899
 4144SOL     OW23893   4.249   2.245   8.051 -0.0604 -0.2024 -0.3045
 4144SOL    HW123894   4.300   2.312   8.005 -0.2632  0.5558  0.5722
 4144SOL    HW223895   4.175   2.243   7.991  1.2246 -0.4116 -1.8741
 4145SOL     OW23896   3.455   2.074   9.803  0.3189 -0.0215  0.0027
 4145SOL    HW123897   3.389   2.110   9.863  0.7420  1.0458 -0.1654
 4145SOL    HW223898   3.469   2.140   9.735  0.7759 -0.3862 -0.2554
 4146SOL     OW23899   2.090   0.817   5.923 -0.1572 -0.4005  0.4102
 4146SOL    HW123900   2.032   0.830   5.998  0.0775 -1.3561  0.7604
 4146SOL    HW223901   2.177   0.845   5.952  0.5013 -0.6127 -1.3561
 4147SOL     OW23902   0.217   2.176   7.982  0.2399  0.7739  0.1488
 4147SOL    HW123903   0.272   2.172   8.060 -1.0492  0.8929  1.0697
 4147SOL    HW223904   0.133   2.161   8.027 -0.3723 -1.2060 -1.6615
 4148SOL     OW23905   4.427   4.462  14.359  0.1037 -0.0392 -0.2161
 4148SOL    HW123906   4.394   4.550  14.377  0.4328  0.1971 -0.7512
 4148SOL    HW223907   4.343   4.418  14.347 -0.5482  0.7268  1.6832
 4149SOL     OW23908   3.209   1.609  15.586  0.5358 -0.1911 -0.4507
 4149SOL    HW123909   3.300   1.597  15.612  0.0391 -1.6107  0.6342
 4149SOL    HW223910   3.217   1.674  15.516  4.0780  0.8746  0.9140
 4150SOL     OW23911   2.140   1.803   4.218  0.1038 -0.1329  0.1252
 4150SOL    HW123912   2.143   1.707   4.212  0.4561 -0.1702  0.8791
 4150SOL    HW223913   2.163   1.824   4.308  1.0661  2.1607 -0.6612
 4151SOL     OW23914   1.744   1.340  15.984 -0.1358 -0.5681 -0.1691
 4151SOL    HW123915   1.805   1.358  16.056  0.0563 -0.4778 -0.3557
 4151SOL    HW223916   1.678   1.282  16.020 -1.3588  0.5503 -0.6062
 4152SOL     OW23917   3.756   1.472   1.661 -0.3229  0.0262 -0.2794
 4152SOL    HW123918   3.840   1.518   1.663 -1.5435  2.1172  1.7219
 4152SOL    HW223919   3.739   1.472   1.566 -3.4165  3.6186  0.2994
 4153SOL     OW23920   2.511   1.813   4.615  0.3929  0.1998  0.7655
 4153SOL    HW123921   2.428   1.842   4.651 -0.5837 -0.4725 -0.9571
 4153SOL    HW223922   2.570   1.880   4.651  0.9037 -0.3405  0.9280
 4154SOL     OW23923   2.628   3.510  13.034  0.4495  0.3430  0.5807
 4154SOL    HW123924   2.612   3.491  13.126 -0.3094  2.6169  0.9277
 4154SOL    HW223925   2.595   3.433  12.989 -1.4318  0.9228  0.9751
 4155SOL     OW23926   1.079   4.491  11.132 -0.5939  0.0764  0.1017
 4155SOL    HW123927   1.074   4.431  11.058  0.2403 -1.0971  0.9877
 4155SOL    HW223928   0.998   4.466  11.175 -0.9080 -0.6463 -0.9236
 4156SOL     OW23929   3.415   4.675   4.230 -0.3404 -0.8676  0.5370
 4156SOL    HW123930   3.355   4.721   4.171  1.5076  0.1329 -0.5634
 4156SOL    HW223931   3.371   4.693   4.313  0.9152  0.3218  0.9404
 4157SOL     OW23932   2.228   1.223   9.522 -0.1351 -0.0160 -0.3565
 4157SOL    HW123933   2.138   1.235   9.554  0.8844  1.5977  1.8492
 4157SOL    HW223934   2.217   1.255   9.432  2.0538  0.2876 -0.4975
 4158SOL     OW23935   2.737   0.932   2.657  0.3682 -0.1736 -0.0883
 4158SOL    HW123936   2.736   0.860   2.594 -0.2099  0.9977 -1.4425
 4158SOL    HW223937   2.648   0.919   2.691  0.8086  1.4152  1.6831
 4159SOL     OW23938   1.079   2.816   2.227 -0.5307  0.2045 -0.2091
 4159SOL    HW123939   1.032   2.894   2.255  0.5742  1.5503 -2.0529
 4159SOL    HW223940   1.012   2.756   2.258 -0.0270 -0.9207 -1.2984
 4160SOL     OW23941   2.989   3.876  12.874  0.3101 -0.2709  0.2743
 4160SOL    HW123942   2.913   3.902  12.925 -0.2850  0.8281 -1.1678
 4160SOL    HW223943   2.956   3.791  12.845 -1.8860  0.5670  0.3628
 4161SOL     OW23944   2.026   3.287   5.218  0.0856 -0.0984  0.4100
 4161SOL    HW123945   2.030   3.230   5.295 -0.0960  1.2106  1.3988
 4161SOL    HW223946   1.934   3.314   5.218 -0.0587 -0.6008 -2.2111
 4162SOL     OW23947   1.278   1.369   2.983  0.2799  0.0981  0.1998
 4162SOL    HW123948   1.334   1.426   2.931 -0.3559  1.7337  1.3136
 4162SOL    HW223949   1.300   1.281   2.952 -1.4851 -0.4808  0.5604
 4163SOL     OW23950   0.726   0.933   3.229 -0.0355  0.2127  0.3720
 4163SOL    HW123951   0.690   0.846   3.248  1.9774 -0.6636  0.2107
 4163SOL    HW223952   0.685   0.956   3.146  2.8826  3.8420 -0.0818
 4164SOL     OW23953   0.093   3.341   1.459  0.1703  0.1043  0.2539
 4164SOL    HW123954   0.048   3.276   1.512 -2.6365  0.8498 -1.2058
 4164SOL    HW223955   0.039   3.361   1.382 -0.4816  1.1376  0.9889
 4165SOL     OW23956   1.036   2.950   8.210  0.0410 -0.0089  0.2124
 4165SOL    HW123957   0.981   3.026   8.229  0.8317  0.7106 -0.4060
 4165SOL    HW223958   0.980   2.901   8.150  0.6230 -0.9967  0.4746
 4166SOL     OW23959   0.150   2.321   7.750 -0.4883  0.2474  0.3573
 4166SOL    HW123960   0.131   2.409   7.782 -2.1846 -0.4114  1.1943
 4166SOL    HW223961   0.165   2.268   7.828 -0.6052 -0.7369 -0.2870
 4167SOL     OW23962   3.077   1.836  13.061 -0.8100 -0.3563  0.3677
 4167SOL    HW123963   3.028   1.853  12.980 -1.1826  0.0524  0.6788
 4167SOL    HW223964   3.058   1.909  13.120 -0.4879  0.2708 -0.3160
 4168SOL     OW23965   2.511   0.630   3.893  0.2387 -0.8139  0.3308
 4168SOL    HW123966   2.593   0.594   3.926 -0.2928 -2.6451 -0.3246
 4168SOL    HW223967   2.533   0.715   3.854  0.2998 -1.2894 -0.6640
 4169SOL     OW23968   1.337   3.375   6.637  0.3107  0.3376  0.7558
 4169SOL    HW123969   1.354   3.468   6.622  1.0137  0.1469  0.3557
 4169SOL    HW223970   1.377   3.360   6.723  0.1458  0.0461  0.7789
 4170SOL     OW23971   4.614   3.637   2.227 -0.2720 -0.9418  0.4168
 4170SOL    HW123972   4.656   3.625   2.143 -2.4697  0.9154 -0.9489
 4170SOL    HW223973   4.524   3.664   2.207  0.3853 -0.3149 -1.5672
 4171SOL     OW23974   4.611   3.266   6.739 -0.2264  0.6426  0.6911
 4171SOL    HW123975   4.698   3.260   6.699  0.0131  1.5068  1.0813
 4171SOL    HW223976   4.627   3.206   6.812 -1.6270 -0.9168 -0.2808
 4172SOL     OW23977   2.856   0.371  11.252  0.0303  0.1905 -0.2348
 4172SOL    HW123978   2.813   0.356  11.168  0.5611  2.6048 -0.9261
 4172SOL    HW223979   2.828   0.457  11.283 -1.8399 -0.1169 -1.1008
 4173SOL     OW23980   0.088   3.447   0.778  0.0250  0.1267 -0.6108
 4173SOL    HW123981   0.079   3.361   0.737  0.9177 -0.5980  0.7381
 4173SOL    HW223982   0.069   3.426   0.869 -0.4432  1.2793 -0.4407
 4174SOL     OW23983   1.861   0.570   9.291 -0.2766  0.3103 -0.0189
 4174SOL    HW123984   1.888   0.478   9.292 -1.0433  0.0748 -0.7873
 4174SOL    HW223985   1.868   0.604   9.380 -1.0564 -0.2839  0.2708
 4175SOL     OW23986   0.694   3.527  14.396  0.1530 -0.2326 -0.1229
 4175SOL    HW123987   0.721   3.604  14.346 -0.3811  0.0756  0.0670
 4175SOL    HW223988   0.609   3.510  14.358  0.2756 -0.0646 -0.4709
 4176SOL     OW23989   1.941   1.114   4.002  0.0517 -0.2137  0.9489
 4176SOL    HW123990   1.855   1.149   3.982  0.3502 -0.4388 -0.7974
 4176SOL    HW223991   1.950   1.148   4.091 -1.2218 -1.6387  1.6203
 4177SOL     OW23992   1.681   3.327   7.947  0.2507  0.5296  0.2407
 4177SOL    HW123993   1.603   3.279   7.977  1.5722 -0.8258  1.4469
 4177SOL    HW223994   1.739   3.253   7.930  1.6277  1.6687  0.0560
 4178SOL     OW23995   1.938   4.151   6.185  0.0837 -0.6078 -0.4498
 4178SOL    HW123996   1.964   4.194   6.103  0.9855 -0.5114 -0.1166
 4178SOL    HW223997   2.008   4.091   6.213  2.0477  1.7767 -0.2640
 4179SOL     OW23998   4.007   3.281   4.213 -0.0333  0.1733  0.6719
 4179SOL    HW123999   3.997   3.310   4.123 -0.2442  0.5412  0.8142
 4179SOL    HW224000   3.953   3.342   4.264 -1.2709 -0.8611  0.5818
 4180SOL     OW24001   3.785   2.688   4.455  0.2017  0.0824 -0.3249
 4180SOL    HW124002   3.732   2.615   4.422 -0.3520  1.5834 -2.6827
 4180SOL    HW224003   3.767   2.758   4.393 -0.0017 -0.8994 -1.3814
 4181SOL     OW24004   0.775   4.019   7.520  0.5155  0.4780  0.0712
 4181SOL    HW124005   0.815   4.098   7.555  0.5623 -0.5235  2.3312
 4181SOL    HW224006   0.744   4.045   7.434  0.4071 -0.3540 -0.1489
 4182SOL     OW24007   3.160   2.006   2.242  0.7160  0.2250 -0.1741
 4182SOL    HW124008   3.158   1.948   2.318 -1.9568  2.5103  1.4991
 4182SOL    HW224009   3.069   2.006   2.212  0.1318 -0.7052  1.5439
 4183SOL     OW24010   4.513   3.109   0.628  0.5785  0.7103  0.2768
 4183SOL    HW124011   4.505   3.111   0.533 -0.7125  1.3586  0.3944
 4183SOL    HW224012   4.510   3.205   0.638  0.4938  0.7983 -0.5798
 4184SOL     OW24013   0.459   2.847  14.802 -0.8737  0.3203  0.3065
 4184SOL    HW124014   0.467   2.759  14.838 -0.5785  0.2106 -0.0286
 4184SOL    HW224015   0.491   2.830  14.714 -1.2508  3.0825 -0.3824
 4185SOL     OW24016   4.374   0.793  15.575 -0.0819  0.0160  0.1001
 4185SOL    HW124017   4.398   0.712  15.620 -2.5555 -0.1150  1.1671
 4185SOL    HW224018   4.452   0.842  15.547  1.2147 -0.6405  2.5760
 4186SOL     OW24019   4.211   3.159   3.006  0.0470 -0.5131 -0.5213
 4186SOL    HW124020   4.255   3.216   3.069  0.5749 -0.9975 -0.4586
 4186SOL    HW224021   4.282   3.127   2.950  0.0917 -0.9231 -0.2291
 4187SOL     OW24022   4.284   4.508   6.536 -0.1585 -0.7050 -0.4282
 4187SOL    HW124023   4.351   4.529   6.601  1.3892 -2.8341 -1.3047
 4187SOL    HW224024   4.241   4.593   6.537 -0.7549 -0.9952 -2.0042
 4188SOL     OW24025   0.771   0.847   7.296  0.2392  0.2295 -0.3563
 4188SOL    HW124026   0.730   0.764   7.322  1.0871 -0.1838 -0.3241
 4188SOL    HW224027   0.760   0.840   7.201  1.7281  1.6874 -0.6337
 4189SOL     OW24028   2.994   1.834   7.786 -0.0108 -0.2348 -0.1799
 4189SOL    HW124029   2.948   1.804   7.864 -1.7195 -1.1715 -1.5350
 4189SOL    HW224030   2.921   1.863   7.731 -0.2357 -1.3471 -0.4520
 4190SOL     OW24031   1.285   2.479   8.793  0.1115  0.3743 -0.0309
 4190SOL    HW124032   1.366   2.459   8.746  0.8879 -2.3800  2.4957
 4190SOL    HW224033   1.212   2.476   8.731 -0.3572  2.3017  0.4314
 4191SOL     OW24034   0.834   2.616   8.633  0.5108  0.1530 -0.4240
 4191SOL    HW124035   0.880   2.685   8.586  0.8032  1.7232  2.1812
 4191SOL    HW224036   0.828   2.655   8.720  0.8285 -0.8904  0.0676
 4192SOL     OW24037   2.005   4.653   2.728  0.4908  0.4316  0.0410
 4192SOL    HW124038   2.018   4.715   2.656 -0.4359 -0.3396 -0.7916
 4192SOL    HW224039   1.915   4.621   2.715  0.6673  0.1207 -0.4318
 4193SOL     OW24040   2.855   4.437   8.495 -0.4810  1.0197 -0.6413
 4193SOL    HW124041   2.934   4.420   8.443 -1.9420  1.3693 -2.9760
 4193SOL    HW224042   2.800   4.362   8.473 -2.5951  2.1904  0.7914
 4194SOL     OW24043   3.553   1.929  14.972 -0.1905 -0.5119 -0.9495
 4194SOL    HW124044   3.632   1.978  14.998 -0.7677 -1.3527  2.3623
 4194SOL    HW224045   3.560   1.848  15.021 -1.1397  0.1819  0.3415
 4195SOL     OW24046   4.242   2.782   6.949 -0.0226  0.2775 -0.7426
 4195SOL    HW124047   4.234   2.687   6.947 -2.0625  0.3709  2.1175
 4195SOL    HW224048   4.164   2.810   6.999  0.6933  1.5495 -0.3214
 4196SOL     OW24049   3.046   4.176   9.760  0.7492  0.4636 -0.2684
 4196SOL    HW124050   3.004   4.167   9.675  0.3705 -0.7680  0.0519
 4196SOL    HW224051   3.114   4.238   9.735  2.4241 -0.7783  1.1534
 4197SOL     OW24052   1.639   3.716  11.946  0.1764 -0.6260 -0.0474
 4197SOL    HW124053   1.616   3.744  12.035 -3.0656  1.3504 -1.5028
 4197SOL    HW224054   1.626   3.623  11.963  2.1260 -1.0499 -0.9919
 4198SOL     OW24055   0.392   4.393   2.562  0.3672  0.2322  0.0753
 4198SOL    HW124056   0.357   4.473   2.602 -2.4319 -1.9434  1.9761
 4198SOL    HW224057   0.322   4.329   2.568  1.7036 -1.4426 -2.4747
 4199SOL     OW24058   2.996   0.037   3.441 -1.0012 -0.0846 -0.3425
 4199SOL    HW124059   3.040   0.121   3.428 -0.7296 -0.2162 -0.2595
 4199SOL    HW224060   2.979   0.022   3.348  2.6983  2.2003 -1.3822
 4200SOL     OW24061   1.029   0.034  14.270 -0.2989  0.5409  0.1740
 4200SOL    HW124062   1.108   0.084  14.248  0.8962 -1.1832  0.5749
 4200SOL    HW224063   1.055   4.676  14.229  1.5213  0.7823  0.8225
 4201SOL     OW24064   2.421   2.376   3.771  0.4551 -0.0695  0.0107
 4201SOL    HW124065   2.445   2.285   3.788  3.7647  0.8652  0.3958
 4201SOL    HW224066   2.506   2.418   3.756  1.6521 -2.8006 -0.7938
 4202SOL     OW24067   2.770   4.178   4.729  0.6444  0.4186  0.3997
 4202SOL    HW124068   2.696   4.210   4.677  0.4267 -0.6563  0.0284
 4202SOL    HW224069   2.778   4.092   4.688 -2.3371  0.6161 -0.5989
 4203SOL     OW24070   3.606   2.000  12.698 -0.6891 -0.1318  1.2263
 4203SOL    HW124071   3.592   2.069  12.633 -1.0069  0.5765  2.0450
 4203SOL    HW224072   3.669   2.037  12.760  0.6006  4.1733 -2.6348
 4204SOL     OW24073   1.303   0.897   6.779  0.1396  0.2075  0.0887
 4204SOL    HW124074   1.285   0.818   6.728 -2.4307  0.6348  0.3026
 4204SOL    HW224075   1.217   0.900   6.822 -0.0477  0.3539 -0.2905
 4205SOL     OW24076   4.348   1.600   4.036 -0.2880  0.2447 -0.3756
 4205SOL    HW124077   4.380   1.595   3.946 -1.5697  0.2612 -0.8322
 4205SOL    HW224078   4.398   1.680   4.052  0.1235 -0.2907  1.0400
 4206SOL     OW24079   2.044   0.492   3.634 -0.2386  0.3233 -0.6155
 4206SOL    HW124080   2.011   0.574   3.670 -1.0953 -0.5225  0.5157
 4206SOL    HW224081   2.062   0.456   3.721 -2.0120 -0.9595 -0.7958
 4207SOL     OW24082   1.962   3.087   4.319 -0.4577 -0.9576 -0.2601
 4207SOL    HW124083   1.939   3.177   4.342  0.9152 -1.0856  1.5973
 4207SOL    HW224084   2.019   3.054   4.388  0.4875 -0.2628 -0.7101
 4208SOL     OW24085   1.550   1.983   1.008  0.5234  0.1444  0.1630
 4208SOL    HW124086   1.555   2.044   0.934 -0.8186  1.5632  1.2718
 4208SOL    HW224087   1.614   2.013   1.073 -0.8665  0.8325  1.2128
 4209SOL     OW24088   2.000   4.430  10.822 -0.2609 -0.5551 -0.2190
 4209SOL    HW124089   2.005   4.410  10.916  2.5050 -0.6233 -0.3692
 4209SOL    HW224090   2.077   4.483  10.803 -1.8835  0.4671 -3.9595
 4210SOL     OW24091   1.969   3.085   5.417 -0.4524  0.8502 -0.2956
 4210SOL    HW124092   1.982   3.097   5.511 -1.1597 -1.0163  0.0210
 4210SOL    HW224093   1.994   2.994   5.403 -0.6563  0.4623  1.8022
 4211SOL     OW24094   0.769   4.189  16.315  0.5622  0.1961  0.2529
 4211SOL    HW124095   0.839   4.207  16.253 -0.2160  0.0390 -0.6598
 4211SOL    HW224096   0.695   4.193  16.254 -0.5302  0.5175  1.5892
 4212SOL     OW24097   2.393   3.701   4.310  0.3705  0.2029 -0.1245
 4212SOL    HW124098   2.394   3.752   4.391 -0.3489 -1.1700  0.7597
 4212SOL    HW224099   2.484   3.673   4.299 -0.1512 -0.8376 -1.8195
 4213SOL     OW24100   2.987   3.514   8.932  0.3929 -0.2760  0.1103
 4213SOL    HW124101   2.938   3.596   8.938  0.2079 -0.4213  0.6225
 4213SOL    HW224102   2.990   3.482   9.023  0.9774 -0.1945  0.1188
 4214SOL     OW24103   4.105   2.336   3.404  0.1832  0.4845 -0.2649
 4214SOL    HW124104   4.117   2.295   3.319  0.1260 -0.6036  0.2514
 4214SOL    HW224105   4.098   2.253   3.451  0.4186  1.7313  1.9637
 4215SOL     OW24106   4.543   2.476   7.751  0.4203 -0.3708 -0.4844
 4215SOL    HW124107   4.519   2.406   7.690 -2.0365 -1.1056  1.3163
 4215SOL    HW224108   4.471   2.475   7.815  0.9573 -0.2465  0.1210
 4216SOL     OW24109   2.494   0.686   7.093 -0.1071  0.2730  0.3761
 4216SOL    HW124110   2.589   0.675   7.096 -0.1257 -0.1326 -0.2398
 4216SOL    HW224111   2.484   0.754   7.159  2.0283  1.3962 -0.4559
 4217SOL     OW24112   3.568   3.006   6.183  0.1078 -0.1986  0.1136
 4217SOL    HW124113   3.576   2.937   6.249 -2.1927  0.7341  1.3564
 4217SOL    HW224114   3.473   3.005   6.182  0.0964  0.9327 -0.1075
 4218SOL     OW24115   4.230   3.603   3.863  0.1727  0.2236 -0.0130
 4218SOL    HW124116   4.257   3.514   3.888 -0.0171  0.5261  1.2683
 4218SOL    HW224117   4.171   3.627   3.935 -0.1623  2.8470 -1.1867
 4219SOL     OW24118   3.121   1.344   5.169  0.3399  0.1198  0.2445
 4219SOL    HW124119   3.211   1.343   5.136  0.2828 -4.7364  0.2575
 4219SOL    HW224120   3.091   1.434   5.156  0.7232  0.0418 -1.2299
 4220SOL     OW24121   0.201   3.225   2.019  0.1765 -0.0376  0.0405
 4220SOL    HW124122   0.229   3.317   2.014 -1.4901  0.5989  2.0922
 4220SOL    HW224123   0.113   3.237   2.055 -1.1409  0.3874 -3.3268
 4221SOL     OW24124   4.271   1.127  16.093 -0.3538 -0.5729 -0.6047
 4221SOL    HW124125   4.189   1.163  16.126 -0.5601 -2.9445  1.3984
 4221SOL    HW224126   4.275   1.050  16.149  2.6941  1.2016  1.6133
 4222SOL     OW24127   0.754   1.196   7.859  0.2496 -0.3554  0.0970
 4222SOL    HW124128   0.758   1.215   7.953 -1.0480  1.2410 -0.1616
 4222SOL    HW224129   0.802   1.267   7.817 -0.7825  0.8801  0.9962
 4223SOL     OW24130   3.552   2.346   6.856  0.1782  0.2679  0.0372
 4223SOL    HW124131   3.469   2.373   6.896 -0.8787  1.6863 -3.1160
 4223SOL    HW224132   3.600   2.428   6.861  0.9302 -0.1164 -0.9945
 4224SOL     OW24133   2.968   2.005   7.159 -0.4105 -0.4927 -0.7627
 4224SOL    HW124134   2.965   1.915   7.189  0.2668 -0.4419 -0.5449
 4224SOL    HW224135   3.056   2.041   7.173 -1.0363  0.7055  0.1820
 4225SOL     OW24136   3.638   1.897   9.674 -0.2883  0.1631 -0.1096
 4225SOL    HW124137   3.594   1.945   9.744  1.0999  1.3682 -0.0600
 4225SOL    HW224138   3.565   1.874   9.617  0.3960 -0.9817 -0.5343
 4226SOL     OW24139   4.432   3.241   3.698 -0.5108 -0.6177 -0.2195
 4226SOL    HW124140   4.386   3.166   3.660 -1.8624  0.4689 -0.7176
 4226SOL    HW224141   4.438   3.226   3.792 -0.8151 -0.3072 -0.1505
 4227SOL     OW24142   0.573   2.764   4.037  0.3410  0.0320  0.4480
 4227SOL    HW124143   0.630   2.690   4.056 -0.0854 -1.1395 -2.6986
 4227SOL    HW224144   0.489   2.726   4.009  0.4530 -0.3149  0.5846
 4228SOL     OW24145   0.137   3.274   6.298 -0.1455 -0.0389  0.7807
 4228SOL    HW124146   0.170   3.244   6.213  0.3763  0.4403  0.8160
 4228SOL    HW224147   0.059   3.219   6.297  0.6872 -1.1440 -2.0327
 4229SOL     OW24148   3.473   0.214  12.869 -0.8866 -0.1142  0.3888
 4229SOL    HW124149   3.486   0.179  12.781  0.3341  0.3972  0.3673
 4229SOL    HW224150   3.508   0.139  12.917  0.2146  1.0735  1.4805
 4230SOL     OW24151   1.892   0.442   4.321  0.6226  0.6925  0.1887
 4230SOL    HW124152   1.940   0.452   4.403  2.0559 -0.5811 -0.4896
 4230SOL    HW224153   1.869   0.534   4.309  0.5765  0.6300 -0.2031
 4231SOL     OW24154   3.438   4.402   5.155 -0.0170  0.0069 -0.1208
 4231SOL    HW124155   3.439   4.443   5.069  0.3104 -0.2313 -0.2261
 4231SOL    HW224156   3.529   4.373   5.160 -0.6542 -1.6740  1.7446
 4232SOL     OW24157   4.017   3.840   7.959  0.0401  0.2033  0.1955
 4232SOL    HW124158   4.073   3.863   8.033 -0.6789  0.3615  0.6922
 4232SOL    HW224159   3.939   3.820   8.012 -2.1427 -0.8126 -3.3836
 4233SOL     OW24160   3.738   3.141  13.087  0.3486  0.4918  0.1076
 4233SOL    HW124161   3.685   3.079  13.036 -0.3226  1.7580 -0.7559
 4233SOL    HW224162   3.786   3.081  13.144  1.4200 -0.3977 -1.7145
 4234SOL     OW24163   0.966   1.789   6.875  0.3723  0.0869  0.2284
 4234SOL    HW124164   0.873   1.786   6.854  0.2700  0.3264  0.6291
 4234SOL    HW224165   0.959   1.819   6.966  2.2960 -1.1783  0.7879
 4235SOL     OW24166   0.669   2.462  15.394  0.3185  0.3020  0.0569
 4235SOL    HW124167   0.688   2.556  15.401 -1.0553  0.4252  1.8160
 4235SOL    HW224168   0.747   2.424  15.435  1.4403  2.1385 -0.3341
 4236SOL     OW24169   4.518   2.822   8.563 -0.0542 -0.1260 -0.6883
 4236SOL    HW124170   4.451   2.786   8.505  0.5264 -1.9622 -0.2244
 4236SOL    HW224171   4.520   2.753   8.629  0.4930  0.4694 -0.0726
 4237SOL     OW24172   2.452   1.186   3.282 -0.7466  0.0256 -0.4278
 4237SOL    HW124173   2.372   1.159   3.326  0.2446  0.1629  1.4643
 4237SOL    HW224174   2.518   1.154   3.344 -0.0799 -0.2184 -1.2474
 4238SOL     OW24175   4.441   1.927  16.319  0.5030 -0.3281 -0.3814
 4238SOL    HW124176   4.448   1.835  16.293  0.5200 -0.1365 -1.0643
 4238SOL    HW224177   4.520   1.963  16.279  0.8599 -0.7000 -0.0171
 4239SOL     OW24178   0.087   0.825   6.565  0.1618 -0.4242 -0.5385
 4239SOL    HW124179   0.048   0.762   6.506  2.6211 -1.2963 -1.2281
 4239SOL    HW224180   0.091   0.906   6.514 -1.6266  1.6800  2.5776
 4240SOL     OW24181   3.377   1.845   1.595  0.4391  0.1619  0.6573
 4240SOL    HW124182   3.349   1.929   1.631 -1.8912  0.0722 -1.0272
 4240SOL    HW224183   3.405   1.805   1.678 -2.1637 -0.3130  1.2963
 4241SOL     OW24184   1.477   2.371  17.210 -0.2223 -0.6403 -0.2326
 4241SOL    HW124185   1.531   2.449  17.213 -1.0147 -0.1651  1.3868
 4241SOL    HW224186   1.513   2.327  17.133 -2.9226 -0.8143 -1.4043
 4242SOL     OW24187   3.571   4.286   6.116 -0.1599 -0.1244  0.1447
 4242SOL    HW124188   3.506   4.304   6.183  1.1901 -0.3356  1.5260
 4242SOL    HW224189   3.544   4.197   6.094 -0.0189 -0.4314  1.1778
 4243SOL     OW24190   2.352   3.553   3.943  0.1517 -0.2951  0.3138
 4243SOL    HW124191   2.378   3.472   3.988  3.7433  0.6209 -0.1192
 4243SOL    HW224192   2.317   3.509   3.866  0.4003 -1.9137  1.1044
 4244SOL     OW24193   0.008   1.764   1.727  0.3119  0.2323  0.2478
 4244SOL    HW124194   4.724   1.778   1.632  0.6066 -0.2680  0.1421
 4244SOL    HW224195   4.655   1.803   1.766  1.8005 -0.5652  3.9758
 4245SOL     OW24196   0.185   2.844   3.410  0.4697  0.2107  0.1504
 4245SOL    HW124197   0.258   2.824   3.468 -1.3930 -2.3916  1.5507
 4245SOL    HW224198   0.181   2.760   3.364 -0.1852  0.5578 -0.4446
 4246SOL     OW24199   1.118   4.560   4.703 -0.3554  0.1545 -0.5206
 4246SOL    HW124200   1.175   4.487   4.681 -0.8987  0.2718 -2.3239
 4246SOL    HW224201   1.097   4.586   4.613  1.6151 -0.8371 -1.2581
 4247SOL     OW24202   0.093   2.724  14.384  0.3231 -0.0125  0.2770
 4247SOL    HW124203   0.129   2.810  14.409  3.2267 -1.4825  1.1924
 4247SOL    HW224204   0.021   2.710  14.445 -0.1988  0.3322 -0.2627
 4248SOL     OW24205   2.184   0.997   6.762 -0.0358  0.1189  0.6308
 4248SOL    HW124206   2.162   0.952   6.844  1.0238 -1.0671  0.2591
 4248SOL    HW224207   2.120   1.068   6.767  1.1433  1.1575  1.2506
 4249SOL     OW24208   3.530   2.278  12.772  0.4702 -0.2943  0.3618
 4249SOL    HW124209   3.513   2.301  12.864  0.5335 -0.0310  0.3071
 4249SOL    HW224210   3.445   2.246  12.742 -0.0132  1.3190  0.0105
 4250SOL     OW24211   0.339   0.439   2.792  0.4655  0.6431  0.4356
 4250SOL    HW124212   0.394   0.462   2.716  2.2542 -1.0981  1.1942
 4250SOL    HW224213   0.295   0.357   2.771  1.1675  0.9332 -2.3033
 4251SOL     OW24214   3.494   2.294   3.137 -0.2259 -0.0530 -0.1018
 4251SOL    HW124215   3.507   2.249   3.220  1.5168  0.3608 -0.1617
 4251SOL    HW224216   3.434   2.366   3.158  0.1497  0.6305 -1.3776
 4252SOL     OW24217   3.892   2.584   2.599 -0.1613  0.3459 -0.5003
 4252SOL    HW124218   3.846   2.502   2.619  1.0830 -0.4506 -0.9127
 4252SOL    HW224219   3.826   2.622   2.541  1.0895  1.5925 -1.1091
 4253SOL     OW24220   3.335   4.565   9.971 -0.5924 -0.8524  0.2008
 4253SOL    HW124221   3.388   4.521  10.038  0.0900 -0.5415 -0.1354
 4253SOL    HW224222   3.327   4.496   9.905  0.2277  0.9829 -1.8224
 4254SOL     OW24223   0.265   3.010   4.680 -0.0730  0.3713 -0.5612
 4254SOL    HW124224   0.256   2.949   4.754  0.4613 -0.0554 -0.8441
 4254SOL    HW224225   0.350   2.998   4.638 -0.0011 -1.3217  0.0676
 4255SOL     OW24226   3.547   2.969   9.593  0.2357  0.0479 -0.6931
 4255SOL    HW124227   3.544   3.056   9.634 -1.0512 -1.2843  2.0616
 4255SOL    HW224228   3.501   2.997   9.514  0.5591  1.2531 -0.4527
 4256SOL     OW24229   0.067   2.093   4.410 -0.1458 -0.9732 -0.2966
 4256SOL    HW124230   0.134   2.161   4.420 -0.1901 -1.0130  0.3193
 4256SOL    HW224231   0.130   2.022   4.397  1.5968  0.3212  1.0129
 4257SOL     OW24232   3.942   2.083   5.137  0.5938 -0.1459  0.0044
 4257SOL    HW124233   3.896   2.072   5.054  0.0044  2.9941 -0.0922
 4257SOL    HW224234   3.886   2.133   5.197 -0.0488  1.2286 -1.7369
 4258SOL     OW24235   4.296   1.800   6.765 -0.0727 -0.1678  0.7703
 4258SOL    HW124236   4.351   1.762   6.697 -1.5341 -0.6521 -0.1575
 4258SOL    HW224237   4.265   1.718   6.805 -4.1390  0.8200 -0.3260
 4259SOL     OW24238   1.772   3.406   0.647 -0.2376  0.5012  0.5377
 4259SOL    HW124239   1.712   3.337   0.672  2.9344 -2.0429  1.2066
 4259SOL    HW224240   1.715   3.483   0.649  0.9997  1.5301 -2.8497
 4260SOL     OW24241   1.996   3.938   5.970  0.4336  0.7716  0.0388
 4260SOL    HW124242   1.946   3.936   5.889  0.1790  1.9617  0.1752
 4260SOL    HW224243   2.054   4.009   5.942  0.4151  0.2246 -1.3958
 4261SOL     OW24244   0.892   4.621   8.089 -0.2954 -0.0843  0.5192
 4261SOL    HW124245   0.934   4.575   8.017 -0.1338  1.4274 -0.3500
 4261SOL    HW224246   0.926   4.710   8.090 -0.7490  0.0698  3.2501
 4262SOL     OW24247   4.685   4.065   5.780 -0.0896  0.6024 -0.2884
 4262SOL    HW124248   0.045   4.023   5.764  0.9458  1.9804  1.5649
 4262SOL    HW224249   4.625   4.016   5.724 -1.8479  0.1109  2.0107
 4263SOL     OW24250   0.866   1.561   3.789 -0.5255 -0.2769  0.3768
 4263SOL    HW124251   0.871   1.465   3.789 -1.3098 -0.3021  3.1635
 4263SOL    HW224252   0.958   1.570   3.815 -0.2432 -2.9829  0.2935
 4264SOL     OW24253   3.223   4.463   3.645  0.1132  0.2609  0.2148
 4264SOL    HW124254   3.293   4.511   3.601  0.1075  0.7685  0.7660
 4264SOL    HW224255   3.168   4.451   3.567  0.3104 -1.7471  0.3719
 4265SOL     OW24256   1.320   1.161  13.100  0.1697 -0.0155  0.0963
 4265SOL    HW124257   1.314   1.069  13.074 -0.9496 -0.1343  0.8237
 4265SOL    HW224258   1.238   1.156  13.149  2.0992 -3.4793  2.9080
 4266SOL     OW24259   1.314   1.449   4.299  0.2602  0.4108  0.3664
 4266SOL    HW124260   1.230   1.496   4.299 -0.3141 -0.6383  1.2211
 4266SOL    HW224261   1.307   1.404   4.383 -1.0832  1.1501  0.6558
 4267SOL     OW24262   1.239   1.829  11.809  0.3657  0.9833  0.2652
 4267SOL    HW124263   1.306   1.760  11.814 -0.2152  0.6126  2.8246
 4267SOL    HW224264   1.163   1.798  11.761  1.9018 -1.0110 -0.9068
 4268SOL     OW24265   1.808   1.454   6.881  0.0095  0.2770  0.4802
 4268SOL    HW124266   1.794   1.372   6.928  0.8649  0.4494  1.0295
 4268SOL    HW224267   1.724   1.480   6.842  0.3094  0.4266 -0.0692
 4269SOL     OW24268   0.899   1.184   3.757 -0.2991  0.5846  0.2089
 4269SOL    HW124269   0.810   1.187   3.723  0.2793 -0.5828 -1.4184
 4269SOL    HW224270   0.878   1.158   3.847 -1.1239 -2.5432 -0.8774
 4270SOL     OW24271   3.099   3.358   3.256  0.1634 -0.0718 -0.1172
 4270SOL    HW124272   3.192   3.353   3.234  0.4654 -0.4153  1.2208
 4270SOL    HW224273   3.097   3.277   3.308  2.9487  0.7586  1.2852
 4271SOL     OW24274   4.104   0.710  15.786  0.2783  0.5584 -0.1341
 4271SOL    HW124275   4.048   0.710  15.864  2.5344  1.3930  1.4617
 4271SOL    HW224276   4.124   0.616  15.781  0.0831  0.4459  1.1789
 4272SOL     OW24277   0.996   2.262   4.431 -0.5362 -0.1715  0.1412
 4272SOL    HW124278   1.040   2.253   4.516  0.5785 -2.1326 -0.6543
 4272SOL    HW224279   0.936   2.333   4.454  0.2806  0.6500 -0.2741
 4273SOL     OW24280   3.382   1.554   4.448  0.0452 -0.3259 -0.5617
 4273SOL    HW124281   3.373   1.605   4.368  2.5894 -0.1529 -0.7354
 4273SOL    HW224282   3.377   1.466   4.411 -0.4482 -0.1250 -0.9699
 4274SOL     OW24283   1.547   2.632   5.102 -0.2281  0.0748  0.0034
 4274SOL    HW124284   1.635   2.664   5.122 -0.7502  1.1725  0.5807
 4274SOL    HW224285   1.537   2.554   5.157  1.1292  1.7833  2.6581
 4275SOL     OW24286   2.607   1.230   2.781  0.3010  0.3553 -0.0924
 4275SOL    HW124287   2.613   1.193   2.693 -3.4173 -2.3997  0.8145
 4275SOL    HW224288   2.588   1.154   2.835 -1.8834  0.3571 -0.8533
 4276SOL     OW24289   4.107   0.121  14.306 -0.4463  0.3311  0.1819
 4276SOL    HW124290   4.200   0.107  14.322 -0.6047 -0.9119 -0.0289
 4276SOL    HW224291   4.106   0.212  14.274 -1.6620 -0.1010 -0.9996
 4277SOL     OW24292   1.883   4.075   8.324 -0.1633 -0.3972  0.3113
 4277SOL    HW124293   1.959   4.018   8.334  0.5505  0.0100 -2.7421
 4277SOL    HW224294   1.824   4.011   8.284 -2.3370  1.1078  1.1029
 4278SOL     OW24295   2.454   0.134   4.867 -0.7161 -0.4950 -0.0278
 4278SOL    HW124296   2.451   0.226   4.893 -0.3751 -0.1069 -1.4045
 4278SOL    HW224297   2.494   0.132   4.781  0.4771 -2.7981  0.5661
 4279SOL     OW24298   1.881   2.162  12.058 -0.1708 -0.3987  0.3866
 4279SOL    HW124299   1.870   2.107  12.136  0.0240 -3.2277 -1.5656
 4279SOL    HW224300   1.836   2.111  11.991 -1.5959 -2.1964  2.7191
 4280SOL     OW24301   3.361   2.132  13.015 -0.0791 -0.3219 -0.2940
 4280SOL    HW124302   3.267   2.142  13.029  0.4291  2.3834  1.3080
 4280SOL    HW224303   3.389   2.221  13.037 -0.6374 -0.7542  2.1989
 4281SOL     OW24304   0.118   2.289   3.224  0.2879 -0.2507 -0.1145
 4281SOL    HW124305   0.163   2.303   3.307 -0.5517 -1.6733  0.5788
 4281SOL    HW224306   0.032   2.262   3.255 -0.8311  3.2808 -0.0566
 4282SOL     OW24307   1.640   3.495  10.786  0.5494  0.1268  0.2891
 4282SOL    HW124308   1.701   3.498  10.712 -1.2500  0.0413 -1.2087
 4282SOL    HW224309   1.563   3.505  10.730  1.4310 -1.2285 -1.1553
 4283SOL     OW24310   1.847   3.812   3.436 -0.0740 -0.1292  0.2829
 4283SOL    HW124311   1.939   3.830   3.416 -0.2023 -1.3736 -1.3934
 4283SOL    HW224312   1.849   3.853   3.522 -1.2265 -0.1671  0.3308
 4284SOL     OW24313   2.414   3.485   7.632  0.0553  0.2658  0.1693
 4284SOL    HW124314   2.386   3.570   7.600  0.7055  0.3462 -0.1741
 4284SOL    HW224315   2.475   3.475   7.559 -0.1338 -0.3405  0.0955
 4285SOL     OW24316   1.744   0.778   8.934  0.2312 -0.8658  0.0520
 4285SOL    HW124317   1.723   0.739   8.849  2.3792  1.0206 -1.3138
 4285SOL    HW224318   1.719   0.869   8.920  1.3278 -0.2221  2.2545
 4286SOL     OW24319   2.575   3.001  16.622 -0.4863 -0.4609 -0.5229
 4286SOL    HW124320   2.536   3.044  16.546 -3.4602 -0.6648  0.8791
 4286SOL    HW224321   2.641   3.060  16.659  0.8868 -1.6991 -1.0054
 4287SOL     OW24322   1.335   0.661   8.371  0.5948 -0.0781  0.2862
 4287SOL    HW124323   1.268   0.722   8.402 -2.7057 -2.6770 -1.8158
 4287SOL    HW224324   1.282   0.582   8.370  0.4437  0.0152  0.8632
 4288SOL     OW24325   0.630   3.125   7.160  0.4303 -0.2013  0.1629
 4288SOL    HW124326   0.600   3.202   7.209  2.8173 -0.2042  1.6661
 4288SOL    HW224327   0.706   3.167   7.120 -1.0132 -0.0393 -2.3503
 4289SOL     OW24328   4.172   0.012   5.536  0.1128  0.2125  0.5049
 4289SOL    HW124329   4.118   4.671   5.580 -1.2784 -0.2060 -1.8533
 4289SOL    HW224330   4.140   0.093   5.576 -3.3636 -0.1527 -1.5802
 4290SOL     OW24331   3.322   0.030   8.281 -0.1236 -0.3587 -0.1457
 4290SOL    HW124332   3.401   0.083   8.274 -0.3425  0.1169  0.9571
 4290SOL    HW224333   3.273   0.086   8.342 -0.7466  1.0700 -1.9498
 4291SOL     OW24334   3.961   2.433  16.337 -0.4264  0.6749 -0.1904
 4291SOL    HW124335   3.904   2.417  16.412  0.7898 -0.1294  0.5623
 4291SOL    HW224336   3.905   2.486  16.280 -0.4212 -0.2637 -1.0626
 4292SOL     OW24337   2.765   4.469   8.105  0.3255 -0.3419 -0.2367
 4292SOL    HW124338   2.720   4.384   8.100 -1.5996  0.5516  1.9716
 4292SOL    HW224339   2.855   4.446   8.130  0.3773  0.7808  0.5842
 4293SOL     OW24340   2.717   1.504  10.906  0.3217  0.2931  0.0465
 4293SOL    HW124341   2.710   1.598  10.889 -2.0233 -0.1605 -1.6304
 4293SOL    HW224342   2.733   1.479  10.815  0.6632 -3.2127  1.0799
 4294SOL     OW24343   0.030   4.500  10.534 -0.1221  0.0386 -0.2270
 4294SOL    HW124344   0.074   4.430  10.485  3.1855  0.8920  1.5006
 4294SOL    HW224345   4.665   4.470  10.522  0.2701 -0.3522 -2.1183
 4295SOL     OW24346   2.007   3.309   9.106 -0.1835  0.5988  0.1952
 4295SOL    HW124347   1.944   3.323   9.035 -0.3266 -0.4893  0.1089
 4295SOL    HW224348   2.055   3.230   9.081  0.1768  1.4299 -1.7935
 4296SOL     OW24349   2.348   4.573   2.659  0.2122 -0.6727  0.8182
 4296SOL    HW124350   2.304   4.542   2.738 -1.7839  1.6737  0.6283
 4296SOL    HW224351   2.355   4.489   2.614 -0.2870  0.4465 -1.3774
 4297SOL     OW24352   4.591   4.556   0.214 -0.5732 -0.3592  0.0091
 4297SOL    HW124353   4.601   4.461   0.207 -0.2906 -0.3577  0.4199
 4297SOL    HW224354   4.498   4.562   0.190 -0.3931 -0.6442 -0.7635
 4298SOL     OW24355   2.069   0.093   2.511  0.5667  0.0592 -1.0639
 4298SOL    HW124356   2.151   0.103   2.463  0.6693  3.1457 -0.2226
 4298SOL    HW224357   2.009   0.155   2.470 -2.0922 -1.5496  0.4477
 4299SOL     OW24358   0.481   2.822  17.371  0.0546 -0.0397  0.1036
 4299SOL    HW124359   0.496   2.747  17.313 -0.0189  2.0889 -2.6083
 4299SOL    HW224360   0.398   2.802  17.414 -0.2824 -3.0132 -1.9337
 4300SOL     OW24361   0.741   4.527   7.430 -0.2574  0.9981 -0.0810
 4300SOL    HW124362   0.824   4.479   7.430 -0.3353  0.8649 -0.0059
 4300SOL    HW224363   0.690   4.464   7.482  3.0091  0.0277  1.9414
 4301SOL     OW24364   2.690   0.979   8.995 -0.0076 -0.1163  0.7047
 4301SOL    HW124365   2.661   0.926   8.920  1.1625  0.3176 -0.0616
 4301SOL    HW224366   2.779   0.953   9.021  0.3659 -3.1544 -3.5885
 4302SOL     OW24367   1.756   2.050   9.695  0.4713  0.0967  0.6320
 4302SOL    HW124368   1.777   2.038   9.602 -0.4973  0.9523  0.3005
 4302SOL    HW224369   1.819   2.118   9.720  1.9622 -0.3995 -1.7956
 4303SOL     OW24370   2.557   0.170   4.618  0.0690 -0.3271 -0.1949
 4303SOL    HW124371   2.518   0.125   4.543  0.0597 -0.0632 -0.3500
 4303SOL    HW224372   2.646   0.136   4.610 -0.8486 -2.8024 -0.0110
 4304SOL     OW24373   2.210   1.959   8.583  0.4397 -0.2673 -0.6351
 4304SOL    HW124374   2.231   1.866   8.582  0.5039 -0.2427 -1.5773
 4304SOL    HW224375   2.114   1.954   8.581  0.4322 -0.1761 -0.4387
 4305SOL     OW24376   2.583   1.462   4.690 -0.5576  0.1797  0.2613
 4305SOL    HW124377   2.553   1.412   4.614 -1.4600  1.4044 -0.1965
 4305SOL    HW224378   2.622   1.536   4.644 -0.2281 -0.0356  0.1993
 4306SOL     OW24379   1.964   2.420   0.481  0.1384  0.4825  0.2981
 4306SOL    HW124380   1.871   2.427   0.459 -0.1526  2.4020  2.1351
 4306SOL    HW224381   1.969   2.408   0.576 -0.6475 -0.7749  0.1790
 4307SOL     OW24382   4.238   2.948   9.354 -0.0984  0.2034  0.3318
 4307SOL    HW124383   4.259   2.936   9.446 -1.5503  1.0024  0.7608
 4307SOL    HW224384   4.294   3.021   9.326 -0.2720  0.8821  1.7850
 4308SOL     OW24385   0.156   4.497   0.745  0.1607 -0.4596  1.0320
 4308SOL    HW124386   0.247   4.465   0.743  0.2590 -0.0879 -0.7565
 4308SOL    HW224387   0.143   4.512   0.651  0.2399  2.1609  1.4648
 4309SOL     OW24388   0.022   0.548   1.833  0.2080  0.1078 -0.2693
 4309SOL    HW124389   0.113   0.520   1.842  0.2952  0.7688  0.8639
 4309SOL    HW224390   0.025   0.634   1.874  2.6062  0.2713 -0.8258
 4310SOL     OW24391   1.206   1.770   5.686  0.0371  0.1966 -0.2675
 4310SOL    HW124392   1.286   1.717   5.678 -0.5035 -0.6502 -0.1017
 4310SOL    HW224393   1.227   1.805   5.773 -2.0037 -0.5982  0.5479
 4311SOL     OW24394   3.994   1.502   8.745  0.7189  0.3405 -0.5934
 4311SOL    HW124395   4.048   1.425   8.725 -0.5800 -0.3238 -1.4923
 4311SOL    HW224396   3.918   1.480   8.691 -0.2573  1.7289  0.2206
 4312SOL     OW24397   2.879   4.505   2.758 -0.2324 -0.8070  0.4091
 4312SOL    HW124398   2.812   4.456   2.710  1.2649 -0.9933 -1.4986
 4312SOL    HW224399   2.956   4.465   2.718 -0.1873 -1.1705  0.8658
 4313SOL     OW24400   3.460   1.986   2.222  0.5944  0.3552  0.1178
 4313SOL    HW124401   3.437   1.914   2.164 -0.0320 -0.9112  1.9262
 4313SOL    HW224402   3.369   2.013   2.235  0.5402 -0.7013  2.0152
 4314SOL     OW24403   4.685   1.394   8.956  0.4012 -0.3415  0.2630
 4314SOL    HW124404   4.722   1.463   9.011 -0.0708  1.9690 -2.2840
 4314SOL    HW224405   4.622   1.358   9.018 -1.0768  3.2670  0.8456
 4315SOL     OW24406   1.099   1.329   7.160 -0.5309 -0.4480  0.6184
 4315SOL    HW124407   1.012   1.364   7.140 -0.6210 -0.0828  1.6551
 4315SOL    HW224408   1.075   1.237   7.149 -2.9098  0.0871  1.1819
 4316SOL     OW24409   4.259   2.152  17.468  0.6506  0.4286  0.1242
 4316SOL    HW124410   4.298   2.189  17.548 -0.9650  0.5343  0.8621
 4316SOL    HW224411   4.184   2.104  17.504  1.4908 -0.0837  1.1853
 4317SOL     OW24412   0.570   3.168  16.117 -0.0549  0.3522  0.3813
 4317SOL    HW124413   0.502   3.148  16.181 -1.6601 -0.4380 -1.6004
 4317SOL    HW224414   0.552   3.095  16.059 -2.1291  0.1261  1.3310
 4318SOL     OW24415   1.036   3.062   2.875 -0.6146 -0.4259 -0.0410
 4318SOL    HW124416   0.967   3.082   2.938 -0.4598  0.2699 -0.0915
 4318SOL    HW224417   1.062   2.975   2.906  1.5859 -0.1233 -1.0737
 4319SOL     OW24418   3.158   1.756   3.703  0.3356  0.0076  0.2533
 4319SOL    HW124419   3.224   1.691   3.726 -1.1919 -1.9537 -0.9461
 4319SOL    HW224420   3.148   1.751   3.608 -0.2529  0.2430  0.3015
 4320SOL     OW24421   3.369   1.594   9.047  0.4213 -0.3752  0.0235
 4320SOL    HW124422   3.308   1.584   9.120  1.3864  1.3016  1.0823
 4320SOL    HW224423   3.353   1.688   9.039 -0.7418 -0.7859 -2.3025
 4321SOL     OW24424   2.377   3.546   0.708 -0.2421 -0.9225  0.0406
 4321SOL    HW124425   2.298   3.545   0.653 -0.9975 -0.6854  1.1163
 4321SOL    HW224426   2.382   3.642   0.715  0.3106 -0.7961 -2.0543
 4322SOL     OW24427   1.963   3.361   4.324 -0.0237  0.3208 -0.3225
 4322SOL    HW124428   1.906   3.426   4.283  0.2980  0.8270  0.0375
 4322SOL    HW224429   2.044   3.412   4.324  0.7358 -0.8811 -1.2193
 4323SOL     OW24430   1.841   1.672   9.411  0.2858  0.4283 -0.2528
 4323SOL    HW124431   1.748   1.688   9.393  0.9355  3.1178 -1.2245
 4323SOL    HW224432   1.846   1.713   9.498  1.2898 -1.6021  0.6311
 4324SOL     OW24433   1.448   1.018  17.169  0.0660 -0.9280  0.1609
 4324SOL    HW124434   1.497   1.093  17.203 -0.7416 -1.5533  2.7222
 4324SOL    HW224435   1.478   0.949  17.229  1.0686  0.7916  1.6160
 4325SOL     OW24436   4.097   3.009  13.576 -0.1550 -0.0296 -0.4966
 4325SOL    HW124437   4.065   2.983  13.489  0.6692  0.0344 -0.8185
 4325SOL    HW224438   4.036   3.080  13.598  0.7918  0.3495  0.9266
 4326SOL     OW24439   4.025   0.498   0.785  0.4287 -0.0340  0.0890
 4326SOL    HW124440   4.043   0.513   0.693  0.8050  1.2018  0.3602
 4326SOL    HW224441   4.037   0.403   0.794  1.9038  0.2081  0.7169
 4327SOL     OW24442   1.030   2.692   7.650  1.0052  0.1577 -0.0548
 4327SOL    HW124443   1.062   2.780   7.633  1.7563  0.1253  1.1918
 4327SOL    HW224444   1.000   2.682   7.560  0.2614  1.3904  0.0569
 4328SOL     OW24445   3.839   1.756  16.972 -0.7425 -0.1338  0.4847
 4328SOL    HW124446   3.819   1.767  16.879 -2.9077  2.1978  1.2423
 4328SOL    HW224447   3.776   1.817  17.011  0.9740  0.4252  2.4033
 4329SOL     OW24448   0.306   4.508   7.488 -0.4637 -0.3198  0.2280
 4329SOL    HW124449   0.295   4.599   7.461 -1.6401 -1.4571 -3.1478
 4329SOL    HW224450   0.297   4.520   7.582 -0.0292 -0.4726  0.2929
 4330SOL     OW24451   4.229   1.774  13.872 -0.3130 -0.1237  0.1344
 4330SOL    HW124452   4.190   1.829  13.941 -1.3365  0.0100 -0.5407
 4330SOL    HW224453   4.153   1.717  13.858 -0.2100 -0.5136  1.1744
 4331SOL     OW24454   4.650   1.052   8.010  0.3919 -0.0818 -0.6625
 4331SOL    HW124455   4.705   0.973   8.012  2.3189  1.2415 -1.5631
 4331SOL    HW224456   4.588   1.027   7.942  2.3011 -0.3529 -2.2996
 4332SOL     OW24457   0.031   0.503   4.628  0.1999 -0.1465  0.4251
 4332SOL    HW124458   4.717   0.538   4.547 -2.0321  0.2131  1.6355
 4332SOL    HW224459   0.038   0.581   4.684  1.6327  1.4735 -2.0232
 4333SOL     OW24460   1.820   3.903   0.138 -0.0665 -0.2068 -0.1696
 4333SOL    HW124461   1.739   3.951   0.120  0.1383 -0.3188 -1.4131
 4333SOL    HW224462   1.847   3.876   0.050  0.3884  2.7528 -0.9508
 4334SOL     OW24463   1.287   3.933   8.646  0.1924  0.4561 -0.2750
 4334SOL    HW124464   1.208   3.880   8.635 -1.1313  2.3760 -0.0895
 4334SOL    HW224465   1.285   3.949   8.740  0.1880 -0.2971 -0.1447
 4335SOL     OW24466   1.940   3.089  17.545  0.1031 -0.0624 -0.1347
 4335SOL    HW124467   1.893   3.171  17.562  1.6268  1.0417 -1.3430
 4335SOL    HW224468   1.868   3.031  17.518  0.4941  0.7719 -2.9836
 4336SOL     OW24469   1.184   2.295   1.190  0.1509  1.0393 -0.0397
 4336SOL    HW124470   1.171   2.347   1.270 -1.5743  1.1042 -0.3762
 4336SOL    HW224471   1.110   2.315   1.134  0.1615  1.2101  0.0084
 4337SOL     OW24472   4.205   0.424   1.845  0.1886  0.3586  0.5105
 4337SOL    HW124473   4.169   0.394   1.761 -0.9385 -0.4791  1.2932
 4337SOL    HW224474   4.254   0.344   1.865 -1.1403 -0.1418  1.7562
 4338SOL     OW24475   4.068   1.221  11.289  0.2954 -0.1021 -0.1218
 4338SOL    HW124476   4.037   1.312  11.280  0.1595 -0.1742 -0.3853
 4338SOL    HW224477   4.040   1.197  11.377  0.3793  0.1121 -0.0372
 4339SOL     OW24478   1.923   1.626   9.994 -0.1202  0.1423  0.1058
 4339SOL    HW124479   1.883   1.545  10.025  1.8959  0.3465  3.2035
 4339SOL    HW224480   1.872   1.646   9.915 -0.0339 -1.2381 -0.2851
 4340SOL     OW24481   0.661   0.371   8.072  0.9222  0.7599 -0.2364
 4340SOL    HW124482   0.716   0.379   8.149  1.2525  1.1036 -0.5087
 4340SOL    HW224483   0.572   0.353   8.103  0.5698  2.4474 -0.2401
 4341SOL     OW24484   1.628   3.688   1.168 -0.6720  0.1276 -0.0553
 4341SOL    HW124485   1.637   3.757   1.102  1.6586  0.4748  0.6554
 4341SOL    HW224486   1.718   3.683   1.201  0.2394 -0.8896 -2.7099
 4342SOL     OW24487   2.562   1.817  14.619  0.2880 -0.2714  0.3291
 4342SOL    HW124488   2.506   1.755  14.573  1.4895 -0.4090 -0.9197
 4342SOL    HW224489   2.514   1.895  14.589  1.8261  1.1682  1.5755
 4343SOL     OW24490   3.139   2.875   3.434 -0.1866  0.7285 -0.0554
 4343SOL    HW124491   3.116   2.785   3.413  0.3252  0.6184 -0.1437
 4343SOL    HW224492   3.067   2.919   3.389 -1.2550  0.1478  1.1059
 4344SOL     OW24493   2.165   2.251   8.077  0.1595  0.0827 -0.1609
 4344SOL    HW124494   2.153   2.176   8.019  1.5513  1.0827 -1.7692
 4344SOL    HW224495   2.081   2.297   8.072 -1.2605 -2.5439 -0.5449
 4345SOL     OW24496   0.338   3.420  16.671 -0.3795  0.0482  0.1847
 4345SOL    HW124497   0.256   3.469  16.673  0.5686  1.6067  0.2873
 4345SOL    HW224498   0.350   3.412  16.576  1.3428  0.5643  0.3631
 4346SOL     OW24499   2.885   1.798  12.847  0.1374  0.0920 -0.2117
 4346SOL    HW124500   2.880   1.848  12.765  1.8281  1.8998  0.7841
 4346SOL    HW224501   2.810   1.742  12.828 -0.5512  0.8498  0.2749
 4347SOL     OW24502   2.631   3.080   4.038 -0.6483  0.6058  0.4392
 4347SOL    HW124503   2.668   2.993   4.023  2.2005  2.0670 -0.9838
 4347SOL    HW224504   2.558   3.072   3.976  0.7748 -3.3288 -0.7686
 4348SOL     OW24505   1.793   0.523   8.247  0.7546 -0.8358 -0.3697
 4348SOL    HW124506   1.700   0.510   8.230  0.7785  2.2573 -2.7871
 4348SOL    HW224507   1.786   0.614   8.221  0.9881 -0.8700 -0.5508
 4349SOL     OW24508   2.997   1.986   4.716 -0.3292  0.2677 -0.1803
 4349SOL    HW124509   3.062   1.990   4.786 -0.8531  0.7387  0.2837
 4349SOL    HW224510   2.925   2.036   4.756  0.2348 -1.7045  3.3405
 4350SOL     OW24511   1.609   1.469   9.220 -0.0635 -0.3552  0.1189
 4350SOL    HW124512   1.514   1.462   9.207 -0.1195 -1.5528  1.1660
 4350SOL    HW224513   1.608   1.536   9.287 -1.1543 -2.6152  2.3580
 4351SOL     OW24514   3.167   4.074   0.423 -0.4034  0.5510  0.7429
 4351SOL    HW124515   3.208   4.047   0.505 -0.2878 -1.3514  0.0523
 4351SOL    HW224516   3.210   4.158   0.406  1.3183 -0.0234  2.1807
 4352SOL     OW24517   2.267   2.048   6.914 -0.5025  0.4885 -0.1603
 4352SOL    HW124518   2.248   1.954   6.918 -1.1697  0.6317  0.0954
 4352SOL    HW224519   2.304   2.049   6.826  1.4635 -0.9216  0.6422
 4353SOL     OW24520   4.330   3.715   0.111  0.5481  0.0970  0.1987
 4353SOL    HW124521   4.301   3.717   0.202  1.7453 -0.6141  0.6004
 4353SOL    HW224522   4.386   3.793   0.116 -0.5392  0.9563 -0.9233
 4354SOL     OW24523   3.546   1.197  10.593  0.7601  0.0516 -0.0562
 4354SOL    HW124524   3.573   1.123  10.539 -0.3267 -2.8756  3.4018
 4354SOL    HW224525   3.487   1.244  10.534  1.9382  0.9389 -0.5406
 4355SOL     OW24526   0.824   4.599   4.505 -0.1143 -0.2926  0.0821
 4355SOL    HW124527   0.729   4.595   4.493 -0.1735 -1.8869  1.1180
 4355SOL    HW224528   0.824   4.689   4.474  3.3879  0.6552  2.8683
 4356SOL     OW24529   4.023   0.263   4.215 -0.6482  0.3366  0.3640
 4356SOL    HW124530   4.116   0.274   4.237 -0.7972 -0.5072  1.4232
 4356SOL    HW224531   4.011   0.193   4.279  0.4767  1.1743  1.5148
 4357SOL     OW24532   2.428   2.643  14.580 -0.0293  0.0682 -0.3791
 4357SOL    HW124533   2.401   2.735  14.577 -1.5804 -0.2967  2.1596
 4357SOL    HW224534   2.356   2.604  14.628 -0.0788  0.4923 -0.1074
 4358SOL     OW24535   4.511   1.305   6.074  0.2442 -0.4052 -0.8159
 4358SOL    HW124536   4.534   1.247   6.002  0.4470  1.2549 -2.0702
 4358SOL    HW224537   4.538   1.238   6.138  0.1832 -0.2946 -0.6735
 4359SOL     OW24538   1.077   1.199   8.111 -0.6911 -0.1031  0.6108
 4359SOL    HW124539   1.043   1.162   8.029 -0.8835 -1.9055  1.5079
 4359SOL    HW224540   1.000   1.245   8.144 -1.7273 -0.4449 -1.2968
 4360SOL     OW24541   2.447   3.464  16.700 -0.6034  0.5304  0.6302
 4360SOL    HW124542   2.384   3.419  16.642  2.0395 -0.1970 -1.6940
 4360SOL    HW224543   2.488   3.511  16.628 -2.0977  1.3777  0.3216
 4361SOL     OW24544   4.250   2.686   7.896 -0.0456 -0.3811 -0.1193
 4361SOL    HW124545   4.202   2.663   7.816  2.0128 -1.1595 -1.1254
 4361SOL    HW224546   4.223   2.777   7.907  1.1053  0.0448 -0.8687
 4362SOL     OW24547   1.572   1.652   2.297 -0.6016  0.1176  0.1708
 4362SOL    HW124548   1.564   1.747   2.304 -0.7206  0.1329 -0.2074
 4362SOL    HW224549   1.624   1.656   2.217  1.2367  1.7609  1.4410
 4363SOL     OW24550   1.685   1.702  15.318  0.2961  0.1296 -0.2361
 4363SOL    HW124551   1.684   1.733  15.408  0.4941  0.6778 -0.4189
 4363SOL    HW224552   1.771   1.663  15.307  0.3249 -1.1350  4.7804
 4364SOL     OW24553   2.787   2.267  12.292  0.0719  0.1569  0.4038
 4364SOL    HW124554   2.725   2.302  12.228 -0.0265 -0.9713 -0.1265
 4364SOL    HW224555   2.824   2.352  12.314  1.1625 -0.0093 -0.7954
 4365SOL     OW24556   3.698   2.180  13.518  0.1804 -0.5070 -0.3959
 4365SOL    HW124557   3.722   2.269  13.542 -1.5295  0.2109 -1.2995
 4365SOL    HW224558   3.756   2.124  13.570  1.4031  0.6872 -0.4733
 4366SOL     OW24559   0.789   4.023   2.469  0.0470 -0.2134  0.1507
 4366SOL    HW124560   0.707   4.072   2.479 -2.1612 -3.4873 -2.1858
 4366SOL    HW224561   0.780   3.965   2.544 -1.3785 -1.5776 -1.0725
 4367SOL     OW24562   2.920   3.863   0.064  0.0702 -0.5746  0.2003
 4367SOL    HW124563   2.868   3.913   0.001  1.6218  0.5586 -0.1751
 4367SOL    HW224564   2.911   3.923   0.138  2.1358 -0.2332  0.1730
 4368SOL     OW24565   3.430   3.497  13.854  0.0999  0.4885 -0.0204
 4368SOL    HW124566   3.360   3.505  13.789 -0.4272  0.8680  0.5952
 4368SOL    HW224567   3.476   3.576  13.824 -1.1630  1.1752 -0.1489
 4369SOL     OW24568   1.952   2.796  14.011 -0.2910  0.8622  0.0134
 4369SOL    HW124569   1.909   2.835  13.935 -0.7282  0.9267  0.2934
 4369SOL    HW224570   1.927   2.862  14.076  0.3882  2.3258 -1.2013
 4370SOL     OW24571   3.547   1.558   6.006  0.1285 -0.7429  0.0709
 4370SOL    HW124572   3.576   1.467   5.997  0.3667 -0.7402  0.8226
 4370SOL    HW224573   3.463   1.541   6.050  0.6721 -0.7897  1.0975
 4371SOL     OW24574   2.408   0.783  16.339 -0.7799  0.5067 -0.4189
 4371SOL    HW124575   2.429   0.833  16.418  1.5383 -1.4054  0.2075
 4371SOL    HW224576   2.320   0.757  16.367 -0.9186 -0.5483 -1.8364
 4372SOL     OW24577   1.431   0.182   4.150 -0.1426 -0.2658 -0.0536
 4372SOL    HW124578   1.519   0.181   4.113  0.0792 -3.3539  0.5210
 4372SOL    HW224579   1.452   0.156   4.240  2.8738  1.6084 -0.2138
 4373SOL     OW24580   4.340   0.360   8.652  0.5425  0.0583 -0.2215
 4373SOL    HW124581   4.370   0.329   8.737 -2.1905  1.0094  1.1026
 4373SOL    HW224582   4.247   0.342   8.642  1.0533 -2.1395 -0.9373
 4374SOL     OW24583   2.252   2.793   2.539  0.2786  0.2369  0.5834
 4374SOL    HW124584   2.341   2.776   2.509 -0.0227 -1.1940  0.4945
 4374SOL    HW224585   2.207   2.732   2.481  0.7418  0.5707 -0.1219
 4375SOL     OW24586   2.194   4.228   2.525  0.1963 -0.6697  0.1385
 4375SOL    HW124587   2.150   4.306   2.491  0.4329 -1.2270 -1.4204
 4375SOL    HW224588   2.117   4.201   2.575  0.0154  0.1978  0.3289
 4376SOL     OW24589   4.379   0.614   8.892 -0.1177  0.4884 -0.1389
 4376SOL    HW124590   4.296   0.657   8.911 -0.4869  0.3548 -1.4893
 4376SOL    HW224591   4.380   0.568   8.977 -2.4461  0.5678 -0.0704
 4377SOL     OW24592   1.240   2.229  12.076 -0.5072 -0.3068 -0.1459
 4377SOL    HW124593   1.234   2.156  12.138 -1.4672 -1.0852 -1.1736
 4377SOL    HW224594   1.332   2.256  12.079 -0.8785  0.7117  1.9954
 4378SOL     OW24595   1.388   0.359   5.110 -0.1326 -0.3445 -0.1962
 4378SOL    HW124596   1.406   0.268   5.087  2.7481  0.0187  0.6021
 4378SOL    HW224597   1.400   0.368   5.204  0.6066  0.4937 -0.3676
 4379SOL     OW24598   2.876   0.674   3.541 -0.6816  0.3169 -0.0131
 4379SOL    HW124599   2.861   0.761   3.504  0.6049 -0.2680 -1.9191
 4379SOL    HW224600   2.839   0.620   3.471 -0.5451 -2.7948  2.3072
 4380SOL     OW24601   3.067   1.894   5.121 -0.2007 -0.1299  0.1366
 4380SOL    HW124602   3.079   1.989   5.122  0.8538 -0.2496 -0.5686
 4380SOL    HW224603   3.043   1.883   5.213  0.5080 -0.7873  0.2450
 4381SOL     OW24604   2.944   3.758   8.651  0.0872 -0.8978  0.0733
 4381SOL    HW124605   2.922   3.771   8.559  1.4126  0.8817  0.0180
 4381SOL    HW224606   3.038   3.741   8.648 -0.0172 -1.1308 -1.5544
 4382SOL     OW24607   3.981   2.955   2.656  0.3639 -0.6303 -0.3032
 4382SOL    HW124608   3.890   2.951   2.628  0.5717 -0.4748 -0.9905
 4382SOL    HW224609   3.975   3.011   2.733 -2.2221  1.1265 -1.7896
 4383SOL     OW24610   4.491   3.317   3.010 -0.2295 -0.4233 -0.3146
 4383SOL    HW124611   4.535   3.234   3.025  0.6779 -0.0947 -1.1689
 4383SOL    HW224612   4.552   3.386   2.984 -1.7279  1.2088  0.3925
 4384SOL     OW24613   2.856   3.282   3.890  0.7189  0.0286  0.1590
 4384SOL    HW124614   2.879   3.215   3.826  0.1701 -1.4906  1.5443
 4384SOL    HW224615   2.775   3.320   3.858  0.4488 -0.7159 -0.0268
 4385SOL     OW24616   3.975   2.691   9.360  0.3618 -0.1810  0.5004
 4385SOL    HW124617   3.993   2.738   9.279 -1.3705  0.5823  0.5488
 4385SOL    HW224618   3.902   2.742   9.394  0.9880 -0.2462  1.9104
 4386SOL     OW24619   1.179   0.906  13.393 -0.0285 -0.5515 -0.0393
 4386SOL    HW124620   1.141   0.991  13.415 -2.8081 -0.8063 -3.7970
 4386SOL    HW224621   1.115   0.847  13.432  1.8758 -3.2015 -0.9494
 4387SOL     OW24622   3.110   0.585   1.225  0.9884  0.9424  0.0971
 4387SOL    HW124623   3.116   0.677   1.252  2.2088  1.0298 -0.4778
 4387SOL    HW224624   3.114   0.592   1.130  2.6752 -0.4244  0.0780
 4388SOL     OW24625   2.220   3.190   8.204 -0.0553  0.0817 -0.4679
 4388SOL    HW124626   2.292   3.202   8.143  1.4267 -1.3509  1.0169
 4388SOL    HW224627   2.252   3.123   8.264 -0.9978 -0.4105 -0.5156
 4389SOL     OW24628   1.262   3.762  17.341 -0.0573 -0.2241  0.5495
 4389SOL    HW124629   1.271   3.703  17.266  1.3343 -0.4326  0.8646
 4389SOL    HW224630   1.355   3.781  17.353  0.8673 -2.7488 -2.5047
 4390SOL     OW24631   2.316   2.204   2.788 -0.2859  0.1930 -0.1586
 4390SOL    HW124632   2.260   2.176   2.860  0.5869 -0.4703  0.2677
 4390SOL    HW224633   2.319   2.297   2.811  2.3223 -0.3107  1.4851
 4391SOL     OW24634   4.064   3.007   7.148 -0.7407  0.1460 -0.7099
 4391SOL    HW124635   4.090   3.052   7.067 -1.6219 -1.8707 -2.1276
 4391SOL    HW224636   4.029   3.080   7.199  0.9531  0.9093 -0.6210
 4392SOL     OW24637   1.232   0.184   9.513  0.1656  0.0994  0.0823
 4392SOL    HW124638   1.244   0.269   9.470 -0.7453  0.1936  0.0228
 4392SOL    HW224639   1.143   0.178   9.478 -0.5332  0.0923  1.8894
 4393SOL     OW24640   0.102   2.472  16.201 -0.4437  0.1219  0.1817
 4393SOL    HW124641   0.018   2.468  16.154 -0.5721 -1.2915  0.5273
 4393SOL    HW224642   0.149   2.528  16.140  0.4531 -0.4074  0.3838
 4394SOL     OW24643   2.341   2.078   6.663 -0.0716 -0.4105 -0.2885
 4394SOL    HW124644   2.429   2.104   6.638  0.0685  0.8642  1.4976
 4394SOL    HW224645   2.296   2.163   6.663 -1.6059 -1.2237 -1.2232
 4395SOL     OW24646   0.175   0.038   9.905 -0.1364  0.3121 -0.1215
 4395SOL    HW124647   0.091   0.009   9.869 -0.4091  1.1784 -0.1759
 4395SOL    HW224648   0.165   0.017   9.998 -0.7630  0.2990 -0.1921
 4396SOL     OW24649   3.176   0.462   6.094  0.0988 -0.4341 -0.0560
 4396SOL    HW124650   3.166   0.556   6.079 -2.5546 -1.0440 -2.2240
 4396SOL    HW224651   3.090   0.431   6.065 -0.2998 -0.2775  0.9883
 4397SOL     OW24652   3.771   3.664   8.318 -0.3218 -0.4075 -0.1916
 4397SOL    HW124653   3.817   3.584   8.344  0.9653  0.0098 -1.1543
 4397SOL    HW224654   3.684   3.651   8.357 -1.3747  0.1685 -2.3733
 4398SOL     OW24655   1.452   4.662  16.263  0.0531  0.2663  0.4973
 4398SOL    HW124656   1.489   0.017  16.302 -1.4184  0.6170  1.1762
 4398SOL    HW224657   1.441   4.685  16.171 -2.4355 -0.2670  0.6744
 4399SOL     OW24658   2.569   1.005   6.455 -0.0441  0.3751 -0.2389
 4399SOL    HW124659   2.561   1.018   6.550 -0.2224 -1.0691 -0.0662
 4399SOL    HW224660   2.496   1.060   6.424 -1.9351 -1.7250  0.5038
 4400SOL     OW24661   2.661   4.549   4.516  0.3798 -0.0476  0.4780
 4400SOL    HW124662   2.579   4.562   4.468 -0.0873  1.9074  1.8196
 4400SOL    HW224663   2.645   4.474   4.573  1.6137 -1.4802 -1.0616
 4401SOL     OW24664   2.435   2.455   5.309 -0.2968 -0.0038  0.6112
 4401SOL    HW124665   2.521   2.418   5.327 -0.2305  0.4376  1.2019
 4401SOL    HW224666   2.457   2.492   5.223 -1.3395 -0.8484 -0.0270
 4402SOL     OW24667   2.688   2.892   0.454 -0.1105 -0.3532 -0.5328
 4402SOL    HW124668   2.741   2.955   0.405 -0.7289  0.9483  0.4902
 4402SOL    HW224669   2.610   2.874   0.401  0.6000  1.1563 -2.0745
 4403SOL     OW24670   4.145   2.752   1.342  0.6897  0.0234  0.1097
 4403SOL    HW124671   4.140   2.671   1.391 -0.1163  0.4462  0.7261
 4403SOL    HW224672   4.126   2.811   1.415 -1.6116 -0.5370 -0.0591
 4404SOL     OW24673   2.942   0.931  11.494 -0.7393 -0.5532 -0.1058
 4404SOL    HW124674   2.923   0.886  11.411  0.0210  1.7814 -1.5504
 4404SOL    HW224675   2.984   1.011  11.463  1.4286 -1.0435  1.6449
 4405SOL     OW24676   3.867   2.632   6.180 -0.0617 -0.1644  0.4431
 4405SOL    HW124677   3.790   2.657   6.231 -1.1412 -4.2362  0.8009
 4405SOL    HW224678   3.826   2.569   6.120 -2.0654  1.2627  0.3060
 4406SOL     OW24679   1.269   3.646   3.844 -0.2962 -0.5971 -0.0987
 4406SOL    HW124680   1.250   3.593   3.922 -1.9934  1.1849  0.6737
 4406SOL    HW224681   1.358   3.617   3.821 -0.5177 -1.8050  0.5510
 4407SOL     OW24682   1.770   2.925   2.374  0.0367  0.1099  0.3283
 4407SOL    HW124683   1.829   2.959   2.307  1.9345  1.7062  2.7552
 4407SOL    HW224684   1.691   2.898   2.328 -0.8992  1.9196  0.8388
 4408SOL     OW24685   3.435   2.154   7.580  0.0657  0.5258  0.0890
 4408SOL    HW124686   3.423   2.150   7.485  1.0401 -0.7137  0.0220
 4408SOL    HW224687   3.420   2.065   7.610 -1.3233  0.2209 -1.5245
 4409SOL     OW24688   1.201   0.418   8.403 -0.5236 -0.6327 -0.1006
 4409SOL    HW124689   1.112   0.444   8.379 -0.2700  1.2246  0.9332
 4409SOL    HW224690   1.185   0.423   8.497 -1.1947 -0.0017 -0.2497
 4410SOL     OW24691   0.131   1.923   2.258 -0.4471 -0.2074 -0.2514
 4410SOL    HW124692   0.187   1.998   2.279 -0.3067 -0.4414  0.2236
 4410SOL    HW224693   0.163   1.898   2.172  2.2154  0.9545  0.4139
 4411SOL     OW24694   2.665   1.255   8.940 -0.0576 -0.9590 -0.1447
 4411SOL    HW124695   2.670   1.162   8.964  0.5742 -0.2646  2.3446
 4411SOL    HW224696   2.669   1.293   9.028  1.5346 -2.7627  0.5593
 4412SOL     OW24697   0.063   1.187   7.320  0.3077  0.0558  0.3106
 4412SOL    HW124698   4.710   1.151   7.278 -0.3693  2.3346 -0.3772
 4412SOL    HW224699   0.125   1.151   7.257  1.3425  2.5643 -0.0908
 4413SOL     OW24700   0.657   3.587  14.736  0.0791  0.2496 -0.1613
 4413SOL    HW124701   0.683   3.512  14.790  1.2246 -0.5257 -1.7701
 4413SOL    HW224702   0.587   3.557  14.679  0.8972 -0.7710 -0.6265
 4414SOL     OW24703   0.907   1.589   4.988  0.1280 -0.2137 -0.8593
 4414SOL    HW124704   0.845   1.544   4.930 -0.1046 -3.4604  1.9240
 4414SOL    HW224705   0.986   1.591   4.935  2.1017 -1.9812  1.9908
 4415SOL     OW24706   1.243   0.288  16.016 -0.0287  0.3646 -0.2503
 4415SOL    HW124707   1.302   0.317  15.947  0.7525 -1.0815 -0.1885
 4415SOL    HW224708   1.275   0.198  16.026  1.8453  1.0081 -0.5700
 4416SOL     OW24709   2.527   1.185  16.440  0.1219  0.2779  0.1183
 4416SOL    HW124710   2.456   1.243  16.412  0.8726 -0.5641 -3.5352
 4416SOL    HW224711   2.525   1.209  16.533 -1.7687  0.1974  0.0905
 4417SOL     OW24712   1.130   3.353  16.012 -0.1824  0.0298 -0.2866
 4417SOL    HW124713   1.085   3.410  15.950  0.7801 -1.0830 -1.9803
 4417SOL    HW224714   1.201   3.323  15.956  0.0117  0.3360 -0.2098
 4418SOL     OW24715   3.747   1.254   7.591 -0.8534  0.2434 -0.2099
 4418SOL    HW124716   3.704   1.182   7.637 -2.0232  0.8835 -0.2898
 4418SOL    HW224717   3.694   1.330   7.614 -0.3883  0.5817 -0.2674
 4419SOL     OW24718   0.787   0.476   6.983  0.0331 -0.4228  0.2349
 4419SOL    HW124719   0.839   0.401   6.954 -1.0995 -0.3503 -2.0173
 4419SOL    HW224720   0.704   0.429   6.981 -1.2048  1.6628  2.0431
 4420SOL     OW24721   0.332   4.228   2.270  0.3921  0.2391  0.2094
 4420SOL    HW124722   0.286   4.248   2.351 -0.6618 -2.2743  0.2364
 4420SOL    HW224723   0.263   4.237   2.204 -0.5526  1.2918  1.3520
 4421SOL     OW24724   4.444   3.635   0.525  0.4974 -0.0452 -0.0150
 4421SOL    HW124725   4.518   3.641   0.464  0.3817  2.8190  0.1007
 4421SOL    HW224726   4.451   3.721   0.568  0.1316 -1.2863  2.4993
 4422SOL     OW24727   2.018   1.455   1.339 -0.0961 -0.1188 -0.2560
 4422SOL    HW124728   1.949   1.515   1.309  1.9313  2.3615  0.0850
 4422SOL    HW224729   2.036   1.427   1.249  0.6425 -1.6997  0.3863
 4423SOL     OW24730   2.761   2.727   2.388  0.4639 -0.3261 -0.5691
 4423SOL    HW124731   2.833   2.678   2.428  1.6308  2.0181  0.2201
 4423SOL    HW224732   2.749   2.660   2.321 -2.1990 -1.9815  1.5984
 4424SOL     OW24733   2.523   4.708   3.254 -0.0117 -0.0665  0.2670
 4424SOL    HW124734   2.565   0.068   3.271  1.8442 -1.5976  3.2517
 4424SOL    HW224735   2.585   4.677   3.189 -0.9699 -2.0442  0.2808
 4425SOL     OW24736   1.070   0.067  11.154  0.1591 -0.4011 -0.4280
 4425SOL    HW124737   1.148   0.065  11.208  0.0227 -0.3413 -0.2302
 4425SOL    HW224738   1.060   4.699  11.129  1.1734 -0.9020  1.0692
 4426SOL     OW24739   4.319   3.725   7.425  0.3039 -0.2989 -0.3530
 4426SOL    HW124740   4.229   3.753   7.443  0.6634 -0.0769  1.1162
 4426SOL    HW224741   4.368   3.807   7.426 -1.0468  0.5073  0.0227
 4427SOL     OW24742   3.142   1.800   3.354 -0.2004  0.3757  0.2473
 4427SOL    HW124743   3.140   1.832   3.264 -1.0612  0.0952  0.1617
 4427SOL    HW224744   3.214   1.847   3.396 -1.4045  1.3049  1.2729
 4428SOL     OW24745   2.607   3.360   3.797 -0.4689 -0.1590  0.2851
 4428SOL    HW124746   2.546   3.357   3.871  0.9129  0.1093  1.4187
 4428SOL    HW224747   2.589   3.446   3.757 -1.9688 -0.9439 -0.7289
 4429SOL     OW24748   0.679   3.054   7.989  0.3647 -0.3007  0.1574
 4429SOL    HW124749   0.659   2.983   7.927 -0.6633  0.0257  0.1167
 4429SOL    HW224750   0.754   3.014   8.034  0.7198  0.4758  0.2439
 4430SOL     OW24751   0.462   3.686   2.117 -0.3338  0.1751 -0.0938
 4430SOL    HW124752   0.550   3.708   2.085 -0.1033  0.0854  0.4843
 4430SOL    HW224753   0.453   3.738   2.196  0.4173 -1.9274  1.3722
 4431SOL     OW24754   3.899   1.955   3.752  0.5037 -0.1007 -0.5624
 4431SOL    HW124755   3.844   2.029   3.778 -0.0032 -1.0403  1.0740
 4431SOL    HW224756   3.848   1.891   3.703  1.3873 -1.0879 -0.2179
 4432SOL     OW24757   0.793   2.895  12.717 -0.2044 -0.0423 -0.3639
 4432SOL    HW124758   0.854   2.888  12.644 -0.4250 -1.2071 -0.4334
 4432SOL    HW224759   0.748   2.811  12.712 -0.8182  0.3037 -0.7208
 4433SOL     OW24760   2.501   3.262  12.917  0.0488 -0.0544  0.4535
 4433SOL    HW124761   2.424   3.244  12.970 -0.1175  1.1845  0.6291
 4433SOL    HW224762   2.464   3.261  12.828 -2.6840  1.5967  1.5799
 4434SOL     OW24763   0.994   1.287  16.443  0.2275 -0.6398 -0.4588
 4434SOL    HW124764   1.061   1.329  16.497 -1.2610  0.9988  0.1051
 4434SOL    HW224765   1.040   1.286  16.359 -2.0105  2.2372 -1.7056
 4435SOL     OW24766   0.990   3.138   6.288 -0.2216  0.1708 -0.5162
 4435SOL    HW124767   0.951   3.213   6.243 -0.4459 -0.7326 -1.8293
 4435SOL    HW224768   1.074   3.174   6.319 -2.0963  0.3622  4.3752
 4436SOL     OW24769   3.960   0.255   5.874 -0.2493  0.5129  0.1169
 4436SOL    HW124770   4.032   0.198   5.902 -1.5441 -1.5352 -0.6985
 4436SOL    HW224771   3.980   0.256   5.780 -0.7273  1.5625  0.0296
 4437SOL     OW24772   2.335   3.558   8.465 -0.0172 -0.3421  0.8159
 4437SOL    HW124773   2.398   3.566   8.536  0.2741 -0.0999  0.5298
 4437SOL    HW224774   2.250   3.555   8.510 -0.8969 -1.2494 -0.9165
 4438SOL     OW24775   2.303   1.678   8.667  0.3420  0.1079 -0.0426
 4438SOL    HW124776   2.352   1.690   8.748  0.4301  0.0386 -0.0854
 4438SOL    HW224777   2.315   1.584   8.656 -0.8257 -0.4616  3.5038
 4439SOL     OW24778   2.452   0.412   1.707  0.4202 -0.0361  0.4434
 4439SOL    HW124779   2.429   0.462   1.629  1.7892  1.5939  1.0928
 4439SOL    HW224780   2.485   0.481   1.766  2.2536  1.4987 -2.3955
 4440SOL     OW24781   2.705   4.279  14.287  0.4707  0.0046 -0.1160
 4440SOL    HW124782   2.655   4.326  14.353 -1.4116 -3.0314  0.6400
 4440SOL    HW224783   2.732   4.204  14.340  0.6999 -1.3804 -2.1695
 4441SOL     OW24784   0.257   1.899   4.353  0.0518 -0.1524  0.2882
 4441SOL    HW124785   0.351   1.883   4.346  0.1376  0.4179  0.1308
 4441SOL    HW224786   0.225   1.821   4.399 -0.5828  0.0352  0.1704
 4442SOL     OW24787   2.302   3.892   0.968  0.7953 -0.1362 -0.4067
 4442SOL    HW124788   2.372   3.830   0.987  0.8420 -0.4352 -1.5997
 4442SOL    HW224789   2.235   3.828   0.991  1.5067 -0.8834 -0.4254
 4443SOL     OW24790   2.236   3.517  12.777  0.5380 -0.3332  0.7517
 4443SOL    HW124791   2.145   3.506  12.751  1.3876 -1.1171 -1.9273
 4443SOL    HW224792   2.243   3.600  12.730  1.2827 -1.2489 -0.7607
 4444SOL     OW24793   4.192   0.684   7.930  0.5114  0.0525  0.1060
 4444SOL    HW124794   4.161   0.768   7.896  1.5237  0.5930  0.5270
 4444SOL    HW224795   4.252   0.707   8.001  0.2131  3.2220 -0.6579
 4445SOL     OW24796   4.132   0.321  13.456 -0.0703 -0.2175  0.3249
 4445SOL    HW124797   4.202   0.256  13.461  0.4451  0.2329 -0.9255
 4445SOL    HW224798   4.129   0.352  13.546 -1.5510 -0.2119  0.2763
 4446SOL     OW24799   1.015   2.808  13.710 -0.3133  0.2629 -0.4914
 4446SOL    HW124800   1.044   2.776  13.796 -1.1712  1.2438  0.1578
 4446SOL    HW224801   1.099   2.817  13.665  0.4780  4.0383  1.7465
 4447SOL     OW24802   2.935   4.624   4.853 -0.0783  0.0616 -0.0443
 4447SOL    HW124803   2.965   4.545   4.897  0.6772  0.4112  0.0619
 4447SOL    HW224804   2.847   4.594   4.832  0.2033 -1.9934  1.7497
 4448SOL     OW24805   2.079   3.641   8.627  0.6145  0.3064  0.2976
 4448SOL    HW124806   2.100   3.617   8.718 -2.4323  0.4888  1.0421
 4448SOL    HW224807   2.006   3.582   8.609  0.7029 -0.0178  0.9745
 4449SOL     OW24808   2.137   1.159  16.268 -0.6286  0.4738  0.0208
 4449SOL    HW124809   2.141   1.115  16.352 -0.8921  1.7149  0.6825
 4449SOL    HW224810   2.205   1.225  16.279  0.1073 -0.2744 -0.0657
 4450SOL     OW24811   1.574   2.818   2.211 -0.4378  0.7760  0.1339
 4450SOL    HW124812   1.482   2.833   2.185 -1.0027  0.3383  1.9229
 4450SOL    HW224813   1.608   2.782   2.129  2.3840 -1.0184  2.1293
 4451SOL     OW24814   4.659   1.102   3.778 -0.1142  0.4429 -0.1742
 4451SOL    HW124815   0.024   1.074   3.799 -0.0277 -0.6760 -1.9807
 4451SOL    HW224816   4.670   1.144   3.693  0.7103 -1.3250 -0.9460
 4452SOL     OW24817   0.720   3.282   1.691 -0.2601  0.0241 -0.1917
 4452SOL    HW124818   0.638   3.239   1.667  1.1332 -1.7532 -1.7007
 4452SOL    HW224819   0.784   3.250   1.628  1.7547 -0.4777  2.1076
 4453SOL     OW24820   0.862   2.097   3.263 -0.4610  0.1127 -0.0508
 4453SOL    HW124821   0.859   2.079   3.357 -1.7340  0.6688  0.0106
 4453SOL    HW224822   0.770   2.121   3.255 -0.3136  0.5029 -0.5740
 4454SOL     OW24823   3.403   1.169   1.537  0.0252 -0.6927 -0.7088
 4454SOL    HW124824   3.443   1.121   1.609  0.4608  2.1679  0.9814
 4454SOL    HW224825   3.474   1.227   1.509  0.4901 -0.2409  1.3892
 4455SOL     OW24826   0.943   4.377  16.832 -0.0951 -0.2010 -0.4299
 4455SOL    HW124827   0.862   4.405  16.874  0.8054  1.8028 -0.0394
 4455SOL    HW224828   0.998   4.454  16.845 -0.5655 -0.1716  1.4083
 4456SOL     OW24829   0.677   0.704  16.361  0.6239 -0.2548 -0.8230
 4456SOL    HW124830   0.724   0.652  16.295  0.9777 -2.4596  1.1468
 4456SOL    HW224831   0.737   0.776  16.378 -1.0503  1.0815 -0.6180
 4457SOL     OW24832   0.222   2.174  11.541  0.1988  0.1697  0.4093
 4457SOL    HW124833   0.189   2.086  11.522  0.5361  0.1755 -0.1879
 4457SOL    HW224834   0.254   2.156  11.630  0.7253  0.1079  0.2032
 4458SOL     OW24835   3.320   1.670   6.815  0.4887 -0.1194 -0.0646
 4458SOL    HW124836   3.339   1.648   6.724 -0.1145 -0.9521  0.0133
 4458SOL    HW224837   3.226   1.656   6.822  0.5655  0.1856  1.7916
 4459SOL     OW24838   1.644   1.298  11.967  0.3362 -0.3845 -0.0969
 4459SOL    HW124839   1.661   1.325  12.057 -0.5122  0.7929 -0.2873
 4459SOL    HW224840   1.726   1.257  11.940 -0.9084 -2.2427 -1.0525
 4460SOL     OW24841   1.453   3.938   7.129 -0.2779 -0.3107 -0.0630
 4460SOL    HW124842   1.538   3.901   7.107 -0.6266 -1.8155  1.1131
 4460SOL    HW224843   1.395   3.862   7.140 -0.6692 -0.1993 -1.2576
 4461SOL     OW24844   3.239   3.987   3.570 -0.0372  0.3848 -0.2866
 4461SOL    HW124845   3.172   4.055   3.577 -1.2872 -0.8926  0.1012
 4461SOL    HW224846   3.317   4.039   3.587 -0.7194  0.8744  1.2866
 4462SOL     OW24847   0.889   4.557   0.104 -0.3911  0.4413  0.0538
 4462SOL    HW124848   0.832   4.540   0.179 -0.3058  2.0299  0.4764
 4462SOL    HW224849   0.837   4.503   0.044 -0.1588 -0.2946  0.5183
 4463SOL     OW24850   4.290   1.007  13.581  0.2556  0.4277  0.1940
 4463SOL    HW124851   4.210   1.027  13.631  0.3875  1.3027  0.0530
 4463SOL    HW224852   4.251   0.977  13.499 -0.3497 -0.0840  0.6672
 4464SOL     OW24853   4.062   2.942   1.519  0.4367 -0.3097  0.0130
 4464SOL    HW124854   4.053   3.037   1.521  1.1086 -0.2268 -1.4924
 4464SOL    HW224855   3.978   2.906   1.550  0.5426 -0.6016 -0.0395
 4465SOL     OW24856   2.145   0.311   0.698 -0.5952  0.0182  0.8807
 4465SOL    HW124857   2.070   0.365   0.674 -1.1935 -1.7758 -1.3056
 4465SOL    HW224858   2.192   0.354   0.769 -0.3684  0.0909  0.6847
 4466SOL     OW24859   2.059   3.371  11.220  0.0927  0.0367  0.6604
 4466SOL    HW124860   2.083   3.396  11.309 -0.2239 -0.1143  0.7896
 4466SOL    HW224861   1.991   3.304  11.231  0.6497 -0.5039  0.7599
 4467SOL     OW24862   2.930   4.613   7.826  0.5006 -0.2521  0.1905
 4467SOL    HW124863   3.003   4.615   7.764  0.5413  2.6210  0.3366
 4467SOL    HW224864   2.963   4.678   7.888  1.2737 -0.6771  0.2215
 4468SOL     OW24865   3.838   1.267   3.298 -0.1960  0.2147  0.2425
 4468SOL    HW124866   3.817   1.231   3.212 -0.5955  1.7495 -0.2947
 4468SOL    HW224867   3.873   1.189   3.342 -1.5876 -0.5249  0.0448
 4469SOL     OW24868   1.232   3.125  14.563 -0.2258  0.0836 -0.8571
 4469SOL    HW124869   1.180   3.179  14.504 -1.1691 -1.1137 -1.1358
 4469SOL    HW224870   1.315   3.125  14.516 -0.5895 -3.2784 -1.5169
 4470SOL     OW24871   4.262   1.375  16.440 -0.0587 -0.3412 -0.2330
 4470SOL    HW124872   4.224   1.401  16.356 -0.7190 -0.6103 -0.0191
 4470SOL    HW224873   4.287   1.458  16.481  0.9523 -1.4175  1.2833
 4471SOL     OW24874   2.703   2.013   7.104 -0.3768 -0.5007  0.7215
 4471SOL    HW124875   2.697   2.031   7.010 -0.7807  0.2474  0.8919
 4471SOL    HW224876   2.797   2.010   7.122 -0.4736  1.1518  1.4994
 4472SOL     OW24877   3.661   1.720  13.867 -0.0817  0.4606  0.3651
 4472SOL    HW124878   3.675   1.732  13.773  0.0740 -1.7313  0.1117
 4472SOL    HW224879   3.636   1.810  13.889 -1.3302  0.2318 -0.1172
 4473SOL     OW24880   0.682   4.076   1.453 -0.5413  0.5535 -0.2889
 4473SOL    HW124881   0.771   4.067   1.418 -0.7809  1.6943 -1.1781
 4473SOL    HW224882   0.668   3.985   1.481 -1.3397  1.7929  3.3388
 4474SOL     OW24883   4.092   3.986  17.675 -0.6288 -0.0479 -0.7091
 4474SOL    HW124884   4.042   4.028  17.605 -1.6328  0.4435  0.2988
 4474SOL    HW224885   4.173   4.037  17.671 -3.2129  4.3025  2.1684
 4475SOL     OW24886   4.143   0.664   8.994 -0.2781  0.0228 -0.0734
 4475SOL    HW124887   4.107   0.753   9.005  0.6588  0.3900  0.0132
 4475SOL    HW224888   4.091   0.614   9.057  0.1466 -2.3402 -1.6317
 4476SOL     OW24889   0.672   4.415   0.812  0.2109  0.2565  0.2318
 4476SOL    HW124890   0.703   4.478   0.747 -0.6516  1.3600  0.8752
 4476SOL    HW224891   0.714   4.451   0.890 -1.5811  1.2826  0.7212
 4477SOL     OW24892   1.927   1.929  11.870  0.1689 -0.7516  0.2956
 4477SOL    HW124893   1.885   1.844  11.861  0.9602 -0.9221 -1.9749
 4477SOL    HW224894   1.984   1.922  11.946 -2.6157 -0.3800  2.4226
 4478SOL     OW24895   3.333   0.852  12.545 -0.2024  0.4520 -0.1414
 4478SOL    HW124896   3.346   0.879  12.636 -0.9340  1.5774 -0.3813
 4478SOL    HW224897   3.289   0.928  12.508 -2.0530 -0.5429  0.0010
 4479SOL     OW24898   3.337   1.451   7.110 -0.3427  0.0916  0.2183
 4479SOL    HW124899   3.413   1.404   7.075 -0.0956  1.4350 -1.0580
 4479SOL    HW224900   3.362   1.536   7.073  0.2639 -0.5226 -0.7828
 4480SOL     OW24901   0.509   1.429   1.772  0.7079 -0.1148 -0.0365
 4480SOL    HW124902   0.443   1.490   1.802  2.1136  0.2107  2.3823
 4480SOL    HW224903   0.542   1.464   1.689 -0.8229 -0.0408 -0.6100
 4481SOL     OW24904   2.010   3.737   1.966  0.2443 -0.0914  0.2766
 4481SOL    HW124905   2.028   3.777   1.881  0.0712 -1.1393 -0.2520
 4481SOL    HW224906   1.947   3.667   1.952 -0.6218  0.6774  0.3441
 4482SOL     OW24907   2.879   2.030  14.267  0.1347 -0.1815  0.3250
 4482SOL    HW124908   2.953   2.087  14.247  0.3814 -1.5162 -2.6257
 4482SOL    HW224909   2.900   1.956  14.210 -2.0868 -1.4200  1.0982
 4483SOL     OW24910   0.125   4.448   4.102 -0.5896 -0.0492 -0.2492
 4483SOL    HW124911   0.189   4.518   4.115 -0.0879 -0.2202 -1.8055
 4483SOL    HW224912   0.181   4.371   4.104 -1.2000 -0.5022 -0.5701
 4484SOL     OW24913   3.608   1.621   4.879 -0.1326 -0.2771 -0.0624
 4484SOL    HW124914   3.570   1.551   4.827 -0.1933  0.6161 -1.2109
 4484SOL    HW224915   3.629   1.554   4.944 -1.1198 -1.2153 -0.7246
 4485SOL     OW24916   4.686   1.258  11.380  0.1918 -0.0340 -0.4533
 4485SOL    HW124917   4.659   1.294  11.465  0.3752  1.3218 -0.9559
 4485SOL    HW224918   4.622   1.188  11.365 -0.2265  0.1512  0.4572
 4486SOL     OW24919   1.072   4.675   6.555  0.3558  0.7311  0.5283
 4486SOL    HW124920   0.982   4.647   6.540  0.1675  2.0366 -0.7923
 4486SOL    HW224921   1.108   4.617   6.622 -0.8281  1.4480  1.7887
 4487SOL     OW24922   2.381   0.739  10.881 -0.6831 -0.4494 -0.6207
 4487SOL    HW124923   2.341   0.701  10.804 -2.6663 -0.6766  0.5292
 4487SOL    HW224924   2.420   0.818  10.844  0.5208 -0.4883  0.5515
 4488SOL     OW24925   2.895   2.211   5.527  0.3072 -0.4929 -0.1801
 4488SOL    HW124926   2.947   2.254   5.460  0.2123 -0.3824 -0.1818
 4488SOL    HW224927   2.849   2.143   5.477  0.5654 -0.1438 -0.8741
 4489SOL     OW24928   3.235   4.192   3.170  0.0654 -0.6407 -0.5335
 4489SOL    HW124929   3.206   4.102   3.184 -1.6626 -0.3766 -2.4361
 4489SOL    HW224930   3.318   4.197   3.217 -1.3084  2.9984  1.5821
 4490SOL     OW24931   1.116   0.261   4.500 -0.3332 -0.0609  0.1329
 4490SOL    HW124932   1.162   0.335   4.540  0.4179  0.5856 -1.9125
 4490SOL    HW224933   1.059   0.306   4.437 -0.6207  0.1555  0.5522
 4491SOL     OW24934   0.709   2.174  15.548  0.1501  0.5426  0.2641
 4491SOL    HW124935   0.800   2.202  15.542  0.1009  0.3987 -1.1216
 4491SOL    HW224936   0.699   2.154  15.455  2.5096  1.1097 -0.1041
 4492SOL     OW24937   2.471   0.391   4.462  0.4629  0.6057 -0.0859
 4492SOL    HW124938   2.510   0.304   4.461 -0.4372  0.1804  2.1598
 4492SOL    HW224939   2.442   0.404   4.552 -0.5275 -0.1176 -0.3083
 4493SOL     OW24940   0.560   3.640   3.400 -0.3224  0.0100 -0.0921
 4493SOL    HW124941   0.646   3.602   3.385 -0.0263  1.0950 -1.1798
 4493SOL    HW224942   0.508   3.595   3.334  0.7147 -1.0650 -0.1769
 4494SOL     OW24943   3.282   1.615   8.762  0.1265  0.2706  0.3622
 4494SOL    HW124944   3.254   1.600   8.852 -1.8599 -0.7752 -0.4181
 4494SOL    HW224945   3.209   1.579   8.712  0.8943 -1.7071  0.6362
 4495SOL     OW24946   0.036   2.416   1.396 -0.4984 -0.5637  0.7882
 4495SOL    HW124947   0.005   2.450   1.312  0.2456  1.2193  1.2366
 4495SOL    HW224948   0.123   2.455   1.405 -1.1976  1.2694 -0.4951
 4496SOL     OW24949   1.689   4.212   5.184 -0.3561  0.1808 -0.4866
 4496SOL    HW124950   1.629   4.189   5.255  2.3015 -2.2736  0.9587
 4496SOL    HW224951   1.772   4.198   5.229 -1.0025  1.0861  0.9753
 4497SOL     OW24952   0.143   3.187   7.236 -0.5001 -0.1946 -0.1484
 4497SOL    HW124953   0.080   3.250   7.272 -1.8777 -2.4320  1.3623
 4497SOL    HW224954   0.204   3.169   7.308 -0.3555 -0.3402 -0.3093
 4498SOL     OW24955   0.933   4.525   5.360 -0.3215  0.1725  0.0599
 4498SOL    HW124956   0.959   4.435   5.381 -0.1677  0.2565  0.2329
 4498SOL    HW224957   0.884   4.499   5.282  0.5873  0.7805 -0.7150
 4499SOL     OW24958   4.172   1.449   9.284  0.4578 -0.0678 -0.0870
 4499SOL    HW124959   4.164   1.403   9.200  0.5132 -2.4955  1.2377
 4499SOL    HW224960   4.264   1.441   9.312  0.8977  3.5519 -0.5336
 4500SOL     OW24961   0.527   1.218   4.193 -0.0199 -0.4474  0.5295
 4500SOL    HW124962   0.436   1.243   4.212  0.0161 -0.3801  0.6127
 4500SOL    HW224963   0.550   1.307   4.168  0.3208 -0.7618 -0.2814
 4501SOL     OW24964   0.499   1.007  16.168 -0.1512 -0.0101 -0.0677
 4501SOL    HW124965   0.575   1.062  16.188 -1.6729  2.3944 -0.9494
 4501SOL    HW224966   0.526   0.981  16.080  1.3344  1.3413 -0.0076
 4502SOL     OW24967   4.329   3.539   7.899  0.4726  0.7603 -0.0805
 4502SOL    HW124968   4.346   3.586   7.981 -1.8046 -0.4181  1.0633
 4502SOL    HW224969   4.277   3.602   7.850  0.2196 -0.3745 -1.2571
 4503SOL     OW24970   2.422   2.389   5.944 -0.4653 -0.2076  0.1854
 4503SOL    HW124971   2.388   2.334   5.873  0.5138  0.1460 -0.5401
 4503SOL    HW224972   2.436   2.475   5.905  1.0404  0.0029  1.2109
 4504SOL     OW24973   0.041   3.713   5.662  0.1895 -0.0951  0.3552
 4504SOL    HW124974   0.091   3.632   5.675  1.4352  0.5961 -0.1207
 4504SOL    HW224975   0.100   3.785   5.686 -0.2501  0.5541 -0.5261
 4505SOL     OW24976   2.546   4.712   5.700 -0.1914  0.0698  0.3370
 4505SOL    HW124977   2.466   0.040   5.708 -1.1408 -1.5530  1.5569
 4505SOL    HW224978   2.576   0.002   5.610  1.2410  2.2364  1.1802
 4506SOL     OW24979   2.103   0.432   9.638 -0.2008 -0.2677 -0.2316
 4506SOL    HW124980   2.161   0.382   9.581  2.8440  2.8442  0.0885
 4506SOL    HW224981   2.167   0.442   9.709 -0.5272  1.1286 -0.1258
 4507SOL     OW24982   2.881   4.099  13.834  0.0234  0.0312 -0.3869
 4507SOL    HW124983   2.907   4.018  13.790 -1.2806 -0.7663  0.3102
 4507SOL    HW224984   2.871   4.068  13.924  1.8299  3.0975  0.8374
 4508SOL     OW24985   4.703   4.687   4.442 -0.0937  0.5878  0.6831
 4508SOL    HW124986   4.629   4.724   4.490  1.6059  0.8169  3.1053
 4508SOL    HW224987   0.050   4.696   4.505 -1.0052  0.1067  1.7764
 4509SOL     OW24988   2.652   0.529   0.579 -0.6098  0.3103  0.3931
 4509SOL    HW124989   2.621   0.568   0.661 -2.2099 -0.3010  0.0715
 4509SOL    HW224990   2.672   0.608   0.528  2.7962 -1.2265 -0.6299
 4510SOL     OW24991   0.757   0.121  15.399 -0.1996  0.3568 -0.0490
 4510SOL    HW124992   0.771   0.137  15.306  1.1481  2.0665  0.4379
 4510SOL    HW224993   0.664   0.101  15.396 -0.1957  0.2356  0.7692
 4511SOL     OW24994   1.228   1.529   8.462 -0.1944  0.2184 -0.6074
 4511SOL    HW124995   1.317   1.557   8.480 -0.7319  2.4277 -1.4121
 4511SOL    HW224996   1.250   1.472   8.388 -0.9502  0.9828 -1.4286
 4512SOL     OW24997   3.294   0.179   7.912 -0.9167  0.4825 -0.2513
 4512SOL    HW124998   3.201   0.199   7.905 -1.1737 -1.0050 -0.9783
 4512SOL    HW224999   3.322   0.224   7.832  1.0826 -0.4988 -0.1029
 4513SOL     OW25000   0.394   3.763  10.118 -0.2255  0.5459  0.0699
 4513SOL    HW125001   0.441   3.838  10.155 -1.1603  2.0362 -1.7358
 4513SOL    HW225002   0.382   3.790  10.027 -1.5500 -0.0105  0.0767
 4514SOL     OW25003   0.495   4.001   5.808  0.0447  0.2212 -0.2725
 4514SOL    HW125004   0.542   3.993   5.724 -0.5598 -2.8612 -0.3336
 4514SOL    HW225005   0.560   4.051   5.857 -1.1593 -0.1189  1.6725
 4515SOL     OW25006   1.113   1.548  11.802  0.1805  0.2302 -1.4027
 4515SOL    HW125007   1.123   1.567  11.708 -0.0826  1.8843 -1.1017
 4515SOL    HW225008   1.049   1.477  11.801  1.2441 -0.7284 -2.0289
 4516SOL     OW25009   3.235   3.093   4.686 -0.0254  0.7633 -0.7191
 4516SOL    HW125010   3.270   3.154   4.621  1.3357  1.1557  0.3763
 4516SOL    HW225011   3.150   3.073   4.646  1.4506 -0.9558 -3.0411
 4517SOL     OW25012   4.511   3.284  12.099  0.0755  0.1277 -0.3763
 4517SOL    HW125013   4.571   3.274  12.172 -0.1977  2.3202  0.1678
 4517SOL    HW225014   4.430   3.314  12.142 -0.5542 -1.0442 -0.7609
 4518SOL     OW25015   2.956   1.415   4.881 -0.0402  0.2240 -0.3700
 4518SOL    HW125016   2.871   1.458   4.875  0.7655  1.9074  0.4374
 4518SOL    HW225017   2.994   1.453   4.961 -3.0520 -0.6127  1.4570
 4519SOL     OW25018   3.496   4.085   0.053  0.4046  0.8197  0.2835
 4519SOL    HW125019   3.572   4.068   0.110  1.5910 -2.2767 -2.1931
 4519SOL    HW225020   3.422   4.083   0.114  0.4924  0.9247  0.3935
 4520SOL     OW25021   2.665   0.598   9.769  0.4679  0.4977  0.4280
 4520SOL    HW125022   2.752   0.571   9.738  0.5389 -1.1248  2.0780
 4520SOL    HW225023   2.622   0.643   9.696  2.0846  1.9049  0.3457
 4521SOL     OW25024   0.809   4.671  17.527  0.2634  0.2337 -0.3327
 4521SOL    HW125025   0.823   4.577  17.535 -0.8281 -0.0446 -1.7518
 4521SOL    HW225026   0.825   4.692  17.619 -2.0095 -0.5069  0.2181
 4522SOL     OW25027   4.435   1.555   7.407  0.0918 -0.2170  0.0120
 4522SOL    HW125028   4.510   1.550   7.348 -1.4006 -1.9345 -1.7485
 4522SOL    HW225029   4.395   1.469   7.394 -1.4264  0.3989  0.5024
 4523SOL     OW25030   3.732   0.664   9.316 -0.0580 -0.0394  0.0337
 4523SOL    HW125031   3.728   0.615   9.398 -0.5449 -0.0119  0.0242
 4523SOL    HW225032   3.670   0.612   9.265  1.3965 -0.2951 -1.4487
 4524SOL     OW25033   3.369   4.631   3.490  0.3514  0.5520 -0.1602
 4524SOL    HW125034   3.459   4.614   3.460 -0.1238 -1.2256 -0.5362
 4524SOL    HW225035   3.335   4.674   3.411  2.6160  1.5436 -0.6043
 4525SOL     OW25036   1.524   1.259  12.970 -0.3094 -0.1976  0.3422
 4525SOL    HW125037   1.550   1.175  12.933 -0.1214  0.0426 -0.0682
 4525SOL    HW225038   1.443   1.228  13.010 -2.1910  1.5357 -2.0810
 4526SOL     OW25039   0.405   3.503  14.594  0.1676  0.2196  0.4205
 4526SOL    HW125040   0.344   3.577  14.602 -0.1671 -0.1101  0.8674
 4526SOL    HW225041   0.355   3.442  14.539 -0.8540  2.3694 -1.0539
 4527SOL     OW25042   2.019   3.761   7.578  0.3559  0.1175 -0.0505
 4527SOL    HW125043   1.971   3.838   7.547 -1.3767 -1.5834 -1.5509
 4527SOL    HW225044   2.103   3.775   7.534  0.3745  4.2088  1.2625
 4528SOL     OW25045   2.817   0.741   3.143  0.4802  0.2650 -0.1890
 4528SOL    HW125046   2.798   0.797   3.219  0.2894 -0.0436 -0.0097
 4528SOL    HW225047   2.775   0.662   3.177  1.0990  0.8104  1.8633
 4529SOL     OW25048   0.763   1.662  12.275 -0.1444 -0.5189  0.2513
 4529SOL    HW125049   0.721   1.675  12.360 -0.9147  0.6095 -0.2926
 4529SOL    HW225050   0.708   1.598  12.229 -0.7037  1.6497 -2.0960
 4530SOL     OW25051   1.455   1.246   0.672  0.0182 -0.0678 -0.1848
 4530SOL    HW125052   1.476   1.167   0.722 -0.5946 -1.1181 -1.5907
 4530SOL    HW225053   1.516   1.309   0.711 -1.7901  2.0693 -0.8096
 4531SOL     OW25054   3.868   4.695  14.382 -0.4130  0.4357 -0.3155
 4531SOL    HW125055   3.934   0.013  14.328  0.8724  0.8357  1.5447
 4531SOL    HW225056   3.794   0.023  14.353 -0.4920 -0.4739 -1.7237
 4532SOL     OW25057   1.505   1.810   3.614  0.4466  0.1880 -0.1586
 4532SOL    HW125058   1.423   1.801   3.564  0.9855 -1.3844 -0.7521
 4532SOL    HW225059   1.543   1.723   3.616 -0.2492 -0.1024  0.3794
 4533SOL     OW25060   3.356   1.700   5.177  0.7560 -0.2628 -0.1981
 4533SOL    HW125061   3.281   1.750   5.146  2.5955  1.8513 -1.2019
 4533SOL    HW225062   3.423   1.743   5.125  0.2994  0.9490  0.2151
 4534SOL     OW25063   2.048   3.459  10.399  0.1270  0.2932  0.4645
 4534SOL    HW125064   1.980   3.428  10.339  2.4774  0.0959 -2.1388
 4534SOL    HW225065   2.129   3.437  10.351  0.3698  1.6154  0.2618
 4535SOL     OW25066   0.946   3.874   9.145  0.2982 -0.2199  0.0643
 4535SOL    HW125067   1.000   3.796   9.142  1.1101  0.3017  1.0353
 4535SOL    HW225068   1.010   3.938   9.177  0.9935  0.2968 -2.4013
 4536SOL     OW25069   1.086   3.318  13.574  0.0914  0.0844 -0.3878
 4536SOL    HW125070   1.125   3.235  13.604  0.1952 -0.0237 -0.8222
 4536SOL    HW225071   1.148   3.382  13.609 -1.0448  0.6612  0.5807
 4537SOL     OW25072   3.539   0.035   6.223 -0.0068 -0.3590 -0.1003
 4537SOL    HW125073   3.490   0.053   6.303 -0.0480 -2.0316  0.2420
 4537SOL    HW225074   3.527   0.118   6.177 -0.8709 -1.3505 -1.6607
 4538SOL     OW25075   1.666   4.634   3.285 -0.3182  0.0423  0.1326
 4538SOL    HW125076   1.684   4.656   3.194  0.3535 -1.4349 -0.0769
 4538SOL    HW225077   1.591   4.575   3.284  0.0844 -0.4983  2.2491
 4539SOL     OW25078   3.142   1.356  14.189  0.2620  0.2139 -0.1918
 4539SOL    HW125079   3.216   1.345  14.249 -2.1013  1.0588  2.8631
 4539SOL    HW225080   3.112   1.444  14.211 -2.6631 -0.4057 -1.7561
 4540SOL     OW25081   2.962   3.350   2.969 -0.3310 -0.1276 -0.1061
 4540SOL    HW125082   2.997   3.264   2.946 -2.8523 -1.6473  1.8422
 4540SOL    HW225083   2.987   3.359   3.061  2.0357  1.3827 -0.8654
 4541SOL     OW25084   2.435   1.689   8.897  0.3269 -0.0075 -0.5001
 4541SOL    HW125085   2.485   1.608   8.905  0.0194 -0.1828 -0.3949
 4541SOL    HW225086   2.474   1.735   8.972 -2.9110 -1.2100  1.9059
 4542SOL     OW25087   3.632   2.553   6.566  0.0319 -0.1366 -0.1942
 4542SOL    HW125088   3.671   2.491   6.504  2.2568  0.4916  0.5860
 4542SOL    HW225089   3.692   2.540   6.639  1.3796 -1.5607 -1.5559
 4543SOL     OW25090   1.910   4.378   2.247 -0.2051 -0.3999  0.3289
 4543SOL    HW125091   1.913   4.437   2.322  0.2190 -0.7394  0.5781
 4543SOL    HW225092   1.859   4.430   2.185 -0.6822 -0.1733  0.9072
 4544SOL     OW25093   1.283   1.562   3.663 -0.2593 -0.2991  0.1439
 4544SOL    HW125094   1.307   1.470   3.655  2.0215  0.3134 -0.2532
 4544SOL    HW225095   1.325   1.593   3.582  1.9092 -1.4820  0.8212
 4545SOL     OW25096   3.898   0.715   6.665  0.7742 -0.1954  0.5817
 4545SOL    HW125097   3.936   0.738   6.581 -0.8325  0.0097 -0.0821
 4545SOL    HW225098   3.879   0.801   6.701  0.9448  0.2757 -0.4663
 4546SOL     OW25099   3.055   3.109   4.290 -0.1492 -0.1078 -0.0773
 4546SOL    HW125100   3.112   3.057   4.234  0.9335  1.3797 -0.3498
 4546SOL    HW225101   2.990   3.144   4.230 -0.9575 -2.3075 -0.4746
 4547SOL     OW25102   2.990   0.179   9.610  0.1733 -0.3555  0.1897
 4547SOL    HW125103   3.083   0.183   9.588 -0.3692  0.9602 -1.8678
 4547SOL    HW225104   2.986   0.138   9.697 -3.6354 -0.4910 -0.0545
 4548SOL     OW25105   4.562   3.429   4.651 -0.2693  0.4778  0.0837
 4548SOL    HW125106   4.573   3.407   4.743 -3.4205  0.5329  0.4581
 4548SOL    HW225107   4.497   3.363   4.626 -0.5470  0.2474  1.4216
 4549SOL     OW25108   4.194   0.652   5.440 -0.4393  0.1025 -0.3247
 4549SOL    HW125109   4.119   0.709   5.453 -1.0596 -1.2135  1.9017
 4549SOL    HW225110   4.249   0.678   5.515 -2.9355 -0.2864  1.6633
 4550SOL     OW25111   2.193   3.380   2.503  0.0939 -1.0633  0.0162
 4550SOL    HW125112   2.258   3.444   2.476 -0.6814 -0.3668 -0.1787
 4550SOL    HW225113   2.118   3.431   2.531 -0.5216 -1.5885 -0.6721
 4551SOL     OW25114   2.375   4.274   4.151  0.0713  0.0173  0.0081
 4551SOL    HW125115   2.397   4.188   4.114  1.4326  2.2776 -4.5088
 4551SOL    HW225116   2.444   4.327   4.110  0.6147 -1.5312 -1.0717
 4552SOL     OW25117   0.483   1.851   6.339 -0.3093 -0.1019  0.6280
 4552SOL    HW125118   0.523   1.923   6.290 -1.9731 -0.9475 -1.9069
 4552SOL    HW225119   0.413   1.824   6.281 -0.5907  0.7441  0.5707
 4553SOL     OW25120   3.900   1.312  15.004  0.2284 -0.1359 -0.1621
 4553SOL    HW125121   3.890   1.220  15.030  0.7766 -0.1696 -0.0771
 4553SOL    HW225122   3.965   1.308  14.934 -0.8811 -1.7629 -1.1245
 4554SOL     OW25123   1.788   3.150  13.702 -0.5768  0.1864  0.1639
 4554SOL    HW125124   1.806   3.240  13.732 -0.7482  0.2208  0.1595
 4554SOL    HW225125   1.811   3.156  13.610  0.4838 -1.0318  0.3515
 4555SOL     OW25126   1.397   4.544   1.095 -0.0007  0.8526 -0.4581
 4555SOL    HW125127   1.355   4.526   1.011  0.3082 -3.1573  0.2587
 4555SOL    HW225128   1.349   4.622   1.123 -1.5104 -0.8631  1.6265
 4556SOL     OW25129   0.162   1.108   4.432  0.0410  0.3933 -0.8610
 4556SOL    HW125130   0.226   1.119   4.502 -1.1520 -0.7238  0.4248
 4556SOL    HW225131   0.184   1.184   4.379  1.6549 -0.1307 -0.9294
 4557SOL     OW25132   2.906   4.120   4.306 -0.0682  0.2541 -0.3719
 4557SOL    HW125133   2.872   4.198   4.262  1.3601  1.7088  1.1017
 4557SOL    HW225134   2.898   4.136   4.400  1.6742  0.3068 -0.2314
 4558SOL     OW25135   0.406   0.163   6.412  0.9061 -0.0691 -0.3234
 4558SOL    HW125136   0.398   0.069   6.432  0.6101  0.1014  0.3594
 4558SOL    HW225137   0.368   0.152   6.325  2.1814 -1.0561 -0.7553
 4559SOL     OW25138   1.325   3.831  16.222 -0.5256 -0.0913  0.2476
 4559SOL    HW125139   1.263   3.834  16.149  2.0255  2.1923 -1.8120
 4559SOL    HW225140   1.276   3.877  16.290  0.8283 -1.5048  2.1487
 4560SOL     OW25141   4.401   2.379   8.463 -0.7295 -0.4691 -0.5703
 4560SOL    HW125142   4.322   2.330   8.487 -0.1595 -0.4605  1.3603
 4560SOL    HW225143   4.367   2.445   8.404 -1.0002 -0.8416 -0.8357
 4561SOL     OW25144   0.911   0.083  16.909 -0.5877  0.1252  0.6473
 4561SOL    HW125145   0.864   0.100  16.828  0.8046  3.1739  0.4543
 4561SOL    HW225146   1.004   0.086  16.886 -0.6150 -1.7988  0.3321
 4562SOL     OW25147   4.482   3.123   8.836  0.6102  0.3412  0.2918
 4562SOL    HW125148   4.443   3.114   8.749 -0.7697  0.1064  0.9349
 4562SOL    HW225149   4.575   3.122   8.816  0.6663  2.5712  0.4604
 4563SOL     OW25150   1.361   0.602  12.674 -0.2538  0.3851 -0.0834
 4563SOL    HW125151   1.303   0.670  12.639 -0.6902 -0.8529 -1.7106
 4563SOL    HW225152   1.307   0.595  12.753 -1.2010 -2.5950 -1.0238
 4564SOL     OW25153   1.950   3.354   5.659 -0.1897 -0.2410 -0.3630
 4564SOL    HW125154   1.866   3.368   5.703 -0.5997 -1.0472 -0.8932
 4564SOL    HW225155   1.916   3.357   5.569  1.1139 -1.0541 -0.8749
 4565SOL     OW25156   4.111   2.221  12.024  0.2538 -0.4439  0.6262
 4565SOL    HW125157   4.206   2.224  12.011 -0.0391 -1.2716 -1.6359
 4565SOL    HW225158   4.093   2.137  12.066 -0.9399  0.1540  1.3203
 4566SOL     OW25159   1.743   2.575   3.428 -0.0109  0.3707  0.3824
 4566SOL    HW125160   1.753   2.494   3.378  2.3896  1.4557 -0.8962
 4566SOL    HW225161   1.835   2.600   3.437  0.2230 -1.0380  1.9531
 4567SOL     OW25162   4.025   4.578  12.379  0.5442 -0.4875  0.0736
 4567SOL    HW125163   4.007   4.640  12.308 -1.9475 -1.8624 -0.4995
 4567SOL    HW225164   4.121   4.575  12.385  0.5528 -0.9289 -0.2514
 4568SOL     OW25165   1.935   3.827   6.449 -0.7589  0.1117 -0.2942
 4568SOL    HW125166   1.893   3.822   6.363 -1.0116 -1.5651 -0.0708
 4568SOL    HW225167   1.906   3.742   6.481 -2.4968  0.2489 -1.4883
 4569SOL     OW25168   2.377   2.434   7.977  0.0322  0.1591 -0.6498
 4569SOL    HW125169   2.304   2.444   7.916 -1.6628 -0.9362  1.1553
 4569SOL    HW225170   2.330   2.382   8.043  2.4383 -2.3879 -0.9600
 4570SOL     OW25171   4.131   3.300   3.293 -0.0467  0.1880 -0.7352
 4570SOL    HW125172   4.132   3.206   3.311  0.5048 -0.0499 -2.0104
 4570SOL    HW225173   4.157   3.329   3.381 -2.2576 -0.9235  0.2814
 4571SOL     OW25174   2.827   0.265  12.658  0.2234 -0.0140  0.4988
 4571SOL    HW125175   2.741   0.230  12.634  0.2209 -1.2381  2.2932
 4571SOL    HW225176   2.823   0.357  12.631 -0.0723 -0.3080 -0.4747
 4572SOL     OW25177   0.831   4.512   6.584  0.3316 -0.3038  0.0832
 4572SOL    HW125178   0.831   4.421   6.613  0.1331 -0.5999 -0.8624
 4572SOL    HW225179   0.740   4.534   6.603  0.1812  1.0974 -2.2810
 4573SOL     OW25180   0.356   1.606  15.980  0.2440 -0.5432  0.1081
 4573SOL    HW125181   0.261   1.611  15.965  0.4353  1.5402 -0.4599
 4573SOL    HW225182   0.382   1.515  15.973  1.5599 -0.2972  2.0070
 4574SOL     OW25183   3.716   4.181   3.700 -0.3331  1.0182  0.1736
 4574SOL    HW125184   3.623   4.157   3.696 -0.4808  1.8115 -1.0371
 4574SOL    HW225185   3.731   4.174   3.795 -2.5839  0.6521  0.5033
 4575SOL     OW25186   3.795   3.209   7.428 -0.2373  0.2529  0.5282
 4575SOL    HW125187   3.840   3.242   7.506  0.8083  0.9411 -0.3729
 4575SOL    HW225188   3.736   3.279   7.403  0.4787  0.6647 -0.0033
 4576SOL     OW25189   1.477   2.834   2.930 -0.3341  0.0549  0.2697
 4576SOL    HW125190   1.411   2.834   2.861 -0.5383 -1.5970  0.4861
 4576SOL    HW225191   1.482   2.749   2.974 -0.4794  0.9508  2.0459
 4577SOL     OW25192   4.088   4.393   3.039  1.2984 -0.1083  0.0066
 4577SOL    HW125193   4.019   4.390   2.972  1.1450 -0.5712  0.1843
 4577SOL    HW225194   4.035   4.342   3.100 -0.4269  1.6366 -0.0227
 4578SOL     OW25195   4.610   2.661   3.270 -0.5357 -0.5424 -0.2846
 4578SOL    HW125196   4.642   2.733   3.217 -1.7765 -0.8557 -1.4518
 4578SOL    HW225197   4.559   2.602   3.215 -0.4434  1.6225 -2.6424
 4579SOL     OW25198   2.800   0.393  15.864  0.3974  0.3704  0.1228
 4579SOL    HW125199   2.868   0.407  15.799 -0.5201 -1.9041 -1.3411
 4579SOL    HW225200   2.802   0.479  15.906  1.1446 -0.7834  2.4314
 4580SOL     OW25201   1.206   2.154   5.145  0.5120  0.3771 -0.1760
 4580SOL    HW125202   1.265   2.079   5.137 -0.0474  0.1261 -1.9103
 4580SOL    HW225203   1.196   2.153   5.241  0.8129 -0.8641 -0.1600
 4581SOL     OW25204   0.286   2.963   2.121  1.0135  0.4735 -0.1133
 4581SOL    HW125205   0.208   2.964   2.176  1.1894  0.1335  0.1392
 4581SOL    HW225206   0.259   3.024   2.052  0.2710 -0.2949 -0.5053
 4582SOL     OW25207   2.932   1.458  16.025 -0.5003 -0.3199  0.2518
 4582SOL    HW125208   2.934   1.373  16.069  1.3946 -0.9639 -1.0917
 4582SOL    HW225209   2.843   1.457  15.990 -0.0130  1.1263 -1.0154
 4583SOL     OW25210   1.280   0.460   4.601  0.4458  0.0223 -0.0350
 4583SOL    HW125211   1.239   0.528   4.548  0.2985 -0.8174 -0.9954
 4583SOL    HW225212   1.372   0.480   4.585  0.0601  1.7688 -0.0817
 4584SOL     OW25213   0.510   3.521  11.437 -0.5571 -0.0653  0.3834
 4584SOL    HW125214   0.442   3.491  11.377 -0.9742  0.9972  0.3066
 4584SOL    HW225215   0.475   3.605  11.468 -2.3296  0.7432 -3.8000
 4585SOL     OW25216   3.839   2.409   8.255  0.0918 -0.7775 -0.4496
 4585SOL    HW125217   3.785   2.333   8.278 -1.9512 -0.0399 -2.9072
 4585SOL    HW225218   3.780   2.482   8.273  1.8598  0.3827  0.6186
 4586SOL     OW25219   0.251   0.258  15.512  0.5564 -0.3854  0.7397
 4586SOL    HW125220   0.165   0.239  15.473  0.4300 -0.4230  1.0387
 4586SOL    HW225221   0.213   0.278  15.597 -1.5801 -1.1520 -0.0421
 4587SOL     OW25222   1.797   2.357   5.749 -0.2856  0.0808 -0.1257
 4587SOL    HW125223   1.729   2.311   5.799  0.3151  0.3172  0.9040
 4587SOL    HW225224   1.773   2.447   5.772 -0.1089 -0.3889  1.9481
 4588SOL     OW25225   3.513   0.047   8.527  0.1979  0.2995  0.3110
 4588SOL    HW125226   3.495   4.688   8.484 -0.2153  0.9437 -0.7899
 4588SOL    HW225227   3.495   0.028   8.619 -1.8248 -0.9924 -0.3576
 4589SOL     OW25228   2.019   3.309  13.924  0.6918 -0.1436  0.4448
 4589SOL    HW125229   1.988   3.366  13.853 -0.9012  1.3221  2.3271
 4589SOL    HW225230   1.958   3.336  13.993 -1.2938  0.6945 -1.6455
 4590SOL     OW25231   0.855   4.288   3.796  1.4004 -0.1229  0.4374
 4590SOL    HW125232   0.851   4.193   3.800 -1.8681  0.0393  0.9526
 4590SOL    HW225233   0.781   4.304   3.738  0.0241 -0.5117  2.0973
 4591SOL     OW25234   3.729   1.849  16.693  0.0560 -0.0250 -0.3563
 4591SOL    HW125235   3.765   1.890  16.614  0.0031 -1.9548 -1.3961
 4591SOL    HW225236   3.721   1.925  16.750 -0.2421 -1.2293  1.2212
 4592SOL     OW25237   2.323   0.802   2.022 -0.1941  0.3186  0.2451
 4592SOL    HW125238   2.350   0.893   2.035 -1.8073  0.7215  0.6508
 4592SOL    HW225239   2.239   0.796   2.067 -0.3927  0.3881 -0.1164
 4593SOL     OW25240   3.458   3.877   1.451 -0.0908  0.2677  0.2238
 4593SOL    HW125241   3.517   3.823   1.504  2.7104  0.6443 -2.5697
 4593SOL    HW225242   3.515   3.950   1.429 -0.7586  0.8338  0.3428
 4594SOL     OW25243   0.419   1.679   4.840 -0.2008 -0.1930 -0.2873
 4594SOL    HW125244   0.383   1.766   4.822 -1.9598 -0.7115  0.7304
 4594SOL    HW225245   0.384   1.649   4.924 -2.6104  0.0186 -1.2167
 4595SOL     OW25246   1.038   3.509   9.779 -0.0428 -0.4727  0.5249
 4595SOL    HW125247   0.988   3.429   9.797  1.7872 -1.6156  0.5782
 4595SOL    HW225248   1.025   3.561   9.858  2.6888 -0.6484  1.0730
 4596SOL     OW25249   4.396   3.964   7.686 -0.5807  0.3187  0.2367
 4596SOL    HW125250   4.366   3.970   7.595 -0.5819  1.8044  0.3443
 4596SOL    HW225251   4.388   3.870   7.704  0.2407 -0.0294 -1.1193
 4597SOL     OW25252   3.065   2.333   3.769 -0.4411 -0.5724  0.5930
 4597SOL    HW125253   3.015   2.373   3.840 -0.5149  2.9507 -1.4720
 4597SOL    HW225254   2.993   2.299   3.715  1.5586  0.3644 -2.6291
 4598SOL     OW25255   2.173   3.634   8.026  0.3947  0.0268  0.2415
 4598SOL    HW125256   2.158   3.712   7.974 -0.1405 -0.3196 -0.1346
 4598SOL    HW225257   2.101   3.641   8.089  0.4036  1.4545  0.0878
 4599SOL     OW25258   0.210   3.913   5.782 -0.7175 -0.2039 -0.3978
 4599SOL    HW125259   0.238   3.858   5.856  0.8227 -0.5771 -1.2531
 4599SOL    HW225260   0.291   3.963   5.767 -0.1640 -1.0810 -0.3523
 4600SOL     OW25261   3.218   4.423   4.644  0.3510  0.1616 -0.2361
 4600SOL    HW125262   3.232   4.380   4.728  0.7037 -0.9217 -0.8470
 4600SOL    HW225263   3.305   4.428   4.604  1.1870 -0.2532  1.5548
 4601SOL     OW25264   2.305   0.375   8.428  0.8262 -0.0665  0.1611
 4601SOL    HW125265   2.399   0.358   8.427  1.1541  1.8669 -1.0145
 4601SOL    HW225266   2.307   0.471   8.431  1.9997 -0.1463  1.9067
 4602SOL     OW25267   4.142   3.056   3.953  0.3444 -0.1180  0.2412
 4602SOL    HW125268   4.097   2.972   3.961 -0.1004  0.1394  0.4530
 4602SOL    HW225269   4.215   3.036   4.010  0.2822  1.5372  0.9022
 4603SOL     OW25270   0.500   3.680   8.721  0.3219 -0.0439  0.3940
 4603SOL    HW125271   0.479   3.593   8.757 -0.8023 -0.5326 -1.4003
 4603SOL    HW225272   0.542   3.718   8.797  1.4533 -1.0667  0.2768
 4604SOL     OW25273   1.947   2.797   9.381  0.0911 -0.0716 -1.1142
 4604SOL    HW125274   1.968   2.888   9.402 -0.0742  0.0875 -1.6537
 4604SOL    HW225275   2.032   2.756   9.392  0.4986  0.7510 -1.2053
 4605SOL     OW25276   4.197   2.965   0.529  0.0916 -0.1577  0.7726
 4605SOL    HW125277   4.176   2.952   0.437 -0.4946  1.0621  0.7359
 4605SOL    HW225278   4.260   3.037   0.524  1.3791 -1.3882 -0.6738
 4606SOL     OW25279   1.864   2.050  12.320  0.1541  0.5202 -0.3543
 4606SOL    HW125280   1.906   2.111  12.380  2.4651  1.1524 -2.6163
 4606SOL    HW225281   1.876   1.968  12.368 -2.6430  1.3173  1.7349
 4607SOL     OW25282   2.819   3.786   8.943 -0.3677  0.5811 -0.3536
 4607SOL    HW125283   2.845   3.770   8.852 -1.8046 -0.1263 -0.6309
 4607SOL    HW225284   2.865   3.868   8.962  0.5218  0.3870 -1.6991
 4608SOL     OW25285   3.604   0.812   8.640  0.9255 -0.1888  0.4097
 4608SOL    HW125286   3.678   0.848   8.688  0.9330  0.4276 -0.0645
 4608SOL    HW225287   3.648   0.734   8.608  0.6873  0.0552 -0.5014
 4609SOL     OW25288   1.084   3.912   2.768  0.1259  0.2213 -0.9856
 4609SOL    HW125289   1.087   3.991   2.822 -1.1309 -1.9185  2.2212
 4609SOL    HW225290   1.118   3.946   2.685  3.0773 -0.3191  0.0005
 4610SOL     OW25291   3.164   3.662   5.903 -0.2106  0.0844 -0.2412
 4610SOL    HW125292   3.109   3.655   5.980 -2.4406  0.0938 -1.8543
 4610SOL    HW225293   3.112   3.620   5.835 -0.2331  0.5517 -0.5104
 4611SOL     OW25294   0.328   3.458   3.797 -0.6165  0.4577 -0.0636
 4611SOL    HW125295   0.364   3.494   3.717  0.1663 -0.4926 -0.1493
 4611SOL    HW225296   0.234   3.463   3.779 -1.1575 -3.1018  1.5726
 4612SOL     OW25297   2.717   3.950  17.237 -0.0229  0.0564  0.3543
 4612SOL    HW125298   2.679   4.038  17.238  0.2243  0.1887 -2.0614
 4612SOL    HW225299   2.797   3.960  17.288  0.8238  1.2981 -1.2349
 4613SOL     OW25300   2.024   3.069  13.118  0.5174  0.3910 -0.1460
 4613SOL    HW125301   1.936   3.106  13.104 -0.7823 -1.8757  2.2644
 4613SOL    HW225302   2.023   3.062  13.213  0.8707  2.4833  0.0317
 4614SOL     OW25303   2.416   1.798  13.093  0.3893 -0.0926 -0.8104
 4614SOL    HW125304   2.471   1.870  13.123 -1.7730  0.9089  0.7722
 4614SOL    HW225305   2.338   1.850  13.073  1.3439  1.4460 -0.5180
 4615SOL     OW25306   3.428   1.061  17.242  0.2510 -0.2394  0.1323
 4615SOL    HW125307   3.372   1.099  17.309  1.2474 -2.1549  2.0425
 4615SOL    HW225308   3.454   0.979  17.284 -2.2775 -2.1354 -1.9622
 4616SOL     OW25309   2.574   2.291   9.129 -0.4881 -0.3130  0.3500
 4616SOL    HW125310   2.493   2.284   9.078 -1.0158  0.8257  1.0409
 4616SOL    HW225311   2.555   2.314   9.220 -1.2875  1.4600 -0.2691
 4617SOL     OW25312   1.025   3.287   4.449 -0.2567 -1.0512 -0.1588
 4617SOL    HW125313   0.962   3.239   4.503  1.4086 -4.2672 -1.1110
 4617SOL    HW225314   1.011   3.373   4.490 -2.9675 -1.0733 -1.0429
 4618SOL     OW25315   1.516   0.550  15.058 -0.1233 -0.3918  0.3239
 4618SOL    HW125316   1.568   0.488  15.007  2.1290  0.7245  1.2962
 4618SOL    HW225317   1.430   0.509  15.064 -0.5216  0.5215  0.9286
 4619SOL     OW25318   3.669   1.764   2.174 -0.2941  0.5348  0.2769
 4619SOL    HW125319   3.656   1.705   2.248 -1.2857  0.1907 -0.1656
 4619SOL    HW225320   3.586   1.751   2.128 -0.6838 -1.0590  1.4391
 4620SOL     OW25321   2.850   0.093   6.933 -0.2288 -0.1514 -0.1958
 4620SOL    HW125322   2.814   0.155   6.869  0.1420 -0.1895 -0.4430
 4620SOL    HW225323   2.780   0.030   6.947 -1.0046  0.5559 -0.8350
 4621SOL     OW25324   3.328   2.872   2.710  0.2337 -0.1919 -0.1089
 4621SOL    HW125325   3.330   2.921   2.628  0.0842 -0.4131 -0.2440
 4621SOL    HW225326   3.249   2.908   2.750  1.4823  1.5109  0.7995
 4622SOL     OW25327   1.179   1.626  11.529 -0.3905 -0.5185  0.0480
 4622SOL    HW125328   1.244   1.584  11.473  1.3855  1.0110  0.9390
 4622SOL    HW225329   1.189   1.718  11.506 -0.4242 -0.8309 -1.1864
 4623SOL     OW25330   3.859   0.404   5.449 -0.0683  0.2083 -0.4538
 4623SOL    HW125331   3.852   0.439   5.360 -0.4650 -0.6950 -0.7800
 4623SOL    HW225332   3.852   0.482   5.504  2.7570  0.5873 -0.6338
 4624SOL     OW25333   2.282   1.021   6.025  0.1024 -0.9074  0.2915
 4624SOL    HW125334   2.248   1.070   5.950  0.8376 -0.2801  0.3650
 4624SOL    HW225335   2.218   1.048   6.091  0.4097  2.2237 -0.6746
 4625SOL     OW25336   2.680   2.359  11.847 -0.2205  0.3201  0.0357
 4625SOL    HW125337   2.734   2.281  11.832  1.0059  0.9336  1.1529
 4625SOL    HW225338   2.727   2.432  11.807  1.7592 -0.9932 -0.0520
 4626SOL     OW25339   1.968   2.096   7.015 -0.1357  0.7041  0.1001
 4626SOL    HW125340   2.000   2.077   6.927  1.7892  3.2509  0.2278
 4626SOL    HW225341   1.878   2.125   7.004 -0.4850  0.4194  2.1871
 4627SOL     OW25342   3.017   0.684   2.616 -0.0487  0.2669 -0.2300
 4627SOL    HW125343   2.972   0.644   2.690 -0.8289  2.1602  0.3271
 4627SOL    HW225344   2.944   0.686   2.554 -1.1810  1.6698  1.1800
 4628SOL     OW25345   4.310   3.050  13.346  0.0788  0.5756 -0.3631
 4628SOL    HW125346   4.372   3.115  13.312 -0.9456  1.0624 -1.3022
 4628SOL    HW225347   4.363   2.982  13.388  1.2315  0.2950 -2.2792
 4629SOL     OW25348   4.533   3.087   9.720 -0.1291  0.3472  0.4320
 4629SOL    HW125349   4.454   3.117   9.675  1.3312  0.3315 -2.1703
 4629SOL    HW225350   4.529   3.137   9.801  3.0619 -1.4354  1.7085
 4630SOL     OW25351   1.544   0.743   2.454 -0.0360  0.4459  0.3634
 4630SOL    HW125352   1.575   0.682   2.388  1.7421  2.6609 -0.8692
 4630SOL    HW225353   1.633   0.774   2.472  0.4195  0.2165 -1.5122
 4631SOL     OW25354   2.676   2.050   5.929 -0.1239 -0.0094 -0.0540
 4631SOL    HW125355   2.741   2.006   5.983 -1.7430 -0.3909  1.5774
 4631SOL    HW225356   2.601   2.038   5.987 -0.4502  1.1650 -0.2350
 4632SOL     OW25357   1.210   0.187   2.381 -0.1666 -0.2308  0.2210
 4632SOL    HW125358   1.156   0.108   2.378  0.3210 -0.5513 -0.0471
 4632SOL    HW225359   1.148   0.260   2.382  0.3747  0.2367 -0.5356
 4633SOL     OW25360   3.815   3.211  15.824  0.4685  0.0251 -0.1933
 4633SOL    HW125361   3.767   3.135  15.858 -0.8660 -0.7108 -3.6510
 4633SOL    HW225362   3.864   3.226  15.905  2.0302  0.5224 -1.2270
 4634SOL     OW25363   0.146   4.501   2.708 -0.3678  0.2842 -0.1142
 4634SOL    HW125364   0.106   4.565   2.650  0.4906  1.2123  0.3125
 4634SOL    HW225365   0.103   4.418   2.686  0.1964 -0.8194  3.0655
 4635SOL     OW25366   0.719   3.728   3.788 -0.5463 -0.1560  0.4859
 4635SOL    HW125367   0.786   3.678   3.742 -2.4837 -3.5534  1.3677
 4635SOL    HW225368   0.745   3.690   3.872  1.2566 -1.3002 -0.5868
 4636SOL     OW25369   0.499   1.437   2.802 -0.4496  0.4228 -0.0419
 4636SOL    HW125370   0.569   1.412   2.862  0.0063  2.5786  0.3449
 4636SOL    HW225371   0.519   1.384   2.725  1.7708 -1.1325  1.6286
 4637SOL     OW25372   0.833   3.385  13.447 -0.2731 -0.6988 -0.3439
 4637SOL    HW125373   0.922   3.376  13.483 -0.7053 -0.7848  0.7054
 4637SOL    HW225374   0.776   3.339  13.509 -0.9931  0.5400 -0.1034
 4638SOL     OW25375   2.600   3.746  17.349  0.1372 -0.2667 -0.4198
 4638SOL    HW125376   2.649   3.811  17.299  0.6017  0.6566  1.2668
 4638SOL    HW225377   2.521   3.747  17.294  0.0048 -0.0477 -0.2248
 4639SOL     OW25378   3.025   1.383   8.800  0.3306 -0.4193  0.2297
 4639SOL    HW125379   2.963   1.318   8.765  1.9004 -0.5547 -2.3634
 4639SOL    HW225380   2.968   1.448   8.839 -0.6456 -0.3826 -1.2599
 4640SOL     OW25381   3.713   4.369   1.796  0.1417 -0.3388 -0.8548
 4640SOL    HW125382   3.669   4.413   1.869  0.2322 -1.8004  0.0630
 4640SOL    HW225383   3.772   4.310   1.843 -1.0565  0.8898  2.1951
 4641SOL     OW25384   1.217   4.281   3.981  0.2731 -0.8265  0.2974
 4641SOL    HW125385   1.258   4.218   3.922 -0.7566 -1.3697  0.1689
 4641SOL    HW225386   1.158   4.232   4.038 -0.4205 -1.3049 -0.8634
 4642SOL     OW25387   4.083   2.110  14.425  0.3923  0.5235 -0.0316
 4642SOL    HW125388   4.037   2.105  14.341 -2.0948 -2.0730  1.4899
 4642SOL    HW225389   4.038   2.048  14.482 -0.7375  1.6949  0.3756
 4643SOL     OW25390   3.346   2.215   8.116 -0.3709 -0.5892 -0.3290
 4643SOL    HW125391   3.278   2.167   8.163 -0.4931 -0.1566 -0.0573
 4643SOL    HW225392   3.292   2.262   8.052 -0.2290  1.6959  1.1954
 4644SOL     OW25393   2.861   4.430  10.435 -0.2897  0.3128  0.5281
 4644SOL    HW125394   2.920   4.369  10.391  2.1146  1.1538  2.5417
 4644SOL    HW225395   2.777   4.413  10.394 -0.6784  0.7332  1.1471
 4645SOL     OW25396   0.186   4.208   0.572  0.1808  0.2510 -0.3834
 4645SOL    HW125397   0.204   4.301   0.561 -2.9697  0.8484 -0.5984
 4645SOL    HW225398   0.241   4.177   0.644  1.6333 -1.8467 -2.4068
 4646SOL     OW25399   0.527   4.673   0.673  0.3223 -0.3472 -0.2733
 4646SOL    HW125400   0.606   4.662   0.726 -0.5008  1.6712  1.3680
 4646SOL    HW225401   0.553   4.714   0.590  0.5949 -2.4511 -1.2360
 4647SOL     OW25402   4.051   3.055   0.964  0.1428  0.0950  0.1122
 4647SOL    HW125403   4.024   2.974   1.007 -0.8629 -0.3916 -1.4050
 4647SOL    HW225404   4.145   3.043   0.959 -0.0878 -0.8394 -1.8219
 4648SOL     OW25405   1.160   0.981   5.545 -0.1710  0.1869 -0.7917
 4648SOL    HW125406   1.174   1.064   5.500  1.7603  0.6959  0.7682
 4648SOL    HW225407   1.185   0.911   5.484 -0.4340 -0.0016 -0.6846
 4649SOL     OW25408   2.605   1.328   9.213 -0.1134 -0.8574  0.6292
 4649SOL    HW125409   2.699   1.339   9.225 -0.2958  4.0107 -2.4124
 4649SOL    HW225410   2.587   1.248   9.264  1.2078 -1.4198  0.2003
 4650SOL     OW25411   1.813   0.556   9.810 -0.5087 -0.0162  0.0847
 4650SOL    HW125412   1.736   0.503   9.790 -1.4106  1.0783  0.6627
 4650SOL    HW225413   1.866   0.491   9.857  0.5156 -1.3208 -2.8579
 4651SOL     OW25414   0.046   1.124  13.477 -0.1347 -0.1799  0.4762
 4651SOL    HW125415   4.683   1.129  13.439  0.4834 -4.4342 -1.5426
 4651SOL    HW225416   0.026   1.096  13.567 -0.2647 -1.7470 -0.0509
 4652SOL     OW25417   1.140   3.878   4.379  0.1220 -0.0655  0.4134
 4652SOL    HW125418   1.229   3.909   4.396  0.9659 -1.5032 -1.3236
 4652SOL    HW225419   1.151   3.824   4.301  2.7472 -3.2545  3.0228
 4653SOL     OW25420   4.032   3.333   2.451 -0.0370 -0.3599  0.0564
 4653SOL    HW125421   3.974   3.300   2.520  0.5715  0.8950  1.1800
 4653SOL    HW225422   3.978   3.293   2.383 -0.9715 -0.3119  0.7715
 4654SOL     OW25423   1.872   3.559   7.905 -0.5478  0.2839 -0.1421
 4654SOL    HW125424   1.824   3.532   7.826 -0.9029  0.7796 -0.0936
 4654SOL    HW225425   1.815   3.610   7.962 -2.4460  0.4036 -2.1231
 4655SOL     OW25426   1.870   3.135   3.271 -0.5132 -0.3037 -0.0167
 4655SOL    HW125427   1.784   3.094   3.273 -0.0690 -1.3285 -2.7955
 4655SOL    HW225428   1.919   3.085   3.206  1.0875  1.5214 -0.2412
 4656SOL     OW25429   1.879   3.007   5.117  0.2766  0.4146  0.0908
 4656SOL    HW125430   1.944   2.971   5.177  2.0409  1.7394 -0.9826
 4656SOL    HW225431   1.792   2.978   5.142  0.8005 -1.0405  0.2258
 4657SOL     OW25432   4.535   4.259   8.018 -0.3391  0.2662 -0.4789
 4657SOL    HW125433   4.511   4.223   8.103 -0.5004  1.6909  0.0742
 4657SOL    HW225434   4.488   4.187   7.976 -1.6936 -0.3614  2.1124
 4658SOL     OW25435   3.468   3.733   4.230  0.0799 -0.2616 -0.0612
 4658SOL    HW125436   3.379   3.755   4.260 -0.6393  0.2524 -2.5480
 4658SOL    HW225437   3.485   3.670   4.300 -2.6010  1.1898  1.8945
 4659SOL     OW25438   1.075   3.997  13.997  0.4439  0.3458 -0.0882
 4659SOL    HW125439   1.157   3.986  14.044  0.1501  2.1234  0.8766
 4659SOL    HW225440   1.083   4.078  13.946  0.8694 -0.5609 -1.4451
 4660SOL     OW25441   3.945   0.872   9.290 -0.5116  0.3976  0.0157
 4660SOL    HW125442   3.994   0.805   9.336  1.1101  0.7662 -1.1487
 4660SOL    HW225443   3.866   0.830   9.256 -0.6537  0.0364  0.8007
 4661SOL     OW25444   3.890   4.305   0.408  0.4792  0.6586  0.4355
 4661SOL    HW125445   3.954   4.234   0.399 -0.4665 -0.0312 -0.9418
 4661SOL    HW225446   3.936   4.358   0.473  1.0558 -0.7816  1.2004
 4662SOL     OW25447   0.868   3.394   2.705 -0.5031  0.0857 -0.1064
 4662SOL    HW125448   0.806   3.361   2.770 -0.7474  0.7841  0.0090
 4662SOL    HW225449   0.955   3.367   2.735  0.4988  0.5354 -2.6106
 4663SOL     OW25450   2.864   2.865  14.352 -1.1411  0.3825 -0.3735
 4663SOL    HW125451   2.930   2.880  14.285 -1.1359  2.1050  0.0085
 4663SOL    HW225452   2.794   2.820  14.305  1.2513 -1.7380 -1.8850
 4664SOL     OW25453   4.531   4.613  16.818 -0.4187  0.1549 -0.2847
 4664SOL    HW125454   4.558   4.705  16.819 -0.0070  0.0231  0.6162
 4664SOL    HW225455   4.499   4.616  16.728 -3.2159  0.5113  0.7101
 4665SOL     OW25456   3.782   2.919   1.618  0.4561 -0.1384 -0.2081
 4665SOL    HW125457   3.755   2.833   1.586  1.1828 -0.3858 -0.1666
 4665SOL    HW225458   3.714   2.969   1.574  0.0047  0.1321  0.7988
 4666SOL     OW25459   2.031   1.250  17.200  0.1217 -0.4142 -0.1581
 4666SOL    HW125460   1.952   1.196  17.196  0.9505 -1.6511 -0.0448
 4666SOL    HW225461   2.103   1.187  17.210  0.6046 -0.0334 -1.2257
 4667SOL     OW25462   3.019   0.337   4.827  0.1372 -0.2404  0.0030
 4667SOL    HW125463   3.060   0.291   4.900  0.2358 -1.7519 -0.9993
 4667SOL    HW225464   2.930   0.331   4.861  0.8737 -0.2842  1.9291
 4668SOL     OW25465   3.564   2.674   2.186  0.1601  0.1709  0.1680
 4668SOL    HW125466   3.622   2.681   2.111 -1.2393 -2.3993 -1.1763
 4668SOL    HW225467   3.488   2.645   2.135  1.5235 -3.5023  0.2095
 4669SOL     OW25468   3.360   1.881   8.442  0.1762 -0.0034 -0.0812
 4669SOL    HW125469   3.331   1.907   8.354 -0.5462 -0.8362 -0.0963
 4669SOL    HW225470   3.375   1.786   8.442 -0.7380 -0.1362  0.9126
 4670SOL     OW25471   3.963   2.555   1.542 -0.2763 -0.5065  0.0056
 4670SOL    HW125472   3.896   2.611   1.581 -0.0155  0.7006 -1.2997
 4670SOL    HW225473   4.017   2.528   1.617  1.0085 -2.8961 -1.7802
 4671SOL     OW25474   1.853   1.335   8.143  0.5264 -0.1073 -0.5066
 4671SOL    HW125475   1.925   1.278   8.113  0.7988 -0.2652  0.4353
 4671SOL    HW225476   1.790   1.307   8.077 -0.2695  0.4102  0.0356
 4672SOL     OW25477   2.020   3.360   7.311  0.1132  0.5020  0.3606
 4672SOL    HW125478   2.039   3.418   7.237 -0.7240  1.0469  0.5854
 4672SOL    HW225479   2.111   3.331   7.322 -0.2730 -0.7353  0.2896
 4673SOL     OW25480   3.573   3.890   5.016 -0.1904 -0.0075  0.2078
 4673SOL    HW125481   3.529   3.937   4.945 -0.6040  1.3742  1.3762
 4673SOL    HW225482   3.530   3.922   5.095  0.7637  2.5599 -0.3282
 4674SOL     OW25483   3.714   4.025   5.352  0.5535 -0.5190  0.1681
 4674SOL    HW125484   3.695   3.934   5.375 -2.6630 -0.1347 -0.9380
 4674SOL    HW225485   3.713   4.023   5.256  1.2850 -0.0657  0.1522
 4675SOL     OW25486   3.901   2.395   5.164  0.8089 -0.0452 -0.0116
 4675SOL    HW125487   3.906   2.456   5.091  2.0762  0.9234  0.8892
 4675SOL    HW225488   3.805   2.387   5.163  0.7702  0.1634  1.9390
 4676SOL     OW25489   3.338   1.193   3.391  0.8725  0.5676 -0.9138
 4676SOL    HW125490   3.289   1.167   3.313 -1.6991  0.2086  0.8299
 4676SOL    HW225491   3.331   1.288   3.388  2.6166  0.7142 -0.5982
 4677SOL     OW25492   4.123   1.983   6.626  0.7778  0.3197 -0.1628
 4677SOL    HW125493   4.044   1.938   6.656  1.1604 -1.2390 -1.4907
 4677SOL    HW225494   4.193   1.925   6.656 -0.7724 -0.7489  1.4142
 4678SOL     OW25495   4.499   2.322  16.928  0.5741 -0.3015  0.2498
 4678SOL    HW125496   4.545   2.376  16.864 -0.2387 -1.6395 -1.4875
 4678SOL    HW225497   4.539   2.349  17.011  3.0011 -0.1846 -0.9482
 4679SOL     OW25498   0.840   3.889  17.538  0.5443  0.4577 -0.3134
 4679SOL    HW125499   0.778   3.823  17.570 -2.0564  1.8954 -2.4492
 4679SOL    HW225500   0.921   3.840  17.530  0.7181  0.6440  0.2969
 4680SOL     OW25501   4.198   2.522   0.642 -0.1263 -0.2687 -0.2334
 4680SOL    HW125502   4.207   2.534   0.547 -1.7270  0.8801 -0.2518
 4680SOL    HW225503   4.168   2.613   0.653  0.9841  0.3429 -2.2674
 4681SOL     OW25504   1.945   1.567  16.401  0.0285 -0.1344 -0.2041
 4681SOL    HW125505   2.021   1.596  16.451 -1.1511 -1.4705  2.3748
 4681SOL    HW225506   1.871   1.624  16.424  0.1720 -0.2901  0.6440
 4682SOL     OW25507   2.043   1.516   7.006 -0.2342 -0.3754 -0.4204
 4682SOL    HW125508   2.034   1.428   7.044 -3.3961 -0.2886 -0.9875
 4682SOL    HW225509   1.966   1.515   6.949 -1.0573 -0.4799  0.6812
 4683SOL     OW25510   4.008   3.977  11.276 -0.7884  0.0132  0.2403
 4683SOL    HW125511   4.032   4.069  11.264 -0.6437  0.1678  1.7047
 4683SOL    HW225512   4.069   3.960  11.348  1.0736 -1.5450 -1.7045
 4684SOL     OW25513   0.669   1.949  14.931  0.0341 -0.1085 -0.0825
 4684SOL    HW125514   0.619   2.021  14.970  1.4623  0.4882  0.6833
 4684SOL    HW225515   0.755   1.987  14.908 -0.8503  1.2548 -1.1928
 4685SOL     OW25516   4.297   1.098   3.540  0.1561 -0.3318 -0.3733
 4685SOL    HW125517   4.363   1.060   3.482  0.8763  1.6810 -0.8851
 4685SOL    HW225518   4.298   1.193   3.529  0.3698 -0.2778  0.1179
 4686SOL     OW25519   1.039   0.506   9.415  0.4166  0.0244  0.1968
 4686SOL    HW125520   1.074   0.477   9.331 -0.6600  0.2436 -0.3274
 4686SOL    HW225521   0.944   0.503   9.403  0.2961 -1.8307  1.7134
 4687SOL     OW25522   4.680   2.877   2.025  0.0351 -0.3796 -0.1878
 4687SOL    HW125523   4.683   2.787   1.994 -1.4237  0.0869 -1.6772
 4687SOL    HW225524   4.701   2.872   2.118 -1.8309  2.0077  0.3494
 4688SOL     OW25525   1.363   3.579   4.202 -0.1409 -0.2791  0.0707
 4688SOL    HW125526   1.431   3.614   4.144  1.4180  1.6103  3.0173
 4688SOL    HW225527   1.410   3.577   4.285  0.1573  0.2904 -0.0829
 4689SOL     OW25528   1.495   2.975  17.078  0.2462 -0.3855 -0.0285
 4689SOL    HW125529   1.471   2.904  17.138 -0.6966 -0.3504 -0.3695
 4689SOL    HW225530   1.457   2.952  16.994 -0.6108  2.6685 -0.4842
 4690SOL     OW25531   3.690   4.049   0.251  0.0859 -0.2157  0.2053
 4690SOL    HW125532   3.661   3.993   0.323 -0.5333  0.4161  0.4424
 4690SOL    HW225533   3.704   4.132   0.297  1.1342 -0.4706  0.3660
 4691SOL     OW25534   1.206   2.634   4.683 -0.4327 -0.1832  0.9161
 4691SOL    HW125535   1.126   2.606   4.727 -1.3521 -2.0020 -1.9085
 4691SOL    HW225536   1.272   2.593   4.738 -1.0299 -0.5325  1.3634
 4692SOL     OW25537   0.013   3.044  17.623 -0.2588  0.1786 -0.6335
 4692SOL    HW125538   4.675   2.972  17.612 -0.3895  0.2409 -0.2922
 4692SOL    HW225539   0.084   3.003  17.672  0.7397  2.4044 -0.2075
 4693SOL     OW25540   4.107   0.287   1.596  0.0516  0.5058 -0.5765
 4693SOL    HW125541   4.068   0.372   1.577 -0.7462 -0.1524 -1.9387
 4693SOL    HW225542   4.033   0.249   1.644  0.7856  1.5228  1.3317
 4694SOL     OW25543   1.992   2.085   6.562  0.1502  0.2154  0.5165
 4694SOL    HW125544   2.006   2.160   6.620  0.5414  0.4170  0.1647
 4694SOL    HW225545   2.012   2.012   6.620 -1.3792 -0.8898 -0.3347
 4695SOL     OW25546   1.124   4.535   8.583  0.2609  0.5646  0.7689
 4695SOL    HW125547   1.213   4.567   8.567 -0.8504  2.3659 -1.9262
 4695SOL    HW225548   1.075   4.568   8.507  1.3758  0.7046  0.1080
 4696SOL     OW25549   3.869   0.415   2.533  0.2150 -0.3050 -0.0692
 4696SOL    HW125550   3.825   0.331   2.527 -1.9434  0.7860  0.5567
 4696SOL    HW225551   3.957   0.383   2.513  0.6608 -0.4331  2.0976
 4697SOL     OW25552   0.882   3.802   8.898 -0.3879 -0.0070 -0.2219
 4697SOL    HW125553   0.789   3.802   8.878 -0.3155 -0.3552 -0.5578
 4697SOL    HW225554   0.888   3.824   8.991  0.2032 -0.7087 -0.0922
 4698SOL     OW25555   0.526   2.367  15.670  0.3719 -0.2421 -0.1150
 4698SOL    HW125556   0.578   2.294  15.635  1.9667  1.3749 -1.1397
 4698SOL    HW225557   0.590   2.438  15.677 -0.9019  0.8880 -0.0974
 4699SOL     OW25558   2.147   4.240   7.613  0.5726  0.4933 -0.1150
 4699SOL    HW125559   2.132   4.319   7.561 -0.2677  0.8332  0.6389
 4699SOL    HW225560   2.101   4.270   7.692  0.0449 -0.0145 -0.2259
 4700SOL     OW25561   0.763   3.255  10.509  0.5728 -0.4336 -0.3889
 4700SOL    HW125562   0.676   3.244  10.472 -1.0439 -0.3726  3.3927
 4700SOL    HW225563   0.769   3.175  10.562  3.9714  0.6119  0.8335
 4701SOL     OW25564   1.922   1.295   6.166 -0.6986  1.3344 -0.0526
 4701SOL    HW125565   1.842   1.314   6.117 -1.6144 -1.7570  0.2390
 4701SOL    HW225566   1.885   1.308   6.253 -1.6944 -1.3065 -0.0896
 4702SOL     OW25567   0.080   1.115   5.265  0.0900 -0.0661  0.3443
 4702SOL    HW125568   0.141   1.161   5.323  0.3821 -0.8147  0.6333
 4702SOL    HW225569   0.093   1.023   5.285 -4.1480 -0.1011  2.9957
 4703SOL     OW25570   0.407   1.025   3.950  0.2506 -0.2951  0.3190
 4703SOL    HW125571   0.481   1.070   3.910 -1.2928 -0.9914 -3.3282
 4703SOL    HW225572   0.413   1.056   4.041 -1.3732  0.6264  0.1240
 4704SOL     OW25573   2.896   0.079   1.982  0.2064 -0.2807 -0.3705
 4704SOL    HW125574   2.908   0.150   1.919 -2.3670  0.9692  0.5744
 4704SOL    HW225575   2.807   0.102   2.009  0.3251 -2.7111  2.0740
 4705SOL     OW25576   4.680   3.583   4.464  0.0386 -0.2316 -0.2292
 4705SOL    HW125577   4.621   3.517   4.503  0.5779  0.3609  1.5795
 4705SOL    HW225578   0.011   3.525   4.412 -1.1309 -0.0035 -1.7414
 4706SOL     OW25579   1.329   0.031   5.598 -0.1654 -0.4266 -0.0704
 4706SOL    HW125580   1.248   0.036   5.650 -0.5275  0.8131 -0.7646
 4706SOL    HW225581   1.366   0.119   5.605  0.4322 -0.5671 -1.4654
 4707SOL     OW25582   0.960   0.676   6.489  0.7150  0.4372  0.7311
 4707SOL    HW125583   0.897   0.709   6.552 -0.5584  0.3722 -0.5210
 4707SOL    HW225584   1.022   0.749   6.500  1.5600 -0.1290 -0.1986
 4708SOL     OW25585   4.331   3.909   1.469 -0.1512  0.9239  0.3931
 4708SOL    HW125586   4.332   3.815   1.453 -0.7703  0.4849  2.9191
 4708SOL    HW225587   4.282   3.909   1.552  0.8356 -2.0202  0.9629
 4709SOL     OW25588   3.578   1.708   2.640 -0.0596 -0.2788 -0.0038
 4709SOL    HW125589   3.608   1.799   2.634  1.5811 -0.9868 -2.3931
 4709SOL    HW225590   3.484   1.729   2.638 -0.5556 -2.3867  0.7613
 4710SOL     OW25591   4.201   4.412   7.050 -0.1344 -0.4694  0.3955
 4710SOL    HW125592   4.109   4.434   7.042  0.0379  0.4226  0.8903
 4710SOL    HW225593   4.212   4.355   6.974 -2.6691  1.4594 -1.3935
 4711SOL     OW25594   0.082   3.767   6.987  0.0564 -0.5567  0.6349
 4711SOL    HW125595   0.036   3.760   6.904  0.9081  1.4185 -0.0121
 4711SOL    HW225596   0.093   3.677   7.018  0.9303 -0.2449  1.2542
 4712SOL     OW25597   1.093   2.914  11.659  0.0045  0.4577 -0.3349
 4712SOL    HW125598   1.036   2.890  11.732  0.3497 -1.5221 -0.7080
 4712SOL    HW225599   1.148   2.837  11.644  0.6795  0.8714  0.0190
 4713SOL     OW25600   0.201   3.740  13.823 -0.2695  0.0744  0.1294
 4713SOL    HW125601   0.182   3.724  13.916 -0.2801  0.1941  0.1477
 4713SOL    HW225602   0.255   3.819  13.817 -0.7591  0.3960 -0.0405
 4714SOL     OW25603   2.291   1.500   7.798 -0.2583 -0.7381 -0.2937
 4714SOL    HW125604   2.337   1.543   7.871 -3.5011  0.7862  0.8475
 4714SOL    HW225605   2.324   1.544   7.720  1.1648  0.0815  0.7710
 4715SOL     OW25606   2.739   1.057   4.343  0.2284 -0.4657 -0.1625
 4715SOL    HW125607   2.671   1.125   4.342  1.3429  0.6612 -0.1391
 4715SOL    HW225608   2.718   1.007   4.264  1.3106  0.4570 -1.0307
 4716SOL     OW25609   2.155   2.154   3.471 -0.5414 -0.3093  0.6592
 4716SOL    HW125610   2.194   2.069   3.491  0.9039  0.4727  1.1307
 4716SOL    HW225611   2.172   2.161   3.377 -3.1340 -0.5616  0.1675
 4717SOL     OW25612   3.751   1.468   6.839 -0.7059 -0.1683  0.2118
 4717SOL    HW125613   3.833   1.461   6.888 -0.6855 -0.4112  0.1410
 4717SOL    HW225614   3.781   1.511   6.759  3.2443 -1.1375  1.1898
 4718SOL     OW25615   0.505   1.083   4.687  0.0878  0.1138  1.1138
 4718SOL    HW125616   0.463   1.011   4.641  1.8899  0.5549 -1.2277
 4718SOL    HW225617   0.538   1.133   4.612 -1.7077 -1.5958 -0.7993
 4719SOL     OW25618   3.801   0.177  14.981  0.0884  0.8138  0.7750
 4719SOL    HW125619   3.727   0.139  14.934  1.3369 -1.8917  0.9658
 4719SOL    HW225620   3.845   0.100  15.018 -3.0933  0.0858  3.0440
 4720SOL     OW25621   2.726   1.066   5.341  0.2845  0.0332 -0.3186
 4720SOL    HW125622   2.735   1.089   5.248 -0.4376 -1.6713 -0.8325
 4720SOL    HW225623   2.631   1.078   5.349  0.2440 -0.4821  0.0220
 4721SOL     OW25624   0.012   4.121  16.531 -0.2610  0.0783 -0.2440
 4721SOL    HW125625   0.102   4.106  16.560  0.1007  0.4733 -1.1820
 4721SOL    HW225626   4.717   4.032  16.502  1.7140 -0.4085 -0.0629
 4722SOL     OW25627   2.656   2.464   4.185  0.0187 -0.0195 -0.2283
 4722SOL    HW125628   2.683   2.437   4.273 -0.5181  0.3840  0.0588
 4722SOL    HW225629   2.568   2.428   4.172 -0.3018  0.6534  0.0775
 4723SOL     OW25630   1.340   2.749   4.046 -0.1695  0.3601 -0.0869
 4723SOL    HW125631   1.294   2.665   4.043  0.6520 -0.0398 -1.7723
 4723SOL    HW225632   1.426   2.721   4.079 -1.5693  0.2564  3.4785
 4724SOL     OW25633   1.700   2.163   6.990  0.4320 -0.4053 -0.3181
 4724SOL    HW125634   1.680   2.136   6.900  2.1077 -1.2396 -0.4331
 4724SOL    HW225635   1.610   2.168   7.024  0.1858  0.2567 -1.0656
 4725SOL     OW25636   1.935   1.151   6.786  0.5463  0.1725 -0.2515
 4725SOL    HW125637   1.895   1.126   6.703 -2.6035 -0.9129  1.6086
 4725SOL    HW225638   1.882   1.103   6.849  1.9323 -1.0656 -0.0245
 4726SOL     OW25639   0.368   2.052   2.313  0.4589 -0.1058  0.1251
 4726SOL    HW125640   0.444   2.008   2.350  0.9143  0.6461  0.0793
 4726SOL    HW225641   0.403   2.054   2.224  3.2041 -0.0633  1.2067
 4727SOL     OW25642   0.071   3.592   1.914  0.5586  0.5177  0.1420
 4727SOL    HW125643   0.068   3.555   1.826 -2.9161 -1.5808  1.1006
 4727SOL    HW225644   0.142   3.539   1.951 -0.6212 -1.4781 -0.4513
 4728SOL     OW25645   2.659   0.533  11.846  0.0407  0.0817  0.4490
 4728SOL    HW125646   2.689   0.623  11.836  2.6561 -0.7180  1.2041
 4728SOL    HW225647   2.656   0.498  11.757  2.3773  1.7280 -0.2787
 4729SOL     OW25648   3.368   4.721   8.766 -0.2389  0.2117  0.0795
 4729SOL    HW125649   3.330   4.633   8.765 -0.0942  0.1581 -0.5611
 4729SOL    HW225650   3.426   4.705   8.841 -1.6473 -0.3666  1.0428
 4730SOL     OW25651   0.213   0.192  16.829 -0.2863  0.4099 -0.0529
 4730SOL    HW125652   0.232   0.116  16.884  1.5086  0.1409 -1.0329
 4730SOL    HW225653   0.172   0.250  16.892  1.2121 -0.4770  1.7278
 4731SOL     OW25654   0.395   3.942  11.719  0.1252 -0.3047 -0.2752
 4731SOL    HW125655   0.458   4.011  11.698 -0.9508  0.4584 -0.9854
 4731SOL    HW225656   0.372   3.974  11.806  1.3118  0.2177 -0.1488
 4732SOL     OW25657   4.041   3.273   0.630  0.2530  0.2073  0.0389
 4732SOL    HW125658   4.073   3.194   0.588  2.8293  1.9845 -1.3368
 4732SOL    HW225659   3.972   3.305   0.571  0.5308  2.6186  0.9990
 4733SOL     OW25660   1.859   0.827   6.084 -0.2987 -0.0623 -0.0866
 4733SOL    HW125661   1.802   0.750   6.077 -0.1319 -0.1628 -0.3275
 4733SOL    HW225662   1.805   0.895   6.043 -0.3581 -0.2823 -0.3759
 4734SOL     OW25663   4.628   3.088   6.950 -0.3572 -0.2229  0.1313
 4734SOL    HW125664   4.633   3.111   7.042  0.7125 -0.7167  0.1988
 4734SOL    HW225665   4.686   3.012   6.959 -2.0867 -1.5133  0.4770
 4735SOL     OW25666   1.549   4.716   4.837  0.0604  0.3445 -0.5430
 4735SOL    HW125667   1.487   0.044   4.786 -2.5589 -0.9548  1.3026
 4735SOL    HW225668   1.610   4.683   4.771  0.1307  0.1402 -0.3749
 4736SOL     OW25669   1.698   3.237   4.692 -0.0556 -0.2698  0.5845
 4736SOL    HW125670   1.701   3.332   4.682 -1.6660 -0.0229  2.5309
 4736SOL    HW225671   1.751   3.220   4.614  0.7420 -3.1433  1.7432
 4737SOL     OW25672   2.817   0.155   0.391  0.0576 -0.1082 -0.7035
 4737SOL    HW125673   2.886   0.221   0.399  1.1756 -1.6086  2.2579
 4737SOL    HW225674   2.830   0.098   0.468 -0.4028  1.1333  0.2896
 4738SOL     OW25675   0.741   1.351   2.902 -0.5573  0.2617  0.3268
 4738SOL    HW125676   0.777   1.325   2.987 -0.3462  1.2320  0.5334
 4738SOL    HW225677   0.787   1.432   2.878 -0.6397  0.0202 -0.6307
 4739SOL     OW25678   1.963   0.777   4.796 -0.1956  0.7292  0.8218
 4739SOL    HW125679   2.025   0.727   4.849 -0.3780  2.3542  2.5437
 4739SOL    HW225680   2.007   0.852   4.755 -0.6586  0.6980  0.2648
 4740SOL     OW25681   3.780   3.815   1.550  0.4940 -0.1354 -0.1798
 4740SOL    HW125682   3.829   3.895   1.570 -0.7879  0.5185  0.3383
 4740SOL    HW225683   3.786   3.762   1.629  0.4973  1.4523  0.8721
 4741SOL     OW25684   2.646   3.727  17.607 -0.3264 -0.1550  0.4997
 4741SOL    HW125685   2.552   3.708  17.607  0.0278 -1.8617 -2.5524
 4741SOL    HW225686   2.665   3.715  17.514 -3.1321  2.0442 -0.3729
 4742SOL     OW25687   0.606   4.523  14.401 -0.2462 -0.2736 -0.0475
 4742SOL    HW125688   0.631   4.551  14.314 -0.9522  1.2790  0.2574
 4742SOL    HW225689   0.690   4.521  14.447 -0.7633  0.9339  0.9463
 4743SOL     OW25690   1.504   3.063   2.378  0.2197 -0.0101  0.3209
 4743SOL    HW125691   1.536   2.976   2.355 -0.4186 -0.6245  1.7312
 4743SOL    HW225692   1.443   3.039   2.447  0.7423 -1.1144  0.3950
 4744SOL     OW25693   2.366   4.078  16.764 -0.0642 -0.1714 -0.2386
 4744SOL    HW125694   2.374   4.027  16.682  0.4847  0.4980 -0.6001
 4744SOL    HW225695   2.340   4.017  16.833  1.6513 -0.0281  0.5497
 4745SOL     OW25696   1.704   0.704   0.964  0.3977  0.5591  0.2194
 4745SOL    HW125697   1.781   0.686   0.912  0.0857  1.7104 -0.6257
 4745SOL    HW225698   1.635   0.735   0.906  2.1622 -0.0078 -2.1701
 4746SOL     OW25699   0.284   0.028   5.478 -0.2245  0.0440  0.3607
 4746SOL    HW125700   0.212   0.077   5.438 -0.1856  0.0421  0.2876
 4746SOL    HW225701   0.250   4.667   5.502 -0.8412  0.4579  0.9406
 4747SOL     OW25702   1.490   3.379  15.481  0.1636 -0.4855  0.0770
 4747SOL    HW125703   1.395   3.366  15.474  0.0008  0.6710  0.1074
 4747SOL    HW225704   1.527   3.311  15.537  2.2179  1.2179  0.7965
 4748SOL     OW25705   2.535   0.331  15.829 -0.0167 -0.1566 -0.5268
 4748SOL    HW125706   2.617   0.379  15.818 -0.0769 -0.3884 -2.0173
 4748SOL    HW225707   2.480   0.404  15.856 -1.9219 -1.5133 -0.7483
 4749SOL     OW25708   2.914   4.051   7.695 -0.2041 -0.1560 -0.5126
 4749SOL    HW125709   2.842   4.094   7.650  0.2201  0.1373 -0.9127
 4749SOL    HW225710   2.880   4.006   7.772  0.6269 -0.6593 -0.4375
 4750SOL     OW25711   0.596   4.689   5.459  0.1268 -0.4832  0.2563
 4750SOL    HW125712   0.573   4.680   5.551 -0.1986  0.0570  0.2321
 4750SOL    HW225713   0.569   4.604   5.423  0.9273  0.2040 -1.9800
 4751SOL     OW25714   4.454   3.489   3.430 -0.4708  0.4677  0.4060
 4751SOL    HW125715   4.462   3.399   3.398 -0.2485  1.1653 -1.4697
 4751SOL    HW225716   4.361   3.496   3.451 -0.9329  2.7815 -2.4617
 4752SOL     OW25717   4.657   0.111   4.217  0.4428  0.0516 -0.4795
 4752SOL    HW125718   4.682   0.065   4.297 -0.4755  0.7071  0.1719
 4752SOL    HW225719   0.019   0.111   4.174  0.3584  0.0489 -0.6480
 4753SOL     OW25720   3.742   2.126   8.945  0.4321  0.1333 -0.4621
 4753SOL    HW125721   3.740   2.193   9.013 -2.1643 -0.2194 -0.1773
 4753SOL    HW225722   3.836   2.119   8.931  0.5175  1.7733 -0.7781
 4754SOL     OW25723   3.855   4.174   1.923  0.2904 -0.1874 -0.3523
 4754SOL    HW125724   3.929   4.182   1.863 -0.9769  1.3791 -1.7061
 4754SOL    HW225725   3.890   4.137   2.004 -0.1794  0.6102  0.2091
 4755SOL     OW25726   3.239   0.220   8.729  0.3396  0.1776 -0.1689
 4755SOL    HW125727   3.176   0.216   8.801 -1.1626 -0.2496 -1.5156
 4755SOL    HW225728   3.283   0.138   8.751  1.0640  0.9650  1.3493
 4756SOL     OW25729   0.643   3.578   2.973  0.1477  0.2800 -0.2292
 4756SOL    HW125730   0.683   3.664   2.984 -1.2138  0.7598  0.8647
 4756SOL    HW225731   0.724   3.529   2.959 -0.3431 -0.9994  1.4207
 4757SOL     OW25732   2.671   1.400   1.726  0.1511  0.2271 -0.0945
 4757SOL    HW125733   2.685   1.493   1.747  0.6627 -0.2597  1.7474
 4757SOL    HW225734   2.732   1.381   1.654 -0.9139 -0.2837 -0.8483
 4758SOL     OW25735   3.543   2.615  17.478  0.2758  0.6267 -0.0561
 4758SOL    HW125736   3.470   2.629  17.538  1.6802  3.6804  0.9720
 4758SOL    HW225737   3.525   2.684  17.414 -1.2130  1.6560  1.4635
 4759SOL     OW25738   2.355   2.432  11.288  0.4986 -0.1162  0.4624
 4759SOL    HW125739   2.316   2.441  11.375 -0.9211  0.3106 -0.2043
 4759SOL    HW225740   2.419   2.367  11.316  0.7332  0.0404  0.2899
 4760SOL     OW25741   2.642   1.785   5.051 -0.8105  0.1909 -0.4385
 4760SOL    HW125742   2.656   1.878   5.033 -0.5084  0.3117  0.3999
 4760SOL    HW225743   2.651   1.782   5.146 -0.4900 -0.2701 -0.4858
 4761SOL     OW25744   4.424   0.915   3.336 -0.0412 -0.5312 -0.4447
 4761SOL    HW125745   4.447   0.940   3.247  1.4147  0.8351  0.3092
 4761SOL    HW225746   4.498   0.863   3.368  1.0417 -0.0783 -2.1782
 4762SOL     OW25747   1.859   1.352  12.828 -0.1395 -0.2787  0.1774
 4762SOL    HW125748   1.941   1.395  12.851  0.2674 -1.7046  1.3539
 4762SOL    HW225749   1.829   1.331  12.916  0.8098  0.5102  0.6919
 4763SOL     OW25750   1.604   0.158   9.417  0.2189  0.1705 -0.0102
 4763SOL    HW125751   1.617   0.127   9.327  0.2698 -0.3724  0.1853
 4763SOL    HW225752   1.516   0.194   9.406  0.1268 -0.0540  0.0050
 4764SOL     OW25753   0.317   0.954   9.050 -0.4569  0.0569 -0.1502
 4764SOL    HW125754   0.271   0.997   9.122 -1.1391  2.3229 -1.9380
 4764SOL    HW225755   0.277   0.994   8.973 -1.0445  2.6129  1.4968
 4765SOL     OW25756   1.313   1.022   1.480 -0.3930  0.4819 -0.0174
 4765SOL    HW125757   1.394   0.991   1.440 -0.5674 -0.2798  0.2230
 4765SOL    HW225758   1.287   1.066   1.398 -1.2721 -0.3584 -0.1867
 4766SOL     OW25759   2.222   4.127  11.182 -0.0047  0.0278  0.3569
 4766SOL    HW125760   2.317   4.139  11.190  0.1877 -0.0676 -1.8223
 4766SOL    HW225761   2.188   4.173  11.259  0.8628 -0.6192  1.1218
 4767SOL     OW25762   0.304   1.511   6.360 -0.6451 -0.0384 -0.3963
 4767SOL    HW125763   0.283   1.467   6.278 -0.7555 -0.0978 -0.3365
 4767SOL    HW225764   0.356   1.584   6.326 -0.1820 -0.6341 -0.9705
 4768SOL     OW25765   1.177   0.760   4.189 -0.2882 -0.1922  0.0095
 4768SOL    HW125766   1.248   0.793   4.245  1.9810 -4.0811 -0.6096
 4768SOL    HW225767   1.216   0.680   4.155 -3.0397 -1.3778 -0.3456
 4769SOL     OW25768   2.116   4.525   2.438  0.3395  0.4198  0.5820
 4769SOL    HW125769   2.060   4.598   2.466 -0.7000  0.0715 -0.5879
 4769SOL    HW225770   2.151   4.571   2.361  0.7490 -1.8874 -0.5913
 4770SOL     OW25771   0.186   0.123  12.653 -0.2121 -0.4728 -0.0017
 4770SOL    HW125772   0.139   0.091  12.576  1.0792  0.8917 -1.3450
 4770SOL    HW225773   0.129   0.082  12.718 -0.3173 -0.7430 -0.2631
 4771SOL     OW25774   2.636   4.429  10.655 -0.2514  0.0873  0.4537
 4771SOL    HW125775   2.592   4.454  10.574 -0.7682  0.3652  0.8228
 4771SOL    HW225776   2.705   4.378  10.613 -0.0841  0.3982  0.3446
 4772SOL     OW25777   0.613   3.041   7.535 -0.3531  0.0980  0.1909
 4772SOL    HW125778   0.641   3.023   7.625  2.6539  0.7354 -0.6127
 4772SOL    HW225779   0.693   3.073   7.494 -0.1282  1.5531  1.7395
 4773SOL     OW25780   3.108   2.980  15.170  0.4239 -0.0011  0.1644
 4773SOL    HW125781   3.187   3.014  15.212  0.6238  0.4643 -0.5984
 4773SOL    HW225782   3.043   3.028  15.222  1.5432  0.9600  0.6763
 4774SOL     OW25783   0.499   1.030   5.237  0.1073 -0.4831 -0.2649
 4774SOL    HW125784   0.490   0.935   5.228 -2.5708 -0.3419  0.9646
 4774SOL    HW225785   0.591   1.045   5.256 -0.2561  1.1487  0.2624
 4775SOL     OW25786   2.590   4.018   9.478 -0.1822 -0.0587  0.0145
 4775SOL    HW125787   2.621   3.928   9.490  0.3260  0.1649  0.3598
 4775SOL    HW225788   2.637   4.041   9.398 -0.1209  0.4135  0.1897
 4776SOL     OW25789   1.283   1.983   4.337  0.4227 -1.3348  0.0340
 4776SOL    HW125790   1.365   1.938   4.314  0.3159 -1.8757  0.7327
 4776SOL    HW225791   1.308   2.014   4.424 -0.4942  1.3546 -0.6657
 4777SOL     OW25792   3.838   0.058   7.929  0.3140 -0.1853 -0.2545
 4777SOL    HW125793   3.931   0.036   7.937  0.7486  1.4437 -0.9172
 4777SOL    HW225794   3.811   0.028   8.016 -0.4764 -0.8053 -0.7120
 4778SOL     OW25795   2.176   0.758   6.906  0.4708 -0.2883  0.0558
 4778SOL    HW125796   2.082   0.742   6.901  0.1625  1.2925  0.7103
 4778SOL    HW225797   2.200   0.667   6.889 -1.3813 -0.6668 -0.5572
 4779SOL     OW25798   4.553   3.221  10.856  0.5197  0.1420  0.2793
 4779SOL    HW125799   4.481   3.160  10.844 -0.0350  0.4929  1.8317
 4779SOL    HW225800   4.541   3.283  10.785  1.7279  1.0756  0.8871
 4780SOL     OW25801   4.239   1.214   8.408  0.1943  0.1007  0.9063
 4780SOL    HW125802   4.198   1.219   8.495 -1.6967 -2.9680  0.2160
 4780SOL    HW225803   4.182   1.276   8.362  2.2251 -0.1108 -1.8757
 4781SOL     OW25804   0.116   1.727  12.813 -0.0818 -0.7698 -0.0822
 4781SOL    HW125805   0.197   1.718  12.864 -0.6361 -2.5539  0.4876
 4781SOL    HW225806   0.056   1.677  12.869  2.5384 -1.0820  2.4220
 4782SOL     OW25807   1.922   0.029   4.613  0.3516  0.0672 -0.3749
 4782SOL    HW125808   1.836   4.712   4.621  0.1451  0.3450 -1.1713
 4782SOL    HW225809   1.891   0.120   4.613 -0.7787 -0.3166 -1.5242
 4783SOL     OW25810   4.208   2.676  10.336 -0.1029 -0.5431 -0.3171
 4783SOL    HW125811   4.226   2.738  10.407  0.1492 -0.5766 -0.3518
 4783SOL    HW225812   4.117   2.654  10.355 -0.3322 -0.2448 -1.0427
 4784SOL     OW25813   4.122   4.359  12.914 -0.1595  0.2679 -0.5258
 4784SOL    HW125814   4.124   4.271  12.876 -1.5681  0.1125 -0.2584
 4784SOL    HW225815   4.196   4.346  12.973  1.0776 -0.1154 -2.1664
 4785SOL     OW25816   0.995   4.249  10.155 -0.7829  0.0081 -0.1132
 4785SOL    HW125817   1.044   4.220  10.078  1.0706  0.6063  0.8454
 4785SOL    HW225818   1.025   4.339  10.168 -3.1157  0.5076  1.7392
 4786SOL     OW25819   0.193   1.686   4.502 -0.3237  0.1167  0.1158
 4786SOL    HW125820   0.240   1.631   4.564  0.9902  0.9668 -0.1245
 4786SOL    HW225821   0.136   1.729   4.564 -0.2894 -0.6230  0.6577
 4787SOL     OW25822   4.272   3.340   4.230  0.6684 -0.1783  0.3185
 4787SOL    HW125823   4.245   3.409   4.290  2.6215  1.8477 -1.0955
 4787SOL    HW225824   4.196   3.288   4.253  0.9494 -1.9559 -2.7769
 4788SOL     OW25825   3.326   2.508   3.306 -0.4425  0.2225  0.1051
 4788SOL    HW125826   3.418   2.530   3.315 -0.9366  3.0778 -2.1587
 4788SOL    HW225827   3.295   2.585   3.259  0.3181  0.0739 -0.6358
 4789SOL     OW25828   0.691   3.111   9.885 -0.0458 -0.2573  0.0669
 4789SOL    HW125829   0.670   3.018   9.892  0.0540 -0.2667  0.2386
 4789SOL    HW225830   0.618   3.154   9.929  0.4256  0.0222  0.5757
 4790SOL     OW25831   0.346   0.726   4.128  0.0150 -0.1458 -0.1530
 4790SOL    HW125832   0.410   0.672   4.175  1.2494  0.6162 -0.9639
 4790SOL    HW225833   0.366   0.719   4.035 -3.1883 -0.3074 -0.8076
 4791SOL     OW25834   0.029   2.780   5.375  0.8844 -0.0185 -0.3474
 4791SOL    HW125835   0.028   2.858   5.320  0.0981 -0.7438 -1.3760
 4791SOL    HW225836   4.664   2.747   5.367  1.0675 -0.7637  0.6193
 4792SOL     OW25837   1.776   0.912   8.503  0.1265  0.4458 -0.3781
 4792SOL    HW125838   1.759   0.849   8.433 -0.8201  0.8595 -0.5230
 4792SOL    HW225839   1.688   0.904   8.542 -0.3830 -0.1210 -1.6486
 4793SOL     OW25840   0.844   4.241  11.140 -0.2653 -0.7945 -0.6563
 4793SOL    HW125841   0.776   4.255  11.074 -2.4548 -0.7692  1.5928
 4793SOL    HW225842   0.881   4.156  11.118  0.0360 -0.8780  0.1736
 4794SOL     OW25843   1.805   4.286   8.125 -0.3552  0.1952  0.2910
 4794SOL    HW125844   1.842   4.211   8.171  1.1818  1.3581  0.9818
 4794SOL    HW225845   1.734   4.298   8.188 -0.9735  0.3177 -0.4375
 4795SOL     OW25846   0.478   2.252   7.608 -0.4889 -0.3246  0.1955
 4795SOL    HW125847   0.397   2.270   7.560 -0.0057  1.4564  0.0220
 4795SOL    HW225848   0.446   2.185   7.668 -2.7354  0.5323 -0.0193
 4796SOL     OW25849   1.838   3.631   2.721  0.4133 -0.0470 -0.0452
 4796SOL    HW125850   1.835   3.536   2.734 -0.3686 -0.3078 -2.0734
 4796SOL    HW225851   1.839   3.647   2.815  0.3094 -0.5969  0.0491
 4797SOL     OW25852   3.978   3.123   6.334  0.0019 -0.0001  0.1779
 4797SOL    HW125853   3.981   3.067   6.255 -0.0051  1.5063 -0.8843
 4797SOL    HW225854   3.908   3.083   6.386  0.5683  2.8379  3.0521
 4798SOL     OW25855   4.201   2.907   2.465 -0.7487  0.0073 -0.4495
 4798SOL    HW125856   4.112   2.919   2.500  0.4372  1.6724  2.0166
 4798SOL    HW225857   4.213   2.996   2.433 -0.0003  0.5393  1.2832
 4799SOL     OW25858   0.385   2.543   6.473 -0.0770 -0.4668  0.0760
 4799SOL    HW125859   0.327   2.574   6.543  0.6513  0.0639  0.4336
 4799SOL    HW225860   0.313   2.533   6.410 -0.4308 -0.1164  0.4237
 4800SOL     OW25861   3.629   3.244  10.504  0.7367  0.5818 -0.5029
 4800SOL    HW125862   3.692   3.297  10.454  2.5372 -0.3618  0.7590
 4800SOL    HW225863   3.678   3.165  10.525 -0.3749 -0.1578 -0.7042
 4801SOL     OW25864   1.144   1.343  14.052  0.0699 -0.3354  0.1274
 4801SOL    HW125865   1.118   1.294  14.130  0.9146  1.3436  1.4576
 4801SOL    HW225866   1.058   1.375  14.028 -0.1093  0.0978  1.3500
 4802SOL     OW25867   3.814   0.970   6.407  0.1453 -0.0707 -0.4500
 4802SOL    HW125868   3.869   0.893   6.416 -0.2508 -0.4945 -1.6489
 4802SOL    HW225869   3.767   0.963   6.324 -0.5971  0.6785 -0.1001
 4803SOL     OW25870   4.633   2.362   5.768  0.5519  0.6466 -0.1815
 4803SOL    HW125871   4.700   2.427   5.749  1.6921 -0.2089  0.9695
 4803SOL    HW225872   4.671   2.286   5.724 -0.9553 -1.2202  1.7660
 4804SOL     OW25873   0.358   0.313   5.219 -0.4952 -0.0628  0.1684
 4804SOL    HW125874   0.341   0.219   5.219 -1.5122  0.1522 -3.5388
 4804SOL    HW225875   0.450   0.306   5.193 -1.0448 -0.0555 -1.7767
 4805SOL     OW25876   2.225   1.483   5.000 -0.2404 -0.8318 -0.0345
 4805SOL    HW125877   2.269   1.567   4.989 -1.4156 -0.3744 -1.2889
 4805SOL    HW225878   2.164   1.511   5.069 -0.6226 -0.7234 -0.4146
 4806SOL     OW25879   2.851   0.764   7.286  0.2643 -0.4477  0.1198
 4806SOL    HW125880   2.863   0.855   7.315 -1.0047  0.4348 -2.0748
 4806SOL    HW225881   2.803   0.736   7.364  0.3453 -0.1854  0.2642
 4807SOL     OW25882   0.968   0.163   6.716 -0.7212 -0.6168 -0.2969
 4807SOL    HW125883   0.992   0.099   6.649 -2.0090  0.6787 -1.9852
 4807SOL    HW225884   0.957   0.243   6.666 -1.4423  0.8273  2.1735
 4808SOL     OW25885   2.738   2.533   2.217  0.2982  0.6884  0.5372
 4808SOL    HW125886   2.728   2.535   2.122 -0.9389  0.3786  0.6663
 4808SOL    HW225887   2.802   2.464   2.235 -0.1882 -0.2658 -1.4536
 4809SOL     OW25888   2.057   1.997   4.045  0.3763 -0.1913 -0.0016
 4809SOL    HW125889   2.110   1.953   4.111  0.9144 -0.5775 -0.6889
 4809SOL    HW225890   2.123   2.050   4.000 -1.4052  1.4545 -0.6828
 4810SOL     OW25891   2.160   0.419   0.376  0.1605 -0.2598 -0.1423
 4810SOL    HW125892   2.193   0.484   0.437 -1.0397  2.2861 -2.1863
 4810SOL    HW225893   2.225   0.349   0.375  1.5975  1.0931 -2.0945
 4811SOL     OW25894   0.177   3.956   2.905  1.4378 -0.2515  0.2730
 4811SOL    HW125895   0.166   3.969   2.999  3.5206 -3.1064  0.8924
 4811SOL    HW225896   0.192   4.050   2.890  0.6938  0.0863  1.7018
 4812SOL     OW25897   2.521   0.138   4.340 -0.1969 -0.6094  0.0215
 4812SOL    HW125898   2.494   0.192   4.266 -0.6821 -2.0613 -0.8607
 4812SOL    HW225899   2.478   0.054   4.324  0.6169 -1.4291  2.0322
 4813SOL     OW25900   0.003   1.891   3.744  0.1695 -0.4388 -0.7088
 4813SOL    HW125901   0.075   1.875   3.805 -1.5930  1.2401  1.8075
 4813SOL    HW225902   4.712   1.822   3.680 -1.8286  0.2541 -0.9929
 4814SOL     OW25903   2.000   0.540   2.363  0.3459 -0.0081 -0.2350
 4814SOL    HW125904   2.061   0.512   2.432  0.3353 -3.5724 -1.6469
 4814SOL    HW225905   2.001   0.633   2.383  1.0307 -0.6849  3.0197
 4815SOL     OW25906   1.410   3.464   9.269  0.6269 -0.6124  0.3396
 4815SOL    HW125907   1.386   3.388   9.322 -1.5247 -2.7121 -3.6740
 4815SOL    HW225908   1.505   3.467   9.284  0.5202  0.3720  0.8466
 4816SOL     OW25909   0.415   1.001  16.451  0.2413 -0.4814 -0.7589
 4816SOL    HW125910   0.326   1.013  16.419 -0.5269 -2.5006  0.6545
 4816SOL    HW225911   0.450   1.018  16.364  2.7112  0.1913  0.3555
 4817SOL     OW25912   0.319   1.660  13.840  0.1154 -0.1757 -0.4391
 4817SOL    HW125913   0.408   1.661  13.806 -0.4515 -0.4645 -1.9601
 4817SOL    HW225914   0.269   1.708  13.773 -0.2848 -1.1402 -0.8315
 4818SOL     OW25915   3.222   1.599  12.356 -0.3798 -0.1600 -0.9581
 4818SOL    HW125916   3.273   1.547  12.293  1.3752 -0.1003  0.4269
 4818SOL    HW225917   3.276   1.678  12.354  1.1796 -1.2132 -0.4222
 4819SOL     OW25918   0.757   2.285  16.384 -0.0324  0.4421  0.0732
 4819SOL    HW125919   0.780   2.205  16.432 -0.8266  0.8000  1.0442
 4819SOL    HW225920   0.800   2.270  16.300  1.0500 -0.3494  0.7690
 4820SOL     OW25921   0.771   3.527   7.427 -0.5628  0.3733 -0.6958
 4820SOL    HW125922   0.718   3.588   7.375 -0.0135 -0.8898 -2.7381
 4820SOL    HW225923   0.719   3.522   7.507  1.9503 -1.6166  0.7960
 4821SOL     OW25924   4.063   4.003  10.807  0.2054 -0.5991 -0.0190
 4821SOL    HW125925   4.089   4.068  10.873 -0.1448  0.3476 -0.8108
 4821SOL    HW225926   4.003   3.947  10.856 -2.6897  1.8036 -0.8461
 4822SOL     OW25927   4.338   0.511   9.140 -0.5185 -0.4078 -0.2652
 4822SOL    HW125928   4.338   0.433   9.196 -1.4941  0.2305  0.6233
 4822SOL    HW225929   4.243   0.522   9.148 -0.5360 -2.6392  2.7570
 4823SOL     OW25930   4.054   1.953   5.349 -0.2512  0.1157 -0.1727
 4823SOL    HW125931   3.997   1.883   5.383  1.1649 -1.2248 -0.5340
 4823SOL    HW225932   4.010   1.972   5.266  0.1508  1.0252 -0.1688
 4824SOL     OW25933   2.017   2.969   3.870  0.5695 -0.2877  0.0306
 4824SOL    HW125934   1.939   3.021   3.848  0.5291  0.1245  1.1424
 4824SOL    HW225935   1.990   2.881   3.846  0.0309 -0.6522  1.9755
 4825SOL     OW25936   0.508   3.447   3.180 -0.7245  0.4396  0.4223
 4825SOL    HW125937   0.568   3.373   3.175  0.4624  1.4468 -0.4305
 4825SOL    HW225938   0.543   3.502   3.109 -0.4779 -2.9394 -2.0535
 4826SOL     OW25939   2.637   2.857   5.232  0.0816  0.9673  0.1321
 4826SOL    HW125940   2.648   2.900   5.148  2.1385  0.7339  0.2912
 4826SOL    HW225941   2.708   2.902   5.277  1.2418 -1.1620  0.3850
 4827SOL     OW25942   1.155   3.395   0.535 -0.1450 -0.3157 -0.2418
 4827SOL    HW125943   1.118   3.309   0.553 -0.3630 -0.2142 -0.2058
 4827SOL    HW225944   1.095   3.434   0.472  1.7826  0.9858 -1.2584
 4828SOL     OW25945   1.215   3.795  14.355  0.2252 -0.1154  0.2177
 4828SOL    HW125946   1.208   3.843  14.438 -0.1198  0.2186 -0.0091
 4828SOL    HW225947   1.127   3.760  14.341  1.1457 -1.4333 -2.2093
 4829SOL     OW25948   1.403   3.771   7.795 -1.3389 -0.2975 -0.2016
 4829SOL    HW125949   1.459   3.703   7.832 -1.4999 -0.8928 -1.0403
 4829SOL    HW225950   1.390   3.747   7.703 -0.5833  0.9413 -0.6374
 4830SOL     OW25951   4.624   2.082   2.859 -0.4599  0.6864 -0.2936
 4830SOL    HW125952   4.564   2.147   2.895 -0.0106  1.8582 -1.6171
 4830SOL    HW225953   4.629   2.011   2.923  2.1749 -0.9175 -2.2802
 4831SOL     OW25954   4.499   2.677   5.356 -0.8923 -0.0383 -0.6457
 4831SOL    HW125955   4.447   2.707   5.281 -1.6928  0.0143 -0.0774
 4831SOL    HW225956   4.438   2.610   5.387 -0.8463 -0.2462 -1.0048
 4832SOL     OW25957   1.278   0.969   7.908 -0.1793  0.3643 -0.5364
 4832SOL    HW125958   1.191   1.003   7.884 -0.8559 -0.6217  0.5066
 4832SOL    HW225959   1.253   0.889   7.956  0.2889  0.0816 -0.7630
 4833SOL     OW25960   1.068   3.654   5.082 -0.1398 -0.5795  0.2041
 4833SOL    HW125961   1.126   3.725   5.109 -0.4827  0.0028 -0.5860
 4833SOL    HW225962   1.013   3.699   5.018 -0.0246 -0.4241  0.2148
 4834SOL     OW25963   2.156   2.073   7.856 -0.1515  0.1221  0.3631
 4834SOL    HW125964   2.088   2.102   7.796  0.0161 -1.1004 -0.4359
 4834SOL    HW225965   2.216   2.026   7.798 -0.5578  0.6507 -0.4670
 4835SOL     OW25966   4.400   3.005   6.239 -0.3999  0.2366 -0.6515
 4835SOL    HW125967   4.342   3.079   6.257  0.5993  0.6507  0.8426
 4835SOL    HW225968   4.366   2.961   6.317  0.6830 -1.5718 -1.1953
 4836SOL     OW25969   1.524   3.852   2.099  0.3669 -0.1827  0.4690
 4836SOL    HW125970   1.615   3.877   2.113  0.1449  2.6407 -3.0552
 4836SOL    HW225971   1.519   3.856   2.004  1.3885  1.1334  0.4741
 4837SOL     OW25972   4.493   1.365   8.411  0.0455 -0.5891 -0.5373
 4837SOL    HW125973   4.523   1.363   8.502 -4.0485 -3.2453  0.7443
 4837SOL    HW225974   4.404   1.330   8.413 -0.0671 -0.2809 -0.2371
 4838SOL     OW25975   0.828   1.271   8.623 -0.0282 -0.4538  0.0360
 4838SOL    HW125976   0.896   1.337   8.643 -2.1214  1.5640  0.5096
 4838SOL    HW225977   0.804   1.240   8.710 -1.8043  0.3080 -0.1833
 4839SOL     OW25978   4.413   1.838   1.713 -0.2268  0.1983  0.2072
 4839SOL    HW125979   4.395   1.901   1.644 -0.8653  0.7185  0.8431
 4839SOL    HW225980   4.372   1.892   1.781 -1.2921  0.6038 -0.7729
 4840SOL     OW25981   2.079   3.872   6.672  0.0320  0.4207  0.5200
 4840SOL    HW125982   2.022   3.868   6.596  1.7794  0.2132 -0.7706
 4840SOL    HW225983   2.033   3.826   6.743 -0.3580  3.3203  2.1268
 4841SOL     OW25984   3.142   0.954   9.649 -0.2547  0.6382  0.6602
 4841SOL    HW125985   3.110   0.909   9.727  1.5050 -1.1698  0.3699
 4841SOL    HW225986   3.063   1.003   9.627 -1.7394 -1.6637  0.8590
 4842SOL     OW25987   1.254   0.420   4.158 -0.2953 -0.1536 -0.3279
 4842SOL    HW125988   1.298   0.481   4.217  0.6464 -0.5374 -0.6335
 4842SOL    HW225989   1.310   0.342   4.158 -0.6796 -0.4278 -0.8694
 4843SOL     OW25990   4.200   4.519   1.528 -0.3501  0.3544 -0.0341
 4843SOL    HW125991   4.123   4.555   1.573  0.4696  1.2401  0.6556
 4843SOL    HW225992   4.164   4.435   1.501  0.8297  0.0391 -0.6317
 4844SOL     OW25993   3.487   1.826   4.540  0.8171 -0.3727  0.6793
 4844SOL    HW125994   3.438   1.758   4.495 -2.4807  0.4330  3.1066
 4844SOL    HW225995   3.422   1.889   4.571  3.3781  0.8294  3.6408
 4845SOL     OW25996   4.209   3.777  17.119  0.4856  0.6340 -0.0083
 4845SOL    HW125997   4.225   3.871  17.105 -1.5854  0.8433 -0.9411
 4845SOL    HW225998   4.160   3.784  17.200 -1.5084 -2.1443 -1.0054
 4846SOL     OW25999   4.160   2.931   5.778  0.2234 -0.3757  0.6835
 4846SOL    HW126000   4.201   3.010   5.814 -1.2819  0.6421  0.1314
 4846SOL    HW226001   4.190   2.932   5.688  1.1388  2.0284  1.0239
 4847SOL     OW26002   1.564   0.935  13.335  0.1789 -0.2717 -0.1862
 4847SOL    HW126003   1.627   0.907  13.269 -1.6992 -2.8440 -0.8718
 4847SOL    HW226004   1.560   0.849  13.377 -1.6458  0.2028  0.5932
 4848SOL     OW26005   1.843   2.962  11.013 -0.2818  0.1598  0.2902
 4848SOL    HW126006   1.897   3.038  11.036 -1.6273  0.7568  1.4670
 4848SOL    HW226007   1.816   2.941  11.102 -0.0994  0.6781  0.4681
 4849SOL     OW26008   0.181   3.683   3.991 -0.0240  0.0861  0.8631
 4849SOL    HW126009   0.270   3.650   3.978  0.4243  1.4766  0.4003
 4849SOL    HW226010   0.152   3.673   3.901  0.2325  0.0585  0.7819
 4850SOL     OW26011   1.118   3.805  12.143 -0.1789 -0.6166  0.1331
 4850SOL    HW126012   1.133   3.897  12.121  2.7429 -0.8825  1.1225
 4850SOL    HW226013   1.094   3.761  12.061 -3.1505  1.2119  0.0188
 4851SOL     OW26014   3.284   4.362   3.873 -0.7821  0.2118  0.2670
 4851SOL    HW126015   3.256   4.399   3.789 -1.3312 -2.7132 -0.8561
 4851SOL    HW226016   3.203   4.352   3.922  0.5898  0.3009  2.5615
 4852SOL     OW26017   0.118   1.232  13.137 -0.2080  0.7466 -0.6756
 4852SOL    HW126018   0.144   1.290  13.066 -2.6254  2.2734 -0.3055
 4852SOL    HW226019   0.024   1.247  13.136 -0.5222 -1.0990  0.2443
 4853SOL     OW26020   3.862   0.988  10.356 -0.1747 -0.1605 -0.5152
 4853SOL    HW126021   3.775   0.993  10.396 -0.7157 -1.2380 -1.5632
 4853SOL    HW226022   3.872   1.072  10.311  0.5695 -0.1399 -0.3110
 4854SOL     OW26023   2.926   3.810   0.565 -0.0675  0.0412  0.4925
 4854SOL    HW126024   2.852   3.751   0.576 -0.3158  0.6766  2.3294
 4854SOL    HW226025   2.893   3.892   0.601  0.0300  0.9217 -1.4321
 4855SOL     OW26026   1.811   2.067  15.207 -0.0370 -0.4586 -0.4456
 4855SOL    HW126027   1.744   2.001  15.224 -2.9736  2.3314 -1.3037
 4855SOL    HW226028   1.798   2.119  15.286 -0.0557  0.4013 -1.0149
 4856SOL     OW26029   2.277   2.183   7.153  0.1077  0.1178  0.1144
 4856SOL    HW126030   2.325   2.263   7.134 -1.1706  1.3914  2.2600
 4856SOL    HW226031   2.280   2.138   7.069  1.9386  1.0236 -0.2982
 4857SOL     OW26032   1.981   2.147  12.573  0.1885  0.1498 -0.4699
 4857SOL    HW126033   2.060   2.194  12.600 -1.2768  1.2033  1.9977
 4857SOL    HW226034   1.913   2.214  12.581 -0.5945 -0.6139 -0.7153
 4858SOL     OW26035   0.302   1.549   7.791  0.3565 -0.1344 -0.3297
 4858SOL    HW126036   0.379   1.598   7.763 -0.0538  0.2157 -0.8438
 4858SOL    HW226037   0.246   1.625   7.805  0.5266 -0.3068  1.2369
 4859SOL     OW26038   4.682   1.884   7.166  0.5440 -0.1179  0.8767
 4859SOL    HW126039   4.626   1.932   7.227  0.5971  0.4709  0.4544
 4859SOL    HW226040   0.046   1.915   7.185  1.1339 -0.7721 -0.8223
 4860SOL     OW26041   4.596   4.055   0.933  0.5401  0.1495 -0.0604
 4860SOL    HW126042   4.617   4.123   0.868 -0.6273  1.1944  0.6462
 4860SOL    HW226043   4.680   4.011   0.941 -0.0788 -1.0116  0.0774
 4861SOL     OW26044   4.656   0.987   0.632 -0.4770  0.2406  0.0157
 4861SOL    HW126045   4.651   0.984   0.728 -0.8571  1.0649  0.0209
 4861SOL    HW226046   4.650   1.081   0.622  0.2693  0.1652 -1.1752
 4862SOL     OW26047   2.378   2.658   0.618 -0.7728 -0.6877 -0.3954
 4862SOL    HW126048   2.287   2.673   0.590 -1.1146  1.7784  2.0377
 4862SOL    HW226049   2.370   2.697   0.705 -0.2363 -1.1474 -0.1457
 4863SOL     OW26050   2.277   4.315   1.910  0.1727 -0.0137 -0.3110
 4863SOL    HW126051   2.184   4.331   1.892 -0.0779  0.8327  1.7862
 4863SOL    HW226052   2.282   4.332   2.004  0.3284 -2.1268  0.0586
 4864SOL     OW26053   4.278   0.684   1.812  0.5383 -0.3925 -0.0394
 4864SOL    HW126054   4.260   0.598   1.850  0.9949 -0.9422 -1.0672
 4864SOL    HW226055   4.372   0.675   1.794  0.9925  2.9331  0.6549
 4865SOL     OW26056   2.116   3.482   8.857  1.0205  0.2919  0.1400
 4865SOL    HW126057   2.204   3.476   8.895 -0.3088  0.3120  3.2429
 4865SOL    HW226058   2.095   3.389   8.847  1.0021  0.4385 -1.1896
 4866SOL     OW26059   0.935   3.488   2.170 -0.0212  0.1025 -0.7511
 4866SOL    HW126060   0.957   3.569   2.124  0.7450 -0.8293 -2.0131
 4866SOL    HW226061   0.866   3.506   2.234 -0.1265  3.3159 -1.7810
 4867SOL     OW26062   3.309   2.061   1.775  0.4943  0.5218 -0.5603
 4867SOL    HW126063   3.362   2.102   1.844  1.6654  0.6101 -1.5115
 4867SOL    HW226064   3.261   1.998   1.827 -0.1852  1.6326  0.1648
 4868SOL     OW26065   3.141   0.036   2.732 -0.4297  0.2457  0.6208
 4868SOL    HW126066   3.169   0.001   2.648  1.6281 -0.6114  1.6753
 4868SOL    HW226067   3.103   0.118   2.700 -1.6544 -0.5328  0.1052
 4869SOL     OW26068   4.622   0.278  12.591  0.0649  0.3104 -0.3946
 4869SOL    HW126069   4.659   0.294  12.679  0.2020  2.0895 -0.7876
 4869SOL    HW226070   4.699   0.297  12.537  0.1427 -0.6503 -0.6152
 4870SOL     OW26071   0.131   0.314   5.060  0.3350  0.2230  0.3406
 4870SOL    HW126072   0.083   0.261   5.124 -2.3954  2.7091  0.3502
 4870SOL    HW226073   0.148   0.391   5.114  0.6588  0.5177 -0.1907
 4871SOL     OW26074   1.839   3.421   6.076  0.4416 -0.2382  0.1276
 4871SOL    HW126075   1.798   3.335   6.085 -2.5641  1.1823  0.1253
 4871SOL    HW226076   1.925   3.406   6.114  0.7414 -0.1644 -0.5232
 4872SOL     OW26077   4.289   2.178   3.753 -0.1875 -0.1454 -0.2555
 4872SOL    HW126078   4.235   2.160   3.676  0.6256  0.4269 -0.9648
 4872SOL    HW226079   4.237   2.243   3.801  0.7237  1.5311 -1.5064
 4873SOL     OW26080   0.709   2.460   3.573 -0.2754 -0.0884 -0.5248
 4873SOL    HW126081   0.721   2.480   3.666  0.8798  0.9423 -0.8993
 4873SOL    HW226082   0.615   2.445   3.582 -0.1189  0.4816  2.0467
 4874SOL     OW26083   0.885   4.429   5.095  0.3533 -0.5880 -0.3430
 4874SOL    HW126084   0.978   4.430   5.070  0.0445  1.3995 -1.4820
 4874SOL    HW226085   0.858   4.366   5.028  0.3420 -1.2350  0.2797
 4875SOL     OW26086   4.502   2.593   2.811  0.3469 -0.2944  0.1255
 4875SOL    HW126087   4.595   2.603   2.794 -0.0756  1.6181 -0.9702
 4875SOL    HW226088   4.476   2.675   2.853  0.3505  1.6800 -3.8069
 4876SOL     OW26089   1.119   2.851   3.886  0.1351  0.2010  0.1172
 4876SOL    HW126090   1.198   2.817   3.928  1.0083  0.0940 -1.6050
 4876SOL    HW226091   1.057   2.852   3.958 -0.3330  0.3025 -0.2897
 4877SOL     OW26092   3.179   0.346   5.774 -0.4765  0.3488 -0.0743
 4877SOL    HW126093   3.179   0.407   5.848  0.2416  2.3204 -1.6927
 4877SOL    HW226094   3.119   0.394   5.717  0.0358 -2.7147 -3.1996
 4878SOL     OW26095   3.902   4.456  13.262 -0.6292 -0.3469 -0.0273
 4878SOL    HW126096   3.931   4.516  13.331 -0.8860 -1.3538  0.9578
 4878SOL    HW226097   3.977   4.396  13.254  0.2098  0.6539  0.2569
 4879SOL     OW26098   0.492   3.663   5.552 -0.0178 -0.1847  0.2733
 4879SOL    HW126099   0.574   3.663   5.601  0.2400  0.5040 -0.1638
 4879SOL    HW226100   0.512   3.596   5.486 -0.2662 -0.3448  0.3565
 4880SOL     OW26101   1.336   0.572   5.448 -0.0029 -0.6243  0.0361
 4880SOL    HW126102   1.422   0.542   5.417  0.0569  1.3790 -1.7136
 4880SOL    HW226103   1.286   0.490   5.443 -1.3182  0.1177  1.0195
 4881SOL     OW26104   0.577   3.227  12.893  0.2112  0.6159 -0.0613
 4881SOL    HW126105   0.611   3.261  12.976 -0.4127  2.7114 -0.6587
 4881SOL    HW226106   0.612   3.296  12.836 -2.0488  1.3883 -0.5065
 4882SOL     OW26107   0.314   3.769   5.371 -0.2150 -0.2964 -0.0876
 4882SOL    HW126108   0.353   3.743   5.454 -1.6637 -0.7435  0.4550
 4882SOL    HW226109   0.368   3.722   5.308  2.3520  0.9734  1.1764
 4883SOL     OW26110   1.914   2.632   2.101  0.3069  0.1172 -0.4055
 4883SOL    HW126111   1.824   2.633   2.068 -0.2574 -0.2056  1.1245
 4883SOL    HW226112   1.955   2.679   2.028 -0.1133  0.3088 -0.5148
 4884SOL     OW26113   1.282   2.272   8.076  0.1089 -0.3016 -0.6322
 4884SOL    HW126114   1.267   2.358   8.037  0.6375 -0.9941 -2.3732
 4884SOL    HW226115   1.372   2.279   8.107 -0.2675 -0.0107  0.4070
 4885SOL     OW26116   4.372   0.332   9.671 -0.0423  1.2749 -0.1090
 4885SOL    HW126117   4.280   0.336   9.697 -0.4968  0.2864 -1.5513
 4885SOL    HW226118   4.420   0.338   9.753 -1.2756 -3.1238  0.9582
 4886SOL     OW26119   3.797   2.209   8.438  0.3249 -0.0669  0.2005
 4886SOL    HW126120   3.832   2.215   8.527  0.7827  1.4888 -0.0906
 4886SOL    HW226121   3.723   2.149   8.452 -0.0474 -0.0443 -1.7035
 4887SOL     OW26122   3.295   1.023  15.330 -0.1146  0.6732 -0.4016
 4887SOL    HW126123   3.366   1.050  15.389  1.2186 -0.6206 -1.3894
 4887SOL    HW226124   3.293   0.928  15.343 -2.6287  0.8742  0.5739
 4888SOL     OW26125   3.285   3.472  16.801 -0.6244 -0.2316 -0.0127
 4888SOL    HW126126   3.362   3.528  16.812 -1.3467  0.5410  1.0468
 4888SOL    HW226127   3.241   3.497  16.882  0.4012  0.2061  0.4149
 4889SOL     OW26128   1.130   0.849   7.223 -0.2455  0.2394 -0.0016
 4889SOL    HW126129   1.051   0.867   7.173  0.0924 -2.0338 -1.3358
 4889SOL    HW226130   1.123   0.878   7.314  1.5777  1.1247 -0.1453
 4890SOL     OW26131   2.505   3.145   3.127 -0.1605  0.1031 -0.0641
 4890SOL    HW126132   2.491   3.112   3.216 -3.1444  0.4319 -0.4170
 4890SOL    HW226133   2.538   3.233   3.147 -1.0982  0.8173 -1.6385
 4891SOL     OW26134   0.211   0.883   3.584 -0.3420  0.1591  1.4171
 4891SOL    HW126135   0.190   0.790   3.586  0.8254 -0.1068  1.2398
 4891SOL    HW226136   0.289   0.879   3.528 -1.6732  2.6460 -0.6269
 4892SOL     OW26137   3.338   0.959   6.835 -0.1706  0.1973  0.5758
 4892SOL    HW126138   3.364   0.983   6.924 -0.5909 -0.6063  0.9190
 4892SOL    HW226139   3.407   0.896   6.814 -1.0232 -0.7750  0.6903
 4893SOL     OW26140   2.538   2.207   8.230 -0.0943 -0.2280 -0.0083
 4893SOL    HW126141   2.486   2.180   8.306 -0.6107 -0.9375 -0.6181
 4893SOL    HW226142   2.480   2.181   8.159 -1.3449  1.0523  0.5684
 4894SOL     OW26143   4.597   1.583   4.231 -0.1651  0.2937 -0.1383
 4894SOL    HW126144   4.555   1.644   4.170  1.9025  1.2762 -0.5525
 4894SOL    HW226145   4.518   1.567   4.283  0.2142  2.1146  0.9724
 4895SOL     OW26146   2.375   1.804   6.181  0.4187  0.3899 -0.1127
 4895SOL    HW126147   2.368   1.711   6.202  2.0782  0.1002 -0.8727
 4895SOL    HW226148   2.344   1.839   6.265 -0.5415 -1.5503  0.3515
 4896SOL     OW26149   1.817   0.281   4.614  0.1296 -0.2286 -0.1831
 4896SOL    HW126150   1.852   0.369   4.627  0.7383 -0.7556  1.7456
 4896SOL    HW226151   1.747   0.280   4.680 -0.0145 -0.1245 -0.3357
 4897SOL     OW26152   4.287   3.995   7.419 -0.3873  0.4014 -0.0862
 4897SOL    HW126153   4.337   4.035   7.347  1.7491 -0.4012  0.9343
 4897SOL    HW226154   4.201   3.981   7.379 -0.4821  1.5426 -0.2748
 4898SOL     OW26155   2.489   2.556  12.767  0.0431  0.0561  0.0634
 4898SOL    HW126156   2.520   2.479  12.719  0.5623 -0.7190  1.6455
 4898SOL    HW226157   2.425   2.511  12.823 -2.4983  3.9020  0.2613
 4899SOL     OW26158   0.573   1.945   4.454  0.3364 -0.2240 -0.4096
 4899SOL    HW126159   0.528   2.024   4.485 -1.6705 -1.5934  0.1450
 4899SOL    HW226160   0.660   1.983   4.447  0.9605 -1.3512  1.5004
 4900SOL     OW26161   3.235   3.529   7.405 -0.4135  0.3967  0.0369
 4900SOL    HW126162   3.255   3.620   7.428 -1.6337  0.5302  0.6040
 4900SOL    HW226163   3.320   3.492   7.385  0.8653  2.9373  0.7119
 4901SOL     OW26164   3.377   2.927   5.679 -0.4531 -0.6186  0.2590
 4901SOL    HW126165   3.313   2.857   5.693 -0.6173 -0.4388  0.4208
 4901SOL    HW226166   3.435   2.911   5.754 -0.1118 -0.3511  0.0500
 4902SOL     OW26167   3.998   0.273   4.920  0.0867  0.2301  0.4964
 4902SOL    HW126168   4.057   0.300   4.990 -1.9594  3.2517  1.0973
 4902SOL    HW226169   4.054   0.274   4.843  1.0170  2.2175  1.2000
 4903SOL     OW26170   1.113   2.471   7.361  0.0347 -0.4882  0.2676
 4903SOL    HW126171   1.138   2.473   7.268  0.9692  0.5312  0.5466
 4903SOL    HW226172   1.035   2.526   7.362  0.7420  0.4892  0.9088
 4904SOL     OW26173   1.492   0.886   4.435  0.8866 -0.1869 -0.1586
 4904SOL    HW126174   1.410   0.895   4.482  1.4722  1.3904  0.5717
 4904SOL    HW226175   1.487   0.941   4.357 -0.9932 -3.0883 -2.0912
 4905SOL     OW26176   2.472   1.507   6.509  0.1801 -0.1428 -0.7630
 4905SOL    HW126177   2.533   1.433   6.515  1.2329  0.9033  1.2672
 4905SOL    HW226178   2.384   1.472   6.518  0.5010 -0.8377 -0.3378
 4906SOL     OW26179   4.244   2.669   8.948 -0.5935  0.5344 -0.2514
 4906SOL    HW126180   4.301   2.673   9.025 -0.8594  2.4374 -0.1487
 4906SOL    HW226181   4.181   2.606   8.983 -0.1193 -1.9400 -3.8794
 4907SOL     OW26182   2.203   2.845   9.167  0.1769  0.0024  0.0413
 4907SOL    HW126183   2.262   2.884   9.231  2.4180 -0.6910 -1.6006
 4907SOL    HW226184   2.128   2.904   9.154  1.6425  2.3398  2.3440
 4908SOL     OW26185   3.393   3.078   8.514  0.4326 -0.1756 -0.5076
 4908SOL    HW126186   3.380   3.063   8.608  2.4858  1.0958 -0.0165
 4908SOL    HW226187   3.443   3.159   8.521  0.5998 -0.3339  0.1826
 4909SOL     OW26188   2.054   2.290   5.836  0.3909  0.2213  0.5642
 4909SOL    HW126189   2.050   2.285   5.932  0.3591  1.8644  0.6566
 4909SOL    HW226190   1.974   2.339   5.815  1.3741  1.5386 -0.1306
 4910SOL     OW26191   1.814   4.238  15.648 -0.5399 -0.1044 -0.9978
 4910SOL    HW126192   1.760   4.165  15.616  1.7406 -1.7554 -1.0671
 4910SOL    HW226193   1.900   4.205  15.622  0.4955  2.3969 -0.7339
 4911SOL     OW26194   2.585   2.622   7.954  0.3355 -0.8844  0.1648
 4911SOL    HW126195   2.511   2.562   7.955  0.1840 -0.6823  0.9130
 4911SOL    HW226196   2.554   2.689   7.893 -0.7547 -0.7400  0.8706
 4912SOL     OW26197   3.080   0.666   0.969  0.0057 -0.7763 -0.5404
 4912SOL    HW126198   3.034   0.634   0.892  0.8789  0.4436 -1.5623
 4912SOL    HW226199   3.012   0.725   0.999  0.9348  0.2108 -0.3788
 4913SOL     OW26200   4.642   0.988   9.107  0.2515 -0.3391  0.4628
 4913SOL    HW126201   4.551   0.975   9.082 -0.6551  0.5946  3.3216
 4913SOL    HW226202   4.639   0.945   9.192 -1.0421 -0.8263  0.1626
 4914SOL     OW26203   1.564   0.468   1.523  0.1761 -0.1531 -0.4880
 4914SOL    HW126204   1.592   0.559   1.517 -0.0327  0.0121  0.8454
 4914SOL    HW226205   1.543   0.458   1.616 -1.8686  0.1614 -0.8971
 4915SOL     OW26206   2.439   1.264  16.689  0.6934 -0.2478 -0.0553
 4915SOL    HW126207   2.428   1.357  16.709 -1.7406 -0.4001 -0.6364
 4915SOL    HW226208   2.353   1.245  16.652 -0.5157 -0.2684  2.7904
 4916SOL     OW26209   4.082   4.252  11.261  0.0190 -0.1268  0.2046
 4916SOL    HW126210   4.098   4.252  11.356 -0.1492 -1.7575  0.2258
 4916SOL    HW226211   4.090   4.345  11.239 -0.7143 -0.0116  0.4261
 4917SOL     OW26212   1.365   0.581  15.354 -0.0224 -0.7735  0.7357
 4917SOL    HW126213   1.356   0.538  15.269 -0.6380 -0.5951  0.7097
 4917SOL    HW226214   1.274   0.588  15.383  0.6973 -1.3294  3.1520
 4918SOL     OW26215   3.672   4.509   7.109  0.1474  0.3961 -0.4181
 4918SOL    HW126216   3.640   4.576   7.170  3.6266  1.1524  0.5714
 4918SOL    HW226217   3.618   4.431   7.121  1.3738 -0.7044 -2.0394
 4919SOL     OW26218   3.952   2.713   0.112  0.5297 -0.5866 -0.0669
 4919SOL    HW126219   3.908   2.698   0.028  0.5841  1.0918 -0.3947
 4919SOL    HW226220   3.881   2.695   0.174 -0.1209 -0.4539 -0.7639
 4920SOL     OW26221   3.658   4.317   5.024 -0.2553 -0.1780 -0.2427
 4920SOL    HW126222   3.708   4.342   4.947 -2.3401 -0.4870 -1.6775
 4920SOL    HW226223   3.710   4.240   5.048 -0.2989  0.5392  2.1663
 4921SOL     OW26224   3.232   0.974  10.617  0.5548  0.4788  0.6043
 4921SOL    HW126225   3.309   0.952  10.669  1.3515  1.7449 -0.0352
 4921SOL    HW226226   3.251   0.927  10.535 -1.1076 -0.3387  0.6884
 4922SOL     OW26227   2.565   3.670   1.743 -0.1892 -0.0642  0.9072
 4922SOL    HW126228   2.598   3.589   1.781  0.8060  1.8297  4.0868
 4922SOL    HW226229   2.509   3.704   1.813 -0.4219  0.9483  0.2322
 4923SOL     OW26230   1.120   1.743  14.448 -0.2978  0.2744 -0.3668
 4923SOL    HW126231   1.206   1.763  14.412 -0.7372 -0.0224 -1.5534
 4923SOL    HW226232   1.120   1.654  14.483 -1.6353  0.6470  0.5860
 4924SOL     OW26233   2.545   3.818   3.330  0.1810  0.2021  0.7830
 4924SOL    HW126234   2.627   3.827   3.282 -1.5395  2.0106 -1.8375
 4924SOL    HW226235   2.556   3.733   3.372 -0.8795  2.0875  4.8869
 4925SOL     OW26236   3.288   3.891   0.136  0.0966 -0.5100  0.1698
 4925SOL    HW126237   3.294   3.832   0.061 -0.8125 -0.6514  0.2087
 4925SOL    HW226238   3.333   3.839   0.201  0.3022 -0.2317  0.2486
 4926SOL     OW26239   3.670   3.914   6.710  0.0989  0.5406  0.3545
 4926SOL    HW126240   3.607   3.865   6.762 -0.8878  0.8364 -0.5582
 4926SOL    HW226241   3.610   3.967   6.657 -0.9296 -0.3681  0.6227
 4927SOL     OW26242   2.164   0.978  16.556 -0.0919  0.2824  0.2410
 4927SOL    HW126243   2.197   0.952  16.643  0.3728 -0.7361 -0.2384
 4927SOL    HW226244   2.123   0.897  16.526 -2.3606  0.7791  1.9850
 4928SOL     OW26245   2.028   2.237   5.092  0.0132 -0.2877 -0.0164
 4928SOL    HW126246   1.957   2.301   5.097  1.0209  0.8764 -0.3271
 4928SOL    HW226247   2.099   2.290   5.129 -1.2529  2.3425 -1.2953
 4929SOL     OW26248   4.260   4.078   1.270 -0.3656  0.3304 -0.3843
 4929SOL    HW126249   4.215   4.007   1.224 -0.4763  0.4820 -0.5106
 4929SOL    HW226250   4.283   4.030   1.349 -3.3111  1.1907  0.9726
 4930SOL     OW26251   1.968   1.533   8.943 -0.8305 -0.3477  0.3762
 4930SOL    HW126252   2.008   1.449   8.919 -0.7447  0.2908 -1.7356
 4930SOL    HW226253   2.047   1.587   8.946 -0.7026 -0.5142  0.0317
 4931SOL     OW26254   1.548   0.186   8.916  0.3745  0.5641  0.0192
 4931SOL    HW126255   1.591   0.113   8.870 -1.7953 -0.2013 -0.7928
 4931SOL    HW226256   1.567   0.266   8.866  0.1120  1.3142  1.1364
 4932SOL     OW26257   2.271   1.909  14.269 -0.1100  0.6565  0.2727
 4932SOL    HW126258   2.246   1.970  14.199  0.0678 -2.1253 -2.2083
 4932SOL    HW226259   2.364   1.927  14.277 -0.4430  3.0454 -1.2146
 4933SOL     OW26260   2.830   1.758   8.468 -0.2294  0.0753 -0.6269
 4933SOL    HW126261   2.914   1.799   8.489 -0.1225 -0.2934 -0.3223
 4933SOL    HW226262   2.786   1.780   8.550  0.4807  0.1827 -0.2784
 4934SOL     OW26263   1.089   0.525  11.050 -0.3450 -0.2476  0.0013
 4934SOL    HW126264   1.020   0.586  11.076 -0.0602 -0.5898  1.5731
 4934SOL    HW226265   1.168   0.566  11.083  0.7892 -2.7297  0.3986
 4935SOL     OW26266   1.940   1.342  16.184  0.4609 -0.1670  0.1206
 4935SOL    HW126267   1.975   1.404  16.248  0.1943 -1.5562  1.6176
 4935SOL    HW226268   1.989   1.261  16.199 -0.3435 -0.9650 -1.5282
 4936SOL     OW26269   3.313   4.724   3.228 -0.5335 -0.1713 -0.0798
 4936SOL    HW126270   3.305   4.713   3.134 -0.6503 -0.3403 -0.0514
 4936SOL    HW226271   3.263   0.080   3.243 -1.1756 -0.6323  0.2636
 4937SOL     OW26272   3.117   0.466   5.457  0.3685  0.3223  0.4347
 4937SOL    HW126273   3.170   0.529   5.409  0.2094 -0.4288 -0.7242
 4937SOL    HW226274   3.088   0.515   5.534 -1.4535  0.0151 -0.0775
 4938SOL     OW26275   1.189   4.218   5.864  0.4626 -0.5448  0.4867
 4938SOL    HW126276   1.179   4.253   5.952  0.1606  2.5008 -0.7656
 4938SOL    HW226277   1.265   4.268   5.836 -0.2003 -0.7606 -1.7130
 4939SOL     OW26278   2.909   1.486   2.009 -0.0792 -0.5780 -0.2029
 4939SOL    HW126279   2.822   1.446   2.000 -0.6998  0.3417  1.5689
 4939SOL    HW226280   2.956   1.423   2.063  1.0356 -0.5171 -1.1172
 4940SOL     OW26281   3.320   0.494   8.781  0.2177  0.1597  0.0034
 4940SOL    HW126282   3.242   0.540   8.813  0.9363 -0.7177  3.0865
 4940SOL    HW226283   3.286   0.435   8.714 -0.3973 -0.0589  0.4998
 4941SOL     OW26284   2.648   1.929   6.628  0.1550 -0.2442  0.0297
 4941SOL    HW126285   2.690   1.941   6.543 -0.8321 -1.7351 -0.6753
 4941SOL    HW226286   2.636   2.020   6.656 -2.5791 -0.8647  0.8837
 4942SOL     OW26287   0.576   3.041  15.533 -0.0174  0.3960  0.0412
 4942SOL    HW126288   0.597   3.056  15.441 -2.4725 -0.6315 -0.6756
 4942SOL    HW226289   0.491   3.084  15.547 -0.5594 -0.1564 -1.4925
 4943SOL     OW26290   3.189   0.262   3.265  0.5517  0.4363  0.4967
 4943SOL    HW126291   3.181   0.348   3.306 -0.4879  0.2652  0.6530
 4943SOL    HW226292   3.169   0.282   3.174 -0.4509  1.0492  0.8452
 4944SOL     OW26293   3.447   2.491   3.770  0.5808  0.5389  0.2592
 4944SOL    HW126294   3.510   2.439   3.820  2.1468  2.1597 -0.0368
 4944SOL    HW226295   3.367   2.440   3.781  1.9474 -1.3144  1.7090
 4945SOL     OW26296   2.437   0.458   7.687 -0.6353 -0.5699 -0.1734
 4945SOL    HW126297   2.443   0.375   7.735  4.2298  0.5851  1.2369
 4945SOL    HW226298   2.452   0.523   7.755  0.3775 -0.2060 -0.7516
 4946SOL     OW26299   2.184   3.804   6.371 -0.4369  0.4080  0.5020
 4946SOL    HW126300   2.213   3.752   6.446 -0.9004  1.7258  1.5893
 4946SOL    HW226301   2.090   3.788   6.372 -0.1612 -1.0681  2.2300
 4947SOL     OW26302   1.107   3.017  10.166  0.3841  0.1092  0.0102
 4947SOL    HW126303   1.118   2.931  10.124  0.5471 -0.8057  1.8951
 4947SOL    HW226304   1.012   3.024  10.153  0.2674 -0.9742  0.2412
 4948SOL     OW26305   3.589   3.648   8.553 -0.2110  0.4873 -0.2652
 4948SOL    HW126306   3.643   3.574   8.579  0.3369  0.3572 -1.7945
 4948SOL    HW226307   3.596   3.710   8.626  0.2438 -0.8518  0.8331
 4949SOL     OW26308   1.895   4.619   6.917  0.1802  0.1107 -0.1256
 4949SOL    HW126309   1.887   4.529   6.887 -0.9317  0.4242 -0.7757
 4949SOL    HW226310   1.906   4.662   6.832 -0.8267  1.2948  0.3432
 4950SOL     OW26311   1.379   0.962   7.586 -0.4494  0.9763  0.3510
 4950SOL    HW126312   1.413   0.993   7.503 -1.4520  0.7474 -0.1513
 4950SOL    HW226313   1.284   0.968   7.570 -0.0661 -2.3324 -3.2492
 4951SOL     OW26314   1.986   3.316   0.495 -0.3617 -0.3216 -0.4816
 4951SOL    HW126315   1.923   3.347   0.559 -1.1067 -0.5261 -1.1136
 4951SOL    HW226316   1.936   3.259   0.436 -0.1252 -0.0978 -0.9004
 4952SOL     OW26317   1.721   2.276  12.637 -0.0409  0.0050 -0.0629
 4952SOL    HW126318   1.706   2.183  12.619 -1.7063  0.0938  0.7857
 4952SOL    HW226319   1.672   2.274  12.719  1.2520 -0.8103  0.6743
 4953SOL     OW26320   3.610   1.986   2.643  0.1793 -0.0362  0.3933
 4953SOL    HW126321   3.536   2.046   2.643  1.1386  1.1699 -1.2650
 4953SOL    HW226322   3.674   2.030   2.586 -1.5268  1.3998 -0.4093
 4954SOL     OW26323   3.588   1.243   3.104 -0.3809 -0.3968  0.4063
 4954SOL    HW126324   3.579   1.157   3.147 -0.1298 -0.8394 -0.4364
 4954SOL    HW226325   3.502   1.261   3.066 -0.5814 -0.1512  0.9731
 4955SOL     OW26326   3.247   0.902   5.433 -0.4088  0.5503  0.1242
 4955SOL    HW126327   3.223   0.932   5.345 -0.3560 -2.0584 -0.7850
 4955SOL    HW226328   3.276   0.985   5.471  1.4326  0.0248 -0.1366
 4956SOL     OW26329   3.951   4.677   4.876  0.1367 -0.6394  0.2571
 4956SOL    HW126330   4.044   4.691   4.895  0.1182  0.4944 -0.5467
 4956SOL    HW226331   3.951   0.005   4.796  0.2699 -0.4458  0.3824
 4957SOL     OW26332   1.254   1.811   2.670  0.0208 -0.6892 -0.0741
 4957SOL    HW126333   1.252   1.782   2.762 -2.3654  0.6535  0.2734
 4957SOL    HW226334   1.340   1.780   2.639  1.2894  3.0813 -0.3743
 4958SOL     OW26335   0.671   2.607  15.713 -0.1944 -0.4257 -0.1004
 4958SOL    HW126336   0.598   2.664  15.689 -0.6292 -0.2728  1.5281
 4958SOL    HW226337   0.745   2.649  15.671 -1.1161  1.8119  0.5195
 4959SOL     OW26338   3.679   2.232   7.611 -0.3760  0.4246  0.6089
 4959SOL    HW126339   3.589   2.214   7.583  0.0507  0.2450 -0.6647
 4959SOL    HW226340   3.668   2.314   7.659 -2.5071 -0.4889  1.6534
 4960SOL     OW26341   0.987   4.154   4.072  0.0209  0.8547  0.1853
 4960SOL    HW126342   0.999   4.060   4.060  1.8737  0.9607  1.2783
 4960SOL    HW226343   0.895   4.157   4.099 -0.6726 -0.3450 -2.0353
 4961SOL     OW26344   0.610   0.681   2.998  0.2416 -0.3439 -0.1083
 4961SOL    HW126345   0.685   0.630   2.967  1.1113  2.1292 -2.0288
 4961SOL    HW226346   0.554   0.606   3.021  3.0532 -2.2005  0.7352
 4962SOL     OW26347   3.350   1.965  11.665  0.5588  0.2192  0.0868
 4962SOL    HW126348   3.273   1.987  11.612 -0.4827 -1.7795  0.7778
 4962SOL    HW226349   3.379   2.043  11.712  2.0195  1.0880 -2.2465
 4963SOL     OW26350   2.243   3.466   1.660  0.1234  0.1599 -0.2626
 4963SOL    HW126351   2.288   3.497   1.739  0.5365 -1.4132  0.1262
 4963SOL    HW226352   2.155   3.486   1.690  0.1955  1.1368 -0.7110
 4964SOL     OW26353   2.138   3.095   9.035 -0.3285  0.1699 -0.0573
 4964SOL    HW126354   2.222   3.065   9.000  1.0511  4.5833 -0.6223
 4964SOL    HW226355   2.081   3.056   8.969  1.9037 -1.9355 -0.7512
 4965SOL     OW26356   3.295   1.476   6.059 -0.0418  0.4361 -0.7060
 4965SOL    HW126357   3.234   1.507   5.993 -0.0825  3.1012  0.5541
 4965SOL    HW226358   3.262   1.391   6.087 -3.3481  2.8847  2.9368
 4966SOL     OW26359   0.495   3.221  14.600 -0.1585  0.0313 -0.2084
 4966SOL    HW126360   0.552   3.196  14.527 -1.2747  2.3075 -1.8710
 4966SOL    HW226361   0.415   3.249  14.556 -2.1680 -2.6977  1.7904
 4967SOL     OW26362   3.667   4.042   8.965  0.2793 -0.1836  0.3371
 4967SOL    HW126363   3.706   3.993   9.037  0.2938 -1.8175 -0.7927
 4967SOL    HW226364   3.738   4.106   8.955  0.1746 -0.0770  0.2790
 4968SOL     OW26365   2.545   1.205   2.499 -0.3097 -0.1260  0.0992
 4968SOL    HW126366   2.459   1.247   2.489 -1.0125 -1.5841  0.0073
 4968SOL    HW226367   2.585   1.232   2.416  0.3305 -0.8267  0.1878
 4969SOL     OW26368   2.071   4.600   3.951 -0.6348  0.3847  0.1646
 4969SOL    HW126369   2.062   4.575   3.859  1.8282  0.6620 -0.1485
 4969SOL    HW226370   1.977   4.605   3.965 -0.5919  1.7748 -0.1009
 4970SOL     OW26371   3.813   3.561   1.102  0.4500  0.0090 -0.2622
 4970SOL    HW126372   3.788   3.550   1.194 -1.1763  1.7939 -0.5044
 4970SOL    HW226373   3.730   3.557   1.055  0.6463  2.2529 -0.7676
 4971SOL     OW26374   1.678   0.759  12.571 -0.0977 -0.0129 -0.4107
 4971SOL    HW126375   1.706   0.759  12.663 -0.6538 -0.0166 -0.2357
 4971SOL    HW226376   1.756   0.795  12.530 -0.2051  2.2745  1.3665
 4972SOL     OW26377   1.863   0.111   2.230 -0.6809  0.8585  0.1057
 4972SOL    HW126378   1.826   0.048   2.291 -2.9312  1.9413 -0.1066
 4972SOL    HW226379   1.861   0.194   2.278  2.1120  1.1810 -0.3572
 4973SOL     OW26380   2.854   3.349   4.478 -0.1421 -0.3863  0.6220
 4973SOL    HW126381   2.879   3.294   4.404 -1.1255 -1.3832  1.0259
 4973SOL    HW226382   2.938   3.383   4.509 -1.0320  0.4302  2.1364
 4974SOL     OW26383   0.176   0.197   2.852  0.0317 -0.3420  0.0348
 4974SOL    HW126384   0.263   0.169   2.880 -0.6023 -1.3264  1.0375
 4974SOL    HW226385   0.123   0.194   2.931  1.4992  1.2932  1.0603
 4975SOL     OW26386   1.120   3.842   7.501  0.2777 -0.0662  0.1420
 4975SOL    HW126387   1.080   3.865   7.417 -1.2395  1.6291  1.3228
 4975SOL    HW226388   1.197   3.796   7.468  0.7028 -0.1731  1.2962
 4976SOL     OW26389   4.530   4.159  15.026  0.1170  0.0690 -0.7909
 4976SOL    HW126390   4.558   4.177  14.936 -0.2011  1.1902 -0.6587
 4976SOL    HW226391   4.613   4.165  15.073  0.3908 -0.1276 -1.2478
 4977SOL     OW26392   4.480   4.245   7.146 -0.1886 -0.2448 -0.5020
 4977SOL    HW126393   4.563   4.206   7.119  0.1453  1.6548 -2.1794
 4977SOL    HW226394   4.529   4.320   7.180 -3.5552  1.8312 -0.2108
 4978SOL     OW26395   1.624   1.999  12.626 -0.9299 -0.1555  0.6949
 4978SOL    HW126396   1.603   1.912  12.591  1.7683 -0.7721  0.5536
 4978SOL    HW226397   1.671   1.975  12.706 -0.3426 -0.0482  0.3851
 4979SOL     OW26398   3.304   2.262   2.318 -0.8627 -0.2152 -0.2041
 4979SOL    HW126399   3.273   2.238   2.230 -0.8180 -1.2399  0.0575
 4979SOL    HW226400   3.225   2.274   2.370 -0.5093  4.1007 -0.6719
 4980SOL     OW26401   0.257   0.017  17.037  0.1293 -0.4346 -0.7943
 4980SOL    HW126402   0.308   0.056  17.108 -1.6076  0.2968  0.0508
 4980SOL    HW226403   0.284   4.650  17.038 -0.2668 -0.5472 -0.5205
 4981SOL     OW26404   0.346   2.484  17.048  0.8205 -0.2200 -0.1562
 4981SOL    HW126405   0.253   2.487  17.024  1.0701 -1.5754 -1.2274
 4981SOL    HW226406   0.385   2.491  16.961 -0.0147  0.1003 -0.5059
 4982SOL     OW26407   4.181   2.270   5.116  0.5945  0.6997  0.7748
 4982SOL    HW126408   4.193   2.364   5.131  2.0004  1.0135 -2.2047
 4982SOL    HW226409   4.087   2.257   5.126  0.4727 -0.2786 -1.5920
 4983SOL     OW26410   3.632   1.710   2.928  0.4409 -0.5426  0.1822
 4983SOL    HW126411   3.673   1.793   2.905 -0.1748 -0.6883 -1.4068
 4983SOL    HW226412   3.549   1.739   2.890 -0.3713 -0.0338  2.3049
 4984SOL     OW26413   3.664   0.269   4.284  0.2602  0.4716 -0.2469
 4984SOL    HW126414   3.573   0.286   4.260  0.0954  0.6937  0.5361
 4984SOL    HW226415   3.692   0.220   4.206  2.2550  0.7262  0.2967
 4985SOL     OW26416   1.599   4.160   6.052 -0.7500  0.2402 -0.3056
 4985SOL    HW126417   1.568   4.098   5.987 -1.2876 -0.9809  1.1222
 4985SOL    HW226418   1.636   4.098   6.115 -0.8771  0.3213 -0.1495
 4986SOL     OW26419   2.226   0.094   6.643 -0.1849 -0.4234  0.0445
 4986SOL    HW126420   2.314   0.123   6.620 -1.1887  0.8400 -2.1595
 4986SOL    HW226421   2.232   0.093   6.738  0.3707 -1.2895 -0.0014
 4987SOL     OW26422   3.646   0.003   9.209  0.1549  0.2128 -0.6800
 4987SOL    HW126423   3.641   0.023   9.302 -0.1035  1.3738 -0.9393
 4987SOL    HW226424   3.729   4.679   9.210  0.2692  0.4204 -0.2703
 4988SOL     OW26425   1.848   4.551   8.428 -0.2146  0.2035  0.3062
 4988SOL    HW126426   1.864   4.575   8.519 -0.9507 -0.8660  0.7224
 4988SOL    HW226427   1.799   4.470   8.435  2.9576 -1.6868  0.6570
 4989SOL     OW26428   3.992   0.462  10.594  0.0314  0.1296  0.0221
 4989SOL    HW126429   4.020   0.376  10.624  0.1507 -0.2888 -1.2730
 4989SOL    HW226430   3.919   0.443  10.536 -0.3513 -1.2661  0.9601
 4990SOL     OW26431   1.093   0.045   7.595 -0.0181 -0.0412  0.3412
 4990SOL    HW126432   1.155   0.067   7.664  0.5929 -0.2875 -0.1283
 4990SOL    HW226433   1.053   0.129   7.572 -2.4677 -1.2834  0.0205
 4991SOL     OW26434   1.353   1.478   7.932  0.7590 -0.1323  0.3028
 4991SOL    HW126435   1.375   1.410   7.868 -1.2729  0.4061 -0.9807
 4991SOL    HW226436   1.415   1.451   7.999  3.0216 -2.4132 -2.7003
 4992SOL     OW26437   0.858   3.345   0.388  0.0338 -0.3776  0.3128
 4992SOL    HW126438   0.791   3.414   0.392 -0.4630 -0.8182 -0.3976
 4992SOL    HW226439   0.883   3.330   0.479  1.2027 -0.1475  0.0312
 4993SOL     OW26440   1.657   2.145   3.248  0.4725 -0.2780  0.4342
 4993SOL    HW126441   1.659   2.052   3.269 -0.0970 -0.2375  0.6730
 4993SOL    HW226442   1.674   2.137   3.154  0.0731  0.6532  0.2757
 4994SOL     OW26443   0.904   3.669  14.881  0.0275  0.3645  0.5272
 4994SOL    HW126444   0.988   3.636  14.846  1.1694  2.3036  1.4562
 4994SOL    HW226445   0.852   3.670  14.801  0.2075 -0.6061  0.3838
 4995SOL     OW26446   2.802   1.960  15.047 -0.3857 -0.5369 -0.1208
 4995SOL    HW126447   2.711   1.956  15.018 -1.0278  0.2568  1.7431
 4995SOL    HW226448   2.845   1.962  14.962  2.2352 -0.4153  1.1837
 4996SOL     OW26449   1.806   1.461   7.767  0.2346 -0.0664 -0.1785
 4996SOL    HW126450   1.843   1.543   7.799  1.2583 -0.7830  0.4804
 4996SOL    HW226451   1.759   1.496   7.692  1.6843 -1.0319 -1.5287
 4997SOL     OW26452   3.936   3.367   7.652  0.1160 -0.1702  0.4912
 4997SOL    HW126453   4.031   3.361   7.666  0.1665 -0.2269  0.1235
 4997SOL    HW226454   3.920   3.452   7.694  1.2177 -0.3060  1.1909
 4998SOL     OW26455   3.311   1.968  13.664 -0.1090 -0.0974  0.2778
 4998SOL    HW126456   3.230   2.006  13.632 -0.9047 -2.6364 -0.7476
 4998SOL    HW226457   3.289   1.947  13.755 -1.1075 -0.0635  0.0421
 4999SOL     OW26458   0.849   0.540   2.922  0.0800  0.1635  0.5270
 4999SOL    HW126459   0.868   0.459   2.969  0.5560 -0.1844 -0.2530
 4999SOL    HW226460   0.912   0.597   2.967  0.3705 -0.0480  0.3905
 5000SOL     OW26461   0.584   2.516  11.051 -0.0718 -0.4605 -0.2352
 5000SOL    HW126462   0.678   2.535  11.044 -0.7117  2.0785 -1.7023
 5000SOL    HW226463   0.548   2.580  10.989 -0.5815 -0.1445  0.3862
 5001SOL     OW26464   3.924   3.915   0.649  0.2048  0.0897 -0.1640
 5001SOL    HW126465   3.870   3.975   0.598  0.0219  1.9976  2.3192
 5001SOL    HW226466   3.887   3.940   0.733 -0.2397 -2.3563  0.3688
 5002SOL     OW26467   2.847   2.553   3.266 -0.1954 -0.3296  0.6765
 5002SOL    HW126468   2.792   2.477   3.286  1.8825 -1.5919  1.5255
 5002SOL    HW226469   2.872   2.536   3.175 -1.3216  0.8688  0.1464
 5003SOL     OW26470   1.940   2.210   6.079 -0.3911  0.1803  0.3130
 5003SOL    HW126471   2.011   2.167   6.126 -0.4361  2.4852  2.4825
 5003SOL    HW226472   1.944   2.305   6.092  0.1480  0.5061 -2.0960
 5004SOL     OW26473   1.303   1.771  10.739 -0.0718  0.4505  0.2135
 5004SOL    HW126474   1.332   1.701  10.797 -0.3456  0.2243  0.0790
 5004SOL    HW226475   1.234   1.722  10.694 -1.3901  0.9368  1.6991
 5005SOL     OW26476   2.763   1.881   1.469  0.2188 -0.0547  0.1784
 5005SOL    HW126477   2.841   1.877   1.524  0.6801  1.2411 -0.3807
 5005SOL    HW226478   2.778   1.961   1.419 -1.0310  1.3703  2.1184
 5006SOL     OW26479   2.458   4.018   4.131 -0.2708  0.1333 -0.1046
 5006SOL    HW126480   2.499   3.933   4.114 -0.4745 -0.1604  0.8746
 5006SOL    HW226481   2.522   4.079   4.096  1.0334 -0.2515  1.6267
 5007SOL     OW26482   2.406   4.414  11.618 -0.2460 -0.0486  0.3962
 5007SOL    HW126483   2.482   4.358  11.635  0.4648  0.9058  0.3976
 5007SOL    HW226484   2.447   4.501  11.617 -1.9690  0.7685  1.6162
 5008SOL     OW26485   4.669   3.764   2.459  0.6272 -0.3104 -0.2015
 5008SOL    HW126486   4.683   3.723   2.374  0.2372 -1.3047  0.2106
 5008SOL    HW226487   4.584   3.805   2.441  0.7791 -1.2239 -2.9790
 5009SOL     OW26488   2.937   1.806   4.527  0.0206 -0.1317 -0.1874
 5009SOL    HW126489   3.014   1.833   4.477 -1.3200  0.4470 -1.9727
 5009SOL    HW226490   2.961   1.834   4.615 -0.1626 -1.1791  0.2023
 5010SOL     OW26491   2.946   3.654  14.513 -0.1197  0.6439 -0.1552
 5010SOL    HW126492   2.910   3.569  14.541  2.3511 -0.1377  0.6259
 5010SOL    HW226493   2.941   3.699  14.597 -1.3597 -1.1954  0.7689
 5011SOL     OW26494   2.459   0.911   7.245  0.3801  0.5342  0.3116
 5011SOL    HW126495   2.374   0.936   7.280 -0.2036  0.8289 -1.3139
 5011SOL    HW226496   2.510   0.921   7.325  1.8267  0.1595 -0.5634
 5012SOL     OW26497   2.053   4.529   9.120 -0.2624  0.1313 -0.4464
 5012SOL    HW126498   2.134   4.478   9.118  1.0724  2.2483 -0.2150
 5012SOL    HW226499   2.086   4.618   9.109  0.4901 -0.0548  0.2493
 5013SOL     OW26500   3.688   0.003   7.350 -0.1285  0.1243  0.4442
 5013SOL    HW126501   3.757   0.005   7.416  1.3724  0.8015 -1.1285
 5013SOL    HW226502   3.628   4.666   7.392  0.4759 -0.1272  0.9389
 5014SOL     OW26503   1.743   4.615  12.821 -0.8700  0.0614 -0.4223
 5014SOL    HW126504   1.665   4.577  12.860  0.1031 -0.1653  1.3215
 5014SOL    HW226505   1.767   4.540  12.766  2.6974  0.3920  0.6962
 5015SOL     OW26506   4.458   0.934   4.175 -0.0620  0.4735 -0.1947
 5015SOL    HW126507   4.383   0.969   4.128 -1.5554 -1.1314  0.9761
 5015SOL    HW226508   4.523   1.002   4.160 -1.0362  1.0110 -1.9566
 5016SOL     OW26509   0.655   3.257  11.706  0.3172 -0.2110 -1.1688
 5016SOL    HW126510   0.564   3.275  11.726 -0.1843 -3.4023 -0.5372
 5016SOL    HW226511   0.639   3.178  11.653 -0.6973 -0.8915  0.1770
 5017SOL     OW26512   4.374   3.336   5.575 -0.0974 -0.0542 -0.1424
 5017SOL    HW126513   4.443   3.303   5.519  0.4549 -1.1558  1.1798
 5017SOL    HW226514   4.429   3.408   5.607 -3.0005  1.2216  1.9898
 5018SOL     OW26515   3.664   4.199   5.605 -0.0161  0.0589  0.0083
 5018SOL    HW126516   3.688   4.286   5.573 -0.1842  0.2946  0.5184
 5018SOL    HW226517   3.674   4.152   5.522  2.0076  2.1696 -0.9448
 5019SOL     OW26518   3.526   1.783   4.069 -0.5082 -0.5060 -0.0639
 5019SOL    HW126519   3.497   1.748   3.985  1.3942 -0.8661 -0.5725
 5019SOL    HW226520   3.450   1.767   4.125 -0.6376  0.5928  0.0704
 5020SOL     OW26521   1.963   0.692   3.778  0.0666 -0.3034 -0.5091
 5020SOL    HW126522   2.002   0.771   3.815 -1.7770  0.1095  0.5247
 5020SOL    HW226523   1.896   0.668   3.842 -0.7917  1.2382 -0.8367
 5021SOL     OW26524   0.759   2.406   1.666 -0.2606  0.4126 -0.0616
 5021SOL    HW126525   0.724   2.480   1.715  2.8319  2.3433 -0.7538
 5021SOL    HW226526   0.833   2.447   1.620  1.0333 -0.4185  1.3106
 5022SOL     OW26527   3.019   3.201   1.749 -0.3593 -0.2642 -0.0317
 5022SOL    HW126528   2.969   3.281   1.766  0.7373  0.7475 -1.5004
 5022SOL    HW226529   2.942   3.148   1.728  0.0619  0.1190 -2.6121
 5023SOL     OW26530   4.576   3.700   5.086  0.0426  0.1005 -0.4276
 5023SOL    HW126531   4.485   3.673   5.088  0.1114 -0.0405  0.7200
 5023SOL    HW226532   4.600   3.685   5.177 -2.5210  0.5193  0.3155
 5024SOL     OW26533   2.627   3.857   8.240  0.3459  0.2931  0.1596
 5024SOL    HW126534   2.668   3.860   8.154  2.2004  0.0809  1.0351
 5024SOL    HW226535   2.533   3.853   8.221  0.7956 -0.9035 -1.8346
 5025SOL     OW26536   4.189   4.258   7.800 -0.1667  0.2836 -0.1129
 5025SOL    HW126537   4.120   4.219   7.852 -0.0783  0.9903  0.5393
 5025SOL    HW226538   4.147   4.311   7.732 -1.6482  0.1224  0.6802
 5026SOL     OW26539   2.658   0.320  11.591  0.1161 -0.7683  0.2464
 5026SOL    HW126540   2.629   0.229  11.581 -2.6767 -0.0051  1.2895
 5026SOL    HW226541   2.753   0.313  11.597  0.3070 -0.5031 -2.1865
 5027SOL     OW26542   0.656   2.831   5.491  0.1938  0.1065 -0.2890
 5027SOL    HW126543   0.608   2.784   5.423  1.9374 -2.5462  0.3263
 5027SOL    HW226544   0.586   2.890   5.520  0.6458  0.9917 -0.9848
 5028SOL     OW26545   1.684   4.567  17.010  0.6474 -0.5831 -0.1936
 5028SOL    HW126546   1.629   4.491  17.032  1.0392 -0.5182  0.9967
 5028SOL    HW226547   1.743   4.532  16.943 -1.3891  0.1318 -2.3433
 5029SOL     OW26548   0.204   1.162  15.077 -0.7582  0.5010  0.2990
 5029SOL    HW126549   0.113   1.192  15.084 -1.3412 -0.8437 -1.5936
 5029SOL    HW226550   0.235   1.233  15.022  0.0025  1.4192  1.9078
 5030SOL     OW26551   3.432   4.112   0.558 -0.3398 -0.7264  0.5823
 5030SOL    HW126552   3.457   4.021   0.574  0.0790 -1.2756 -3.3068
 5030SOL    HW226553   3.449   4.157   0.641 -1.0127  0.0324  0.3088
 5031SOL     OW26554   4.117   4.403   0.537  0.1979 -0.1567 -0.0160
 5031SOL    HW126555   4.133   4.309   0.546 -0.6312 -0.3618 -0.6937
 5031SOL    HW226556   4.179   4.420   0.466 -1.3277  0.0747 -1.2847
 5032SOL     OW26557   3.715   1.853   3.590 -0.1325 -0.1085  0.1025
 5032SOL    HW126558   3.720   1.931   3.535  0.3478 -0.6569 -0.6392
 5032SOL    HW226559   3.661   1.791   3.540 -0.2851  0.5491 -0.5496
 5033SOL     OW26560   4.355   4.720  14.441 -0.0655 -0.0583 -0.3739
 5033SOL    HW126561   4.399   0.062  14.389  0.0907 -0.6034 -0.9306
 5033SOL    HW226562   4.364   0.046  14.522 -0.3878  0.8500 -0.9026
 5034SOL     OW26563   4.197   3.208   5.038  0.0785  0.1693 -0.5132
 5034SOL    HW126564   4.120   3.255   5.071  1.0211 -1.4890  4.1316
 5034SOL    HW226565   4.242   3.277   4.989  0.4316 -2.3757 -3.7264
 5035SOL     OW26566   4.465   1.135   6.946 -0.7451  0.5912  0.0539
 5035SOL    HW126567   4.373   1.125   6.921 -0.2165 -1.7754 -0.9660
 5035SOL    HW226568   4.504   1.086   6.873  1.2452  0.7653  0.9966
 5036SOL     OW26569   1.904   0.819   7.124 -0.4159  0.2206 -0.2412
 5036SOL    HW126570   1.911   0.724   7.117  0.8735  0.3619 -0.8224
 5036SOL    HW226571   1.872   0.831   7.213  1.8099  1.8302  0.3381
 5037SOL     OW26572   2.370   3.825   0.697  0.0015 -0.0307 -0.4408
 5037SOL    HW126573   2.445   3.873   0.661  0.4003 -0.7988 -0.6380
 5037SOL    HW226574   2.365   3.851   0.789  0.1532 -1.7597  0.0420
 5038SOL     OW26575   0.279   2.195   6.377 -0.0395  0.3824 -0.5504
 5038SOL    HW126576   0.247   2.107   6.396  0.4278  0.5610  1.1104
 5038SOL    HW226577   0.193   2.237   6.383 -1.2206 -1.4686 -4.2903
 5039SOL     OW26578   3.261   1.413  11.940 -0.2836 -0.3302 -0.4716
 5039SOL    HW126579   3.248   1.362  12.020 -0.3731  0.9249  0.3125
 5039SOL    HW226580   3.222   1.345  11.885 -3.4655  0.2986  0.9893
 5040SOL     OW26581   4.463   2.763  11.339  0.5415 -0.0179  0.3654
 5040SOL    HW126582   4.491   2.742  11.250  1.8736 -1.1317  1.0482
 5040SOL    HW226583   4.368   2.752  11.341  0.4726  0.6505  0.9572
 5041SOL     OW26584   3.726   4.179   2.947  0.4753 -0.4909 -0.2866
 5041SOL    HW126585   3.785   4.255   2.938 -0.2032 -0.1096 -1.5218
 5041SOL    HW226586   3.769   4.125   3.013 -2.1759 -0.8742  1.0780
 5042SOL     OW26587   3.231   3.859  14.489 -0.1607 -0.4516 -0.1704
 5042SOL    HW126588   3.183   3.777  14.506 -0.0438 -0.2563  1.0494
 5042SOL    HW226589   3.233   3.857  14.393 -0.9179  0.9902 -0.2106
 5043SOL     OW26590   0.808   1.457  14.600  0.4808 -0.1561 -0.7580
 5043SOL    HW126591   0.776   1.545  14.577 -0.3047 -0.5184 -1.0493
 5043SOL    HW226592   0.879   1.441  14.538  0.9745 -1.2101  0.0941
 5044SOL     OW26593   4.677   3.830   3.255  0.3300 -0.0651 -0.1461
 5044SOL    HW126594   4.593   3.790   3.279 -0.2515  1.4870  0.4505
 5044SOL    HW226595   4.688   3.801   3.165  1.1540 -0.6463  0.1472
 5045SOL     OW26596   3.064   1.517   4.646 -0.2934 -0.2326  0.3227
 5045SOL    HW126597   3.047   1.470   4.728  0.2551 -0.0597  0.5332
 5045SOL    HW226598   3.064   1.439   4.590 -0.7712  0.0135 -0.0201
 5046SOL     OW26599   2.095   3.816  12.897 -0.6663  0.4686 -0.2477
 5046SOL    HW126600   2.100   3.910  12.914 -3.1722  0.4641  0.5995
 5046SOL    HW226601   2.188   3.794  12.899 -0.8658 -0.4145 -0.6900
 5047SOL     OW26602   2.475   3.223  13.674  0.7262  0.0469 -0.1300
 5047SOL    HW126603   2.531   3.180  13.609  1.5191  0.3266  0.3669
 5047SOL    HW226604   2.533   3.256  13.744 -1.3961  2.4369  0.5033
 5048SOL     OW26605   1.474   3.834   3.114 -0.6706 -0.4514  0.2956
 5048SOL    HW126606   1.564   3.802   3.120 -0.7331 -0.4216  1.4184
 5048SOL    HW226607   1.499   3.926   3.124  1.4322 -0.7271 -2.5325
 5049SOL     OW26608   0.033   2.880   5.826  0.4146  0.0397 -0.2700
 5049SOL    HW126609   4.692   2.866   5.757 -0.4674  1.8092  0.2247
 5049SOL    HW226610   4.714   2.948   5.877 -1.1178  1.0916 -2.9609
 5050SOL     OW26611   4.354   3.551   9.440 -0.3762 -0.4358 -0.0939
 5050SOL    HW126612   4.391   3.536   9.527  0.3754 -0.5702 -0.4376
 5050SOL    HW226613   4.432   3.567   9.387  0.7893 -0.4267  1.6604
 5051SOL     OW26614   2.975   3.075   4.912  0.3411  0.2470 -0.3169
 5051SOL    HW126615   2.949   3.064   4.821  1.2710  0.8647 -0.6617
 5051SOL    HW226616   3.028   3.155   4.909  2.0226 -0.9295 -2.0095
 5052SOL     OW26617   3.567   2.449   8.150 -0.1039  0.5428  0.7314
 5052SOL    HW126618   3.609   2.505   8.084  0.7565 -0.7583  0.1828
 5052SOL    HW226619   3.587   2.361   8.118 -1.7032 -0.1056  1.5311
 5053SOL     OW26620   1.889   1.888  13.936 -0.2239  0.1811  0.1224
 5053SOL    HW126621   1.867   1.872  13.844 -0.5921 -1.7903  0.5543
 5053SOL    HW226622   1.953   1.818  13.943 -0.4713  0.2276  3.0404
 5054SOL     OW26623   3.781   2.272  12.796 -0.1964  0.1860 -0.0057
 5054SOL    HW126624   3.769   2.201  12.860  0.7324 -0.4739 -0.5671
 5054SOL    HW226625   3.690   2.282  12.767 -0.5929 -0.3473  1.0480
 5055SOL     OW26626   3.427   4.391   5.811 -0.6439  0.0880  0.2281
 5055SOL    HW126627   3.365   4.463   5.819  1.1327  1.4825  1.3690
 5055SOL    HW226628   3.365   4.333   5.768 -1.5912 -0.8289  2.8104
 5056SOL     OW26629   0.581   0.689   3.341 -0.7019 -0.4324  0.8791
 5056SOL    HW126630   0.670   0.672   3.371 -0.0208 -0.1964 -1.0202
 5056SOL    HW226631   0.557   0.599   3.320 -1.5012 -0.0211  0.0499
 5057SOL     OW26632   4.589   1.337  11.078 -0.7482  0.1185  0.1999
 5057SOL    HW126633   4.626   1.323  11.165  1.2888  0.3084 -0.6441
 5057SOL    HW226634   4.570   1.247  11.055 -0.8544  0.4626 -1.0564
 5058SOL     OW26635   3.057   2.086  17.639 -0.4741  0.2137  0.1653
 5058SOL    HW126636   3.014   2.171  17.639  1.4079  1.1448  0.1769
 5058SOL    HW226637   3.031   2.052   0.025  0.7422 -0.0202  0.4405
 5059SOL     OW26638   4.143   0.029   6.495 -0.0188 -0.2705  0.0184
 5059SOL    HW126639   4.167   0.075   6.576  2.4552  0.3495 -1.0746
 5059SOL    HW226640   4.048   0.040   6.500  0.2664  1.7144  0.9443
 5060SOL     OW26641   2.945   1.755   4.050  0.3323  0.2029 -0.0994
 5060SOL    HW126642   2.895   1.738   3.970  0.6625 -2.8743  0.3561
 5060SOL    HW226643   3.029   1.716   4.025  0.8238  0.9203  0.4089
 5061SOL     OW26644   0.908   2.142   1.248  0.1141  0.2337 -1.1123
 5061SOL    HW126645   0.837   2.078   1.243  1.1895 -1.0225 -0.5778
 5061SOL    HW226646   0.919   2.160   1.155 -1.5556  0.7175 -1.2168
 5062SOL     OW26647   1.278   3.502  14.234 -0.8343 -0.2204  0.5351
 5062SOL    HW126648   1.235   3.425  14.197 -1.8578 -0.4456  2.2009
 5062SOL    HW226649   1.320   3.538  14.157  1.0422 -0.2980  1.5283
 5063SOL     OW26650   1.360   4.548   2.562 -0.1904 -0.3500 -0.6066
 5063SOL    HW126651   1.395   4.482   2.503 -1.5926 -1.0120 -0.6842
 5063SOL    HW226652   1.269   4.520   2.560  0.1615 -1.6752  1.4640
 5064SOL     OW26653   2.215   3.168   0.632  0.1402 -0.5239  0.8188
 5064SOL    HW126654   2.136   3.206   0.594  0.4635 -0.6352  0.0498
 5064SOL    HW226655   2.238   3.230   0.702  2.8721  1.2310 -1.6166
 5065SOL     OW26656   3.012   3.026   4.578 -0.0582 -0.0342 -0.6421
 5065SOL    HW126657   3.020   3.025   4.483  3.1993  0.8221 -0.3761
 5065SOL    HW226658   2.917   3.030   4.592 -0.1936 -0.0977 -1.5155
 5066SOL     OW26659   3.040   1.086  10.216  0.5466 -0.2478 -0.0781
 5066SOL    HW126660   2.988   1.023  10.166 -1.0082  2.4387 -1.8299
 5066SOL    HW226661   2.991   1.091  10.299 -1.1318  1.1189 -1.1522
 5067SOL     OW26662   4.212   0.597   2.968 -0.3880  0.2956  0.2102
 5067SOL    HW126663   4.146   0.663   2.949  0.7865  1.9798  1.9716
 5067SOL    HW226664   4.206   0.601   3.063  2.5781  1.0814  0.3698
 5068SOL     OW26665   1.465   2.621   7.577  0.1522 -0.2738 -0.0877
 5068SOL    HW126666   1.530   2.619   7.648  0.3039  1.0698 -0.1786
 5068SOL    HW226667   1.393   2.568   7.610 -1.7903  1.3873 -1.6753
 5069SOL     OW26668   0.759   2.293   5.451 -0.0236 -0.3209 -0.0972
 5069SOL    HW126669   0.814   2.279   5.374 -1.8640 -3.4167 -0.8496
 5069SOL    HW226670   0.779   2.385   5.470  0.3166 -0.3212 -0.4364
 5070SOL     OW26671   3.102   3.944   8.144  0.3037  0.1134  0.0910
 5070SOL    HW126672   3.055   4.015   8.187 -1.1952  0.6928 -2.4851
 5070SOL    HW226673   3.185   3.947   8.191  0.5014 -0.1862 -0.2399
 5071SOL     OW26674   4.030   2.082  10.381  0.4532  0.2249  0.0245
 5071SOL    HW126675   4.013   2.036  10.299 -0.3207  0.6932 -0.0778
 5071SOL    HW226676   3.999   2.164  10.343  0.0029 -0.3699 -0.8997
 5072SOL     OW26677   1.244   0.958   4.569 -0.8667  0.4306 -0.1512
 5072SOL    HW126678   1.152   0.931   4.570 -0.0802 -2.2491 -0.5246
 5072SOL    HW226679   1.264   0.985   4.659 -1.9101  0.4543  0.0761
 5073SOL     OW26680   4.283   3.514  11.703  0.2182  0.4128  0.0969
 5073SOL    HW126681   4.228   3.445  11.740 -0.1920 -0.3535 -1.9555
 5073SOL    HW226682   4.299   3.482  11.615  0.2890 -1.0768  0.6467
 5074SOL     OW26683   0.596   0.188  16.953  0.5579 -0.0324 -0.0727
 5074SOL    HW126684   0.663   0.187  16.884  1.3335  2.1759  0.6389
 5074SOL    HW226685   0.520   0.195  16.896 -0.2201 -1.5023  0.8111
 5075SOL     OW26686   0.865   1.272   4.043  0.0655 -0.2131 -0.2803
 5075SOL    HW126687   0.832   1.341   4.100  1.7510 -0.1827  0.6509
 5075SOL    HW226688   0.955   1.297   4.061  0.1723 -1.3534  0.6963
 5076SOL     OW26689   4.435   4.296   3.511  0.3295 -0.1650 -0.6512
 5076SOL    HW126690   4.453   4.389   3.495  1.2850  0.0410  1.4806
 5076SOL    HW226691   4.371   4.310   3.581  1.1530 -0.1994  0.1221
 5077SOL     OW26692   1.109   2.074   6.530  0.3527 -0.0029 -0.4219
 5077SOL    HW126693   1.145   2.161   6.544  0.4451 -0.2699  1.0012
 5077SOL    HW226694   1.038   2.066   6.594  0.7319 -2.4643 -0.3010
 5078SOL     OW26695   3.352   0.364   7.677 -0.5925 -0.0077  0.4055
 5078SOL    HW126696   3.330   0.455   7.696 -0.1429 -0.5510  3.4620
 5078SOL    HW226697   3.445   0.380   7.692 -1.4353  4.2464  0.9377
 5079SOL     OW26698   4.619   3.324   4.910  0.0345  0.5195 -0.2529
 5079SOL    HW126699   4.651   3.247   4.864  2.2578  1.9771 -1.1262
 5079SOL    HW226700   4.675   3.341   4.986 -1.7238  0.5223  1.0493
 5080SOL     OW26701   1.927   1.983  14.721 -0.1675 -0.3131  0.2340
 5080SOL    HW126702   1.864   1.945  14.660  1.4267 -1.0747 -0.9445
 5080SOL    HW226703   1.877   2.000  14.801 -0.2091  0.0552  0.1303
 5081SOL     OW26704   0.258   3.970   1.219 -0.6276  0.0697  0.2235
 5081SOL    HW126705   0.268   3.876   1.212 -0.0999  0.0397  1.4020
 5081SOL    HW226706   0.235   3.996   1.308 -2.9355  3.3040 -1.2764
 5082SOL     OW26707   0.319   1.125  10.473 -0.1264  0.3041  0.1721
 5082SOL    HW126708   0.366   1.049  10.438 -2.3440 -0.7724 -0.5048
 5082SOL    HW226709   0.293   1.180  10.399 -0.5922  2.4252  1.9411
 5083SOL     OW26710   0.433   0.067   4.670 -0.3841 -0.2396  0.1255
 5083SOL    HW126711   0.477   0.150   4.654 -2.0592  0.8655  1.2700
 5083SOL    HW226712   0.356   0.094   4.718  0.1287 -0.1569  0.8961
 5084SOL     OW26713   2.098   3.381   8.356 -0.6866  0.5057  0.1192
 5084SOL    HW126714   2.173   3.369   8.414  1.3992 -0.7598 -2.8175
 5084SOL    HW226715   2.138   3.343   8.278 -2.8415 -1.1658 -0.1704
 5085SOL     OW26716   0.919   3.246   6.624 -0.5362 -0.0353  0.0640
 5085SOL    HW126717   0.843   3.257   6.565  0.5027  0.1102 -1.2532
 5085SOL    HW226718   0.976   3.310   6.581  0.8947 -0.5554  1.1994
 5086SOL     OW26719   2.119   3.514   5.761  0.1939 -0.6447 -0.0792
 5086SOL    HW126720   2.089   3.436   5.714  1.8884 -0.8301 -0.8598
 5086SOL    HW226721   2.049   3.518   5.825 -0.3577  0.5477 -0.7604
 5087SOL     OW26722   2.818   3.539  16.402  0.1061  0.1371 -0.4315
 5087SOL    HW126723   2.891   3.584  16.444  1.3497 -0.5783 -1.8048
 5087SOL    HW226724   2.839   3.449  16.429 -1.2897 -0.2030 -0.4977
 5088SOL     OW26725   0.776   1.331   9.561  0.4771  0.0679 -0.2557
 5088SOL    HW126726   0.761   1.249   9.608  1.5005 -0.5539 -1.0138
 5088SOL    HW226727   0.848   1.372   9.609  0.0377 -0.0284  0.4920
 5089SOL     OW26728   0.569   0.351  17.334 -0.1784  0.6445  0.6515
 5089SOL    HW126729   0.647   0.321  17.380 -0.1902  1.0761  0.9519
 5089SOL    HW226730   0.556   0.431  17.384  2.3123  0.7114  1.2206
 5090SOL     OW26731   4.588   3.466   7.986  0.0611  0.2584 -0.3005
 5090SOL    HW126732   4.507   3.478   7.936 -0.6887 -1.1533  0.6036
 5090SOL    HW226733   4.541   3.479   8.068 -0.6993  1.5012 -0.9326
 5091SOL     OW26734   0.133   3.440   2.348 -0.3592  0.1067 -0.1475
 5091SOL    HW126735   0.049   3.479   2.324 -0.8674 -1.3430 -0.6876
 5091SOL    HW226736   0.150   3.496   2.424  1.4148  0.9347 -1.1378
 5092SOL     OW26737   1.796   0.770  16.245  0.0789 -0.0570 -0.1833
 5092SOL    HW126738   1.731   0.821  16.197 -0.6558 -1.8760 -1.1284
 5092SOL    HW226739   1.870   0.812  16.201  2.5246 -1.7845  2.2846
 5093SOL     OW26740   0.618   2.996   2.689 -0.0400 -0.8920 -0.3501
 5093SOL    HW126741   0.563   3.034   2.621  1.9593 -2.0286 -2.5721
 5093SOL    HW226742   0.598   3.047   2.768 -1.3626 -3.0025  0.6968
 5094SOL     OW26743   2.172   2.695   7.742 -0.5531  0.4605  0.0218
 5094SOL    HW126744   2.115   2.695   7.665  0.8067  1.5664 -0.9744
 5094SOL    HW226745   2.169   2.601   7.762 -2.1964  0.8697  1.6613
 5095SOL     OW26746   3.812   0.079   3.316  0.0273 -0.4753 -0.0873
 5095SOL    HW126747   3.729   0.088   3.269 -0.4583  0.1805  0.8900
 5095SOL    HW226748   3.878   0.113   3.256  0.5966  0.9324  1.3503
 5096SOL     OW26749   1.163   2.424   7.071 -0.5534  0.1190 -0.5469
 5096SOL    HW126750   1.257   2.415   7.053 -0.8793  0.1163 -2.2292
 5096SOL    HW226751   1.147   2.493   7.007  1.2663  0.8548 -0.2092
 5097SOL     OW26752   2.891   1.139  10.434  0.3314  0.4797 -0.0596
 5097SOL    HW126753   2.917   1.224  10.469  2.8996 -0.0393 -0.7727
 5097SOL    HW226754   2.877   1.089  10.515  0.4455 -1.0000 -0.9421
 5098SOL     OW26755   2.447   2.637   8.488  0.0476  0.5901  0.0566
 5098SOL    HW126756   2.484   2.725   8.501 -0.1659  0.9539 -1.7659
 5098SOL    HW226757   2.473   2.588   8.566 -1.3946  0.0327  0.1690
 5099SOL     OW26758   0.566   2.100   4.848  0.3127 -0.0745  0.0369
 5099SOL    HW126759   0.573   2.025   4.788 -0.5194  0.1351 -0.3181
 5099SOL    HW226760   0.602   2.065   4.930  1.0610  1.4643  0.3548
 5100SOL     OW26761   1.974   4.438   4.333  0.1276 -0.4527 -0.9666
 5100SOL    HW126762   2.023   4.363   4.296 -0.7035 -1.2528 -0.4209
 5100SOL    HW226763   2.042   4.502   4.353 -0.4993 -0.0056 -0.2742
 5101SOL     OW26764   2.521   1.042   8.609  0.4767 -0.5172 -0.6106
 5101SOL    HW126765   2.615   1.048   8.591  0.6370  1.1398  0.8292
 5101SOL    HW226766   2.484   1.109   8.553 -2.2098 -2.1196 -0.7616
 5102SOL     OW26767   0.289   3.162   4.220  0.8317 -0.0811 -0.0992
 5102SOL    HW126768   0.276   3.257   4.223  0.5419 -0.1297  0.2136
 5102SOL    HW226769   0.201   3.128   4.204  1.2752 -1.4834  0.4360
 5103SOL     OW26770   3.534   0.304   0.949  0.3569 -0.2188 -0.2034
 5103SOL    HW126771   3.498   0.342   0.868 -0.1520  0.9804  0.5803
 5103SOL    HW226772   3.621   0.345   0.946 -0.9660  2.6057 -0.7513
 5104SOL     OW26773   2.515   2.080   3.073  0.0828  0.0121  0.1582
 5104SOL    HW126774   2.537   2.165   3.035 -1.1373  0.4116  0.3241
 5104SOL    HW226775   2.595   2.052   3.117 -0.5776  0.6830  1.8033
 5105SOL     OW26776   2.006   1.758   8.288  0.3099  0.3370 -0.3526
 5105SOL    HW126777   2.029   1.668   8.264  0.0161 -0.0985  0.9771
 5105SOL    HW226778   2.041   1.813   8.218 -1.8166 -0.0873 -1.7059
 5106SOL     OW26779   3.193   0.892   2.554  0.0926  0.7907  0.2830
 5106SOL    HW126780   3.116   0.928   2.510 -1.0132  0.3790  1.8772
 5106SOL    HW226781   3.155   0.825   2.611  1.1132 -0.4014 -0.4644
 5107SOL     OW26782   0.646   0.138   0.015 -0.4554 -0.6005 -0.5349
 5107SOL    HW126783   0.571   0.079   0.010 -0.4661 -0.6444  0.2852
 5107SOL    HW226784   0.634   0.196   0.090  3.1999  0.6819 -0.9283
 5108SOL     OW26785   2.368   4.507   8.312 -0.4269 -0.2218  0.3363
 5108SOL    HW126786   2.364   4.465   8.398 -2.4905 -0.6763  0.0099
 5108SOL    HW226787   2.360   4.598   8.337  3.0301  0.6341 -1.6232
 5109SOL     OW26788   0.970   3.541   9.000 -0.0751  0.2113 -0.1238
 5109SOL    HW126789   0.907   3.609   8.977  1.8210  1.6988 -0.9241
 5109SOL    HW226790   0.942   3.523   9.090  0.5770 -1.2640 -0.2135
 5110SOL     OW26791   3.056   4.178  11.169  0.6241 -0.3987 -0.1963
 5110SOL    HW126792   3.009   4.131  11.101  1.3660  1.6394 -2.0954
 5110SOL    HW226793   3.014   4.264  11.173  1.5100  0.1052 -1.6722
 5111SOL     OW26794   0.964   0.018   2.384 -0.2487 -0.3780  0.1002
 5111SOL    HW126795   0.980   0.045   2.294  0.2708 -1.4582 -0.1318
 5111SOL    HW226796   0.908   0.088   2.417 -0.2626 -1.6545  2.8509
 5112SOL     OW26797   4.534   2.787  14.752 -0.7305 -0.1150 -0.4017
 5112SOL    HW126798   4.440   2.772  14.759 -0.1480 -3.0916  0.9052
 5112SOL    HW226799   4.535   2.821  14.662  1.2451 -1.3739 -0.8602
 5113SOL     OW26800   2.932   4.214  13.073 -0.5555  0.0254 -0.9474
 5113SOL    HW126801   2.888   4.211  13.158  0.0207  0.7614 -0.6205
 5113SOL    HW226802   2.909   4.125  13.047  0.0430 -0.3479 -0.1939
 5114SOL     OW26803   0.054   3.191   0.704 -0.5067 -0.0631  0.1380
 5114SOL    HW126804   4.712   3.135   0.663  0.4882 -1.3653  0.3041
 5114SOL    HW226805   0.116   3.132   0.748 -1.7026  0.1669  2.1656
 5115SOL     OW26806   1.985   1.009   9.774 -0.3566  0.6546  0.0491
 5115SOL    HW126807   2.017   1.013   9.864  0.7952 -1.6885 -0.2427
 5115SOL    HW226808   1.927   0.933   9.776  0.3799  0.1039  0.5184
 5116SOL     OW26809   1.448   4.645   6.073 -0.2256 -0.2198  0.0483
 5116SOL    HW126810   1.531   4.602   6.091  0.5622  2.1684  2.1592
 5116SOL    HW226811   1.384   4.584   6.037  1.3223 -3.3815  2.6010
 5117SOL     OW26812   1.248   2.657   7.994  0.3330  0.4900  0.1236
 5117SOL    HW126813   1.247   2.606   7.913  2.1084 -0.0767  0.4646
 5117SOL    HW226814   1.161   2.697   7.996  0.1056  0.0428 -0.6955
 5118SOL     OW26815   0.085   1.095   6.539 -0.0838  0.0860 -0.6640
 5118SOL    HW126816   0.129   1.140   6.611  0.7216 -0.2269 -0.9650
 5118SOL    HW226817   0.130   1.122   6.459 -0.7349 -0.7100 -1.3010
 5119SOL     OW26818   0.585   1.934  11.635 -0.2692 -0.0333  0.1053
 5119SOL    HW126819   0.552   1.865  11.693  0.6293 -0.6794 -0.1462
 5119SOL    HW226820   0.539   2.010  11.669 -1.3964 -1.3597  1.5327
 5120SOL     OW26821   4.585   2.447   6.736 -0.1098 -0.2198 -0.2215
 5120SOL    HW126822   4.659   2.398   6.700 -1.5382 -0.1601 -3.2146
 5120SOL    HW226823   4.556   2.374   6.791 -2.0330 -0.4143 -1.5140
 5121SOL     OW26824   0.251   3.861   7.628  0.0119 -0.2376  0.0599
 5121SOL    HW126825   0.222   3.856   7.537 -0.1013  0.4974  0.0579
 5121SOL    HW226826   0.345   3.877   7.617 -0.1094 -0.0417 -0.7063
 5122SOL     OW26827   0.736   0.978   2.944  0.8323  0.6129  0.4391
 5122SOL    HW126828   0.665   0.916   2.926  0.3902  0.6055  2.3089
 5122SOL    HW226829   0.690   1.061   2.956 -1.3858 -0.4213 -0.9124
 5123SOL     OW26830   3.178   4.181   4.090 -0.1946 -0.0533 -0.1542
 5123SOL    HW126831   3.137   4.150   4.009 -0.4119  0.1090 -0.1069
 5123SOL    HW226832   3.142   4.269   4.102  1.4146  0.7851 -1.4676
 5124SOL     OW26833   0.593   3.472   7.614  0.0706 -0.2057 -0.2375
 5124SOL    HW126834   0.507   3.514   7.620 -0.2275 -0.3188 -3.7508
 5124SOL    HW226835   0.584   3.396   7.670  0.6610  1.0236  1.5286
 5125SOL     OW26836   1.051   0.032  12.567 -0.5796 -0.0383  0.7414
 5125SOL    HW126837   1.035   0.120  12.533 -1.3984  0.2123  1.7617
 5125SOL    HW226838   0.997   4.707  12.505  0.1849 -0.9310  0.7812
 5126SOL     OW26839   2.831   4.283  15.995  0.0131  0.1136  0.2623
 5126SOL    HW126840   2.822   4.234  15.913  2.0751 -0.0486  0.1526
 5126SOL    HW226841   2.825   4.366  15.947  0.4926  0.5152  0.9011
 5127SOL     OW26842   2.684   0.155   3.814 -0.5441 -0.2408 -0.2776
 5127SOL    HW126843   2.691   0.131   3.906 -2.5433  1.1885  0.2542
 5127SOL    HW226844   2.684   0.064   3.783  0.6416 -1.0651  2.1688
 5128SOL     OW26845   0.709   2.917  15.749  0.4915 -0.2171 -0.0828
 5128SOL    HW126846   0.782   2.941  15.693 -0.5965  1.3761 -0.8137
 5128SOL    HW226847   0.646   2.940  15.680  1.2876 -2.4261 -1.5379
 5129SOL     OW26848   3.456   4.019   4.806 -0.2773 -0.3263 -0.2628
 5129SOL    HW126849   3.429   4.110   4.815 -2.3572 -1.0324  0.4675
 5129SOL    HW226850   3.383   3.975   4.763 -0.5810 -1.5158  1.5035
 5130SOL     OW26851   1.617   2.874   0.575  0.4729 -0.2926 -0.6268
 5130SOL    HW126852   1.557   2.949   0.567  0.9279  0.0889 -0.4694
 5130SOL    HW226853   1.693   2.929   0.591  0.7892 -0.5875 -1.1357
 5131SOL     OW26854   0.806   1.766   3.642 -0.0431 -0.1066 -0.6054
 5131SOL    HW126855   0.727   1.737   3.596 -0.6449 -0.4749  0.6592
 5131SOL    HW226856   0.838   1.691   3.691  1.9155  0.9467 -0.2661
 5132SOL     OW26857   4.635   2.139   5.109 -0.3093  0.1061 -0.0924
 5132SOL    HW126858   4.609   2.066   5.164  0.4156  2.4373  3.3122
 5132SOL    HW226859   4.683   2.106   5.033 -1.0188 -1.5511  0.1784
 5133SOL     OW26860   1.238   2.901   4.774  0.5367  0.0643 -0.4026
 5133SOL    HW126861   1.275   2.821   4.738  0.1305 -0.1467 -0.3420
 5133SOL    HW226862   1.185   2.921   4.697 -0.1670 -0.9350 -0.1724
 5134SOL     OW26863   2.809   1.764   6.069 -0.1796 -0.6210  0.7243
 5134SOL    HW126864   2.897   1.736   6.046  0.8329  0.4803  3.2793
 5134SOL    HW226865   2.764   1.737   5.989 -0.8382 -0.6439  1.0984
 5135SOL     OW26866   3.864   4.287   3.188  0.2792 -0.2386 -0.0346
 5135SOL    HW126867   3.794   4.332   3.237 -1.1484 -0.9773 -1.3884
 5135SOL    HW226868   3.851   4.196   3.213  2.9452  0.2705  3.1496
 5136SOL     OW26869   3.693   0.951   5.157 -0.6771 -0.6192 -0.0371
 5136SOL    HW126870   3.625   0.884   5.150 -3.3564  1.8146  2.4429
 5136SOL    HW226871   3.673   0.972   5.249  0.2246  0.8969 -0.1822
 5137SOL     OW26872   0.526   2.963   3.803 -0.9617  0.3149 -0.0525
 5137SOL    HW126873   0.495   3.044   3.841 -0.0046  1.2148 -1.1922
 5137SOL    HW226874   0.522   2.909   3.882  0.2322  0.1163 -0.1292
 5138SOL     OW26875   0.961   3.079   7.744 -0.2535  0.2161 -0.3811
 5138SOL    HW126876   0.905   3.059   7.668 -0.7954 -0.5241  0.2148
 5138SOL    HW226877   0.957   3.174   7.756 -2.1868 -0.2605  2.6146
 5139SOL     OW26878   2.183   1.350  14.789 -0.6049  0.0936  0.1451
 5139SOL    HW126879   2.110   1.350  14.727 -0.1248  0.1068 -0.4189
 5139SOL    HW226880   2.152   1.345  14.879  0.0165  0.6623  0.3929
 5140SOL     OW26881   2.367   1.437   3.522  0.0609 -0.4635  0.6085
 5140SOL    HW126882   2.381   1.344   3.543  0.2628 -0.1820  1.7318
 5140SOL    HW226883   2.277   1.458   3.547 -0.8788 -2.1989 -1.2313
 5141SOL     OW26884   3.233   1.276   2.401 -0.0544 -0.5241  0.3458
 5141SOL    HW126885   3.235   1.226   2.319  1.5626  0.2549 -0.0963
 5141SOL    HW226886   3.323   1.309   2.394  0.2455 -1.1435  1.2636
 5142SOL     OW26887   0.446   3.147   3.435 -0.2529  1.4390  0.2407
 5142SOL    HW126888   0.367   3.123   3.386  1.0133  3.5262 -2.8347
 5142SOL    HW226889   0.431   3.238   3.462  0.7256  0.8590  2.6760
 5143SOL     OW26890   3.896   2.829   7.699 -0.1938  0.1795 -0.9434
 5143SOL    HW126891   3.961   2.898   7.706  0.8507 -0.8997  0.1297
 5143SOL    HW226892   3.957   2.756   7.689  1.6505  1.5656  0.2795
 5144SOL     OW26893   2.541   1.436   8.790  0.6645  0.3439 -0.1637
 5144SOL    HW126894   2.575   1.374   8.854  4.1135  0.9378 -1.4153
 5144SOL    HW226895   2.453   1.407   8.767  0.5157 -0.5863  1.5723
 5145SOL     OW26896   2.384   3.709  10.420 -0.2428 -0.2214 -0.0998
 5145SOL    HW126897   2.372   3.778  10.485  0.5010 -1.3389  1.2277
 5145SOL    HW226898   2.402   3.632  10.474 -2.4544 -0.7663 -0.1599
 5146SOL     OW26899   4.009   2.853  13.038 -0.4784  0.1727  0.2078
 5146SOL    HW126900   4.044   2.879  13.123 -1.6615  1.4095  0.3118
 5146SOL    HW226901   3.921   2.865  13.074 -1.3031  0.1285 -1.7951
 5147SOL     OW26902   3.230   1.072   8.200 -0.2443 -0.1751  0.5489
 5147SOL    HW126903   3.167   1.048   8.132  1.6998 -2.5265 -0.4624
 5147SOL    HW226904   3.263   0.987   8.230 -0.4412 -0.6594 -0.6024
 5148SOL     OW26905   2.020   3.905   5.474  0.2914  0.3280 -0.0326
 5148SOL    HW126906   2.011   3.817   5.436  2.0061 -0.4047  1.2610
 5148SOL    HW226907   2.111   3.923   5.454  1.0734 -1.8200  1.4798
 5149SOL     OW26908   2.989   2.910   8.657 -0.0528 -0.4354  0.3265
 5149SOL    HW126909   2.910   2.859   8.640  0.1761  0.3989 -3.1291
 5149SOL    HW226910   3.043   2.837   8.686 -0.2481  0.2603  2.4891
 5150SOL     OW26911   1.258   1.792   2.392  0.0277  0.0587  0.2203
 5150SOL    HW126912   1.199   1.775   2.466  1.1558 -1.1108  0.8645
 5150SOL    HW226913   1.197   1.824   2.326 -0.0971  1.6585  1.0966
 5151SOL     OW26914   3.538   3.279   4.722  0.5143 -0.4529  0.2004
 5151SOL    HW126915   3.603   3.306   4.657 -1.5815  0.6559 -1.4427
 5151SOL    HW226916   3.468   3.338   4.693  0.6260  0.4550  1.7693
 5152SOL     OW26917   2.600   0.185   8.979  0.7278  0.4621  0.0191
 5152SOL    HW126918   2.677   0.179   9.036  1.6045  2.3757 -0.9605
 5152SOL    HW226919   2.613   0.274   8.947  1.0096  0.3562 -0.1567
 5153SOL     OW26920   4.085   3.909  14.694  0.6361  0.4592 -0.1023
 5153SOL    HW126921   4.009   3.938  14.745 -0.4506 -2.4973 -0.0131
 5153SOL    HW226922   4.160   3.961  14.723 -0.3247  1.7690  0.0253
 5154SOL     OW26923   2.865   1.435   3.628 -0.5179  0.0301 -0.5431
 5154SOL    HW126924   2.905   1.502   3.573 -0.3310  0.4858  0.1510
 5154SOL    HW226925   2.850   1.363   3.567  1.2357 -1.4168  0.7398
 5155SOL     OW26926   3.027   1.150   3.220  0.4203  0.1684  1.2373
 5155SOL    HW126927   3.066   1.154   3.132 -1.8026 -0.1913  0.2491
 5155SOL    HW226928   2.935   1.150   3.193  0.3564  0.9461  1.4633
 5156SOL     OW26929   1.185   2.595   3.320 -0.3683 -0.4029  0.8048
 5156SOL    HW126930   1.136   2.664   3.364 -1.4141 -0.3231 -0.5063
 5156SOL    HW226931   1.277   2.619   3.332 -0.6357  0.3824  1.2969
 5157SOL     OW26932   3.743   2.961   5.981  0.3639  0.4196  1.2941
 5157SOL    HW126933   3.814   2.920   6.030  0.5086  1.5637  2.0143
 5157SOL    HW226934   3.697   3.011   6.048 -0.0667 -0.7561  1.8803
 5158SOL     OW26935   2.740   2.154   8.775 -0.0472 -0.2412 -0.2513
 5158SOL    HW126936   2.827   2.162   8.736  1.6037  0.7831  3.6797
 5158SOL    HW226937   2.745   2.068   8.817 -0.5254 -0.9171 -1.5920
 5159SOL     OW26938   0.296   0.862   4.959  0.2952 -0.1560  0.2479
 5159SOL    HW126939   0.280   0.768   4.968 -0.2574  0.1870  2.8242
 5159SOL    HW226940   0.223   0.897   5.009 -0.1456  0.3804 -0.7819
 5160SOL     OW26941   0.615   2.352   2.521  0.1178 -0.6834  0.2766
 5160SOL    HW126942   0.561   2.430   2.511  0.6195 -0.6951 -2.6005
 5160SOL    HW226943   0.660   2.346   2.436  0.0013 -0.5769  0.2064
 5161SOL     OW26944   3.310   1.987  12.723  0.0165  0.6977  0.1338
 5161SOL    HW126945   3.399   2.013  12.746 -0.4193  2.0482  0.2726
 5161SOL    HW226946   3.263   2.071  12.728 -1.5571 -0.2839  2.1460
 5162SOL     OW26947   4.523   4.315  16.959  0.2779  0.5571 -0.1840
 5162SOL    HW126948   4.550   4.229  16.993 -2.3885 -0.1107  0.2988
 5162SOL    HW226949   4.482   4.290  16.876  0.8193 -3.0234  0.5957
 5163SOL     OW26950   2.561   1.115   7.754 -0.3900  0.7972  0.5072
 5163SOL    HW126951   2.550   1.206   7.784 -0.4171  1.3662 -1.2158
 5163SOL    HW226952   2.489   1.099   7.693 -0.0118 -1.6681  0.7031
 5164SOL     OW26953   1.060   4.172   3.338  0.3086  0.1619 -0.2603
 5164SOL    HW126954   1.061   4.116   3.260 -0.7591 -0.2116 -0.0020
 5164SOL    HW226955   1.151   4.173   3.366  0.6205 -3.3232 -1.1112
 5165SOL     OW26956   2.888   4.583   3.618 -0.1314  0.2814  0.1090
 5165SOL    HW126957   2.937   4.633   3.553  2.0999 -1.0360  0.7676
 5165SOL    HW226958   2.873   4.501   3.571  2.4682  1.3653 -2.5520
 5166SOL     OW26959   1.632   4.723   7.143  0.0015 -0.0809 -0.0833
 5166SOL    HW126960   1.599   4.663   7.076  1.1608  0.3352 -1.0259
 5166SOL    HW226961   1.660   4.661   7.210  1.1029 -0.8027 -1.2097
 5167SOL     OW26962   2.437   4.424   2.352  0.4005  0.6603  0.5477
 5167SOL    HW126963   2.429   4.519   2.345  4.1093  0.9905  0.6804
 5167SOL    HW226964   2.351   4.394   2.322 -0.0557  3.3028 -0.7219
 5168SOL     OW26965   3.725   1.536   7.784 -0.3188  0.2224  0.0696
 5168SOL    HW126966   3.743   1.612   7.729 -1.7181 -1.3724 -2.5652
 5168SOL    HW226967   3.794   1.544   7.850 -0.5085 -1.9178  0.5204
 5169SOL     OW26968   0.641   3.282   6.511 -0.1344 -0.2551  0.0625
 5169SOL    HW126969   0.624   3.363   6.463  0.0014 -0.2283  0.0616
 5169SOL    HW226970   0.590   3.218   6.462  0.2953 -0.6194  0.0968
 5170SOL     OW26971   0.457   2.884   6.136 -0.1372  0.2844 -0.1556
 5170SOL    HW126972   0.370   2.891   6.095 -0.4590  1.5552  0.7281
 5170SOL    HW226973   0.457   2.797   6.175  1.8780  1.1950  1.8538
 5171SOL     OW26974   2.058   1.333   0.008 -0.0736 -0.0662  0.4000
 5171SOL    HW126975   2.009   1.414   0.022  0.7004  0.2920  1.0374
 5171SOL    HW226976   2.145   1.367  17.684 -0.6421  1.7277  0.8960
 5172SOL     OW26977   4.325   4.201   2.421 -0.3591  0.0808  0.6550
 5172SOL    HW126978   4.273   4.233   2.347 -0.0505 -0.4351  0.2123
 5172SOL    HW226979   4.418   4.212   2.401 -0.0265 -0.8766  1.6475
 5173SOL     OW26980   1.386   2.651   8.266 -0.3199  0.1448  0.4606
 5173SOL    HW126981   1.474   2.617   8.275 -0.1375  0.1059 -1.4290
 5173SOL    HW226982   1.365   2.625   8.176 -0.2889 -1.6959  0.9949
 5174SOL     OW26983   2.636   3.836   8.600 -0.0029 -0.0789  0.5190
 5174SOL    HW126984   2.599   3.748   8.610  0.8972 -0.4061  1.0109
 5174SOL    HW226985   2.722   3.816   8.562 -0.5242  0.5447 -0.9939
 5175SOL     OW26986   0.501   0.424   8.927  0.3860  0.2877  0.1392
 5175SOL    HW126987   0.433   0.491   8.920 -1.2478 -1.4467 -0.6095
 5175SOL    HW226988   0.468   0.348   8.879  0.2420  0.7010 -0.4199
 5176SOL     OW26989   1.863   4.636   9.992  0.0954 -0.7239  0.1760
 5176SOL    HW126990   1.951   4.658  10.020 -0.7081  1.3639  1.0993
 5176SOL    HW226991   1.875   4.642   9.897 -2.4070  1.3445 -0.0238
 5177SOL     OW26992   2.599   0.585   4.211 -0.6773 -0.7449  0.4917
 5177SOL    HW126993   2.534   0.636   4.260 -2.6806 -1.9356 -0.9334
 5177SOL    HW226994   2.677   0.587   4.266  1.2050 -0.7237 -2.1633
 5178SOL     OW26995   1.766   3.555   9.302 -0.0186 -0.3511 -0.2218
 5178SOL    HW126996   1.690   3.573   9.357  0.2616 -0.1444  0.0985
 5178SOL    HW226997   1.827   3.523   9.370 -0.3628 -1.0722 -0.2510
 5179SOL     OW26998   0.322   0.039   7.155 -0.0845 -0.3164 -0.6034
 5179SOL    HW126999   0.349   0.095   7.227 -2.8705 -1.2711  1.2141
 5179SOL    HW227000   0.382   0.052   7.082  0.3655  1.1075  0.0201
 5180SOL     OW27001   1.419   0.523   6.520 -0.3328  0.3271 -0.0820
 5180SOL    HW127002   1.392   0.526   6.612 -1.9169  1.2873 -0.5792
 5180SOL    HW227003   1.446   0.614   6.509  0.8552  0.1061  0.9838
 5181SOL     OW27004   4.491   2.395   3.532  0.3959 -0.3295  0.1632
 5181SOL    HW127005   4.427   2.436   3.590 -0.4325 -3.4666  1.4935
 5181SOL    HW227006   4.571   2.442   3.557 -1.5227  1.9228  2.0786
 5182SOL     OW27007   3.111   2.094   8.189 -0.2182  0.4304  0.0028
 5182SOL    HW127008   3.076   2.146   8.260 -0.3013 -0.7046  0.7906
 5182SOL    HW227009   3.034   2.040   8.173  1.0454 -1.1932 -0.6807
 5183SOL     OW27010   1.465   0.403   6.237 -0.6060 -0.0914  0.4826
 5183SOL    HW127011   1.489   0.382   6.327 -0.8098  1.6653  0.9557
 5183SOL    HW227012   1.490   0.332   6.178 -3.5581 -0.4105 -0.3911
 5184SOL     OW27013   4.585   2.214   8.355  0.4075 -0.0967 -0.1100
 5184SOL    HW127014   4.531   2.140   8.325  0.6838 -0.7547  1.0295
 5184SOL    HW227015   4.528   2.266   8.411  2.9826  1.1840  1.3051
 5185SOL     OW27016   0.428   1.216   2.528 -0.0813 -0.2485 -0.2290
 5185SOL    HW127017   0.471   1.174   2.602 -0.0263  1.6973  0.8540
 5185SOL    HW227018   0.486   1.178   2.463 -2.0567 -2.4551 -0.6913
 5186SOL     OW27019   0.387   1.687   4.135 -0.0084 -0.0807  0.1682
 5186SOL    HW127020   0.425   1.688   4.223  2.4741 -2.8829 -0.8735
 5186SOL    HW227021   0.295   1.669   4.155  0.5804 -0.5200  2.5487
 5187SOL     OW27022   0.139   0.869   2.916 -0.1268  0.0907 -0.0369
 5187SOL    HW127023   0.230   0.865   2.887 -0.5275 -0.5907 -1.2393
 5187SOL    HW227024   0.119   0.777   2.898  0.4391  0.4232 -2.4006
 5188SOL     OW27025   3.581   1.588   2.355  0.8224  0.3239  0.0135
 5188SOL    HW127026   3.605   1.610   2.445 -1.9090  1.4560  0.4489
 5188SOL    HW227027   3.556   1.495   2.361  1.2449  0.1122 -1.4660
 5189SOL     OW27028   4.191   4.295   8.471  0.4444 -0.1284 -0.0714
 5189SOL    HW127029   4.102   4.309   8.438  0.8621  0.8566 -0.7741
 5189SOL    HW227030   4.245   4.345   8.410  0.0368 -1.1386 -1.2451
 5190SOL     OW27031   1.051   3.091  12.840 -0.2716 -0.0900 -0.0609
 5190SOL    HW127032   1.044   2.996  12.848 -0.4403 -0.0321  0.4481
 5190SOL    HW227033   0.973   3.105  12.787 -0.2573 -1.7136 -0.4905
 5191SOL     OW27034   0.888   4.237   1.718  0.1525  0.0920  0.0599
 5191SOL    HW127035   0.973   4.220   1.677 -0.8576 -2.3058 -1.0363
 5191SOL    HW227036   0.869   4.160   1.772  0.2178 -1.0461 -1.5360
 5192SOL     OW27037   3.531   0.190   5.075 -0.0589 -0.4057 -0.3692
 5192SOL    HW127038   3.510   0.173   5.166  0.4069  0.8081 -0.0349
 5192SOL    HW227039   3.623   0.210   5.087  0.3168 -2.5031  0.2768
 5193SOL     OW27040   2.366   2.671   7.308 -0.0673  0.3915 -0.1208
 5193SOL    HW127041   2.382   2.764   7.322 -3.1964  1.2980 -2.5987
 5193SOL    HW227042   2.407   2.635   7.387  0.9073 -0.5260 -1.0440
 5194SOL     OW27043   0.908   1.423   8.195  0.1772 -0.5767 -0.1744
 5194SOL    HW127044   0.833   1.395   8.248 -0.7005 -0.6705 -1.4806
 5194SOL    HW227045   0.951   1.487   8.251  0.7043 -1.7457  0.7550
 5195SOL     OW27046   3.221   3.933   8.639 -0.2317 -0.4102 -0.3224
 5195SOL    HW127047   3.287   3.991   8.601 -0.4033  0.4060  0.6189
 5195SOL    HW227048   3.274   3.865   8.679  2.1388  1.5151 -0.1579
 5196SOL     OW27049   1.000   0.766  13.536  0.0226  0.0199  0.1339
 5196SOL    HW127050   0.969   0.829  13.601 -0.4019 -0.8508  0.7795
 5196SOL    HW227051   0.922   0.725  13.499  0.8220 -0.0362 -1.4785
 5197SOL     OW27052   4.357   0.399  15.995  0.4197  0.4748  0.4716
 5197SOL    HW127053   4.434   0.418  15.942  3.3787  0.9738  4.9405
 5197SOL    HW227054   4.389   0.394  16.085 -0.0049  1.3974  0.6773
 5198SOL     OW27055   2.086   0.737   2.118  0.0060 -0.1314  0.3458
 5198SOL    HW127056   2.047   0.658   2.080 -0.8862  0.7074 -0.4950
 5198SOL    HW227057   2.008   0.793   2.118  1.5694  2.0261 -0.5344
 5199SOL     OW27058   0.554   4.626   9.176 -0.2562 -0.1980 -0.3220
 5199SOL    HW127059   0.605   4.552   9.141  0.8884  0.5017 -0.1307
 5199SOL    HW227060   0.497   4.628   9.099 -0.4049 -0.4826 -0.2178
 5200SOL     OW27061   2.754   0.743   2.463 -0.1884  0.3840 -0.0034
 5200SOL    HW127062   2.667   0.768   2.434  0.1175  0.4249 -0.8784
 5200SOL    HW227063   2.761   0.655   2.427  0.3759 -0.6836  2.6536
 5201SOL     OW27064   0.884   0.793   3.839 -0.3607 -0.0970  0.1564
 5201SOL    HW127065   0.895   0.814   3.932  0.4639 -4.9224  1.1337
 5201SOL    HW227066   0.813   0.730   3.836 -0.2684 -0.1563 -0.7934
 5202SOL     OW27067   0.649   1.863  17.334  0.0761 -0.4389  0.4350
 5202SOL    HW127068   0.603   1.938  17.297  0.5191 -0.4771 -0.2019
 5202SOL    HW227069   0.737   1.881  17.301  0.2303 -0.8974  0.5948
 5203SOL     OW27070   0.809   1.977   8.161  0.5657 -0.6829 -0.0391
 5203SOL    HW127071   0.873   2.044   8.135  0.3481 -0.9103 -1.1674
 5203SOL    HW227072   0.810   1.928   8.079  0.6859  0.3073 -0.6397
 5204SOL     OW27073   1.082   3.202   3.396 -0.1206  0.3941 -0.5942
 5204SOL    HW127074   1.106   3.115   3.363  1.3105 -0.5661  2.9991
 5204SOL    HW227075   1.018   3.224   3.329  0.8331 -0.5989 -1.8298
 5205SOL     OW27076   4.171   4.165  12.528  0.4307 -0.2782 -0.3095
 5205SOL    HW127077   4.105   4.205  12.471 -0.4035 -0.9262  0.2033
 5205SOL    HW227078   4.213   4.238  12.573  1.7695 -2.0389  1.2935
 5206SOL     OW27079   1.303   2.379  15.226 -0.1423 -0.2394 -0.0747
 5206SOL    HW127080   1.377   2.400  15.169  0.8062 -0.0060  1.2421
 5206SOL    HW227081   1.308   2.285  15.208  0.3848 -0.0597 -0.8236
 5207SOL     OW27082   4.693   3.862   4.529  0.5192 -0.1112 -0.2072
 5207SOL    HW127083   4.716   3.773   4.500  0.5887 -0.3149  0.4671
 5207SOL    HW227084   4.683   3.838   4.621  2.4210  2.1122  0.5483
 5208SOL     OW27085   4.145   0.483  14.788 -0.5327 -0.1861  0.1038
 5208SOL    HW127086   4.109   0.394  14.790  0.5555 -0.5977  1.4978
 5208SOL    HW227087   4.068   0.530  14.821 -0.2776  0.6666 -0.5463
 5209SOL     OW27088   3.816   0.326   8.353 -0.0823 -0.4592  0.5720
 5209SOL    HW127089   3.834   0.249   8.407 -2.1339  0.6055  2.7660
 5209SOL    HW227090   3.819   0.387   8.426 -1.4108  2.0394 -1.4598
 5210SOL     OW27091   3.922   2.317  14.536  0.7140 -0.3487  0.2253
 5210SOL    HW127092   3.981   2.242  14.535 -0.4570 -1.2654  0.0913
 5210SOL    HW227093   3.848   2.269  14.572 -0.2848  2.3820  1.8817
 5211SOL     OW27094   2.631   3.053   7.214  0.3909 -0.3545  0.3238
 5211SOL    HW127095   2.671   3.023   7.133 -0.5087 -0.5539 -0.0489
 5211SOL    HW227096   2.589   3.133   7.182  2.8570  1.1243  0.7426
 5212SOL     OW27097   0.722   0.395   5.685 -0.3207  0.1888  0.1463
 5212SOL    HW127098   0.727   0.415   5.779 -0.5683 -0.2858  0.2587
 5212SOL    HW227099   0.797   0.337   5.671  0.2523  0.7373  0.9398
 5213SOL     OW27100   4.437   0.159   5.004 -0.0314 -0.2988 -0.2424
 5213SOL    HW127101   4.511   0.127   5.056  1.0527  0.3642 -1.3651
 5213SOL    HW227102   4.421   0.243   5.047  2.3200  0.5854 -1.0632
 5214SOL     OW27103   4.416   1.751   5.504 -0.1001  0.3301 -0.5843
 5214SOL    HW127104   4.326   1.737   5.532 -0.6457  0.9661 -2.0364
 5214SOL    HW227105   4.411   1.699   5.424 -1.9389 -0.7030  0.2083
 5215SOL     OW27106   3.686   2.124   0.485  0.1244 -0.5269 -0.0367
 5215SOL    HW127107   3.662   2.128   0.577  0.3324  0.7835 -0.0387
 5215SOL    HW227108   3.751   2.194   0.482 -1.8659  1.3783  1.9221
 5216SOL     OW27109   3.957   0.105  11.362  0.3905  0.0372  0.1831
 5216SOL    HW127110   3.963   0.181  11.420  1.5196  0.6975 -0.7930
 5216SOL    HW227111   4.026   0.052  11.402 -0.1346  1.1355  2.5600
 5217SOL     OW27112   0.535   2.772   5.114 -0.1023  0.4520 -0.0044
 5217SOL    HW127113   0.529   2.708   5.044  2.5633 -0.9101  1.0313
 5217SOL    HW227114   0.510   2.717   5.188  0.5841  1.0384  0.6605
 5218SOL     OW27115   3.592   1.722  15.150  0.3697  0.1762  0.0141
 5218SOL    HW127116   3.603   1.691  15.240 -1.0815 -0.1849  0.0716
 5218SOL    HW227117   3.546   1.650  15.107  4.0253 -3.5083  2.1842
 5219SOL     OW27118   0.524   2.853   2.278 -0.4461  0.0476  0.0693
 5219SOL    HW127119   0.440   2.871   2.236  0.3710  1.3833 -0.9865
 5219SOL    HW227120   0.491   2.812   2.358 -0.4468 -0.7278 -0.3194
 5220SOL     OW27121   1.427   0.284  12.056  0.4913  0.6640 -0.4303
 5220SOL    HW127122   1.437   0.353  12.122 -3.8108 -0.5830  1.4795
 5220SOL    HW227123   1.516   0.249  12.060 -0.5299 -2.0264 -1.4699
 5221SOL     OW27124   2.764   0.860   4.111 -0.0627  0.1557  0.1179
 5221SOL    HW127125   2.858   0.875   4.104  0.0813 -0.2096  1.2227
 5221SOL    HW227126   2.766   0.764   4.103  0.8684  0.3310 -1.8285
 5222SOL     OW27127   2.986   4.348  16.422 -0.1585  0.5086 -0.3538
 5222SOL    HW127128   2.928   4.277  16.394  0.9113  0.3835 -2.2799
 5222SOL    HW227129   2.959   4.421  16.367  1.1595  1.3560  0.1360
 5223SOL     OW27130   1.477   4.191   7.212  0.0866  0.0460  0.4515
 5223SOL    HW127131   1.469   4.098   7.189  1.6694  0.1888 -0.6960
 5223SOL    HW227132   1.443   4.234   7.133  1.1061 -0.8574 -0.4766
 5224SOL     OW27133   0.435   4.605   8.290 -0.2225 -0.3824 -0.5859
 5224SOL    HW127134   0.373   4.601   8.218  0.1889  2.2092 -1.0928
 5224SOL    HW227135   0.385   4.657   8.354 -1.1704 -0.1588 -1.5152
 5225SOL     OW27136   0.533   4.373  16.772 -0.3099 -0.1002  0.1298
 5225SOL    HW127137   0.593   4.409  16.838  0.4124 -0.1476 -0.5105
 5225SOL    HW227138   0.589   4.320  16.715  0.4953  1.2488 -0.3330
 5226SOL     OW27139   1.733   4.141   4.717  0.3915  0.4250 -0.2761
 5226SOL    HW127140   1.807   4.091   4.684  0.8377  0.6155  0.4243
 5226SOL    HW227141   1.692   4.197   4.651 -0.4078 -1.1597 -1.1288
 5227SOL     OW27142   2.134   2.793   7.980 -0.3993 -0.5565 -0.8030
 5227SOL    HW127143   2.149   2.761   7.891  0.1208  0.9363 -1.2561
 5227SOL    HW227144   2.114   2.883   7.956  0.2689 -0.5358 -1.2987
 5228SOL     OW27145   0.003   1.327   4.219 -0.4715  0.0447 -0.4038
 5228SOL    HW127146   4.652   1.385   4.207 -0.3249  0.3472  0.0973
 5228SOL    HW227147   4.692   1.245   4.187 -1.1089 -0.4956  1.6787
 5229SOL     OW27148   0.587   3.855   9.618  0.4000 -0.2654  0.0689
 5229SOL    HW127149   0.660   3.887   9.671  0.2136 -2.7287  1.8045
 5229SOL    HW227150   0.508   3.882   9.664  0.4134  0.0513 -0.0968
 5230SOL     OW27151   4.107   2.657   2.766  0.1371  0.5163 -0.3034
 5230SOL    HW127152   4.080   2.749   2.768 -0.6897  0.2429  1.9181
 5230SOL    HW227153   4.034   2.619   2.717  2.5295 -0.5842 -2.9668
 5231SOL     OW27154   3.248   4.298   7.552 -0.3530 -0.4824 -0.0586
 5231SOL    HW127155   3.322   4.352   7.580 -0.4650 -0.5300  0.3312
 5231SOL    HW227156   3.170   4.339   7.590 -0.9822 -1.4806 -0.2923
 5232SOL     OW27157   2.331   2.896   4.309 -0.5563  0.6333  0.6642
 5232SOL    HW127158   2.305   2.925   4.222  0.5068 -1.6144 -0.4176
 5232SOL    HW227159   2.331   2.804   4.282  0.4507  1.0535 -0.8147
 5233SOL     OW27160   1.060   3.880   0.641 -0.6540  0.0175  0.3313
 5233SOL    HW127161   0.998   3.853   0.709  0.2861 -0.0450  1.1517
 5233SOL    HW227162   1.055   3.803   0.585  0.0242 -0.6381  1.1829
 5234SOL     OW27163   1.603   3.630   0.666 -0.2704  0.2124  0.3284
 5234SOL    HW127164   1.511   3.611   0.684  0.8220 -4.3225  1.0863
 5234SOL    HW227165   1.596   3.720   0.698  0.9557  0.0003  1.2001
 5235SOL     OW27166   1.003   3.542   4.562 -0.0818 -0.5169  0.3874
 5235SOL    HW127167   0.963   3.540   4.650  1.0457 -0.3689  0.9003
 5235SOL    HW227168   1.082   3.593   4.579  2.0993 -2.1194 -5.2911
 5236SOL     OW27169   2.182   0.248  11.217  0.0019 -0.0525 -0.1516
 5236SOL    HW127170   2.094   0.278  11.239  1.3815  2.8272  1.4869
 5236SOL    HW227171   2.238   0.282  11.287  0.1335  0.5543 -0.5501
 5237SOL     OW27172   2.341   0.563  13.865  0.1166  0.3833  0.6303
 5237SOL    HW127173   2.375   0.480  13.834  0.1940  0.1253  1.4084
 5237SOL    HW227174   2.262   0.577  13.812 -0.1316  0.5836  1.0496
 5238SOL     OW27175   1.399   1.975   4.625 -0.2859  0.5914  0.2097
 5238SOL    HW127176   1.474   2.012   4.672 -1.0293 -0.4412  2.2412
 5238SOL    HW227177   1.350   1.938   4.699 -0.3971  0.9804  0.3304
 5239SOL     OW27178   4.488   0.127   7.191 -0.5542 -0.2966  0.5280
 5239SOL    HW127179   4.577   0.146   7.221  0.5974 -0.7669 -2.5792
 5239SOL    HW227180   4.453   0.216   7.205  1.0797  0.6547 -1.4071
 5240SOL     OW27181   4.199   0.826   2.611 -0.2860 -0.1705  0.1833
 5240SOL    HW127182   4.195   0.913   2.571  1.9098 -0.3658 -0.4353
 5240SOL    HW227183   4.151   0.769   2.551 -3.8619  0.2697  2.6108
 5241SOL     OW27184   0.575   0.096   6.013  0.2166 -0.2990  0.1725
 5241SOL    HW127185   0.515   0.121   6.083  0.5193  1.2530 -0.1127
 5241SOL    HW227186   0.658   0.131   6.048 -0.2751  0.8325  0.2106
 5242SOL     OW27187   1.727   1.639   6.393 -0.1345 -0.0053  0.0180
 5242SOL    HW127188   1.734   1.650   6.298 -0.3987 -3.0575 -0.3719
 5242SOL    HW227189   1.767   1.554   6.411 -3.1893 -1.2806  0.9023
 5243SOL     OW27190   1.092   3.947   3.151  0.2525  0.3658  0.1728
 5243SOL    HW127191   1.103   3.852   3.156  3.2419  0.7470  1.0706
 5243SOL    HW227192   1.149   3.960   3.075 -0.0331  0.9056  0.0559
 5244SOL     OW27193   2.502   0.455  10.024  0.4303  0.0054 -1.1578
 5244SOL    HW127194   2.540   0.520   9.964 -1.8469  2.1525 -0.2882
 5244SOL    HW227195   2.576   0.421  10.075 -0.4106 -0.3558 -0.1678
 5245SOL     OW27196   1.204   2.980   3.203  0.1246  0.3661 -0.0359
 5245SOL    HW127197   1.188   2.937   3.287  0.0437 -1.3470 -0.9296
 5245SOL    HW227198   1.170   2.918   3.139 -0.8346 -0.5968  1.3916
 5246SOL     OW27199   2.015   3.598   1.694  0.1960 -0.6812 -0.3226
 5246SOL    HW127200   1.991   3.514   1.733  1.9066 -0.0287  2.0961
 5246SOL    HW227201   1.932   3.643   1.676  1.4385  1.1364 -1.6539
 5247SOL     OW27202   2.022   2.179  15.943  0.0287 -0.1381  0.0539
 5247SOL    HW127203   1.958   2.239  15.981  0.8177  0.8735 -0.2483
 5247SOL    HW227204   2.040   2.224  15.861 -0.4066 -0.5040 -0.2453
 5248SOL     OW27205   2.512   2.503   5.033  0.3200 -0.0563 -0.7285
 5248SOL    HW127206   2.459   2.554   4.973 -0.3446  0.1476  0.0321
 5248SOL    HW227207   2.597   2.492   4.989 -0.0589 -2.5686 -0.8698
 5249SOL     OW27208   2.606   0.767   7.843  0.5869 -0.2205 -0.7242
 5249SOL    HW127209   2.512   0.753   7.828  0.6656 -0.5468 -0.9204
 5249SOL    HW227210   2.610   0.766   7.939 -2.2592  1.3750 -0.5895
 5250SOL     OW27211   2.433   4.365   0.979 -0.3392 -0.4773  0.1952
 5250SOL    HW127212   2.401   4.442   0.932  0.8581 -0.4726 -0.6158
 5250SOL    HW227213   2.384   4.288   0.948 -0.3272  0.5295 -2.3677
 5251SOL     OW27214   3.846   2.457   9.919 -0.1868  0.3963 -0.2229
 5251SOL    HW127215   3.880   2.522   9.980  2.3043  2.1189 -3.4082
 5251SOL    HW227216   3.863   2.495   9.833  2.3024 -0.2262 -0.0082
 5252SOL     OW27217   0.139   4.078   4.541  0.6287  0.2887 -0.5035
 5252SOL    HW127218   0.189   4.001   4.568  1.0430  0.6510 -0.2423
 5252SOL    HW227219   0.052   4.037   4.539  0.6735  0.0959  1.3518
 5253SOL     OW27220   4.167   1.520   6.773 -0.4831  0.3543  0.1574
 5253SOL    HW127221   4.164   1.538   6.679 -3.2404 -0.6730  0.0403
 5253SOL    HW227222   4.139   1.428   6.771 -1.1484  0.5111  3.3053
 5254SOL     OW27223   1.504   0.744   0.704  0.0645 -0.1038 -0.1856
 5254SOL    HW127224   1.501   0.822   0.649 -1.5508 -1.2396 -1.7276
 5254SOL    HW227225   1.413   0.736   0.734 -0.4523 -1.4949 -2.1217
 5255SOL     OW27226   4.142   0.299   6.121  0.3555  0.5087 -0.4295
 5255SOL    HW127227   4.076   0.233   6.146  0.1321  0.8506 -0.1127
 5255SOL    HW227228   4.206   0.277   6.188  0.1396  0.4858 -0.2301
 5256SOL     OW27229   3.030   4.293   8.113 -0.4100  0.6175 -0.1299
 5256SOL    HW127230   3.112   4.248   8.092 -1.0729 -1.2067  1.2485
 5256SOL    HW227231   3.007   4.250   8.195  0.1262 -1.5863 -1.1289
 5257SOL     OW27232   1.146   0.377   5.718  0.1018  0.2383 -0.5497
 5257SOL    HW127233   1.120   0.468   5.706  1.4564  0.8199  0.8301
 5257SOL    HW227234   1.075   0.328   5.677 -1.6788  0.9043  1.6920
 5258SOL     OW27235   1.822   3.682   5.665  0.3772 -0.1229  0.6273
 5258SOL    HW127236   1.900   3.636   5.635 -0.1785 -0.3919 -0.3919
 5258SOL    HW227237   1.768   3.643   5.596  0.0567  0.6130  0.4600
 5259SOL     OW27238   4.424   3.922   2.452 -0.3580  1.1228 -0.5531
 5259SOL    HW127239   4.407   4.015   2.437  3.2154  1.4056 -2.5891
 5259SOL    HW227240   4.432   3.930   2.547  2.4357  4.1863 -1.0098
 5260SOL     OW27241   1.743   0.248   9.926  0.3260 -0.1725 -0.4001
 5260SOL    HW127242   1.813   0.203   9.974 -0.3667  0.5120  1.2594
 5260SOL    HW227243   1.795   0.253   9.846  1.2056  0.8297  0.2182
 5261SOL     OW27244   4.127   3.567  15.704 -0.8465 -0.0382 -0.2488
 5261SOL    HW127245   4.138   3.628  15.631 -0.1444 -0.8277 -0.8051
 5261SOL    HW227246   4.035   3.585  15.726 -1.0897  1.1345 -2.2819
 5262SOL     OW27247   0.960   3.900   6.254 -0.6445  0.6477  0.2875
 5262SOL    HW127248   1.048   3.903   6.292  0.4298  3.0430 -2.3827
 5262SOL    HW227249   0.972   3.959   6.179  0.8681  0.4261  0.3476
 5263SOL     OW27250   4.253   1.371   3.456 -0.1161 -0.8963  0.2465
 5263SOL    HW127251   4.328   1.414   3.415 -1.3351  2.4610  1.5417
 5263SOL    HW227252   4.189   1.428   3.416  0.5871 -0.4539 -0.2463
 5264SOL     OW27253   4.297   1.316   4.101  0.4321 -0.5484 -0.1990
 5264SOL    HW127254   4.302   1.411   4.116  0.8924 -0.9057  1.8704
 5264SOL    HW227255   4.341   1.296   4.018  0.7843 -0.1955 -0.0953
 5265SOL     OW27256   3.325   2.539   1.779  0.3333  0.0265 -0.5412
 5265SOL    HW127257   3.344   2.532   1.685 -1.4278  0.9716 -0.9884
 5265SOL    HW227258   3.259   2.608   1.771 -4.2670 -4.1572  0.8688
 5266SOL     OW27259   3.105   1.413   7.267  0.3251  0.0920 -0.0552
 5266SOL    HW127260   3.045   1.409   7.193 -2.6236 -2.4066  2.4859
 5266SOL    HW227261   3.186   1.441   7.224  0.7957 -1.0262  0.0974
 5267SOL     OW27262   1.287   4.383   7.370  0.1650 -0.0973 -0.8080
 5267SOL    HW127263   1.308   4.291   7.356 -0.0439  0.3087 -3.7592
 5267SOL    HW227264   1.263   4.414   7.283 -0.1561 -1.2806 -1.1404
 5268SOL     OW27265   4.284   2.645   4.625  0.3334 -0.2500  0.1118
 5268SOL    HW127266   4.326   2.582   4.568 -1.0916 -1.8589  0.8346
 5268SOL    HW227267   4.199   2.660   4.583 -0.3020  0.9129  1.7836
 5269SOL     OW27268   1.418   0.766   9.869 -0.5200 -0.0093  0.1845
 5269SOL    HW127269   1.397   0.684   9.825 -0.2981  1.9847 -3.5715
 5269SOL    HW227270   1.344   0.813   9.831  0.9575  1.8075 -0.4375
 5270SOL     OW27271   0.564   1.445   5.035  0.1558 -0.2375  0.0178
 5270SOL    HW127272   0.574   1.442   5.131  1.3838  0.1186 -0.1099
 5270SOL    HW227273   0.515   1.363   5.021 -1.8895  0.4852  2.9372
 5271SOL     OW27274   2.108   1.899   5.823 -0.2998  1.0035 -0.1739
 5271SOL    HW127275   2.051   1.945   5.761 -0.4149  4.1271  2.2478
 5271SOL    HW227276   2.080   1.816   5.783  2.5732 -0.1752  0.3015
 5272SOL     OW27277   1.760   2.347  11.839  0.8161 -0.9991  0.1866
 5272SOL    HW127278   1.852   2.350  11.814  0.2853 -1.8383 -1.8851
 5272SOL    HW227279   1.773   2.283  11.909  1.2728 -0.9836  0.1160
 5273SOL     OW27280   0.655   1.000   8.270  0.1946  0.3322 -0.1637
 5273SOL    HW127281   0.689   0.911   8.269  0.7451  0.5594 -1.2237
 5273SOL    HW227282   0.678   1.027   8.359  0.1011  3.1320 -1.0004
 5274SOL     OW27283   4.652   0.777   8.887  0.1295  0.3434  0.4273
 5274SOL    HW127284   4.673   0.751   8.977 -1.2787  0.4145  0.7824
 5274SOL    HW227285   4.558   0.760   8.890  0.6108 -2.5042 -1.3647
 5275SOL     OW27286   4.152   2.045   8.484  0.2173 -0.3114 -0.3674
 5275SOL    HW127287   4.130   2.131   8.520  1.5905 -0.4670  0.8278
 5275SOL    HW227288   4.061   2.020   8.465 -0.7269  1.8204  1.3735
 5276SOL     OW27289   4.586   3.503   0.194 -0.7473 -0.3002  0.4160
 5276SOL    HW127290   4.625   3.528   0.111 -0.8319  0.1134  0.5019
 5276SOL    HW227291   4.505   3.554   0.196 -1.3611 -1.2055 -1.1234
 5277SOL     OW27292   1.420   0.166   7.219 -0.0692  0.1319 -0.0112
 5277SOL    HW127293   1.368   0.094   7.255 -0.2658  0.3154  0.0719
 5277SOL    HW227294   1.504   0.122   7.207 -0.2356  0.2058 -1.3642
 5278SOL     OW27295   0.835   2.026   4.413 -0.3809  0.4014  0.2841
 5278SOL    HW127296   0.885   2.107   4.429  0.2886  0.2407 -0.9617
 5278SOL    HW227297   0.908   1.966   4.430 -1.3690 -1.3164 -1.4590
 5279SOL     OW27298   3.731   4.300   4.339 -0.0346  0.0934 -0.7882
 5279SOL    HW127299   3.731   4.243   4.416 -0.9456  1.0166 -0.1056
 5279SOL    HW227300   3.772   4.373   4.385 -0.9606 -1.3154  2.2907
 5280SOL     OW27301   1.835   0.168   6.439 -0.6897  0.5804 -0.2778
 5280SOL    HW127302   1.890   0.241   6.466 -1.0241  1.1875 -1.2682
 5280SOL    HW227303   1.765   0.204   6.384 -0.5928 -1.4594 -1.7218
 5281SOL     OW27304   0.618   3.939   5.577 -0.2321  0.0268 -0.1028
 5281SOL    HW127305   0.620   3.845   5.594  0.5944  0.1665  0.5522
 5281SOL    HW227306   0.682   3.947   5.506 -1.1405 -1.1461 -1.0535
 5282SOL     OW27307   2.149   1.410   6.080  0.7890  0.2622 -0.2933
 5282SOL    HW127308   2.057   1.387   6.091  0.9546 -0.1035  0.3284
 5282SOL    HW227309   2.193   1.353   6.143 -1.3351 -0.8770  0.1426
 5283SOL     OW27310   0.986   1.388   9.743  0.1237  0.2629 -0.5427
 5283SOL    HW127311   1.038   1.441   9.803 -0.6405  0.7754 -0.3352
 5283SOL    HW227312   1.055   1.330   9.709  0.3151 -1.0080  2.0040
 5284SOL     OW27313   3.139   0.892   3.291 -0.4984 -0.1983  0.0900
 5284SOL    HW127314   3.070   0.958   3.294 -1.6307 -1.4324  0.7718
 5284SOL    HW227315   3.136   0.858   3.201 -4.7737 -2.2181  1.0079
 5285SOL     OW27316   3.465   1.875   9.465 -0.1047  0.0152  0.0685
 5285SOL    HW127317   3.484   1.952   9.411  1.8005  0.0385  0.7752
 5285SOL    HW227318   3.370   1.875   9.462 -0.0549  0.3471 -1.3046
 5286SOL     OW27319   3.119   1.259   6.942  0.0687  0.1073  0.7892
 5286SOL    HW127320   3.077   1.339   6.974  0.4855  0.9231 -0.6593
 5286SOL    HW227321   3.108   1.204   7.019  1.2716  0.0199  0.9087
 5287SOL     OW27322   4.535   3.168   8.374  0.5190 -0.0313  0.4848
 5287SOL    HW127323   4.463   3.184   8.313  0.1761 -0.7196  0.7086
 5287SOL    HW227324   4.614   3.187   8.323  0.8119  4.8974  2.7642
 5288SOL     OW27325   3.830   1.944   5.903 -0.4039 -0.1020 -0.1182
 5288SOL    HW127326   3.907   1.962   5.849  0.0857 -0.8666  0.3154
 5288SOL    HW227327   3.828   2.024   5.955  1.8769 -0.0098 -0.1705
 5289SOL     OW27328   0.391   3.776   5.918  0.2967  0.3401  0.0387
 5289SOL    HW127329   0.445   3.850   5.892 -1.0114  1.5485  0.7852
 5289SOL    HW227330   0.436   3.756   6.000 -1.3614  0.5929  1.0042
 5290SOL     OW27331   4.530   1.093   7.197  0.2160 -0.4249 -0.5193
 5290SOL    HW127332   4.462   1.026   7.205 -0.7574  0.5764 -0.3055
 5290SOL    HW227333   4.508   1.121   7.107  2.1302 -2.2077 -1.5297
 5291SOL     OW27334   2.008   1.599  13.647 -0.7075 -0.4949 -0.0383
 5291SOL    HW127335   2.013   1.549  13.729 -1.9445 -2.1878 -0.9893
 5291SOL    HW227336   2.095   1.594  13.608 -0.3762  0.8703  0.5080
 5292SOL     OW27337   2.764   3.075   8.997 -0.2203  0.3187 -0.2898
 5292SOL    HW127338   2.681   3.115   9.025 -0.0516 -0.0696  0.7671
 5292SOL    HW227339   2.731   2.987   8.982  1.9323 -0.5510  0.1003
 5293SOL     OW27340   1.781   1.309  14.674  0.0951 -0.2656  1.0189
 5293SOL    HW127341   1.713   1.376  14.666 -0.3002 -0.7548  0.3215
 5293SOL    HW227342   1.861   1.334  14.627 -0.9431  1.5237  0.2272
 5294SOL     OW27343   0.146   0.817   7.268 -0.4238 -0.7882  0.7277
 5294SOL    HW127344   0.126   0.736   7.221 -2.6617  0.1317  0.0838
 5294SOL    HW227345   0.061   0.852   7.296  0.4428  0.1124  2.2395
 5295SOL     OW27346   4.143   2.229   3.156 -0.1338 -0.0612  0.1822
 5295SOL    HW127347   4.154   2.285   3.079 -2.5116  1.1316  0.6737
 5295SOL    HW227348   4.085   2.164   3.115  0.3787 -1.1421  1.1791
 5296SOL     OW27349   2.114   4.149  13.321  0.2315  0.4487  0.2266
 5296SOL    HW127350   2.150   4.066  13.353 -0.1512 -0.7040 -2.3893
 5296SOL    HW227351   2.026   4.146  13.359 -0.7431  0.1021 -2.1095
 5297SOL     OW27352   4.655   1.111   4.792  0.3959 -0.1011  0.0517
 5297SOL    HW127353   4.589   1.066   4.845 -1.1461  1.7188 -0.3029
 5297SOL    HW227354   4.614   1.100   4.706 -0.0446  2.0125 -0.0011
 5298SOL     OW27355   3.174   3.909  10.358 -0.5756 -0.1570  0.3071
 5298SOL    HW127356   3.080   3.912  10.370 -0.7735 -1.5369 -0.9405
 5298SOL    HW227357   3.184   3.892  10.265 -2.3295 -0.0263  0.1054
 5299SOL     OW27358   3.058   0.763  12.424  0.2803  0.3717 -0.2641
 5299SOL    HW127359   3.000   0.839  12.426  0.1011  0.1920  1.3893
 5299SOL    HW227360   3.089   0.760  12.514 -1.0870  0.9640  0.2220
 5300SOL     OW27361   1.308   3.996  14.157  0.0577 -0.2048 -0.6251
 5300SOL    HW127362   1.267   4.076  14.189 -1.2318 -0.3889 -1.8168
 5300SOL    HW227363   1.282   3.929  14.220 -0.5391 -1.8315 -2.5635
 5301SOL     OW27364   0.842   2.564  12.086  0.2454 -0.2136  0.1474
 5301SOL    HW127365   0.830   2.572  11.991  3.0450  0.3054 -0.1499
 5301SOL    HW227366   0.882   2.477  12.090  2.6840  0.8344 -1.8211
 5302SOL     OW27367   1.282   3.578   5.470  0.6177 -0.1644  0.8930
 5302SOL    HW127368   1.216   3.509   5.473  1.5489 -1.0746  0.3909
 5302SOL    HW227369   1.362   3.532   5.446  1.7163  1.0395  2.2423
 5303SOL     OW27370   3.794   1.393  16.484 -0.0527  0.6219 -0.2567
 5303SOL    HW127371   3.708   1.350  16.490  0.3817 -0.2528 -0.1937
 5303SOL    HW227372   3.853   1.320  16.465 -0.0301  0.8467 -1.0440
 5304SOL     OW27373   3.549   2.047   3.886 -0.0126  0.2258 -0.4678
 5304SOL    HW127374   3.531   2.069   3.795  1.6359  0.1280 -0.8119
 5304SOL    HW227375   3.541   1.951   3.880 -1.3160  0.2330  1.0684
 5305SOL     OW27376   0.489   3.078   6.340 -0.2453  0.1794  0.3011
 5305SOL    HW127377   0.519   3.007   6.283 -0.0945  0.5583 -0.0970
 5305SOL    HW227378   0.442   3.141   6.285  1.7824  0.4139 -1.1904
 5306SOL     OW27379   2.381   1.303   6.836  0.8614 -0.0686  0.1798
 5306SOL    HW127380   2.456   1.360   6.824 -0.5488  1.3898 -1.6459
 5306SOL    HW227381   2.396   1.226   6.781  0.3456 -0.6376  0.8298
 5307SOL     OW27382   2.340   2.979   8.616  0.7222 -0.5461 -0.1195
 5307SOL    HW127383   2.274   2.933   8.668  1.5535 -0.4188  1.0403
 5307SOL    HW227384   2.309   3.069   8.624 -1.0093 -1.0932 -0.7744
 5308SOL     OW27385   0.576   2.328  10.618  0.6984  0.1731  0.0272
 5308SOL    HW127386   0.609   2.273  10.690 -0.8647 -0.6715  0.0958
 5308SOL    HW227387   0.485   2.309  10.597  1.1951 -2.1207 -0.0328
 5309SOL     OW27388   0.608   3.707  12.116  0.1020  0.2327  0.0412
 5309SOL    HW127389   0.551   3.660  12.177 -0.7312  2.4455  0.9786
 5309SOL    HW227390   0.635   3.630  12.066 -2.6878 -1.3335  0.9061
 5310SOL     OW27391   1.849   3.844   4.257  0.1319 -0.2869 -0.0602
 5310SOL    HW127392   1.803   3.874   4.178  1.0185 -0.3571 -0.6086
 5310SOL    HW227393   1.895   3.923   4.286  0.8085 -1.1040  1.0847
 5311SOL     OW27394   3.478   0.638  13.853  0.1492 -0.4142 -0.5656
 5311SOL    HW127395   3.460   0.553  13.894  0.1080 -1.1674 -2.1688
 5311SOL    HW227396   3.451   0.614  13.765  0.1902 -1.1185 -0.3898
 5312SOL     OW27397   0.956   0.282   1.469 -0.4361 -0.4013  0.4019
 5312SOL    HW127398   0.945   0.322   1.383  0.1090  1.2899  1.1072
 5312SOL    HW227399   1.019   0.349   1.497  1.1503 -1.8910  0.4119
 5313SOL     OW27400   0.647   4.206  12.338 -0.1676  0.0962 -0.0002
 5313SOL    HW127401   0.601   4.134  12.294 -0.5097 -0.1667  0.7833
 5313SOL    HW227402   0.726   4.161  12.366 -0.3329 -0.0698  0.2044
 5314SOL     OW27403   4.674   0.848   6.168 -0.0836 -0.5216 -0.1080
 5314SOL    HW127404   4.722   0.826   6.088  0.7316  0.7692  0.0301
 5314SOL    HW227405   4.688   0.769   6.220  0.7846  1.1085  2.1158
 5315SOL     OW27406   1.423   3.900   6.353 -0.0306 -0.3567  0.1903
 5315SOL    HW127407   1.463   3.954   6.420 -2.3102  1.7772 -0.1656
 5315SOL    HW227408   1.501   3.900   6.297 -0.3592 -1.3329 -0.2767
 5316SOL     OW27409   2.538   0.540   3.576  0.2385 -0.0219  0.4769
 5316SOL    HW127410   2.463   0.571   3.627 -0.7688 -1.3983 -0.1708
 5316SOL    HW227411   2.490   0.480   3.519  0.3072  0.4941 -0.1183
 5317SOL     OW27412   4.544   4.097   1.630  0.0687 -0.0801 -0.3424
 5317SOL    HW127413   4.488   4.086   1.553 -1.8173 -2.4041  1.3603
 5317SOL    HW227414   4.579   4.008   1.636 -1.1219 -0.5951 -0.8798
 5318SOL     OW27415   2.357   3.658  17.527 -0.5253 -0.1277  0.2617
 5318SOL    HW127416   2.267   3.665  17.558 -0.6191  1.2789 -0.3219
 5318SOL    HW227417   2.375   3.752  17.536 -0.0168 -0.3981  1.9748
 5319SOL     OW27418   0.632   1.691  12.924 -0.3345 -0.3344 -0.0658
 5319SOL    HW127419   0.638   1.757  12.855  3.3569 -1.3981 -0.7566
 5319SOL    HW227420   0.709   1.700  12.979  0.8665 -1.2335 -1.5783
 5320SOL     OW27421   1.645   2.532   7.400 -0.1749 -0.0109  0.3371
 5320SOL    HW127422   1.714   2.543   7.465  0.2181 -1.1468  0.0966
 5320SOL    HW227423   1.576   2.562   7.461  1.0794  1.7493  0.8887
 5321SOL     OW27424   0.605   3.453   6.200 -0.0935 -0.4609  0.1110
 5321SOL    HW127425   0.573   3.512   6.267  1.5902 -1.0620  1.4381
 5321SOL    HW227426   0.555   3.371   6.205 -1.3228  0.3684  1.2429
 5322SOL     OW27427   3.147   0.556   4.114 -0.4972 -0.1973  0.0676
 5322SOL    HW127428   3.176   0.465   4.125 -0.0965 -0.1275 -0.3917
 5322SOL    HW227429   3.136   0.574   4.021 -1.0073 -0.0497  0.1564
 5323SOL     OW27430   4.068   3.237   3.785 -0.5587 -0.6146  0.4770
 5323SOL    HW127431   4.091   3.178   3.857 -0.6289 -1.1437  0.0625
 5323SOL    HW227432   4.043   3.313   3.837  1.2840  0.9815 -0.9290
 5324SOL     OW27433   1.498   2.362   6.263  0.0203  0.0930  0.4624
 5324SOL    HW127434   1.453   2.393   6.342  0.1259  1.9876 -0.2263
 5324SOL    HW227435   1.586   2.385   6.294 -0.0247  2.8918 -1.5276
 5325SOL     OW27436   2.586   4.419  16.372 -0.1639 -0.2590 -0.0314
 5325SOL    HW127437   2.585   4.499  16.320 -1.3113  0.2455  0.7611
 5325SOL    HW227438   2.625   4.351  16.316 -0.3576 -1.4932  1.3396
 5326SOL     OW27439   2.114   0.333   7.722 -0.5056  0.0103 -0.5719
 5326SOL    HW127440   2.085   0.254   7.767  0.3292  0.2917  0.4442
 5326SOL    HW227441   2.203   0.344   7.755 -0.3236 -1.4368 -0.5494
 5327SOL     OW27442   4.033   1.980   5.754  0.5899 -0.5880  0.1677
 5327SOL    HW127443   4.123   1.986   5.786  1.3068 -3.5021 -1.3038
 5327SOL    HW227444   4.041   2.040   5.680  1.3367 -0.0487  0.6830
 5328SOL     OW27445   1.994   3.557   2.520 -0.3045 -0.5807  0.0251
 5328SOL    HW127446   1.938   3.572   2.444 -1.9755 -2.2498  0.9366
 5328SOL    HW227447   1.933   3.587   2.588  1.3357 -1.8894  2.1065
 5329SOL     OW27448   4.354   1.688   5.803 -0.9027  0.2201 -0.2034
 5329SOL    HW127449   4.340   1.607   5.851  0.8958 -0.0992 -0.2015
 5329SOL    HW227450   4.448   1.678   5.789 -1.3437  0.0332 -2.9520
 5330SOL     OW27451   0.839   2.339   7.215  0.9356  0.1987  0.3032
 5330SOL    HW127452   0.792   2.375   7.139 -0.7313 -3.7717 -0.5322
 5330SOL    HW227453   0.834   2.414   7.274 -1.9375 -0.4200  0.8312
 5331SOL     OW27454   0.492   1.427   6.053  0.1469  0.3301 -0.1658
 5331SOL    HW127455   0.413   1.412   6.105  0.2397  2.1072  0.4825
 5331SOL    HW227456   0.555   1.444   6.123 -1.4032  3.2098  0.5356
 5332SOL     OW27457   4.081   2.794   8.221  0.1979 -0.2995 -0.0525
 5332SOL    HW127458   4.028   2.754   8.289  1.6586  0.9508  1.8126
 5332SOL    HW227459   4.046   2.754   8.141  0.8888 -0.6177 -0.1990
 5333SOL     OW27460   1.904   1.175   4.290 -0.0835 -0.1328 -0.2813
 5333SOL    HW127461   1.896   1.157   4.384 -1.5267  1.5067 -0.0718
 5333SOL    HW227462   1.993   1.210   4.288 -0.0218 -0.3850 -1.7272
 5334SOL     OW27463   3.958   2.065  11.752 -0.1573  0.1262 -0.4210
 5334SOL    HW127464   4.027   2.122  11.716 -0.5811  0.2980 -0.9625
 5334SOL    HW227465   3.990   1.981  11.719 -0.5624  0.7402 -2.3981
 5335SOL     OW27466   0.717   1.285  12.052 -0.1919  0.8831 -0.2912
 5335SOL    HW127467   0.712   1.338  11.973  1.3411  0.9155 -0.3733
 5335SOL    HW227468   0.738   1.195  12.028  2.5049  1.4044  0.1101
 5336SOL     OW27469   2.282   1.475  17.656  0.3428  0.6074  0.1334
 5336SOL    HW127470   2.375   1.483  17.634  0.9912 -1.2000  2.1585
 5336SOL    HW227471   2.277   1.559   0.002  0.9520  0.9916 -0.5105
 5337SOL     OW27472   0.430   0.726   9.134  0.5078  0.4455 -0.0762
 5337SOL    HW127473   0.392   0.811   9.110  0.7658  0.9290  1.2424
 5337SOL    HW227474   0.479   0.748   9.213  2.1429 -0.6279 -0.8085
 5338SOL     OW27475   2.388   2.605   5.783  0.5486 -0.5845  0.1380
 5338SOL    HW127476   2.383   2.589   5.689  2.1276 -0.1276 -0.0186
 5338SOL    HW227477   2.328   2.679   5.784  1.4242  0.1426 -0.9980
 5339SOL     OW27478   3.932   4.456   7.072  0.1672  0.2240  0.3526
 5339SOL    HW127479   3.944   4.364   7.047 -1.1693  0.6334 -1.8036
 5339SOL    HW227480   3.840   4.454   7.096  0.3171 -2.0671  0.7748
 5340SOL     OW27481   2.546   2.804   3.517  0.2538 -0.2479 -0.1109
 5340SOL    HW127482   2.625   2.832   3.472  1.1165 -1.4894  0.6338
 5340SOL    HW227483   2.574   2.819   3.608 -1.4856 -3.2512  0.8999
 5341SOL     OW27484   1.441   1.405   7.240  0.2337 -0.4200  0.0561
 5341SOL    HW127485   1.435   1.345   7.166  0.7201 -0.7493  0.2839
 5341SOL    HW227486   1.536   1.409   7.250  0.3286 -3.6148  0.5668
 5342SOL     OW27487   0.765   0.644   2.381  0.3549 -0.5539 -0.4160
 5342SOL    HW127488   0.842   0.694   2.405  0.0248 -1.0825  1.7350
 5342SOL    HW227489   0.791   0.585   2.310  0.1683 -0.6448 -0.4112
 5343SOL     OW27490   3.317   2.018  14.863 -0.1480 -0.1801 -0.5624
 5343SOL    HW127491   3.369   2.063  14.797 -2.2085  2.6050 -0.2848
 5343SOL    HW227492   3.391   1.978  14.908  1.5794 -0.1008 -3.3319
 5344SOL     OW27493   1.763   4.065  15.285 -0.1907 -0.1030  0.6156
 5344SOL    HW127494   1.698   4.000  15.257  1.8404 -0.4872 -3.1836
 5344SOL    HW227495   1.734   4.062  15.377 -1.3123 -2.9828  0.1509
 5345SOL     OW27496   3.573   0.378   6.751  0.3239 -0.1835  0.2407
 5345SOL    HW127497   3.614   0.437   6.814 -1.7016  2.1539 -0.6070
 5345SOL    HW227498   3.582   0.295   6.798  1.3537 -0.9520 -1.3204
 5346SOL     OW27499   2.422   1.264  13.428 -0.0814  0.0063  0.8605
 5346SOL    HW127500   2.387   1.245  13.341  1.5621 -0.2822  0.2642
 5346SOL    HW227501   2.508   1.298  13.403 -0.8923  1.2376 -0.2070
 5347SOL     OW27502   1.332   0.260   3.703  0.0637 -0.2534  0.4500
 5347SOL    HW127503   1.247   0.241   3.742  1.1909 -3.8934  1.1522
 5347SOL    HW227504   1.352   0.175   3.663  1.7266  1.4829 -2.4112
 5348SOL     OW27505   3.503   1.764   3.788  0.1563 -0.1767 -0.5102
 5348SOL    HW127506   3.516   1.782   3.694  3.0682 -3.0478 -0.6583
 5348SOL    HW227507   3.459   1.679   3.790  1.2792 -0.7557 -0.4042
 5349SOL     OW27508   4.637   3.532   9.353  0.2742  0.2850 -0.4039
 5349SOL    HW127509   4.593   3.593   9.294 -0.2673  0.1332 -0.1538
 5349SOL    HW227510   4.721   3.520   9.308  0.9347 -2.8007  1.7012
 5350SOL     OW27511   4.224   0.306  10.505 -0.4230 -0.5437  0.2660
 5350SOL    HW127512   4.300   0.265  10.464 -1.2081 -1.1526 -0.5747
 5350SOL    HW227513   4.239   0.304  10.600 -3.5241 -0.9135  0.7378
 5351SOL     OW27514   4.633   2.735  11.565 -0.0763  0.1301  0.2568
 5351SOL    HW127515   4.574   2.734  11.490  0.6301 -0.4838 -0.3066
 5351SOL    HW227516   4.713   2.776  11.531  0.0606 -0.7397 -0.4870
 5352SOL     OW27517   1.795   0.598   4.045 -0.4473 -0.7126 -0.1668
 5352SOL    HW127518   1.885   0.630   4.035 -0.2558 -0.8406  1.1262
 5352SOL    HW227519   1.778   0.619   4.137  1.3605  1.2708 -0.2794
 5353SOL     OW27520   0.836   1.114   9.262  0.3387 -0.5384 -0.2384
 5353SOL    HW127521   0.884   1.053   9.207 -0.0129  0.0392 -1.1862
 5353SOL    HW227522   0.814   1.067   9.342 -0.2015  1.5208  0.8224
 5354SOL     OW27523   4.343   0.430  16.572 -0.6004 -0.6641 -0.0540
 5354SOL    HW127524   4.388   0.345  16.571  1.5671  0.4903 -0.1992
 5354SOL    HW227525   4.341   0.456  16.480 -2.3664  0.7969  0.3980
 5355SOL     OW27526   3.326   3.264   9.550 -0.0980  0.4043  0.0345
 5355SOL    HW127527   3.388   3.285   9.479 -0.6339  0.3196 -0.4605
 5355SOL    HW227528   3.242   3.268   9.504  0.6102  3.0267 -1.0313
 5356SOL     OW27529   4.615   4.457   7.241  0.0834  0.0831  0.6554
 5356SOL    HW127530   4.707   4.484   7.234 -0.2109 -0.2095 -4.4353
 5356SOL    HW227531   4.611   4.473   7.335 -0.0831  0.1844  0.6306
 5357SOL     OW27532   3.786   0.952   2.522 -0.6351 -1.0143 -0.0673
 5357SOL    HW127533   3.778   1.020   2.454 -1.2667 -0.2425  0.7840
 5357SOL    HW227534   3.868   0.916   2.487 -0.5525 -0.3828 -0.5287
 5358SOL     OW27535   2.621   4.679   7.154  0.2505  0.0210 -0.0758
 5358SOL    HW127536   2.568   0.031   7.177  0.5625  0.2648 -0.1740
 5358SOL    HW227537   2.550   4.616   7.139  0.4430 -0.2917  0.3243
 5359SOL     OW27538   3.588   3.985   4.265  0.4506  0.3160  0.4764
 5359SOL    HW127539   3.526   4.024   4.326  1.6855  1.7304  0.8221
 5359SOL    HW227540   3.532   3.911   4.239 -0.7208  1.5864 -0.5794
 5360SOL     OW27541   0.180   4.282   6.031  0.4650  0.7719 -0.0321
 5360SOL    HW127542   0.216   4.221   6.096 -1.5571 -0.9285 -0.5278
 5360SOL    HW227543   0.241   4.279   5.957 -1.0244  0.7510 -1.2573
 5361SOL     OW27544   4.174   2.325   8.285  0.5083  0.3630 -0.0747
 5361SOL    HW127545   4.201   2.295   8.198 -1.9468  0.4771 -0.8701
 5361SOL    HW227546   4.118   2.252   8.312  0.6291 -0.0482 -0.9533
 5362SOL     OW27547   3.950   2.585  14.531 -0.0514  0.5144 -0.0783
 5362SOL    HW127548   3.975   2.493  14.520  1.5517  0.8048  1.0330
 5362SOL    HW227549   3.951   2.586  14.627 -0.2120  0.1676 -0.0755
 5363SOL     OW27550   0.762   2.246   4.732 -0.4459 -0.0922  0.1415
 5363SOL    HW127551   0.688   2.186   4.744 -0.3323  0.1200  1.8832
 5363SOL    HW227552   0.819   2.215   4.803 -1.6236  1.4666  1.7534
 5364SOL     OW27553   2.037   0.095   2.021  0.7677 -0.5656  0.5884
 5364SOL    HW127554   1.983   0.113   2.099 -1.0429  0.3925 -0.8902
 5364SOL    HW227555   2.007   0.166   1.965  1.1451  0.1662  1.3015
 5365SOL     OW27556   2.178   2.263   6.197 -0.2570 -0.2187 -0.0477
 5365SOL    HW127557   2.229   2.196   6.153  0.3630  0.4074 -0.2849
 5365SOL    HW227558   2.210   2.340   6.150 -1.0963  1.6902  2.5196
 5366SOL     OW27559   0.850   4.252  14.549 -0.2122 -0.7602 -0.0277
 5366SOL    HW127560   0.931   4.276  14.594 -0.5039  1.9771 -0.9767
 5366SOL    HW227561   0.803   4.217  14.625  1.0774 -2.1620  0.1265
 5367SOL     OW27562   4.600   1.867   3.048  0.7899  0.4472  0.1422
 5367SOL    HW127563   4.598   1.853   3.143 -0.1751 -1.0549 -0.0981
 5367SOL    HW227564   4.670   1.808   3.021 -0.5454 -1.7029  1.3518
 5368SOL     OW27565   3.725   1.078   2.746  0.4988 -1.1410 -0.4842
 5368SOL    HW127566   3.795   1.143   2.756 -2.5481  2.1284 -0.5509
 5368SOL    HW227567   3.753   1.023   2.673 -0.1380 -1.1571 -0.7151
 5369SOL     OW27568   1.436   1.737   6.144 -0.3813 -0.0444  0.3805
 5369SOL    HW127569   1.407   1.753   6.234  0.9136 -0.8061  0.9323
 5369SOL    HW227570   1.526   1.768   6.141 -0.1951 -0.6740 -0.6514
 5370SOL     OW27571   0.384   3.655  17.508 -0.1585  0.3040 -0.1915
 5370SOL    HW127572   0.353   3.722  17.570 -1.4741 -1.0398  0.5940
 5370SOL    HW227573   0.334   3.583  17.546  0.8333 -1.1746 -1.6581
 5371SOL     OW27574   0.563   1.622   8.943 -0.3903 -0.3565 -0.4054
 5371SOL    HW127575   0.478   1.666   8.934 -0.8904 -0.6471  2.8835
 5371SOL    HW227576   0.615   1.649   8.867  0.1577 -1.7442 -0.5170
 5372SOL     OW27577   2.225   4.288   7.224  0.2998 -0.7783  0.1603
 5372SOL    HW127578   2.259   4.225   7.160  0.7821 -1.4430  1.0565
 5372SOL    HW227579   2.134   4.259   7.224  0.3813 -1.0500  2.5629
 5373SOL     OW27580   4.441   1.074  13.192 -0.1844  0.1308  0.4826
 5373SOL    HW127581   4.405   1.161  13.175  2.3720  0.4494 -3.2823
 5373SOL    HW227582   4.469   1.082  13.283  1.8393  1.0538 -0.2034
 5374SOL     OW27583   3.057   2.793   7.977 -0.1017  0.1470  0.2820
 5374SOL    HW127584   3.013   2.769   8.059 -0.9293 -1.6072 -0.6943
 5374SOL    HW227585   3.007   2.735   7.919 -0.9589 -0.3995  1.5721
 5375SOL     OW27586   1.870   0.484   6.136 -0.0949  0.2984  0.0429
 5375SOL    HW127587   1.855   0.484   6.230 -1.3876 -0.2802 -0.1551
 5375SOL    HW227588   1.898   0.395   6.116  0.9943  0.9264 -1.2705
 5376SOL     OW27589   3.886   4.220   6.982 -0.1030 -0.3424  0.2179
 5376SOL    HW127590   3.874   4.139   6.934 -1.2297 -1.1951  1.9367
 5376SOL    HW227591   3.839   4.202   7.063 -1.1801  2.0049  0.1239
 5377SOL     OW27592   0.020   4.015   2.554  0.3036  0.0047  0.2301
 5377SOL    HW127593   4.690   4.020   2.632  0.0669  2.8998 -0.1053
 5377SOL    HW227594   0.027   3.924   2.524 -0.1144 -0.1274  0.5334
 5378SOL     OW27595   2.737   1.423  17.189 -0.0469 -0.3028 -0.0766
 5378SOL    HW127596   2.712   1.335  17.219  2.1631 -1.0113 -0.3416
 5378SOL    HW227597   2.826   1.424  17.225  0.4326  1.5710 -1.3446
 5379SOL     OW27598   2.303   4.131   2.223  0.0092 -0.4937  0.0291
 5379SOL    HW127599   2.225   4.087   2.257 -0.2185  0.3350  0.5638
 5379SOL    HW227600   2.261   4.215   2.208  0.5719  0.0308  1.3882
 5380SOL     OW27601   1.409   2.866   7.823  0.1009  0.1191  0.0382
 5380SOL    HW127602   1.332   2.844   7.875  0.4149  0.2650  0.5651
 5380SOL    HW227603   1.478   2.828   7.876 -0.1130  1.0077  0.9545
 5381SOL     OW27604   1.677   0.516   8.496  0.9596 -0.1552  0.9806
 5381SOL    HW127605   1.709   0.535   8.408  0.9402  1.3803  1.3141
 5381SOL    HW227606   1.585   0.495   8.483  1.1399  0.6329 -1.5762
 5382SOL     OW27607   4.270   3.192   8.973  0.3281  0.2818 -0.3162
 5382SOL    HW127608   4.221   3.111   8.985 -0.5963  1.0048  0.8131
 5382SOL    HW227609   4.338   3.170   8.910  0.8634 -0.3821  0.4929
 5383SOL     OW27610   0.622   2.609   0.015 -0.1789  0.0568 -0.0946
 5383SOL    HW127611   0.643   2.674   0.082  0.6603 -0.4735  0.1634
 5383SOL    HW227612   0.687   2.539   0.022 -0.4361  0.0112  1.8402
 5384SOL     OW27613   1.018   0.130   3.568 -0.0209 -0.2100 -0.1235
 5384SOL    HW127614   1.035   0.071   3.642  1.3820  0.5831  0.1907
 5384SOL    HW227615   0.923   0.132   3.570 -0.0168 -0.7283  1.0170
 5385SOL     OW27616   4.042   3.682   0.554 -0.1272  0.3558 -0.5801
 5385SOL    HW127617   3.982   3.684   0.479 -1.3164  0.1600  0.3724
 5385SOL    HW227618   4.007   3.760   0.598 -1.9993 -0.0405 -1.3272
 5386SOL     OW27619   4.323   1.901   6.432  0.2192 -0.3477 -0.2657
 5386SOL    HW127620   4.417   1.892   6.413  0.8764  2.2845  1.6858
 5386SOL    HW227621   4.298   1.813   6.459 -0.0449  0.0667  0.8428
 5387SOL     OW27622   1.156   3.868   6.424  0.2311  0.5622  0.1637
 5387SOL    HW127623   1.164   3.789   6.477  0.4857 -1.7819 -3.3898
 5387SOL    HW227624   1.243   3.897   6.398 -1.2117  2.9900 -1.9824
 5388SOL     OW27625   3.773   0.718  10.979 -0.5882 -0.1948 -0.0857
 5388SOL    HW127626   3.726   0.638  11.001 -0.1478  0.4810  3.3233
 5388SOL    HW227627   3.843   0.679  10.927 -0.5819  0.4494 -0.5528
 5389SOL     OW27628   1.416   1.230   7.044  0.6044  0.1469  0.0586
 5389SOL    HW127629   1.457   1.156   7.000  4.0513 -0.5393  4.3607
 5389SOL    HW227630   1.354   1.257   6.977 -0.3996  0.1457  0.9850
 5390SOL     OW27631   3.895   0.262   7.553 -0.0249  0.0255  0.3680
 5390SOL    HW127632   3.966   0.225   7.605 -0.1845 -3.1628 -1.6865
 5390SOL    HW227633   3.915   0.224   7.467  1.2859  0.0372  0.6806
 5391SOL     OW27634   2.373   1.379   2.802 -0.5678 -0.1384 -0.3521
 5391SOL    HW127635   2.370   1.403   2.895 -1.3716  1.5255 -0.8122
 5391SOL    HW227636   2.461   1.349   2.783 -0.1438 -0.6977  2.4828
 5392SOL     OW27637   3.601   1.845   8.167 -0.7285 -0.3129 -0.2082
 5392SOL    HW127638   3.605   1.891   8.083  0.3416  0.9173  0.5204
 5392SOL    HW227639   3.535   1.781   8.140 -2.4107  0.9645  0.9162
 5393SOL     OW27640   1.942   4.664   9.726 -0.2778  0.1954 -0.0768
 5393SOL    HW127641   1.859   4.698   9.695 -0.9641 -2.7304 -1.3987
 5393SOL    HW227642   1.973   4.625   9.644 -0.7443  1.7056 -0.9673
 5394SOL     OW27643   2.180   0.596   6.182 -0.3669  0.4805  0.0171
 5394SOL    HW127644   2.246   0.664   6.169 -0.1162  0.6780  2.3348
 5394SOL    HW227645   2.158   0.578   6.091 -0.1886 -3.7579  0.8149
 5395SOL     OW27646   1.343   2.979   9.109 -0.0726 -0.4833 -0.2432
 5395SOL    HW127647   1.327   2.886   9.097  0.6718 -0.9677  2.5302
 5395SOL    HW227648   1.382   2.976   9.196  0.6002  0.0246 -0.5285
 5396SOL     OW27649   2.878   1.832  13.295  0.2444  0.2365  0.1067
 5396SOL    HW127650   2.945   1.766  13.276 -0.8452 -1.2674  1.4724
 5396SOL    HW227651   2.823   1.777  13.351  0.9177 -2.2129 -1.5900
 5397SOL     OW27652   1.105   3.862   1.548  0.6609  0.1818  0.4878
 5397SOL    HW127653   1.077   3.771   1.540 -1.1140  0.6447  1.5671
 5397SOL    HW227654   1.099   3.889   1.640 -0.2293 -2.9135  1.3278
 5398SOL     OW27655   0.750   0.032   3.604  0.4714 -0.2541 -0.5838
 5398SOL    HW127656   0.755   4.716   3.517  0.4584  0.5799 -0.9711
 5398SOL    HW227657   0.660   0.065   3.609  0.3313 -1.0336  2.2305
 5399SOL     OW27658   1.546   0.616   7.402 -0.3566 -0.0666  0.0026
 5399SOL    HW127659   1.561   0.523   7.384 -2.7140 -0.0168 -2.2733
 5399SOL    HW227660   1.469   0.627   7.347  0.6672  0.3372 -1.3592
 5400SOL     OW27661   4.616   4.384   8.592 -0.6402 -0.0775  0.4450
 5400SOL    HW127662   4.616   4.289   8.583  2.7951 -0.1822  1.3042
 5400SOL    HW227663   4.690   4.409   8.536  0.7673 -1.9256  1.4961
 5401SOL     OW27664   2.739   2.987   2.265  0.4017 -0.0332 -0.2524
 5401SOL    HW127665   2.750   2.892   2.269  0.0249  0.0225  2.1793
 5401SOL    HW227666   2.813   3.018   2.317  0.1023 -1.1322  0.8416
 5402SOL     OW27667   0.261   1.876   8.563 -0.2551 -0.0738 -0.1023
 5402SOL    HW127668   0.336   1.933   8.550 -0.0350 -0.1283  0.9071
 5402SOL    HW227669   0.189   1.930   8.594 -0.5192 -0.2231 -0.4544
 5403SOL     OW27670   0.114   1.743   2.459  0.3409  0.2953 -0.5214
 5403SOL    HW127671   0.119   1.814   2.395 -2.5241 -0.2799 -1.3590
 5403SOL    HW227672   0.109   1.664   2.404  0.7147  0.0368 -0.1862
 5404SOL     OW27673   3.923   1.720   9.484 -0.5822  0.3817  0.0050
 5404SOL    HW127674   3.913   1.730   9.578  1.5883 -1.7073  0.4432
 5404SOL    HW227675   3.865   1.647   9.465  0.5088 -0.3199 -0.6805
 5405SOL     OW27676   1.536   1.678   9.685 -0.3609 -0.2803  0.0732
 5405SOL    HW127677   1.471   1.625   9.731 -0.5004  0.2634  0.5113
 5405SOL    HW227678   1.521   1.767   9.717  1.3307  0.1347 -0.2444
 5406SOL     OW27679   1.778   3.506   4.670 -0.1679 -0.6776  0.2767
 5406SOL    HW127680   1.872   3.516   4.657  0.3971 -1.5976  3.8342
 5406SOL    HW227681   1.752   3.581   4.617  0.1450 -0.5886  0.2475
 5407SOL     OW27682   4.199   3.463   7.065 -0.0033 -0.0792  0.3497
 5407SOL    HW127683   4.206   3.456   6.970  0.0552 -0.3660  0.3727
 5407SOL    HW227684   4.235   3.377   7.090  1.1026  0.4506  0.5829
 5408SOL     OW27685   1.192   2.223   4.219 -0.1450  0.5165  0.3922
 5408SOL    HW127686   1.226   2.137   4.243 -1.7069 -0.6358 -1.5343
 5408SOL    HW227687   1.136   2.238   4.296 -0.8620  1.2168 -0.2689
 5409SOL     OW27688   1.624   2.228  15.897 -0.0393 -0.6072 -0.2450
 5409SOL    HW127689   1.682   2.299  15.870 -0.7944 -0.6133 -1.8670
 5409SOL    HW227690   1.684   2.157  15.871  3.4512  3.2185 -2.5774
 5410SOL     OW27691   3.789   2.185  10.493  0.2068  0.3888  0.0461
 5410SOL    HW127692   3.787   2.123  10.565 -0.8187  1.4561  0.9338
 5410SOL    HW227693   3.861   2.237  10.529  0.9336 -0.2831 -0.4242
 5411SOL     OW27694   3.915   4.010   3.907 -0.0424  0.1715 -0.1911
 5411SOL    HW127695   4.002   4.032   3.942 -0.3088  0.9062  0.0244
 5411SOL    HW227696   3.939   3.995   3.816 -0.1578  0.2169 -0.2285
 5412SOL     OW27697   3.706   1.150   7.076 -0.1505  0.6829 -0.0880
 5412SOL    HW127698   3.695   1.060   7.108  0.6621  1.0820  1.2917
 5412SOL    HW227699   3.741   1.192   7.155 -1.1540  1.0470  0.1721
 5413SOL     OW27700   3.829   3.719   6.577  0.3010  0.5826 -0.1773
 5413SOL    HW127701   3.776   3.640   6.592 -0.5820  1.3192  0.5577
 5413SOL    HW227702   3.775   3.781   6.626 -0.7165 -0.1344 -0.4012
 5414SOL     OW27703   0.677   3.912   4.715  0.4895  0.2199 -0.3056
 5414SOL    HW127704   0.696   4.004   4.700  0.9398 -0.2990 -2.9798
 5414SOL    HW227705   0.743   3.870   4.659  1.9163  0.5061  1.1773
 5415SOL     OW27706   4.614   1.350   6.840  0.2678 -0.0152  0.8663
 5415SOL    HW127707   4.589   1.267   6.799 -1.2976  0.5004  0.7675
 5415SOL    HW227708   4.683   1.318   6.898  0.3665  0.1200  0.8214
 5416SOL     OW27709   1.131   4.201   7.891  0.2920  0.6179 -0.2812
 5416SOL    HW127710   1.221   4.170   7.899  0.8505  1.4742 -3.1000
 5416SOL    HW227711   1.111   4.160   7.807 -0.6411 -0.1526  0.3282
 5417SOL     OW27712   2.923   3.714   7.678 -0.5055 -0.1302 -0.1584
 5417SOL    HW127713   2.980   3.709   7.755 -2.6781  0.9803  1.5128
 5417SOL    HW227714   2.941   3.803   7.650 -2.1579 -0.3348 -1.8310
 5418SOL     OW27715   0.654   1.966  13.695  0.3760  0.1871 -0.4985
 5418SOL    HW127716   0.577   1.960  13.639  0.0570 -0.1560 -0.0238
 5418SOL    HW227717   0.637   2.052  13.734  1.3705  0.3684 -0.4555
 5419SOL     OW27718   1.506   0.033   7.991  0.2452  0.1656  0.2617
 5419SOL    HW127719   1.577   0.042   7.928  0.9785  0.7853  1.1730
 5419SOL    HW227720   1.522   4.672   8.033 -1.2115  0.2249  0.9455
 5420SOL     OW27721   3.579   2.000  13.910 -0.1932 -0.0239  0.0774
 5420SOL    HW127722   3.643   2.009  13.981  0.0387  0.5885 -0.2048
 5420SOL    HW227723   3.513   2.060  13.944 -1.1374 -0.3004 -1.3077
 5421SOL     OW27724   1.534   1.303   6.751  0.4809  0.3552 -0.5061
 5421SOL    HW127725   1.445   1.276   6.776  0.6579 -1.2445 -1.5982
 5421SOL    HW227726   1.530   1.399   6.757  2.1652  0.3336  0.8838
 5422SOL     OW27727   1.788   2.324   0.917  0.5225 -0.5315 -0.1502
 5422SOL    HW127728   1.764   2.367   0.999 -0.4029  0.6116 -1.0224
 5422SOL    HW227729   1.715   2.264   0.902  1.5516 -1.8308  0.0330
 5423SOL     OW27730   4.005   2.052   8.855 -0.0183 -0.2892  0.2042
 5423SOL    HW127731   4.038   2.055   8.945  2.0410 -1.4008 -0.5022
 5423SOL    HW227732   3.982   1.960   8.844  3.2821 -0.6742 -3.3618
 5424SOL     OW27733   1.467   3.770   6.797  0.0213  0.0855  0.1551
 5424SOL    HW127734   1.473   3.865   6.783  0.3186  0.0151 -0.2313
 5424SOL    HW227735   1.404   3.752   6.866 -1.6532 -0.9011 -1.6530
 5425SOL     OW27736   1.017   0.045   1.340 -0.1901 -0.3293  0.6896
 5425SOL    HW127737   1.036   4.703   1.407 -1.2985  0.3315  1.6639
 5425SOL    HW227738   0.969   0.111   1.390 -0.0941  1.4670 -1.5981
 5426SOL     OW27739   3.689   3.404   5.131 -0.3444 -0.0319 -0.1578
 5426SOL    HW127740   3.629   3.377   5.200 -0.2907  0.9812  0.2869
 5426SOL    HW227741   3.706   3.496   5.151 -2.0393  0.1802  0.3219
 5427SOL     OW27742   3.429   0.658  10.025 -0.1726  0.3304 -0.2794
 5427SOL    HW127743   3.425   0.683   9.933  2.6709 -0.0948 -0.5059
 5427SOL    HW227744   3.465   0.570  10.010  2.8030  1.7754 -1.5967
 5428SOL     OW27745   1.170   3.523   7.287 -0.2976 -0.0944 -0.5168
 5428SOL    HW127746   1.197   3.432   7.271 -0.0674 -0.1732  0.3242
 5428SOL    HW227747   1.079   3.522   7.317 -0.4477  0.3691 -0.9669
 5429SOL     OW27748   3.745   0.800  13.112  0.1364  0.0910 -0.0665
 5429SOL    HW127749   3.695   0.830  13.036 -1.0110  2.1442  1.4916
 5429SOL    HW227750   3.768   0.716  13.072 -1.3509 -0.3373 -0.0267
 5430SOL     OW27751   4.174   1.488   4.755 -0.0505  0.0388  0.6185
 5430SOL    HW127752   4.105   1.425   4.774  1.8100 -2.1245  0.1408
 5430SOL    HW227753   4.172   1.539   4.836  2.7537 -1.3231  1.5260
 5431SOL     OW27754   4.199   3.861   1.057  0.8689 -0.1483  0.0600
 5431SOL    HW127755   4.234   3.925   0.995  3.0411  2.3119  3.8070
 5431SOL    HW227756   4.265   3.791   1.057  0.6898 -0.3225 -1.4990
 5432SOL     OW27757   3.792   2.659  17.585  0.4456  0.7921  0.2170
 5432SOL    HW127758   3.801   2.689  17.494 -0.8921 -0.7041 -0.4034
 5432SOL    HW227759   3.717   2.603  17.566  1.6112 -0.8436  0.4843
 5433SOL     OW27760   1.835   4.468  12.551  0.5005  0.0466 -0.1401
 5433SOL    HW127761   1.838   4.380  12.513 -2.7185  0.1744 -0.6788
 5433SOL    HW227762   1.745   4.497  12.538  0.1392 -1.3830 -0.8508
 5434SOL     OW27763   4.029   0.780   2.868 -0.1928 -0.2383 -0.3495
 5434SOL    HW127764   4.096   0.812   2.808 -0.7535  1.5536 -0.0101
 5434SOL    HW227765   3.980   0.732   2.801 -0.1870 -0.1064 -0.4481
 5435SOL     OW27766   3.321   1.888  11.959  0.1015 -0.0482 -0.0568
 5435SOL    HW127767   3.335   1.873  12.052  1.7975 -0.2399 -0.3359
 5435SOL    HW227768   3.386   1.957  11.941 -0.5183  0.2722 -1.0970
 5436SOL     OW27769   0.404   2.722   2.476 -0.0387 -0.4471 -0.4190
 5436SOL    HW127770   0.418   2.709   2.570 -1.4606  1.6340  0.0634
 5436SOL    HW227771   0.312   2.709   2.453  0.0032  2.1066 -2.0505
 5437SOL     OW27772   0.661   2.060  16.171  0.0183 -0.1274  0.3495
 5437SOL    HW127773   0.659   2.071  16.266 -0.5432  0.3110  0.2901
 5437SOL    HW227774   0.577   2.019  16.150  0.9493 -1.3444 -1.0905
 5438SOL     OW27775   2.329   4.076   7.060  0.1096 -0.0993  0.1119
 5438SOL    HW127776   2.312   4.038   6.973  0.4017  1.3098 -0.5742
 5438SOL    HW227777   2.421   4.103   7.055  0.4402 -1.3446 -0.4071
 5439SOL     OW27778   1.576   4.073   6.557  0.1673 -0.1972  0.8347
 5439SOL    HW127779   1.662   4.046   6.524 -0.5757  0.5055 -1.7613
 5439SOL    HW227780   1.579   4.165   6.528 -1.6431  0.5498  3.0922
 5440SOL     OW27781   1.678   0.013  13.652 -0.2991  0.4776 -0.1936
 5440SOL    HW127782   1.699   4.654  13.610 -0.9189  0.0711  0.3001
 5440SOL    HW227783   1.678   4.708  13.743 -0.6929 -0.9884 -0.6628
 5441SOL     OW27784   2.109   1.865   7.107  0.4856  0.7166  0.4279
 5441SOL    HW127785   2.139   1.828   7.024  0.6378  2.8810 -0.4833
 5441SOL    HW227786   2.043   1.928   7.077  1.3407  0.6687 -1.6069
 5442SOL     OW27787   4.088   4.490  14.317  0.3249 -0.2272 -0.1581
 5442SOL    HW127788   4.005   4.539  14.314 -0.2346 -1.0824  1.7733
 5442SOL    HW227789   4.060   4.428  14.384 -1.1285 -1.2663 -1.7224
 5443SOL     OW27790   0.492   3.144  14.859  0.0503  0.1582  0.4845
 5443SOL    HW127791   0.465   3.053  14.845 -0.7083  0.2165  1.5363
 5443SOL    HW227792   0.516   3.176  14.772 -1.8480 -0.0141 -0.1110
 5444SOL     OW27793   2.047   3.040   9.479  0.1957 -0.3468 -0.3513
 5444SOL    HW127794   2.001   3.116   9.444  0.0949 -0.4889 -0.5264
 5444SOL    HW227795   2.137   3.072   9.485 -0.2590  0.4334  2.6468
 5445SOL     OW27796   4.625   2.248   8.783  0.4131  0.5880  0.0670
 5445SOL    HW127797   4.661   2.279   8.866  0.9117  2.9419 -1.0294
 5445SOL    HW227798   4.562   2.316   8.762 -0.2543  0.3860  1.4342
 5446SOL     OW27799   4.535   1.222  12.360 -0.4526  0.3211  0.2987
 5446SOL    HW127800   4.616   1.269  12.339  0.7709 -1.1711  1.6816
 5446SOL    HW227801   4.554   1.131  12.337  1.7687  0.6991  0.6050
 5447SOL     OW27802   2.351   1.100  16.920 -0.0632  0.3960  0.3120
 5447SOL    HW127803   2.391   1.159  16.856 -1.6396  1.5545  0.3895
 5447SOL    HW227804   2.389   1.141  16.998 -1.1702 -1.7960  1.9871
 5448SOL     OW27805   1.403   2.436  15.479  0.5555  0.5320 -0.3963
 5448SOL    HW127806   1.363   2.429  15.392  0.2969  0.8179 -0.3013
 5448SOL    HW227807   1.412   2.343  15.499  0.9236  0.6448 -0.0493
 5449SOL     OW27808   2.779   3.205   2.053  0.3438 -0.1436  0.3788
 5449SOL    HW127809   2.738   3.286   2.082  0.2476  0.1603 -0.6183
 5449SOL    HW227810   2.735   3.193   1.969 -1.8571 -2.5226  1.8407
 5450SOL     OW27811   4.599   3.150  13.009  0.1724  0.2862  0.2699
 5450SOL    HW127812   4.587   3.158  13.104  2.2020 -1.0576  0.6525
 5450SOL    HW227813   4.655   3.225  12.988 -0.2369  0.8500  1.1865
 5451SOL     OW27814   0.580   0.023   5.742 -0.8073 -0.4587  0.5343
 5451SOL    HW127815   0.509   0.076   5.704 -0.7105 -0.3365  0.5227
 5451SOL    HW227816   0.577   0.063   5.829 -1.1871  1.6948 -0.4582
 5452SOL     OW27817   1.610   0.997  12.786 -0.8003 -0.3976  0.3201
 5452SOL    HW127818   1.605   0.938  12.711  2.0435 -0.4623  0.1555
 5452SOL    HW227819   1.673   0.955  12.845 -0.1742  0.4515  0.2636
 5453SOL     OW27820   4.473   2.982  12.139 -0.1568  0.3906  0.0263
 5453SOL    HW127821   4.499   3.074  12.140  1.6161 -0.1060  1.1284
 5453SOL    HW227822   4.541   2.952  12.078 -1.9305  0.9612 -2.2139
 5454SOL     OW27823   1.931   0.611  17.375  0.0740 -0.3364 -0.2249
 5454SOL    HW127824   1.974   0.597  17.460  1.9045  1.9987 -0.7628
 5454SOL    HW227825   1.920   0.523  17.338  1.1724  0.2504 -1.9408
 5455SOL     OW27826   3.726   4.588   6.501 -0.2856 -0.0832  0.0481
 5455SOL    HW127827   3.631   4.591   6.508 -0.2243  0.3409  0.7490
 5455SOL    HW227828   3.760   4.600   6.590 -0.1150 -1.0334  0.1115
 5456SOL     OW27829   3.861   1.421   9.109 -0.6122 -0.1673 -0.4577
 5456SOL    HW127830   3.931   1.453   9.165 -1.0901 -0.7283  0.4553
 5456SOL    HW227831   3.845   1.502   9.061 -0.8139  1.0909  1.7713
 5457SOL     OW27832   1.608   0.332   4.813 -0.4889 -0.0809 -0.1114
 5457SOL    HW127833   1.669   0.349   4.885  0.1376 -3.6667  0.1984
 5457SOL    HW227834   1.571   0.421   4.813  0.9435  0.5176 -0.9972
 5458SOL     OW27835   2.070   3.825   2.941 -0.0096  0.3375 -0.1080
 5458SOL    HW127836   2.103   3.735   2.939  2.1291  1.1279 -0.5549
 5458SOL    HW227837   2.029   3.840   2.855  0.7076 -1.4663 -0.7672
 5459SOL     OW27838   1.763   4.618   2.663  0.7675 -0.4657  0.0967
 5459SOL    HW127839   1.756   4.523   2.675 -0.4354 -0.1090  2.0803
 5459SOL    HW227840   1.675   4.653   2.674  1.5786  1.1137  1.5472
 5460SOL     OW27841   0.229   3.809   2.677 -0.0154  0.5751 -0.0876
 5460SOL    HW127842   0.209   3.844   2.764 -0.2425  1.3567 -0.4621
 5460SOL    HW227843   0.289   3.876   2.645 -1.0934  1.1061 -0.9799
 5461SOL     OW27844   0.527   2.385   3.232 -0.0589 -0.6492  0.4396
 5461SOL    HW127845   0.565   2.449   3.292  1.6452 -1.5595  0.3281
 5461SOL    HW227846   0.564   2.406   3.146 -1.1468  1.1295  0.4285
 5462SOL     OW27847   1.354   4.332   3.605 -0.4040 -0.2472 -0.0468
 5462SOL    HW127848   1.294   4.406   3.599  1.5546  1.2894 -0.6502
 5462SOL    HW227849   1.343   4.283   3.523  1.7181 -1.0060  0.1126
 5463SOL     OW27850   2.879   3.225   6.409 -0.0728 -0.2161  0.3055
 5463SOL    HW127851   2.892   3.180   6.326  0.2005  2.1379 -0.9085
 5463SOL    HW227852   2.856   3.315   6.387 -0.8138 -0.7572 -1.1369
 5464SOL     OW27853   4.077   0.278   5.599  0.4276  0.7935 -0.3047
 5464SOL    HW127854   4.133   0.342   5.643  0.7559  0.1120  0.2665
 5464SOL    HW227855   4.032   0.337   5.539  0.2076  0.6873 -0.2401
 5465SOL     OW27856   0.667   1.592   3.395  0.6005 -0.6829 -0.0874
 5465SOL    HW127857   0.612   1.533   3.343 -1.7498  2.2663 -0.9315
 5465SOL    HW227858   0.616   1.671   3.377  2.6507  0.4149 -1.0875
 5466SOL     OW27859   0.186   4.663  16.613 -0.3055  0.1374 -0.2119
 5466SOL    HW127860   0.214   4.585  16.565 -2.8529  0.1442 -1.7520
 5466SOL    HW227861   0.265   4.711  16.635  0.1509  0.2872 -2.1504
 5467SOL     OW27862   2.937   1.408  11.812 -0.0574  0.3006 -0.1332
 5467SOL    HW127863   2.976   1.322  11.799 -1.8441 -0.7876  1.7451
 5467SOL    HW227864   2.995   1.450  11.749 -1.9093 -0.1169 -2.1357
 5468SOL     OW27865   3.910   2.263   4.280  0.2506 -0.2131 -0.4397
 5468SOL    HW127866   3.839   2.313   4.322 -0.1019 -1.4487  0.4220
 5468SOL    HW227867   3.915   2.192   4.344 -0.1748 -1.3505 -1.6727
 5469SOL     OW27868   1.948   3.844   8.525  0.4029 -0.4853 -0.1384
 5469SOL    HW127869   1.869   3.793   8.540 -0.3470  1.3211  2.1318
 5469SOL    HW227870   2.017   3.792   8.567 -0.4266 -0.0579  1.7580
 5470SOL     OW27871   3.804   2.907   3.502  0.1000 -0.0507  0.0300
 5470SOL    HW127872   3.804   2.991   3.455 -1.2174 -0.5730 -0.8854
 5470SOL    HW227873   3.710   2.890   3.508 -0.5677  2.7092 -2.7454
 5471SOL     OW27874   4.043   3.634   6.413  0.4892  0.3534 -0.0016
 5471SOL    HW127875   3.996   3.558   6.377  1.8682  0.2271 -1.5384
 5471SOL    HW227876   3.982   3.655   6.483 -1.0575 -2.4555 -0.5015
 5472SOL     OW27877   2.746   0.558  11.440  0.1309  0.3015  0.0819
 5472SOL    HW127878   2.688   0.498  11.487  0.3049 -1.7978 -2.3959
 5472SOL    HW227879   2.751   0.627  11.505  1.4275 -1.0113  1.3641
 5473SOL     OW27880   2.123   3.543   7.135 -0.2389  0.6855  0.2557
 5473SOL    HW127881   2.198   3.602   7.122  0.3894 -0.5283 -1.6010
 5473SOL    HW227882   2.115   3.510   7.046  0.5530 -0.3118  0.5596
 5474SOL     OW27883   2.579   3.542  17.106  0.2250  0.4434  0.8740
 5474SOL    HW127884   2.490   3.527  17.073  1.4324 -0.8083 -1.7690
 5474SOL    HW227885   2.560   3.532  17.200 -0.0837  1.3546  0.9103
 5475SOL     OW27886   0.117   0.427   8.629 -0.7211 -0.4950 -0.1585
 5475SOL    HW127887   0.129   0.521   8.610  2.4628 -1.1288 -1.3198
 5475SOL    HW227888   0.036   0.437   8.679 -0.3917  1.7746 -0.0731
 5476SOL     OW27889   4.094   1.828   3.886 -0.4827 -0.1412  0.9404
 5476SOL    HW127890   4.107   1.796   3.797  1.4337  0.3932  1.0230
 5476SOL    HW227891   4.012   1.876   3.879 -0.1851  0.2643  0.2370
 5477SOL     OW27892   3.439   4.266   1.940  0.5330  0.3115 -0.3159
 5477SOL    HW127893   3.460   4.262   1.847 -0.3919  1.4718 -0.5660
 5477SOL    HW227894   3.503   4.328   1.975  2.0549 -1.2288 -0.3412
 5478SOL     OW27895   3.950   4.650   9.925 -0.4534  0.0494 -0.0599
 5478SOL    HW127896   3.993   0.004   9.890  0.0858 -0.4209 -0.4499
 5478SOL    HW227897   3.894   4.613   9.857  0.5029  0.1226 -0.8742
 5479SOL     OW27898   2.322   3.047  12.579  0.5011  0.6089 -0.0783
 5479SOL    HW127899   2.341   2.981  12.646  1.8896  0.0674 -1.0146
 5479SOL    HW227900   2.326   3.129  12.630 -2.2129  0.6091  0.1789
 5480SOL     OW27901   4.404   3.622   3.097 -0.3738 -0.1024  0.1746
 5480SOL    HW127902   4.443   3.559   3.159 -2.1262 -0.9740  0.3752
 5480SOL    HW227903   4.387   3.689   3.162  0.5319  0.2529  0.0544
 5481SOL     OW27904   0.947   3.396  10.124  0.0740  0.2130 -0.4803
 5481SOL    HW127905   0.938   3.338  10.048 -0.8312 -0.4506  0.1200
 5481SOL    HW227906   1.038   3.425  10.116  0.7207 -0.8303  2.8020
 5482SOL     OW27907   4.107   1.427   7.436 -0.5275 -0.1166 -0.4133
 5482SOL    HW127908   4.046   1.355   7.456 -0.9464 -0.0935 -1.6011
 5482SOL    HW227909   4.162   1.374   7.378  0.2885  0.0571  0.2088
 5483SOL     OW27910   4.272   0.711   6.842 -0.3463 -0.1967 -0.5478
 5483SOL    HW127911   4.278   0.617   6.826  1.7896 -0.5192  2.2429
 5483SOL    HW227912   4.200   0.712   6.905  0.8124  0.0294  0.7720
 5484SOL     OW27913   0.632   0.196   4.802  0.0821  0.4780  0.3929
 5484SOL    HW127914   0.649   0.109   4.839  0.0927 -0.7564 -2.4314
 5484SOL    HW227915   0.594   0.241   4.877  0.1832  0.9263  0.1729
 5485SOL     OW27916   3.606   3.792   0.722  0.6363 -0.4357  0.5558
 5485SOL    HW127917   3.682   3.822   0.772  0.2732 -0.3649  1.0632
 5485SOL    HW227918   3.557   3.737   0.783 -1.2997 -0.3903 -0.9544
 5486SOL     OW27919   0.953   2.086   9.908 -0.4297 -0.2238 -0.0821
 5486SOL    HW127920   0.877   2.132   9.873 -1.5870 -1.1545  1.1964
 5486SOL    HW227921   0.968   2.014   9.846 -0.6898 -1.3996  1.2076
 5487SOL     OW27922   2.970   2.061  13.218 -0.2135 -0.0117  0.0503
 5487SOL    HW127923   2.918   1.985  13.246 -1.2940  0.7601  0.1468
 5487SOL    HW227924   3.048   2.053  13.273  1.2357  0.5460 -1.9038
 5488SOL     OW27925   1.297   3.721  12.329 -0.2542  0.3664 -0.2919
 5488SOL    HW127926   1.225   3.722  12.266  0.7614 -1.6091 -1.4881
 5488SOL    HW227927   1.371   3.716  12.269  1.2307 -0.4871  1.6118
 5489SOL     OW27928   2.465   3.149   0.354  0.0384 -0.5583 -0.1861
 5489SOL    HW127929   2.484   3.235   0.317  1.2213 -0.5322  0.4695
 5489SOL    HW227930   2.528   3.097   0.305  0.0051  0.9241 -1.7974
 5490SOL     OW27931   0.415   2.199  11.805  0.0453 -0.1653 -0.3805
 5490SOL    HW127932   0.351   2.199  11.877 -0.4829  1.6434 -0.8741
 5490SOL    HW227933   0.475   2.271  11.824 -0.6632  0.3543 -0.1323
 5491SOL     OW27934   1.704   3.757   6.651 -0.1869  0.3018 -0.3307
 5491SOL    HW127935   1.655   3.700   6.592  0.5178 -1.5143  0.8326
 5491SOL    HW227936   1.631   3.768   6.712  0.1406  0.8322 -0.0345
 5492SOL     OW27937   2.574   0.014   7.728 -0.1908 -0.0344  0.4073
 5492SOL    HW127938   2.570   4.682   7.806 -0.0902 -0.9870 -0.2682
 5492SOL    HW227939   2.534   4.680   7.664  0.5990  1.2898 -1.3036
 5493SOL     OW27940   2.304   2.655   8.154  0.1631  0.0377 -0.2066
 5493SOL    HW127941   2.258   2.706   8.087 -0.9638  1.9236  2.0097
 5493SOL    HW227942   2.323   2.571   8.112 -0.5662 -0.1164 -0.2304
 5494SOL     OW27943   3.105   3.301   5.974 -0.5508  0.7790  0.0217
 5494SOL    HW127944   3.107   3.387   6.017 -0.9877  0.4896  0.6140
 5494SOL    HW227945   3.046   3.316   5.900 -1.3791  0.8596  0.7050
 5495SOL     OW27946   0.634   4.646   2.698 -0.0695 -0.2396  0.0510
 5495SOL    HW127947   0.639   4.586   2.623  2.1033 -1.6277  1.2929
 5495SOL    HW227948   0.719   4.618   2.733  0.0731  0.4102  0.2300
 5496SOL     OW27949   1.926   2.062  10.091 -0.2351  0.1897  0.3913
 5496SOL    HW127950   1.869   2.126  10.133  0.2059  1.3426 -0.7774
 5496SOL    HW227951   1.893   1.978  10.122 -0.7664  0.9592  1.8681
 5497SOL     OW27952   0.935   3.265   4.019  0.2707 -0.3058 -0.3349
 5497SOL    HW127953   0.937   3.226   3.931 -1.2209 -1.3526  0.1005
 5497SOL    HW227954   0.949   3.358   4.002  0.0925 -0.3199 -0.5595
 5498SOL     OW27955   2.178   3.922  17.339  0.1802 -0.1647 -0.3976
 5498SOL    HW127956   2.134   3.857  17.284  1.3462 -0.4210 -1.0129
 5498SOL    HW227957   2.107   3.956  17.394  0.9309  1.1886 -0.2783
 5499SOL     OW27958   3.254   2.994   6.386 -0.3681  0.0087  0.1998
 5499SOL    HW127959   3.282   3.048   6.313 -0.0719 -0.5758 -0.1135
 5499SOL    HW227960   3.204   3.057   6.438  0.1140  0.0093  0.6587
 5500SOL     OW27961   1.998   2.174  11.741  0.3023  0.1809 -0.1680
 5500SOL    HW127962   2.003   2.129  11.657 -0.7767 -0.0490 -0.1121
 5500SOL    HW227963   1.985   2.103  11.804  0.4010  0.6837  0.4173
 5501SOL     OW27964   4.385   2.713  12.987  0.1394  0.3409 -0.3907
 5501SOL    HW127965   4.353   2.678  12.904  3.8050 -1.0980 -1.1744
 5501SOL    HW227966   4.454   2.772  12.957 -0.7324  0.6783 -1.7657
 5502SOL     OW27967   1.334   4.242   4.329  0.0862  0.0417  0.2876
 5502SOL    HW127968   1.394   4.300   4.281 -0.6492 -0.8046 -1.6675
 5502SOL    HW227969   1.245   4.274   4.313 -0.7660 -3.4533 -2.0475
 5503SOL     OW27970   2.935   4.275   7.083  0.2289 -0.6441 -0.4419
 5503SOL    HW127971   2.959   4.367   7.084 -1.5782 -0.1670 -2.1343
 5503SOL    HW227972   2.923   4.259   7.176  0.7196 -0.7318 -0.3894
 5504SOL     OW27973   2.641   2.727   7.096 -0.3094 -0.9778 -0.2954
 5504SOL    HW127974   2.618   2.765   7.180 -0.1156  0.4933 -0.9049
 5504SOL    HW227975   2.718   2.675   7.120 -0.6754 -1.9727 -1.2484
 5505SOL     OW27976   2.853   1.752   2.217  0.2252  0.0375 -0.1364
 5505SOL    HW127977   2.770   1.709   2.196 -1.1709  2.8308 -0.3435
 5505SOL    HW227978   2.841   1.737   2.311 -1.3891  1.0085 -0.1819
 5506SOL     OW27979   3.672   1.022   1.990  0.1566  0.1150 -0.1943
 5506SOL    HW127980   3.727   1.099   2.005  1.5068 -0.5634 -1.7490
 5506SOL    HW227981   3.602   1.030   2.055  0.4602 -0.9565  0.2683
 5507SOL     OW27982   2.351   0.990   8.284 -0.1738 -0.1763 -0.1654
 5507SOL    HW127983   2.331   1.056   8.217 -0.5543  0.5286  0.6434
 5507SOL    HW227984   2.310   1.027   8.362 -0.6182 -0.4044 -0.2870
 5508SOL     OW27985   0.275   1.478  12.684  0.1828 -0.9859  0.1599
 5508SOL    HW127986   0.212   1.413  12.653 -1.9098 -0.2093  2.7403
 5508SOL    HW227987   0.238   1.562  12.656 -0.4212 -1.3426 -0.1258
 5509SOL     OW27988   3.151   3.553   4.512  0.1101 -0.0528 -0.3937
 5509SOL    HW127989   3.143   3.494   4.437 -0.1333 -1.1105  0.4545
 5509SOL    HW227990   3.151   3.640   4.473  0.8863  0.1060 -0.0393
 5510SOL     OW27991   4.487   1.363   8.690 -0.4650  0.2392  0.1313
 5510SOL    HW127992   4.494   1.272   8.718  2.4064  0.2172 -0.6697
 5510SOL    HW227993   4.515   1.403   8.773 -4.2426  0.6505  1.2065
 5511SOL     OW27994   3.950   4.690   6.953 -0.5632  0.0174  0.1871
 5511SOL    HW127995   3.948   4.603   6.992 -2.7385  0.1855  0.4270
 5511SOL    HW227996   3.863   4.719   6.979 -0.0559  0.9072  0.9053
 5512SOL     OW27997   2.106   1.992  11.027  0.0660  0.1444 -0.1581
 5512SOL    HW127998   2.183   1.945  11.058 -0.9580 -1.2587  0.2867
 5512SOL    HW227999   2.101   1.969  10.935  0.5845  0.4459 -0.2601
 5513SOL     OW28000   0.151   3.277   5.998 -0.3059  0.0309 -1.3336
 5513SOL    HW128001   0.079   3.248   5.942 -0.0397 -1.4061 -0.9451
 5513SOL    HW228002   0.161   3.369   5.976 -0.0102  0.5124  0.8036
 5514SOL     OW28003   3.494   4.093   6.582  0.8287 -0.0125 -0.1015
 5514SOL    HW128004   3.408   4.059   6.560 -0.1680  1.6188  1.2405
 5514SOL    HW228005   3.469   4.183   6.603  1.4447  0.0623  0.3012
 5515SOL     OW28006   1.723   0.168   8.242  0.1070  0.3925  0.3152
 5515SOL    HW128007   1.736   0.236   8.176  2.3691 -0.5631 -0.1972
 5515SOL    HW228008   1.630   0.150   8.227 -0.2044  1.5778  0.7968
 5516SOL     OW28009   0.891   3.034  15.604  0.2430  0.3714  0.6328
 5516SOL    HW128010   0.865   3.073  15.521  0.9429 -2.0985 -0.7237
 5516SOL    HW228011   0.984   3.043  15.585  0.4776  1.6885  2.4085
 5517SOL     OW28012   0.239   1.351  17.140 -0.1680  0.2041  0.3683
 5517SOL    HW128013   0.182   1.411  17.092  0.0664  0.2522  0.1488
 5517SOL    HW228014   0.303   1.413  17.175  0.6507 -0.0411 -0.7064
 5518SOL     OW28015   3.796   0.956   6.739  0.1638  0.1843  0.3486
 5518SOL    HW128016   3.802   1.052   6.736  2.2955 -0.0050 -1.0101
 5518SOL    HW228017   3.706   0.933   6.716  0.2064  1.5332 -1.1771
 5519SOL     OW28018   0.189   1.543   3.333 -0.4910 -0.2160 -0.0277
 5519SOL    HW128019   0.276   1.563   3.368 -1.1937  0.4915  1.3124
 5519SOL    HW228020   0.200   1.557   3.239 -0.9376 -2.0107 -0.3473
 5520SOL     OW28021   1.602   4.674   1.906 -0.1340 -0.0829  0.4520
 5520SOL    HW128022   1.529   4.673   1.844  1.9125  1.1044 -1.9519
 5520SOL    HW228023   1.627   0.041   1.903  0.6420 -0.3315 -0.5177
 5521SOL     OW28024   0.776   3.360  10.767  0.0148  0.2611 -0.7846
 5521SOL    HW128025   0.853   3.417  10.761 -0.0181  0.2886 -0.9581
 5521SOL    HW228026   0.780   3.333  10.676 -2.0626  1.4906 -1.2363
 5522SOL     OW28027   0.521   3.941   4.370  0.0201  0.4316  0.1923
 5522SOL    HW128028   0.452   3.940   4.437 -0.5743  1.2985 -0.4238
 5522SOL    HW228029   0.530   4.035   4.360 -1.8665  0.4267 -1.6101
 5523SOL     OW28030   1.098   3.265   7.505 -0.2635 -0.1453  0.1540
 5523SOL    HW128031   1.159   3.265   7.579  0.0540 -1.0707 -0.1089
 5523SOL    HW228032   1.073   3.356   7.517 -1.5763 -0.6008  0.8219
 5524SOL     OW28033   1.964   3.032   4.804  0.1801  0.0170  0.1915
 5524SOL    HW128034   1.904   3.053   4.732  0.1243 -0.4127  0.1124
 5524SOL    HW228035   2.046   3.058   4.762 -0.5154  2.6794  0.4697
 5525SOL     OW28036   1.440   0.277   5.647  0.3720 -0.0680  0.0643
 5525SOL    HW128037   1.364   0.312   5.695  0.8532  0.9121  0.1152
 5525SOL    HW228038   1.511   0.297   5.709  1.2465 -1.7225 -0.4096
 5526SOL     OW28039   1.417   2.178  12.475  0.4609 -0.0161 -0.1270
 5526SOL    HW128040   1.423   2.270  12.449 -0.7600  0.0101 -0.2805
 5526SOL    HW228041   1.447   2.185  12.566 -1.1878  0.8221  0.3568
 5527SOL     OW28042   2.968   1.148   4.048  0.0726  0.1441  0.0862
 5527SOL    HW128043   2.913   1.133   3.971  0.5766 -1.2872  0.0086
 5527SOL    HW228044   2.990   1.059   4.074  1.1504  0.2265 -0.5659
 5528SOL     OW28045   1.157   3.564  10.049 -0.1032 -0.1002  0.7448
 5528SOL    HW128046   1.082   3.623  10.056  0.0056 -0.1204  2.0777
 5528SOL    HW228047   1.200   3.583  10.133  0.6709 -0.7005  0.4763
 5529SOL     OW28048   4.067   4.482   3.932 -0.8087 -0.3971  0.1201
 5529SOL    HW128049   4.065   4.416   3.862  0.9698 -0.6776  0.3360
 5529SOL    HW228050   4.104   4.556   3.884 -2.0586  1.1134  1.4958
 5530SOL     OW28051   4.294   2.487  16.893 -0.4710  0.9410 -0.0933
 5530SOL    HW128052   4.362   2.433  16.933 -0.6765  0.9337  0.2544
 5530SOL    HW228053   4.259   2.539  16.965 -1.4196  0.4829 -0.2122
 5531SOL     OW28054   3.066   0.770   3.039  0.4158  0.3122 -0.1342
 5531SOL    HW128055   3.052   0.839   2.974 -1.1646 -1.5683 -1.8299
 5531SOL    HW228056   2.977   0.760   3.072  0.3749  0.0181 -0.3255
 5532SOL     OW28057   0.905   0.721   1.340 -0.1787  0.0477  0.0350
 5532SOL    HW128058   0.924   0.632   1.308  0.1954  0.2173 -0.2179
 5532SOL    HW228059   0.823   0.707   1.386  1.1186 -3.4165  1.3239
 5533SOL     OW28060   2.021   3.749   9.560  0.8659 -0.0869  0.3263
 5533SOL    HW128061   1.935   3.739   9.601  0.4846  1.1085 -0.1843
 5533SOL    HW228062   2.018   3.673   9.502  2.4588  0.0786  0.0390
 5534SOL     OW28063   1.196   2.865   5.298  0.2659 -0.8946 -0.0803
 5534SOL    HW128064   1.195   2.854   5.203 -1.8045  0.7337 -0.2520
 5534SOL    HW228065   1.109   2.905   5.300  0.9205  0.3869  2.1088
 5535SOL     OW28066   3.346   4.428   6.347 -0.0992 -0.6209 -1.1064
 5535SOL    HW128067   3.304   4.346   6.320  1.1775 -1.0243 -1.9042
 5535SOL    HW228068   3.310   4.488   6.282  0.1690  0.6124 -0.1077
 5536SOL     OW28069   3.797   0.206   5.092 -0.5808  0.2459 -0.3827
 5536SOL    HW128070   3.816   0.120   5.130 -2.2107  0.0874  0.0979
 5536SOL    HW228071   3.869   0.219   5.031 -0.3248 -1.1463 -0.3893
 5537SOL     OW28072   0.733   1.454   4.835 -0.1504  0.1182  0.3162
 5537SOL    HW128073   0.641   1.473   4.854 -0.3407 -1.3959  0.8701
 5537SOL    HW228074   0.739   1.369   4.879 -1.7620  0.9060  2.0545
 5538SOL     OW28075   3.814   4.309  13.586  0.2940  0.0989 -0.6872
 5538SOL    HW128076   3.852   4.393  13.558  0.8245  0.6351  1.6940
 5538SOL    HW228077   3.834   4.317  13.679 -1.1217  1.8719 -0.5498
 5539SOL     OW28078   2.704   1.375   3.181 -0.0060  0.2846  0.5227
 5539SOL    HW128079   2.640   1.424   3.232  0.5186  0.6710  0.8052
 5539SOL    HW228080   2.698   1.419   3.096  2.0930 -1.3344 -0.4594
 5540SOL     OW28081   3.240   3.905   3.317  0.5576  0.2399 -0.4491
 5540SOL    HW128082   3.218   3.933   3.406 -0.9499  0.0906 -0.7644
 5540SOL    HW228083   3.284   3.823   3.340 -1.0624 -0.5134 -0.0298
 5541SOL     OW28084   3.852   2.548   4.899 -0.5505 -0.3184  0.1758
 5541SOL    HW128085   3.929   2.519   4.850  0.4252  2.9633 -0.2143
 5541SOL    HW228086   3.825   2.619   4.841 -4.1116  0.0703  2.2687
 5542SOL     OW28087   3.770   2.023  15.324  0.0257 -0.6319 -0.4416
 5542SOL    HW128088   3.773   2.114  15.294 -2.3712 -0.1273  0.8582
 5542SOL    HW228089   3.852   1.995  15.283 -0.0268  0.7855 -1.5051
 5543SOL     OW28090   3.177   0.760  10.083 -0.3645  0.6318 -0.1008
 5543SOL    HW128091   3.171   0.845  10.041  0.4028 -0.9944 -3.4786
 5543SOL    HW228092   3.265   0.743  10.049 -0.5980  2.6902 -1.6981
 5544SOL     OW28093   0.637   3.496   7.109  0.8717 -0.0262  0.1591
 5544SOL    HW128094   0.598   3.426   7.163 -0.2947 -1.2051 -2.2006
 5544SOL    HW228095   0.606   3.563   7.170 -4.4218 -1.0012 -1.3899
 5545SOL     OW28096   4.684   0.323   0.091 -0.3900  0.5879 -0.7149
 5545SOL    HW128097   4.638   0.240   0.078 -1.5981  1.4800 -2.0334
 5545SOL    HW228098   4.690   0.362   0.004  0.3005  3.7184  0.7343
 5546SOL     OW28099   0.261   0.572   8.976  0.2940 -0.1620 -0.3853
 5546SOL    HW128100   0.297   0.640   9.033  1.7189 -0.2479 -1.1790
 5546SOL    HW228101   0.209   0.516   9.033  1.5500 -0.1608  0.7687
 5547SOL     OW28102   1.748   3.364   7.443 -0.1521 -0.0135 -0.0119
 5547SOL    HW128103   1.700   3.282   7.447  1.7839 -1.2024 -1.0076
 5547SOL    HW228104   1.836   3.333   7.421  1.2049  1.6683  3.0464
 5548SOL     OW28105   1.526   0.569   8.213 -0.1576  0.2095  0.2684
 5548SOL    HW128106   1.464   0.619   8.267  0.4621  1.4117 -0.1421
 5548SOL    HW228107   1.479   0.555   8.131 -0.5073  0.8348  0.3598
 5549SOL     OW28108   1.492   2.370   1.439  1.3364  0.2262  0.3328
 5549SOL    HW128109   1.586   2.368   1.456  1.2423 -0.4031  0.7720
 5549SOL    HW228110   1.496   2.368   1.343 -2.0421  1.6432  0.1365
 5550SOL     OW28111   3.463   0.988  14.699 -0.1810  0.3032  0.1682
 5550SOL    HW128112   3.439   0.955  14.786 -1.8462 -1.9470 -1.1406
 5550SOL    HW228113   3.455   0.902  14.660  1.8835 -0.3315  1.0925
 5551SOL     OW28114   2.311   4.011  12.711 -0.3945  0.4645 -0.2611
 5551SOL    HW128115   2.400   4.013  12.674  0.7227  1.7654  2.4508
 5551SOL    HW228116   2.266   4.092  12.688 -2.8628 -1.5120 -2.4326
 5552SOL     OW28117   0.533   2.672  11.881 -0.4461 -0.1490  0.3409
 5552SOL    HW128118   0.617   2.718  11.882 -0.1684 -0.6561 -0.5571
 5552SOL    HW228119   0.508   2.679  11.973 -2.6468 -2.2531 -0.1227
 5553SOL     OW28120   3.642   2.664  10.996  0.6622  0.7465 -0.4899
 5553SOL    HW128121   3.636   2.653  11.091 -0.7838  1.1001 -0.5426
 5553SOL    HW228122   3.700   2.740  10.996  1.9529 -0.2629 -3.1665
 5554SOL     OW28123   3.675   3.890   2.984 -0.2516  0.2009  0.2396
 5554SOL    HW128124   3.706   3.897   3.074 -3.1146  2.1298  1.0494
 5554SOL    HW228125   3.706   3.970   2.942  1.2858  0.4610  1.8714
 5555SOL     OW28126   1.721   2.086   1.219 -0.4194  0.3647 -0.1404
 5555SOL    HW128127   1.728   2.165   1.274  0.9756  0.9967 -1.2567
 5555SOL    HW228128   1.741   2.019   1.284  1.0338  0.8507 -0.0911
 5556SOL     OW28129   0.757   2.524   5.593  0.0139 -0.5106  0.2535
 5556SOL    HW128130   0.793   2.523   5.682  0.3075 -2.2258  0.1096
 5556SOL    HW228131   0.662   2.522   5.605 -0.1789 -2.4144 -1.6736
 5557SOL     OW28132   0.148   4.208   8.315 -0.1000 -0.3944  0.1716
 5557SOL    HW128133   0.127   4.135   8.257 -0.3607  2.2849 -3.1154
 5557SOL    HW228134   0.087   4.193   8.387  0.4826  0.8203  0.9217
 5558SOL     OW28135   3.419   2.420   6.259 -0.0314  0.1980  0.0003
 5558SOL    HW128136   3.383   2.496   6.305 -0.0378  0.6557 -0.7554
 5558SOL    HW228137   3.493   2.453   6.208  1.3482 -0.5454  1.5248
 5559SOL     OW28138   1.214   2.765   6.320 -0.3940  0.8349 -0.0287
 5559SOL    HW128139   1.224   2.855   6.349 -1.0877  0.7577  0.4488
 5559SOL    HW228140   1.149   2.734   6.384  3.3407  1.1317  3.8691
 5560SOL     OW28141   2.494   3.450   9.676  0.6602  0.1626  0.3180
 5560SOL    HW128142   2.576   3.406   9.699  1.4977  1.4575 -0.1966
 5560SOL    HW228143   2.508   3.540   9.705 -1.3246  1.5167 -2.9695
 5561SOL     OW28144   1.983   2.714   3.802  0.2880  0.2403 -0.0133
 5561SOL    HW128145   1.947   2.711   3.713 -0.5680 -0.2005  0.3366
 5561SOL    HW228146   1.955   2.627   3.833  0.6641 -0.5326 -1.8470
 5562SOL     OW28147   1.269   1.313   6.812  0.0110 -0.2196  0.0302
 5562SOL    HW128148   1.224   1.313   6.728  0.2280 -2.4288 -0.0943
 5562SOL    HW228149   1.239   1.396   6.850 -0.4358 -1.3249  2.1110
 5563SOL     OW28150   4.209   1.645   7.226 -0.3718  0.0679 -0.1391
 5563SOL    HW128151   4.225   1.614   7.315  0.9772  2.7185  0.5358
 5563SOL    HW228152   4.294   1.640   7.182 -0.8496  1.8136 -1.2665
 5564SOL     OW28153   1.664   3.953   4.060 -0.6166 -0.3077  0.7136
 5564SOL    HW128154   1.579   3.949   4.018  0.0000 -1.9516 -0.3733
 5564SOL    HW228155   1.703   4.030   4.018  1.2344 -1.2035  0.7669
 5565SOL     OW28156   2.617   2.091  11.865 -0.0249  0.0227  0.4071
 5565SOL    HW128157   2.577   2.100  11.952 -1.3918  0.7638 -0.2859
 5565SOL    HW228158   2.544   2.121  11.811  0.2985 -0.6538 -0.4081
 5566SOL     OW28159   3.474   0.659   6.061  0.6639  0.5686  0.2108
 5566SOL    HW128160   3.435   0.577   6.091  3.4721 -1.3227 -1.3509
 5566SOL    HW228161   3.503   0.693   6.145  2.2061  0.6962 -0.3819
 5567SOL     OW28162   0.612   4.627   1.434  0.0283  0.2631  0.1408
 5567SOL    HW128163   0.580   4.624   1.343 -1.0346  1.7922  0.4564
 5567SOL    HW228164   0.616   4.534   1.454  1.5372  0.4358  0.6352
 5568SOL     OW28165   0.682   0.412   8.387  0.2563  0.0940  0.1453
 5568SOL    HW128166   0.668   0.326   8.347  0.2506  0.4526 -0.6337
 5568SOL    HW228167   0.621   0.408   8.461  0.7759 -0.4345  0.5412
 5569SOL     OW28168   2.821   1.241   8.728  0.6167 -0.0617  0.4277
 5569SOL    HW128169   2.744   1.235   8.785  1.7065 -3.4698  1.5694
 5569SOL    HW228170   2.815   1.158   8.679  2.5323  0.0729 -0.0287
 5570SOL     OW28171   0.572   1.163   3.770 -0.9361  0.1207 -0.2462
 5570SOL    HW128172   0.520   1.128   3.698  1.6782 -1.2354 -1.4520
 5570SOL    HW228173   0.602   1.247   3.734  0.0460 -0.3526 -0.5145
 5571SOL     OW28174   4.692   1.871   6.157 -0.2891 -0.3901 -0.5364
 5571SOL    HW128175   4.613   1.818   6.166 -0.2298 -0.2955  0.5709
 5571SOL    HW228176   0.003   1.844   6.072  0.1342  0.3615 -0.5928
 5572SOL     OW28177   0.629   0.407  12.360 -0.3790  0.6025 -0.0786
 5572SOL    HW128178   0.691   0.364  12.301 -2.6486 -1.1684 -1.1308
 5572SOL    HW228179   0.694   0.410  12.431  0.9464  0.5779 -1.2911
 5573SOL     OW28180   0.871   4.686  10.888 -0.3735  0.2500 -0.5975
 5573SOL    HW128181   0.820   0.040  10.871  1.2491  1.4410 -0.0343
 5573SOL    HW228182   0.957   0.003  10.902 -0.7763  0.7778  0.3041
 5574SOL     OW28183   1.871   1.940   7.849 -0.3917 -0.1042  0.4467
 5574SOL    HW128184   1.805   1.992   7.803  1.5008  3.4731  1.8114
 5574SOL    HW228185   1.935   1.930   7.779 -0.2467 -0.5424  0.6452
 5575SOL     OW28186   1.253   0.647  10.702  0.7083  0.0842  0.4634
 5575SOL    HW128187   1.262   0.650  10.606 -1.8258  0.2098  0.2267
 5575SOL    HW228188   1.336   0.683  10.733 -0.3682  2.9889 -0.0301
 5576SOL     OW28189   1.887   0.127   2.934  0.1844 -0.0770 -0.0255
 5576SOL    HW128190   1.811   0.148   2.880  1.1228  1.5965 -0.7189
 5576SOL    HW228191   1.954   0.126   2.865  0.4867  0.9217  0.2540
 5577SOL     OW28192   0.920   3.636   5.985  0.3133 -0.2088 -0.4502
 5577SOL    HW128193   0.897   3.716   5.938 -2.1297 -0.0992  0.9087
 5577SOL    HW228194   0.865   3.573   5.939 -0.7864 -0.2356  0.8727
 5578SOL     OW28195   0.645   3.277   4.125  0.2879 -0.0406  0.3195
 5578SOL    HW128196   0.700   3.206   4.093  0.2764 -0.6829  1.7665
 5578SOL    HW228197   0.566   3.263   4.072 -0.3620 -1.8878  1.7830
 5579SOL     OW28198   1.466   3.135  10.554  0.9022 -0.0956  0.4147
 5579SOL    HW128199   1.425   3.189  10.486 -1.1801 -0.8558  1.0758
 5579SOL    HW228200   1.435   3.189  10.627  1.0259  2.0647 -1.1163
 5580SOL     OW28201   3.895   1.796   5.590 -0.4607  0.3140  0.3972
 5580SOL    HW128202   3.822   1.855   5.572 -0.9723 -1.0626 -2.1392
 5580SOL    HW228203   3.934   1.827   5.671  0.4186  1.3072 -0.3935
 5581SOL     OW28204   2.775   0.803   2.141  0.2414 -0.1554  0.3941
 5581SOL    HW128205   2.729   0.831   2.220 -2.1349 -3.7263  0.3099
 5581SOL    HW228206   2.737   0.715   2.136 -0.4900  0.1297  0.9679
 5582SOL     OW28207   3.134   2.575   6.434  0.4326 -0.6374  0.3629
 5582SOL    HW128208   3.083   2.512   6.383 -0.1515 -0.8950  1.2623
 5582SOL    HW228209   3.080   2.652   6.452 -0.9876 -1.6812  0.5911
 5583SOL     OW28210   0.493   4.582  14.675 -0.1375 -0.3560 -0.2092
 5583SOL    HW128211   0.560   4.579  14.607  0.3778 -1.1597  0.3282
 5583SOL    HW228212   0.414   4.606  14.627 -0.0844  1.3837  0.5988
 5584SOL     OW28213   0.128   3.405   5.378 -0.1494  0.6585 -0.3445
 5584SOL    HW128214   0.214   3.447   5.384 -1.0201  2.5968 -1.3777
 5584SOL    HW228215   0.138   3.362   5.293  0.6434  0.5897 -0.2073
 5585SOL     OW28216   3.785   1.943  11.558 -0.0728  0.7202  0.7414
 5585SOL    HW128217   3.797   1.980  11.645 -0.5584  2.0679  0.2326
 5585SOL    HW228218   3.835   1.999  11.499 -0.0539  0.1733  0.2327
 5586SOL     OW28219   0.094   1.712  10.974 -0.1061  0.1668  0.3641
 5586SOL    HW128220   0.111   1.805  10.982 -0.2501  0.3678 -1.8036
 5586SOL    HW228221   0.063   1.703  11.064 -0.7580  0.8437  0.2029
 5587SOL     OW28222   4.011   2.878   9.169  0.1537 -0.3574  0.4403
 5587SOL    HW128223   3.943   2.916   9.226 -0.2644 -1.8741  0.9420
 5587SOL    HW228224   4.091   2.879   9.222 -2.2096 -2.1542  4.0134
 5588SOL     OW28225   1.524   3.498   3.825  0.3755 -0.6190  0.5347
 5588SOL    HW128226   1.568   3.549   3.893 -1.6379 -0.6999  1.8959
 5588SOL    HW228227   1.588   3.438   3.787  1.3619  0.7836 -0.0031
 5589SOL     OW28228   1.302   3.541   4.969 -0.1005  0.0824 -0.2529
 5589SOL    HW128229   1.214   3.569   4.994  0.0029 -0.0655  0.2822
 5589SOL    HW228230   1.286   3.483   4.895 -1.7086 -0.1797  0.3096
 5590SOL     OW28231   3.541   0.670   6.563 -0.0306 -0.0290 -0.6804
 5590SOL    HW128232   3.458   0.627   6.584  0.8811 -1.9048 -0.8393
 5590SOL    HW228233   3.559   0.698   6.653 -0.0586 -0.2610 -0.6007
 5591SOL     OW28234   4.124   3.553   4.984  0.2930 -0.2403 -0.4470
 5591SOL    HW128235   4.169   3.613   5.044 -0.8613  0.1106  0.0488
 5591SOL    HW228236   4.207   3.512   4.958  0.9060  0.3647  0.5485
 5592SOL     OW28237   1.350   2.286   0.422 -0.5748 -0.0727  0.0310
 5592SOL    HW128238   1.430   2.335   0.403 -0.8462  0.3774  0.0572
 5592SOL    HW228239   1.374   2.216   0.483 -1.0130  0.5951  0.9729
 5593SOL     OW28240   1.426   3.313   0.506 -0.2498 -0.1181 -0.6169
 5593SOL    HW128241   1.450   3.238   0.560 -0.7866 -0.1735 -0.4524
 5593SOL    HW228242   1.343   3.342   0.545  2.1469  0.7095  3.8633
 5594SOL     OW28243   3.142   3.482   8.437  0.6914  0.3123 -0.5282
 5594SOL    HW128244   3.150   3.387   8.427 -0.1794  0.0410  1.2406
 5594SOL    HW228245   3.137   3.506   8.530  1.1814 -0.0126 -0.4168
 5595SOL     OW28246   1.344   0.509   8.855 -0.0327 -0.0391 -0.0305
 5595SOL    HW128247   1.272   0.450   8.876  0.4384 -0.3657  0.6678
 5595SOL    HW228248   1.424   0.457   8.866  0.2227  0.5218  0.7525
 5596SOL     OW28249   2.973   1.566   8.283  0.3221  0.7589  0.4657
 5596SOL    HW128250   2.909   1.636   8.298 -2.2894 -1.2940 -0.8612
 5596SOL    HW228251   3.010   1.558   8.370  0.3274 -0.2176  0.3776
 5597SOL     OW28252   1.823   3.232   9.837 -0.6697  0.3008  0.3921
 5597SOL    HW128253   1.736   3.205   9.867 -0.3411 -2.3476 -1.0136
 5597SOL    HW228254   1.873   3.155   9.810  0.5330  1.4713 -0.6981
 5598SOL     OW28255   4.200   4.601  12.841 -0.0734 -0.4249 -0.1114
 5598SOL    HW128256   4.182   4.508  12.856 -1.6175 -0.3524 -1.4904
 5598SOL    HW228257   4.236   4.600  12.752  0.2380  1.7879 -0.0052
 5599SOL     OW28258   3.800   2.245   6.973  0.0783  0.1163  0.1334
 5599SOL    HW128259   3.785   2.319   7.032  1.2911 -0.2265  0.8578
 5599SOL    HW228260   3.719   2.257   6.923 -0.2020  1.6840  0.9802
 5600SOL     OW28261   4.362   3.940  16.827 -0.3290  0.3633  0.4844
 5600SOL    HW128262   4.425   4.011  16.815  0.7579 -0.8392 -0.8729
 5600SOL    HW228263   4.395   3.887  16.899  0.9166  1.6330  0.8476
 5601SOL     OW28264   1.111   0.483  15.911 -0.4262  0.4647 -0.4688
 5601SOL    HW128265   1.168   0.548  15.951 -1.7681  0.2430  1.8887
 5601SOL    HW228266   1.141   0.403  15.955 -3.4734  0.5173  1.7869
 5602SOL     OW28267   1.118   4.178   1.561  0.3416  0.5115  0.0539
 5602SOL    HW128268   1.150   4.090   1.580  3.5312  1.6207 -0.0813
 5602SOL    HW228269   1.191   4.211   1.509  0.2402 -0.5743 -0.7597
 5603SOL     OW28270   2.565   1.914  15.326  0.3575 -0.0959 -0.0012
 5603SOL    HW128271   2.590   1.822  15.322  0.9122  0.1014 -1.0365
 5603SOL    HW228272   2.485   1.909  15.274  0.2371 -2.9480  0.4715
 5604SOL     OW28273   1.029   4.121   5.643  0.5889 -0.2812 -0.2164
 5604SOL    HW128274   1.053   4.041   5.690 -1.3340  0.0390  1.3113
 5604SOL    HW228275   1.075   4.181   5.703 -0.8049  2.1043 -1.5304
 5605SOL     OW28276   1.324   4.224   6.934 -0.5053  0.2714 -0.2669
 5605SOL    HW128277   1.250   4.164   6.947 -0.2560  0.3705  1.5807
 5605SOL    HW228278   1.396   4.163   6.915 -0.1170  0.9441 -0.9399
 5606SOL     OW28279   3.401   3.626   3.818  0.9798 -0.3247 -0.0679
 5606SOL    HW128280   3.362   3.540   3.804 -0.8955  0.2959  1.3945
 5606SOL    HW228281   3.342   3.668   3.881  1.1474 -1.3757  0.7899
 5607SOL     OW28282   2.907   0.750  12.913  0.6805  0.2757 -0.1557
 5607SOL    HW128283   2.957   0.759  12.831  0.5378  3.3069  0.0622
 5607SOL    HW228284   2.875   0.662  12.897 -0.2944  0.6214 -0.0700
 5608SOL     OW28285   0.038   4.224   1.411 -0.5447  0.2165  0.1280
 5608SOL    HW128286   4.707   4.148   1.430  1.6712 -1.5887 -0.5379
 5608SOL    HW228287   0.003   4.264   1.332 -0.2093  1.5289  0.6404
 5609SOL     OW28288   3.108   0.795  15.950 -0.6259  0.4521 -0.0780
 5609SOL    HW128289   3.027   0.744  15.950 -0.6299  0.4863 -3.2350
 5609SOL    HW228290   3.080   0.882  15.923 -0.9471  1.6514  4.0757
 5610SOL     OW28291   4.647   4.158   6.025  0.1078  0.3634  0.7319
 5610SOL    HW128292   0.006   4.205   6.032  0.1630 -0.3350  4.4927
 5610SOL    HW228293   4.647   4.136   5.932 -1.0381  0.0916  0.7959
 5611SOL     OW28294   0.812   4.141   0.160 -0.5391  0.1251 -1.0641
 5611SOL    HW128295   0.738   4.167   0.105  0.8771  1.7516 -2.1942
 5611SOL    HW228296   0.768   4.091   0.229  1.2194  0.7568  0.5396
 5612SOL     OW28297   1.874   3.409   3.324  0.2004  0.4332  0.2523
 5612SOL    HW128298   1.778   3.413   3.327  0.1741  2.8881 -3.3375
 5612SOL    HW228299   1.894   3.317   3.306  2.3546  1.4145 -2.2682
 5613SOL     OW28300   0.701   1.404   2.559 -0.0964 -0.1860 -0.0730
 5613SOL    HW128301   0.768   1.456   2.603  0.9909 -1.4224 -0.2710
 5613SOL    HW228302   0.742   1.318   2.547  0.5920  0.1868 -0.3923
 5614SOL     OW28303   4.024   2.184   6.862  0.2545  0.3457 -0.2653
 5614SOL    HW128304   4.008   2.117   6.795 -2.3857 -0.4347  1.1749
 5614SOL    HW228305   3.937   2.198   6.898  0.7441  1.7254  0.3597
 5615SOL     OW28306   0.084   4.302  13.126  0.2700  0.1773 -0.8151
 5615SOL    HW128307   0.095   4.220  13.077  0.7451  0.2988 -0.9154
 5615SOL    HW228308   0.175   4.308  13.154  0.1548 -1.0996 -0.1397
 5616SOL     OW28309   0.492   0.122   2.593  0.3076 -0.5285  0.0249
 5616SOL    HW128310   0.556   0.058   2.622  0.9080 -0.1267 -0.4399
 5616SOL    HW228311   0.420   0.071   2.557 -1.5171  1.7287  0.4169
 5617SOL     OW28312   3.524   1.358   9.045 -0.1299 -0.2910  0.2244
 5617SOL    HW128313   3.608   1.389   9.014 -0.5539 -1.0051 -1.6744
 5617SOL    HW228314   3.474   1.439   9.057  1.2523  0.7263 -0.8333
 5618SOL     OW28315   2.049   1.265   3.368  0.1436 -0.5359  0.5845
 5618SOL    HW128316   1.991   1.300   3.436 -1.1960  2.1685 -1.9339
 5618SOL    HW228317   2.088   1.346   3.335  1.0318 -0.6458  1.3681
 5619SOL     OW28318   1.523   3.387  14.586  0.4954 -0.4641  0.2554
 5619SOL    HW128319   1.441   3.429  14.560  0.8821 -0.7544 -1.4511
 5619SOL    HW228320   1.588   3.457  14.594 -1.5388  1.3789  0.6124
 5620SOL     OW28321   1.981   0.685   9.098 -0.3227  0.3517  0.1933
 5620SOL    HW128322   1.948   0.643   9.178  1.1932 -0.4175  0.4191
 5620SOL    HW228323   1.908   0.724   9.051  0.1240  3.6125  2.2067
 5621SOL     OW28324   3.361   2.302   5.400  0.1034 -0.3303 -0.1927
 5621SOL    HW128325   3.305   2.342   5.465 -1.0543 -0.0545 -1.3622
 5621SOL    HW228326   3.429   2.369   5.399 -1.1089  0.8900  0.2057
 5622SOL     OW28327   1.693   3.486   9.747  0.2872  0.3335  0.3493
 5622SOL    HW128328   1.752   3.412   9.764 -1.1425 -0.6813  0.8481
 5622SOL    HW228329   1.634   3.479   9.822  3.0382  1.1862  2.5746
 5623SOL     OW28330   4.439   2.236   6.849 -0.2381  0.0666  0.1784
 5623SOL    HW128331   4.394   2.228   6.766 -0.8965  0.2653  0.5139
 5623SOL    HW228332   4.427   2.146   6.879 -3.9437  1.3081  2.3885
 5624SOL     OW28333   4.012   0.332  11.522  0.7158  0.0793 -0.1033
 5624SOL    HW128334   3.980   0.333  11.612 -0.4948 -3.3143 -0.4981
 5624SOL    HW228335   3.961   0.404  11.486  0.8118 -0.5542 -1.4917
 5625SOL     OW28336   3.569   2.608   8.698  0.4306  0.3534 -0.1879
 5625SOL    HW128337   3.660   2.635   8.687  0.4599 -0.8233 -2.8850
 5625SOL    HW228338   3.532   2.678   8.751  0.9071  2.4870 -2.6687
 5626SOL     OW28339   1.138   0.172  12.821 -0.6142 -0.2611  0.3785
 5626SOL    HW128340   1.095   0.103  12.770 -0.4843 -0.0129 -0.0707
 5626SOL    HW228341   1.229   0.154  12.794 -0.3301 -0.0622  1.2282
 5627SOL     OW28342   1.717   2.466  15.517 -0.3532  0.0756 -0.6005
 5627SOL    HW128343   1.638   2.457  15.463  0.9978 -2.7300 -2.0986
 5627SOL    HW228344   1.691   2.548  15.560  1.9201  0.6166 -0.2829
 5628SOL     OW28345   4.707   2.043   6.776 -0.0832 -0.0720  0.7388
 5628SOL    HW128346   4.689   1.992   6.697  3.3740  0.6842 -0.5346
 5628SOL    HW228347   4.620   2.030   6.815 -0.4776 -1.1936 -0.5175
 5629SOL     OW28348   0.098   4.657   5.768 -0.6003 -0.3591  0.8704
 5629SOL    HW128349   0.099   4.639   5.674  0.6878 -0.7694  0.9641
 5629SOL    HW228350   0.048   4.581   5.797  0.0045 -0.3882  1.8264
 5630SOL     OW28351   0.532   3.698  13.950  0.0827  0.0064 -0.2940
 5630SOL    HW128352   0.597   3.636  13.983 -0.1862  0.8607  1.8856
 5630SOL    HW228353   0.557   3.786  13.980  0.6311  0.1595 -1.2008
 5631SOL     OW28354   3.805   1.779   4.439 -0.3964 -0.1332  0.6608
 5631SOL    HW128355   3.762   1.717   4.379 -1.6413  0.4808  0.9193
 5631SOL    HW228356   3.807   1.724   4.517 -0.0006 -1.3948 -0.2359
 5632SOL     OW28357   2.952   2.133   2.732 -0.0803  0.7671  0.0565
 5632SOL    HW128358   2.880   2.162   2.676 -1.9014  0.4195  2.2342
 5632SOL    HW228359   2.988   2.222   2.740  1.2007  0.3921 -1.4613
 5633SOL     OW28360   3.831   4.430   0.894 -0.2525 -0.4001 -0.1078
 5633SOL    HW128361   3.882   4.460   0.819 -0.1425  0.0860  0.1600
 5633SOL    HW228362   3.754   4.485   0.885 -0.1916 -0.5433 -1.5043
 5634SOL     OW28363   2.671   1.239   4.806  0.3658  0.4437  0.1264
 5634SOL    HW128364   2.759   1.275   4.805  0.1313  0.9990 -0.2745
 5634SOL    HW228365   2.624   1.309   4.760  1.7213  1.1768 -0.1256
 5635SOL     OW28366   1.202   2.027   6.191  0.1004  0.2634 -0.1375
 5635SOL    HW128367   1.270   2.088   6.162  0.6497 -0.2518  0.0711
 5635SOL    HW228368   1.246   2.005   6.273  0.6972  1.0976 -0.2330
 5636SOL     OW28369   3.272   1.480   3.683 -0.3372  0.1055 -0.3648
 5636SOL    HW128370   3.290   1.456   3.592  0.8033  1.2904 -0.4417
 5636SOL    HW228371   3.199   1.423   3.708  1.4424 -1.6722  0.8146
 5637SOL     OW28372   3.287   0.683   5.855 -0.2390  0.0765 -0.6539
 5637SOL    HW128373   3.207   0.687   5.907 -1.1092 -1.0964 -1.8906
 5637SOL    HW228374   3.354   0.701   5.921 -0.6333  0.3948 -0.3411
 5638SOL     OW28375   2.995   0.098   7.147  0.1832 -0.0818 -0.0239
 5638SOL    HW128376   2.952   0.067   7.067 -0.4949  0.0798  0.2754
 5638SOL    HW228377   3.013   0.191   7.133 -0.2260  0.3087  1.9915
 5639SOL     OW28378   2.329   1.010   7.657 -0.1656  0.0039  0.3001
 5639SOL    HW128379   2.293   0.979   7.740  0.5480  2.2874  1.4637
 5639SOL    HW228380   2.298   1.100   7.650  0.5830  0.2278 -0.1723
 5640SOL     OW28381   4.393   0.982   2.463 -0.0416  0.3261 -0.0266
 5640SOL    HW128382   4.424   0.991   2.553  1.3878 -0.8153 -0.4095
 5640SOL    HW228383   4.420   0.891   2.449  2.2390  1.0535 -0.4550
 5641SOL     OW28384   1.287   0.197   6.621  0.5703  0.2017 -0.1502
 5641SOL    HW128385   1.349   0.168   6.555 -0.3847 -0.6958 -0.6614
 5641SOL    HW228386   1.225   0.230   6.556 -3.1585  2.7324  4.6513
 5642SOL     OW28387   2.856   3.705  15.498  0.2622 -0.2317  0.0514
 5642SOL    HW128388   2.900   3.672  15.420  2.1181  1.0011  0.5813
 5642SOL    HW228389   2.927   3.688  15.559 -1.7547 -0.2528  2.3969
 5643SOL     OW28390   4.136   1.569   6.489  0.0636 -0.2706 -0.0549
 5643SOL    HW128391   4.110   1.494   6.436  1.1847  0.1120 -1.1528
 5643SOL    HW228392   4.084   1.644   6.458 -2.3884 -1.3033  1.6063
 5644SOL     OW28393   3.461   1.455   8.598  0.2697  0.0736  0.4065
 5644SOL    HW128394   3.378   1.418   8.625  0.4845 -1.1293 -0.6178
 5644SOL    HW228395   3.473   1.514   8.673 -1.2544  1.5016 -0.4852
 5645SOL     OW28396   1.656   1.280   4.014 -0.1637 -0.2678  0.3630
 5645SOL    HW128397   1.710   1.335   3.957 -0.0738 -0.5549  0.1702
 5645SOL    HW228398   1.597   1.349   4.047  0.0050 -0.4170  0.9661
 5646SOL     OW28399   0.093   0.231   3.706 -0.6728 -0.0743  0.2956
 5646SOL    HW128400   0.017   0.261   3.656  0.3138  2.6809  0.4446
 5646SOL    HW228401   0.077   0.137   3.701 -0.7869 -0.0781  0.7367
 5647SOL     OW28402   0.960   4.156   0.679  0.0502  0.5294  0.4164
 5647SOL    HW128403   1.005   4.075   0.656 -1.0517 -0.3035  1.2217
 5647SOL    HW228404   0.898   4.170   0.607  1.1367  0.6960 -0.4830
 5648SOL     OW28405   1.576   0.153   5.999 -0.2758 -0.2746  0.7083
 5648SOL    HW128406   1.647   0.094   6.022  1.4437  1.4225 -0.2646
 5648SOL    HW228407   1.500   0.102   6.029 -1.4282 -0.0186 -1.7119
 5649SOL     OW28408   2.595   0.313  12.193  0.1134 -1.0503 -0.6750
 5649SOL    HW128409   2.523   0.333  12.133 -2.9078 -1.2005  2.8797
 5649SOL    HW228410   2.659   0.275  12.133 -0.1389  1.7656 -2.6937
 5650SOL     OW28411   3.787   0.093  11.946  0.0342  0.1618 -0.1558
 5650SOL    HW128412   3.694   0.101  11.929 -0.5937 -2.5656  1.8613
 5650SOL    HW228413   3.827   0.073  11.861  0.6235  1.0585 -0.0836
 5651SOL     OW28414   3.502   0.822  10.224 -0.0623 -0.1866 -0.5182
 5651SOL    HW128415   3.505   0.750  10.161  0.3582 -0.4114 -0.2428
 5651SOL    HW228416   3.407   0.826  10.234 -0.0032 -2.4688  0.9293
 5652SOL     OW28417   2.835   3.979  16.094  0.8263 -0.5654 -0.2747
 5652SOL    HW128418   2.789   3.908  16.138  2.0748 -1.1450  0.1057
 5652SOL    HW228419   2.824   3.950  16.004  3.3011 -1.3307 -0.3239
 5653SOL     OW28420   0.533   1.157   3.036  0.4158  0.5094  0.0738
 5653SOL    HW128421   0.457   1.214   3.048  1.0571  1.4793 -0.5266
 5653SOL    HW228422   0.512   1.123   2.949 -0.2648  1.4799 -0.1396
 5654SOL     OW28423   3.549   2.445   7.780  0.3374 -0.0652 -0.1835
 5654SOL    HW128424   3.546   2.366   7.835 -3.0057  1.0190  1.2038
 5654SOL    HW228425   3.618   2.494   7.824  1.1574 -1.8510  0.5208
 5655SOL     OW28426   2.651   4.389   7.290 -0.0931 -0.1379  0.1788
 5655SOL    HW128427   2.711   4.315   7.305  1.9706  1.1319 -1.8640
 5655SOL    HW228428   2.707   4.464   7.310  2.4314 -2.1893  0.8893
 5656SOL     OW28429   4.116   3.531   2.620  0.2677  0.0257 -0.1672
 5656SOL    HW128430   4.080   3.466   2.561  0.4085  0.7649 -1.0634
 5656SOL    HW228431   4.037   3.568   2.660  1.0716 -0.1174  1.5491
 5657SOL     OW28432   4.096   0.528   5.756  0.0387  0.2423  0.4080
 5657SOL    HW128433   4.153   0.599   5.726 -0.0273 -0.0864 -0.5023
 5657SOL    HW228434   4.011   0.566   5.733 -0.3427 -0.6189  0.3689
 5658SOL     OW28435   2.471   2.047   6.112 -0.2344 -0.5233 -0.0331
 5658SOL    HW128436   2.451   1.960   6.146 -0.0433  0.1339  1.7731
 5658SOL    HW228437   2.391   2.045   6.059  0.0331 -0.7166 -0.4298
 5659SOL     OW28438   3.372   0.158   6.452 -0.2035  0.0262  0.0284
 5659SOL    HW128439   3.322   0.239   6.449 -0.0747  0.1521  1.1789
 5659SOL    HW228440   3.456   0.201   6.471 -0.5782  0.6781  0.2115
 5660SOL     OW28441   2.493   3.427   7.150  0.5983 -0.1792  0.5640
 5660SOL    HW128442   2.588   3.440   7.152  0.3234  1.6243  2.1336
 5660SOL    HW228443   2.467   3.468   7.232 -1.8810  0.9854 -0.8160
 5661SOL     OW28444   1.104   1.594   3.876  0.2575 -0.2594 -0.0782
 5661SOL    HW128445   1.141   1.655   3.940 -1.2938  0.4344  0.1763
 5661SOL    HW228446   1.173   1.601   3.810 -0.8099  0.1261 -1.1659
 5662SOL     OW28447   2.840   1.478   8.600 -0.3417  0.2503 -0.2663
 5662SOL    HW128448   2.825   1.405   8.660  0.4614  1.1181  0.9781
 5662SOL    HW228449   2.753   1.497   8.565 -0.4956 -0.2824 -0.1751
 5663SOL     OW28450   4.551   1.599   1.311 -0.5568  0.5546  0.2950
 5663SOL    HW128451   4.518   1.596   1.400 -3.6985 -1.8807 -0.9510
 5663SOL    HW228452   4.635   1.642   1.327 -0.3791  0.8954 -1.4396
 5664SOL     OW28453   1.672   3.622   6.234 -0.0687 -0.2544  0.0161
 5664SOL    HW128454   1.762   3.640   6.261  0.8330 -0.7620 -2.6029
 5664SOL    HW228455   1.687   3.541   6.185  0.1533 -1.2875  1.8032
 5665SOL     OW28456   3.400   1.310   4.295 -0.0603  0.0964  0.2560
 5665SOL    HW128457   3.376   1.267   4.213  4.0167  0.5038 -1.1440
 5665SOL    HW228458   3.353   1.255   4.357 -1.0973 -0.5938 -1.1317
 5666SOL     OW28459   4.570   2.445  17.172  0.2146 -0.3056 -0.5569
 5666SOL    HW128460   4.632   2.511  17.202 -0.2054 -0.7811  1.3035
 5666SOL    HW228461   4.560   2.396  17.254 -0.1817 -1.1735 -1.1180
 5667SOL     OW28462   2.184   0.477   6.851  0.5603 -0.3839 -0.3354
 5667SOL    HW128463   2.263   0.434   6.820  0.1057 -2.7638  1.7415
 5667SOL    HW228464   2.156   0.422   6.925  2.4126 -1.3632 -0.3680
 5668SOL     OW28465   2.798   4.319  14.791 -0.5306 -0.3298  0.1118
 5668SOL    HW128466   2.807   4.388  14.726 -2.0711  0.4958  0.7993
 5668SOL    HW228467   2.755   4.249  14.741 -0.1708 -0.4208 -0.0769
 5669SOL     OW28468   4.265   4.022   8.515 -0.4336  0.3394  0.0530
 5669SOL    HW128469   4.200   4.091   8.501 -0.7886  0.2543  1.2538
 5669SOL    HW228470   4.318   4.056   8.587  1.3201 -0.9821 -0.5936
 5670SOL     OW28471   3.391   1.773   6.027  0.4537 -0.6008  0.0107
 5670SOL    HW128472   3.473   1.787   6.075  0.2398  0.0376  0.1911
 5670SOL    HW228473   3.412   1.694   5.979  1.9347  0.8576 -1.7633
 5671SOL     OW28474   2.408   2.045   9.633  0.1973  0.4627 -0.3600
 5671SOL    HW128475   2.354   1.991   9.575  0.3719 -0.4061  0.2951
 5671SOL    HW228476   2.370   2.019   9.716  1.1908 -1.2973 -0.4551
 5672SOL     OW28477   1.743   0.944   2.525  0.5294 -0.0039  0.8956
 5672SOL    HW128478   1.814   0.998   2.557  0.0221  2.2938 -1.8343
 5672SOL    HW228479   1.667   0.999   2.546  1.9611  2.2284  0.2052
 5673SOL     OW28480   3.115   2.610   3.768  0.4936  0.0198 -1.2892
 5673SOL    HW128481   3.118   2.516   3.750  0.1268 -0.0801 -0.8569
 5673SOL    HW228482   3.038   2.641   3.720  0.3162  1.9566  0.2358
 5674SOL     OW28483   4.140   4.484   7.592  0.0149 -0.6340 -0.0617
 5674SOL    HW128484   4.210   4.546   7.610  0.1056 -0.6526 -0.3548
 5674SOL    HW228485   4.181   4.437   7.519  1.2300 -0.3723  0.4463
 5675SOL     OW28486   2.783   0.217   9.435  0.6770 -0.3461  0.0189
 5675SOL    HW128487   2.844   0.165   9.488  1.3061  1.0395  0.6425
 5675SOL    HW228488   2.753   0.154   9.369  0.6442 -2.7336  2.2932
 5676SOL     OW28489   2.640   1.441   8.231  0.6828  0.3833 -0.3669
 5676SOL    HW128490   2.569   1.505   8.229  0.3638  0.0083 -0.7201
 5676SOL    HW228491   2.689   1.474   8.307  2.6377 -2.6131 -0.3197
 5677SOL     OW28492   4.273   0.222   6.357  0.3545  0.3020  0.2462
 5677SOL    HW128493   4.244   0.136   6.389  2.0953 -0.0776  0.7552
 5677SOL    HW228494   4.281   0.265   6.442  0.3790  0.4798  0.1534
 5678SOL     OW28495   2.070   3.002   2.531  0.3986  0.4803 -0.2526
 5678SOL    HW128496   2.132   2.929   2.535 -1.0240 -0.7230 -0.0439
 5678SOL    HW228497   2.080   3.033   2.440  0.0031 -2.1966 -1.2171
 5679SOL     OW28498   0.836   1.823   7.339  0.1163  0.1102 -0.7866
 5679SOL    HW128499   0.839   1.914   7.366 -1.3477  0.1301 -0.6698
 5679SOL    HW228500   0.860   1.843   7.248  3.0489 -3.2867 -0.7640
 5680SOL     OW28501   2.975   4.463   5.757 -0.5565  0.5141  0.1930
 5680SOL    HW128502   2.917   4.482   5.831 -0.2515  0.3772  0.4645
 5680SOL    HW228503   2.919   4.435   5.684  1.7390  0.4764 -1.5622
 5681SOL     OW28504   3.227   2.121  11.328  0.9265  0.8235 -0.0858
 5681SOL    HW128505   3.291   2.175  11.374  1.6987  0.7240 -1.0498
 5681SOL    HW228506   3.204   2.054  11.392 -2.3527  0.2373 -1.9003
 5682SOL     OW28507   1.576   2.864   3.501 -0.1573  0.2203 -0.0128
 5682SOL    HW128508   1.536   2.795   3.449  2.9018 -0.7956 -1.0172
 5682SOL    HW228509   1.566   2.942   3.447 -2.7950  0.8781  1.4188
 5683SOL     OW28510   0.751   3.353  14.870  0.2575  0.3197 -0.5647
 5683SOL    HW128511   0.720   3.265  14.845 -1.6748  0.7093  0.4640
 5683SOL    HW228512   0.841   3.354  14.839  0.5290  1.5741  0.2761
 5684SOL     OW28513   0.641   2.674  16.650  0.3326 -0.1854 -0.1200
 5684SOL    HW128514   0.668   2.656  16.741  0.5213  0.1315 -0.1134
 5684SOL    HW228515   0.684   2.757  16.632  1.3259 -0.9231 -1.1618
 5685SOL     OW28516   3.864   0.030   4.354  0.0897 -0.4353  0.0404
 5685SOL    HW128517   3.771   0.010   4.347  0.4706 -0.9786 -3.2816
 5685SOL    HW228518   3.894   4.719   4.270 -0.5884  1.0275 -0.8132
 5686SOL     OW28519   1.289   2.586  11.847 -0.2073 -0.7143 -1.3818
 5686SOL    HW128520   1.232   2.636  11.905  0.0545 -1.2057 -0.7006
 5686SOL    HW228521   1.235   2.511  11.823 -0.1465 -1.1479 -0.1631
 5687SOL     OW28522   3.769   2.581   5.844  0.4788  0.3509  0.1858
 5687SOL    HW128523   3.822   2.621   5.776 -0.2666  0.5145 -0.2990
 5687SOL    HW228524   3.835   2.523   5.882 -0.0054 -1.1373 -1.2278
 5688SOL     OW28525   3.619   4.577   0.871  0.0075  0.4280  0.3601
 5688SOL    HW128526   3.634   4.640   0.942 -0.5879 -0.3821  1.2036
 5688SOL    HW228527   3.524   4.580   0.869  0.0089  0.8845  1.0657
 5689SOL     OW28528   4.488   0.096   4.725  0.3022 -0.4019 -0.1244
 5689SOL    HW128529   4.465   0.142   4.806  3.7220 -2.4246  2.0189
 5689SOL    HW228530   4.578   0.129   4.715  0.5884 -1.6532 -1.6816
 5690SOL     OW28531   1.776   3.167   6.109  0.1680  0.0445 -0.0485
 5690SOL    HW128532   1.812   3.112   6.179  1.4238  2.8466  1.4832
 5690SOL    HW228533   1.819   3.132   6.030  3.1955  1.2310  1.0741
 5691SOL     OW28534   0.801   3.258   2.462 -0.1850 -0.1322  0.5124
 5691SOL    HW128535   0.832   3.309   2.536  1.1980  1.1774 -0.9738
 5691SOL    HW228536   0.707   3.256   2.482 -0.7275  0.5053 -1.8853
 5692SOL     OW28537   1.912   3.264   9.357 -0.4742 -0.3300  0.2156
 5692SOL    HW128538   1.944   3.280   9.269  0.1353 -0.6327  0.3792
 5692SOL    HW228539   1.822   3.233   9.347 -0.2040 -0.6226 -1.3440
 5693SOL     OW28540   2.398   4.597   0.826 -0.3578  0.2124  0.4365
 5693SOL    HW128541   2.312   4.603   0.784 -0.0857  0.3613 -0.1113
 5693SOL    HW228542   2.455   4.618   0.752  2.0082 -1.4371  1.8135
 5694SOL     OW28543   4.211   1.256   5.534  0.0061 -0.4774 -0.2270
 5694SOL    HW128544   4.301   1.232   5.512  0.0725  0.2692 -0.7593
 5694SOL    HW228545   4.203   1.348   5.509 -0.5749 -0.8086 -1.2306
 5695SOL     OW28546   2.804   4.617   7.597  0.2947 -0.2472 -0.3552
 5695SOL    HW128547   2.849   4.640   7.678 -1.4563  0.9661  0.2756
 5695SOL    HW228548   2.717   4.653   7.613  0.0921 -0.9736  0.1434
 5696SOL     OW28549   2.245   1.260   7.690  0.0561 -0.4639 -0.2953
 5696SOL    HW128550   2.280   1.342   7.724  0.6174 -0.2648 -1.3561
 5696SOL    HW228551   2.153   1.265   7.715  0.1333 -0.1824 -0.0735
 5697SOL     OW28552   0.432   4.373   3.681  0.5047 -0.2180  0.2486
 5697SOL    HW128553   0.505   4.325   3.642  1.1969  2.2464 -1.4766
 5697SOL    HW228554   0.363   4.325   3.635 -0.9905  0.4317  1.8463
 5698SOL     OW28555   3.585   1.099   4.002 -0.0935 -0.4372  0.5260
 5698SOL    HW128556   3.490   1.094   4.018 -0.1941 -1.4098 -0.3968
 5698SOL    HW228557   3.590   1.054   3.918  1.7584  2.2793 -0.8010
 5699SOL     OW28558   1.803   0.327  13.078  0.5486  0.1329  0.0473
 5699SOL    HW128559   1.778   0.236  13.060  1.3359 -0.0493 -0.1373
 5699SOL    HW228560   1.815   0.316  13.173 -0.4649 -0.1984  0.1373
 5700SOL     OW28561   2.509   1.799  12.831 -0.0495  0.4626 -0.0536
 5700SOL    HW128562   2.415   1.788  12.816 -0.3525  0.8236  1.6398
 5700SOL    HW228563   2.513   1.785  12.926 -0.5070 -0.3097 -0.1456
 5701SOL     OW28564   4.041   4.558   7.330  0.1442  0.5032  0.5263
 5701SOL    HW128565   4.116   4.615   7.312 -0.9425  2.0629  0.9069
 5701SOL    HW228566   4.029   4.517   7.244  0.6963 -1.5252  1.4072
 5702SOL     OW28567   4.431   0.922   3.830 -0.5314  0.7269 -0.1376
 5702SOL    HW128568   4.465   0.841   3.792  0.4430  1.3291 -0.5415
 5702SOL    HW228569   4.495   0.985   3.799  0.4861 -1.1798 -1.9122
 5703SOL     OW28570   1.009   0.873   2.141  0.6678  0.3703  0.0554
 5703SOL    HW128571   0.977   0.806   2.081 -2.8688  1.5991  0.5534
 5703SOL    HW228572   1.047   0.817   2.209 -1.6258 -1.6795 -0.3522
 5704SOL     OW28573   1.870   1.841   8.784  0.2202 -0.0635  0.4121
 5704SOL    HW128574   1.869   1.799   8.871 -2.1638 -0.7377  0.0392
 5704SOL    HW228575   1.922   1.780   8.730  0.6580  0.4673  0.2341
 5705SOL     OW28576   0.966   3.274  17.402 -0.6618  0.4270 -0.0356
 5705SOL    HW128577   0.906   3.204  17.428  1.8186 -1.6340  0.0859
 5705SOL    HW228578   1.024   3.278  17.479 -0.8781 -2.3701  0.2608
 5706SOL     OW28579   1.819   3.537   5.127 -0.3165  0.4156  0.2544
 5706SOL    HW128580   1.772   3.455   5.113 -1.6648  1.2828 -0.3516
 5706SOL    HW228581   1.781   3.594   5.060  1.2208 -0.4795 -1.3521
 5707SOL     OW28582   2.760   2.190   6.845  0.1496 -0.0037 -0.7927
 5707SOL    HW128583   2.730   2.262   6.790 -0.8785 -0.3546 -0.6783
 5707SOL    HW228584   2.855   2.206   6.844  0.3929 -1.1477  2.6186
 5708SOL     OW28585   2.420   0.693   1.013  0.2578 -0.1067 -0.1438
 5708SOL    HW128586   2.444   0.657   1.099  1.2372 -1.5236 -0.9923
 5708SOL    HW228587   2.332   0.720   1.037  0.9090  1.4833  0.4413
 5709SOL     OW28588   1.316   3.294  15.808 -0.0979 -0.3384  0.5460
 5709SOL    HW128589   1.398   3.330  15.841  0.5731 -1.1086 -0.3154
 5709SOL    HW228590   1.279   3.370  15.765  1.2383 -0.0517 -0.0768
 5710SOL     OW28591   3.626   3.110  14.433  0.1931  0.2176 -0.0631
 5710SOL    HW128592   3.591   3.021  14.429 -1.7710  1.0187 -0.8162
 5710SOL    HW228593   3.551   3.168  14.419  1.5009  2.5110  2.3497
 5711SOL     OW28594   0.562   3.940  14.061 -0.2463 -0.0871 -0.0040
 5711SOL    HW128595   0.656   3.956  14.070 -0.1138 -1.1067  0.4932
 5711SOL    HW228596   0.532   3.961  14.150  2.0942  1.3439  0.4707
 5712SOL     OW28597   1.959   3.705  10.333 -0.0062  0.4872  0.8280
 5712SOL    HW128598   2.002   3.634  10.380  0.9649  1.2188  1.0408
 5712SOL    HW228599   2.038   3.747  10.298  0.4831 -0.8813  0.3134
 5713SOL     OW28600   1.581   0.606   3.873 -0.1120  0.3082 -0.0625
 5713SOL    HW128601   1.662   0.619   3.921  0.1436 -0.6892 -0.2193
 5713SOL    HW228602   1.564   0.511   3.877  1.3357  0.1696  2.2726
 5714SOL     OW28603   4.348   1.791   9.533 -0.4251  0.1670  0.2474
 5714SOL    HW128604   4.387   1.780   9.620 -1.4066 -1.2613  0.4959
 5714SOL    HW228605   4.414   1.856   9.508  0.9533 -0.6984  1.5998
 5715SOL     OW28606   0.063   2.045   3.402  0.2130  0.3081  0.2613
 5715SOL    HW128607   0.134   1.988   3.430 -0.7011 -1.1024 -0.3251
 5715SOL    HW228608   0.075   2.027   3.309  0.1563  0.3473  0.2461
 5716SOL     OW28609   4.553   3.719   6.493 -0.1073 -0.2238  0.0274
 5716SOL    HW128610   4.465   3.731   6.528  0.1997  0.1649  0.6530
 5716SOL    HW228611   4.607   3.730   6.571  0.0243  1.3752 -0.2782
 5717SOL     OW28612   3.607   3.927  11.622 -0.1095  0.1861 -0.0010
 5717SOL    HW128613   3.619   4.005  11.677 -0.0488  0.7088 -0.7524
 5717SOL    HW228614   3.530   3.966  11.581  0.3056  0.4658 -0.5237
 5718SOL     OW28615   3.366   2.678   3.584  0.6910 -0.0571 -0.3306
 5718SOL    HW128616   3.389   2.620   3.657  1.8605 -1.6135 -1.9193
 5718SOL    HW228617   3.281   2.641   3.562 -0.0695  1.1784  0.5581
 5719SOL     OW28618   1.012   2.353  11.999 -0.3342 -0.2752 -0.1482
 5719SOL    HW128619   0.953   2.299  11.947  0.4506 -2.1086  0.8685
 5719SOL    HW228620   1.074   2.291  12.038 -0.1224  1.4375  2.2419
 5720SOL     OW28621   4.159   4.566   8.327  0.3912  0.1031 -0.1460
 5720SOL    HW128622   4.114   4.650   8.340  1.4623  0.3206  2.1351
 5720SOL    HW228623   4.086   4.504   8.333  1.3135 -1.0099 -0.3738
 5721SOL     OW28624   1.729   4.204   7.312 -0.0722  0.0802 -0.2338
 5721SOL    HW128625   1.637   4.211   7.336  0.9819  2.7656  2.9322
 5721SOL    HW228626   1.730   4.110   7.333 -2.6182  0.0881 -0.1548
 5722SOL     OW28627   3.384   2.013   5.474 -0.0890 -0.6092  0.5834
 5722SOL    HW128628   3.408   2.101   5.444 -0.1938 -0.2847  1.4535
 5722SOL    HW228629   3.307   2.033   5.528 -0.9804 -0.5028 -0.7223
 5723SOL     OW28630   1.917   3.734   0.512  0.1164  0.7349  0.1583
 5723SOL    HW128631   1.922   3.655   0.566  1.5278 -0.0811 -1.1722
 5723SOL    HW228632   1.945   3.799   0.576  4.2697  1.1168 -2.0700
 5724SOL     OW28633   1.372   1.012   3.047  0.2542 -0.4105  0.2443
 5724SOL    HW128634   1.438   1.011   3.116 -0.8698  0.2260  1.3360
 5724SOL    HW228635   1.319   1.081   3.088 -0.8201 -1.8290  1.2414
 5725SOL     OW28636   4.077   3.116  13.210 -0.2794  0.0731  0.0983
 5725SOL    HW128637   4.012   3.060  13.252 -1.6620  1.6918  0.1005
 5725SOL    HW228638   4.153   3.066  13.240 -0.8046 -3.0874 -3.9168
 5726SOL     OW28639   2.689   3.493   8.445 -0.4606 -0.1118  0.4880
 5726SOL    HW128640   2.758   3.556   8.466 -0.1121  0.0503 -1.1998
 5726SOL    HW228641   2.613   3.540   8.479 -1.7317 -2.2572  0.6270
 5727SOL     OW28642   0.247   4.219   0.133 -0.0732 -0.3320  0.0209
 5727SOL    HW128643   0.282   4.151   0.075  0.3406 -0.7101  0.6995
 5727SOL    HW228644   0.193   4.165   0.191 -2.0648  0.8979 -0.7195
 5728SOL     OW28645   2.072   1.063  16.945  0.0927 -0.2615 -0.4748
 5728SOL    HW128646   2.034   1.151  16.937  0.1081 -0.2455 -0.3716
 5728SOL    HW228647   2.164   1.080  16.927 -0.0747  1.8877  0.7174
 5729SOL     OW28648   2.275   2.919  14.712 -0.2544 -1.1303  0.0491
 5729SOL    HW128649   2.297   2.893  14.802  0.3477  1.0778  0.5283
 5729SOL    HW228650   2.290   3.013  14.720 -1.4742 -0.8105 -1.3365
 5730SOL     OW28651   0.131   1.827  17.363 -0.0921  0.5218 -0.2083
 5730SOL    HW128652   0.086   1.742  17.362 -0.5621  0.7814 -0.7280
 5730SOL    HW228653   0.090   1.867  17.286  0.6234  0.7108 -0.4855
 5731SOL     OW28654   3.931   4.562   1.602  0.1572 -0.3933  0.0735
 5731SOL    HW128655   3.853   4.604   1.566 -0.4258  2.0336  4.1140
 5731SOL    HW228656   3.897   4.562   1.692  0.0437 -0.3276  0.0306
 5732SOL     OW28657   0.309   2.646   6.730 -0.0151 -0.7857  0.0378
 5732SOL    HW128658   0.402   2.663   6.742 -0.3266  0.0404  1.2915
 5732SOL    HW228659   0.270   2.647   6.818 -0.9191 -0.9071 -0.3586
 5733SOL     OW28660   2.696   0.038   4.070  0.1469  0.4764  0.4354
 5733SOL    HW128661   2.656   0.062   4.153 -0.7103 -1.0852  0.4670
 5733SOL    HW228662   2.786   0.059   4.094 -0.0465 -1.2542  2.6396
 5734SOL     OW28663   0.732   0.019   4.169 -0.4555 -0.4591 -0.0723
 5734SOL    HW128664   0.776   4.668   4.131 -1.3772  0.3952 -2.8399
 5734SOL    HW228665   0.709   0.074   4.094  1.0179  0.7119  0.3296
 5735SOL     OW28666   3.272   0.384   0.001 -0.3142  0.2249 -0.2459
 5735SOL    HW128667   3.299   0.428   0.082 -0.5712 -0.9408  0.4732
 5735SOL    HW228668   3.280   0.458  17.640  0.0120 -1.0784 -1.7933
 5736SOL     OW28669   2.417   3.158   3.462  0.1280 -0.4449 -0.0647
 5736SOL    HW128670   2.332   3.203   3.466  1.0296  1.0536  2.7573
 5736SOL    HW228671   2.392   3.067   3.450 -1.8645  0.1885 -0.7946
 5737SOL     OW28672   4.617   0.300   8.225  0.1618 -0.6126 -0.3208
 5737SOL    HW128673   4.610   0.292   8.130 -0.1596  0.0632 -0.3544
 5737SOL    HW228674   4.609   0.395   8.234  2.1338 -0.0813 -3.9819
 5738SOL     OW28675   1.525   1.497  13.133 -0.0546  0.3726 -0.1827
 5738SOL    HW128676   1.472   1.558  13.081 -0.4548  0.9503  0.8966
 5738SOL    HW228677   1.513   1.412  13.090  0.1865 -1.2345  2.9353
 5739SOL     OW28678   0.285   3.683   1.263  0.5977 -0.2652 -0.4659
 5739SOL    HW128679   0.328   3.688   1.348  1.1479 -1.0195 -0.7049
 5739SOL    HW228680   0.320   3.598   1.239 -0.9945 -1.1820  0.5001
 5740SOL     OW28681   1.033   0.106   4.086  0.0625  0.3360  0.0255
 5740SOL    HW128682   0.976   0.093   4.162  1.4115  0.4535  1.0570
 5740SOL    HW228683   0.979   0.167   4.037 -1.2290  0.5948  1.7547
 5741SOL     OW28684   0.297   2.780  13.053 -0.0373  0.6180 -0.3670
 5741SOL    HW128685   0.260   2.693  13.035  1.5119  0.2021 -1.5248
 5741SOL    HW228686   0.218   2.819  13.088  0.1198  1.3547 -0.8332
 5742SOL     OW28687   3.181   4.348   5.240 -0.0850  0.2625 -0.0632
 5742SOL    HW128688   3.276   4.361   5.232  0.2304 -2.0708 -0.1803
 5742SOL    HW228689   3.168   4.404   5.317  1.4927  2.9049 -1.7193
 5743SOL     OW28690   2.927   0.118  14.115  0.4136 -0.0587  0.4445
 5743SOL    HW128691   2.936   0.072  14.032 -0.1314 -0.8829  0.8485
 5743SOL    HW228692   2.926   0.204  14.073  1.8389  0.0403  0.6151
 5744SOL     OW28693   3.636   1.160   4.767  0.7361  0.4534  0.1344
 5744SOL    HW128694   3.650   1.120   4.681  0.1300 -0.8590  0.6452
 5744SOL    HW228695   3.602   1.243   4.735 -0.3774  0.3646  1.0949
 5745SOL     OW28696   2.748   4.064   9.236 -0.2092  0.4499 -0.5229
 5745SOL    HW128697   2.838   4.085   9.258 -0.5254  3.1055 -1.8779
 5745SOL    HW228698   2.747   4.086   9.143 -0.2167 -0.9560 -0.8667
 5746SOL     OW28699   0.996   2.997   2.581 -0.6873  0.3302 -0.4681
 5746SOL    HW128700   0.980   3.074   2.635 -2.0715 -0.8771  0.8615
 5746SOL    HW228701   0.979   2.930   2.647  1.4922  0.7587  0.5253
 5747SOL     OW28702   0.570   1.481  12.175  0.0926 -0.4436  0.5335
 5747SOL    HW128703   0.629   1.406  12.173 -0.2555 -0.7238  0.6316
 5747SOL    HW228704   0.503   1.457  12.240  0.1913 -3.2497 -0.3792
 5748SOL     OW28705   2.043   3.009  15.730 -0.1502  0.3456 -0.4170
 5748SOL    HW128706   1.991   2.970  15.660 -0.0203  1.3175 -1.0461
 5748SOL    HW228707   1.978   3.073  15.760  0.6270 -0.2245  2.4766
 5749SOL     OW28708   2.864   3.520   1.364  0.3712  0.9676 -0.1827
 5749SOL    HW128709   2.804   3.452   1.393  1.6796 -0.0030  0.2714
 5749SOL    HW228710   2.902   3.478   1.286 -0.7785  0.1702 -0.3242
 5750SOL     OW28711   1.472   3.460   5.768  0.4022 -0.2457 -0.6203
 5750SOL    HW128712   1.409   3.426   5.703  0.8822  0.5072 -1.4853
 5750SOL    HW228713   1.418   3.467   5.847  2.4439 -0.3374  0.7536
 5751SOL     OW28714   2.586   4.256   8.504 -0.7299 -0.0488  0.4090
 5751SOL    HW128715   2.593   4.329   8.566 -0.5683  1.4257 -1.3486
 5751SOL    HW228716   2.492   4.239   8.508 -1.0078  1.2396 -0.3406
 5752SOL     OW28717   1.401   1.466   8.838  0.1525 -0.1566 -0.4964
 5752SOL    HW128718   1.330   1.419   8.796 -1.8535  0.8590  1.7648
 5752SOL    HW228719   1.466   1.453   8.768  0.1966  0.3632 -0.5565
 5753SOL     OW28720   1.020   4.478   1.030  0.2324  0.7688  0.2761
 5753SOL    HW128721   0.949   4.417   1.050 -0.6088  1.9454  0.8695
 5753SOL    HW228722   1.060   4.439   0.952  0.1410 -0.2335  0.7343
 5754SOL     OW28723   0.101   2.720  12.828 -0.2632 -0.0620 -0.4999
 5754SOL    HW128724   0.168   2.776  12.789 -0.9392  2.5881  2.0798
 5754SOL    HW228725   0.035   2.786  12.849  0.4887 -0.4681  3.2511
 5755SOL     OW28726   3.084   0.966   2.826 -0.1508  0.0602 -0.4476
 5755SOL    HW128727   3.027   0.974   2.749 -0.6682  1.0740  0.0404
 5755SOL    HW228728   3.130   1.049   2.817 -0.8579  0.6824  1.7504
 5756SOL     OW28729   2.394   0.203   6.305  0.0240 -0.4995 -0.6432
 5756SOL    HW128730   2.345   0.194   6.223 -0.6416  1.2492 -0.4607
 5756SOL    HW228731   2.354   0.282   6.342  1.5120 -0.2082  0.2982
 5757SOL     OW28732   2.690   4.132  14.623  0.2235 -0.3981  0.0234
 5757SOL    HW128733   2.761   4.074  14.594  1.0319  1.2468 -1.3314
 5757SOL    HW228734   2.610   4.081  14.606  0.6972 -0.5933 -1.7033
 5758SOL     OW28735   3.445   3.999  15.775  0.0195 -0.0264 -0.7179
 5758SOL    HW128736   3.490   4.071  15.819  0.8556  1.6757 -4.3878
 5758SOL    HW228737   3.361   3.984  15.818  0.9258 -3.4001 -0.0837
 5759SOL     OW28738   3.310   0.556   4.776 -0.1969 -0.0886 -0.6450
 5759SOL    HW128739   3.355   0.487   4.824 -0.8510  1.3338  2.0027
 5759SOL    HW228740   3.361   0.537   4.697  0.5693  0.1589 -0.2098
 5760SOL     OW28741   4.237   1.041   4.017 -0.7131 -0.2901 -0.5389
 5760SOL    HW128742   4.294   1.033   3.941  1.9245  2.2115  1.1303
 5760SOL    HW228743   4.243   1.133   4.044 -0.9868 -0.7520  1.1010
 5761SOL     OW28744   3.661   0.096   5.905  0.1172 -0.3798  0.0227
 5761SOL    HW128745   3.752   0.125   5.908  0.4638 -1.5068  0.3837
 5761SOL    HW228746   3.626   0.161   5.965  0.9725  0.3793 -0.2906
 5762SOL     OW28747   0.752   0.511   8.782  0.1420 -0.1145  0.0071
 5762SOL    HW128748   0.683   0.459   8.823 -0.1484 -1.3089 -2.0203
 5762SOL    HW228749   0.825   0.509   8.844 -2.3893 -0.0600  2.9952
 5763SOL     OW28750   3.523   3.749   7.418 -0.5059 -0.4415  0.4043
 5763SOL    HW128751   3.466   3.805   7.471 -1.5947 -1.1929  0.0540
 5763SOL    HW228752   3.608   3.750   7.462  0.2851 -0.0477 -1.1491
 5764SOL     OW28753   1.009   0.673  10.820 -0.0810 -0.1075  0.2214
 5764SOL    HW128754   1.086   0.669  10.764  0.6744 -1.2408  1.3398
 5764SOL    HW228755   1.040   0.612  10.887  2.1144 -1.7087 -2.2804
 5765SOL     OW28756   2.936   1.722   1.855  0.1355  0.3537 -0.2183
 5765SOL    HW128757   2.924   1.640   1.903  0.6971  0.8138  0.7199
 5765SOL    HW228758   2.872   1.720   1.784 -0.6553  3.3627  0.3795
 5766SOL     OW28759   1.754   3.833   8.135  0.2680  0.3409  0.0081
 5766SOL    HW128760   1.711   3.781   8.203  2.3955 -0.2489  0.9171
 5766SOL    HW228761   1.683   3.896   8.124 -0.0629 -0.0758 -0.2315
 5767SOL     OW28762   3.517   2.320   2.825 -0.0867 -0.7643  0.0007
 5767SOL    HW128763   3.457   2.278   2.886  1.0844 -0.5762  1.2807
 5767SOL    HW228764   3.494   2.270   2.746 -1.6127 -0.5682  0.3363
 5768SOL     OW28765   0.078   3.514  16.323  0.1154 -0.5323  0.0309
 5768SOL    HW128766   0.018   3.585  16.346  0.2326 -0.1876 -0.7272
 5768SOL    HW228767   0.015   3.455  16.282 -0.2733 -0.3144  0.3192
 5769SOL     OW28768   0.157   3.983  10.648 -0.0910  0.4833 -0.0726
 5769SOL    HW128769   0.104   4.031  10.586 -1.4372 -1.0795 -0.1373
 5769SOL    HW228770   0.115   4.008  10.730  0.9844  0.5978  0.4464
 5770SOL     OW28771   2.019   0.792   8.767  0.9682  0.0081  0.0807
 5770SOL    HW128772   2.034   0.722   8.830  0.3186 -1.1509 -1.0456
 5770SOL    HW228773   2.042   0.867   8.822 -1.1693  0.1713  0.7571
 5771SOL     OW28774   4.704   4.663   6.983 -0.1722  0.1345  0.0174
 5771SOL    HW128775   0.029   4.611   6.921  1.0536  1.1811  0.1069
 5771SOL    HW228776   4.699   4.606   7.060  3.0545 -3.0784 -2.1935
 5772SOL     OW28777   1.785   2.083  14.938  0.6115 -0.2599  0.3213
 5772SOL    HW128778   1.778   2.068  15.032 -0.6647 -0.9680  0.1128
 5772SOL    HW228779   1.862   2.140  14.931 -0.9582  1.8952  0.5693
 5773SOL     OW28780   3.456   2.180   3.397  0.4350 -0.3368  0.3544
 5773SOL    HW128781   3.414   2.240   3.459 -1.7354 -0.3613 -1.1099
 5773SOL    HW228782   3.547   2.173   3.426  0.4970 -0.4865  0.1242
 5774SOL     OW28783   0.886   2.407  15.546  0.1645  0.3483 -0.2533
 5774SOL    HW128784   0.950   2.476  15.530  0.3526  0.3439  0.5004
 5774SOL    HW228785   0.880   2.414  15.641 -1.9734  0.0299 -0.3635
 5775SOL     OW28786   3.266   0.164   4.931 -0.3274 -0.2346 -0.3745
 5775SOL    HW128787   3.224   0.084   4.899 -3.4110  2.8201 -3.8597
 5775SOL    HW228788   3.350   0.134   4.967  0.4735  1.4424 -0.8859
 5776SOL     OW28789   0.551   4.405   1.829  0.8231 -0.5870 -0.1343
 5776SOL    HW128790   0.494   4.420   1.754 -1.7984 -1.0218  1.7229
 5776SOL    HW228791   0.491   4.383   1.901  0.3492  1.4883  0.1007
 5777SOL     OW28792   3.979   1.249   7.878 -0.3308  0.4799  0.4281
 5777SOL    HW128793   3.884   1.257   7.890 -0.4660  0.8702 -0.9415
 5777SOL    HW228794   4.009   1.333   7.913  0.5101 -0.4936  2.0446
 5778SOL     OW28795   2.226   3.891  13.221 -0.1166  0.1865  0.1942
 5778SOL    HW128796   2.293   3.831  13.186  0.5921  2.2716 -2.0372
 5778SOL    HW228797   2.210   3.945  13.144  0.0784  1.3850  0.9944
 5779SOL     OW28798   1.281   1.461  12.158 -0.1229 -0.2425  0.4958
 5779SOL    HW128799   1.296   1.407  12.236  1.7051  0.5929  0.7140
 5779SOL    HW228800   1.187   1.476  12.149  0.5173  2.9581 -0.7614
 5780SOL     OW28801   0.076   0.651  13.816 -0.0700 -0.3338 -0.1379
 5780SOL    HW128802   0.073   0.575  13.758 -1.4571  0.5841 -1.2510
 5780SOL    HW228803   0.116   0.708  13.752  1.3974 -0.1395  0.9565
 5781SOL     OW28804   1.346   4.296  12.625  0.2528 -0.3054  0.1485
 5781SOL    HW128805   1.254   4.320  12.625  0.9541  2.3357  0.7322
 5781SOL    HW228806   1.358   4.245  12.706  2.4255 -0.6931 -0.4069
 5782SOL     OW28807   1.827   2.710   7.081  0.5479  0.3545  0.3544
 5782SOL    HW128808   1.771   2.634   7.098  0.9511 -0.3213 -1.3309
 5782SOL    HW228809   1.875   2.707   7.163 -0.0951  1.8398  0.7814
 5783SOL     OW28810   0.506   0.494   4.237  0.4466 -0.3605 -0.5092
 5783SOL    HW128811   0.486   0.420   4.296  0.4098  1.4339  1.7197
 5783SOL    HW228812   0.481   0.461   4.151  3.7069 -0.3783 -1.4123
 5784SOL     OW28813   1.014   3.512  17.065 -0.8308  0.2866  0.5671
 5784SOL    HW128814   1.023   3.416  17.062  0.9509  0.5044 -1.3030
 5784SOL    HW228815   1.102   3.539  17.091 -0.2502 -1.8934  0.9272
 5785SOL     OW28816   4.305   4.634  12.400 -0.1429 -0.1804  0.1721
 5785SOL    HW128817   4.359   4.583  12.340 -0.4866 -0.6939  0.2996
 5785SOL    HW228818   4.376   4.670  12.454 -0.7549 -0.2701  1.0396
 5786SOL     OW28819   0.675   2.761   7.477  0.0367 -0.4159  0.1422
 5786SOL    HW128820   0.629   2.833   7.435  3.1064  2.0724  1.0381
 5786SOL    HW228821   0.605   2.739   7.539 -0.4770 -1.9130 -0.9618
 5787SOL     OW28822   4.321   4.544   8.099 -0.5666  0.2092 -0.3901
 5787SOL    HW128823   4.262   4.536   8.174 -0.3138  2.9083  0.1034
 5787SOL    HW228824   4.383   4.614   8.120  0.9949 -1.9054  2.0600
 5788SOL     OW28825   0.793   2.362   8.501  0.4428  0.1423  0.1861
 5788SOL    HW128826   0.787   2.451   8.536 -0.5741  0.2951 -0.3867
 5788SOL    HW228827   0.878   2.357   8.457 -0.0341  0.3252 -0.7366
 5789SOL     OW28828   3.875   0.311   3.802 -0.0950 -0.4460  0.3709
 5789SOL    HW128829   3.884   0.310   3.707 -0.2220  0.7577  0.3497
 5789SOL    HW228830   3.958   0.270   3.826  0.4353  1.8562  2.5501
 5790SOL     OW28831   1.474   4.541  13.348 -0.5212  0.1297 -0.1270
 5790SOL    HW128832   1.541   4.496  13.297 -0.3854 -2.3947  2.2693
 5790SOL    HW228833   1.401   4.480  13.357  1.8273 -2.5442  0.8272
 5791SOL     OW28834   2.711   1.998   3.226  0.0455 -0.0066  0.5025
 5791SOL    HW128835   2.763   2.071   3.190  0.8330 -1.3626 -1.1134
 5791SOL    HW228836   2.772   1.975   3.296  1.8725 -2.2114 -1.7877
 5792SOL     OW28837   4.060   4.375   1.024 -0.6449 -0.0523  0.1016
 5792SOL    HW128838   4.028   4.347   1.110  0.8400 -0.8164  0.4158
 5792SOL    HW228839   3.977   4.375   0.977  0.7245 -1.2545 -2.2829
 5793SOL     OW28840   4.366   1.314   4.385 -0.1627 -0.4510  0.0892
 5793SOL    HW128841   4.424   1.243   4.413 -0.6790 -0.9495 -0.1026
 5793SOL    HW228842   4.346   1.302   4.292  0.4416 -1.4438  0.0845
 5794SOL     OW28843   0.327   4.226   1.101  0.0508 -0.0309  0.1784
 5794SOL    HW128844   0.259   4.293   1.101 -0.1201 -0.1951  0.9137
 5794SOL    HW228845   0.295   4.141   1.133  1.3471  0.5278  2.9831
 5795SOL     OW28846   0.159   0.370   0.441  0.4767  0.7716  0.4304
 5795SOL    HW128847   0.190   0.298   0.495 -0.3767 -0.8206 -1.1987
 5795SOL    HW228848   0.066   0.358   0.461  0.1768  0.2437 -1.2530
 5796SOL     OW28849   3.720   4.051   7.951  0.0002 -0.1258  0.0126
 5796SOL    HW128850   3.720   3.969   8.000 -0.7220 -1.2562 -1.8986
 5796SOL    HW228851   3.707   4.026   7.859  0.7789  2.2963 -0.7703
 5797SOL     OW28852   2.674   0.529  14.535  0.1592 -0.0906 -0.2503
 5797SOL    HW128853   2.586   0.493  14.523  0.0524 -0.0164  0.2777
 5797SOL    HW228854   2.702   0.558  14.449 -1.6783  0.3965 -0.6887
 5798SOL     OW28855   0.197   2.772  17.483 -0.1938  0.4340 -0.0146
 5798SOL    HW128856   0.235   2.686  17.502  1.3651  0.9303 -0.9523
 5798SOL    HW228857   0.201   2.808  17.572  1.3628 -1.0886  0.5369
 5799SOL     OW28858   0.542   4.708   1.695  0.2721  0.1993  0.2391
 5799SOL    HW128859   0.535   0.004   1.602 -0.5499 -0.1299  0.2369
 5799SOL    HW228860   0.497   4.624   1.696 -1.4908  1.1288 -1.4182
 5800SOL     OW28861   4.680   3.720   6.735 -0.0090 -0.4520 -0.1620
 5800SOL    HW128862   0.034   3.674   6.705  1.9902  2.1175  1.2006
 5800SOL    HW228863   4.632   3.651   6.781 -0.4607  0.3817  0.6200
 5801SOL     OW28864   0.124   3.091   2.592  0.4223  0.2605  0.4744
 5801SOL    HW128865   0.152   3.173   2.631  0.0665  0.8131 -0.4399
 5801SOL    HW228866   0.173   3.089   2.510 -0.9431  0.1889 -0.3379
 5802SOL     OW28867   1.481   1.137   2.837  0.7768 -0.3422  0.1274
 5802SOL    HW128868   1.475   1.074   2.909 -2.8106 -0.1700  0.0031
 5802SOL    HW228869   1.461   1.094   2.754 -0.9806  0.5610  0.0815
 5803SOL     OW28870   0.985   1.900   5.114 -0.1394  0.1152 -0.6051
 5803SOL    HW128871   0.921   1.946   5.169  0.8881 -1.6222  2.0606
 5803SOL    HW228872   1.045   1.887   5.187 -1.0708 -0.9066 -0.0183
 5804SOL     OW28873   1.576   4.069   5.398 -0.5461 -0.2703  0.1498
 5804SOL    HW128874   1.601   3.989   5.351 -2.5434 -1.5647  1.3174
 5804SOL    HW228875   1.486   4.049   5.423 -0.1336 -2.4906 -0.1509
 5805SOL     OW28876   2.873   0.690   9.370 -0.4109  0.0770 -0.0365
 5805SOL    HW128877   2.803   0.754   9.365 -2.3932 -2.1964 -1.4037
 5805SOL    HW228878   2.838   0.603   9.391  1.7135 -0.8048 -0.1456
 5806SOL     OW28879   1.148   3.730   6.876 -0.2518  0.0298  0.1500
 5806SOL    HW128880   1.092   3.654   6.859 -0.8253  1.5861 -4.5997
 5806SOL    HW228881   1.094   3.797   6.837 -1.2376 -0.8338  0.0381
 5807SOL     OW28882   4.051   2.314   2.837  0.8673 -0.0431 -0.2169
 5807SOL    HW128883   4.046   2.337   2.744  0.4965 -0.5998 -0.3348
 5807SOL    HW228884   3.966   2.271   2.849  1.0807 -0.1113  1.0620
 5808SOL     OW28885   1.443   4.704   3.595 -0.3451 -0.1553 -0.1250
 5808SOL    HW128886   1.455   4.686   3.688  2.0244 -0.5566 -0.4962
 5808SOL    HW228887   1.469   4.614   3.573  1.3552 -0.0924  1.5516
 5809SOL     OW28888   1.031   0.027   9.051 -0.0372  0.8610 -0.3341
 5809SOL    HW128889   0.940   0.056   9.053 -0.5439 -0.7547  0.2237
 5809SOL    HW228890   1.013   4.690   8.980 -1.5054  0.4582  0.3913
 5810SOL     OW28891   1.079   4.569   2.065  0.2025  0.1266  0.4795
 5810SOL    HW128892   1.147   4.637   2.067  1.1905 -0.8354  0.1826
 5810SOL    HW228893   1.017   4.613   2.008  0.1468  1.0690  1.2798
 5811SOL     OW28894   1.191   3.144   4.288 -0.3147  0.2429  0.1619
 5811SOL    HW128895   1.228   3.194   4.216 -0.5015  1.8720  1.2068
 5811SOL    HW228896   1.140   3.211   4.334  1.0736  0.2167  1.7378
 5812SOL     OW28897   0.173   2.300   6.020 -0.4112 -0.2238  0.6525
 5812SOL    HW128898   0.083   2.277   6.043 -0.6543 -1.2376 -1.3098
 5812SOL    HW228899   0.192   2.229   5.958 -0.0230  0.5952 -0.1791
 5813SOL     OW28900   3.056   0.597   7.499 -0.3324 -0.6163 -0.3426
 5813SOL    HW128901   3.115   0.615   7.426 -2.1236  0.0961 -1.6182
 5813SOL    HW228902   3.069   0.503   7.487 -1.9843 -1.0899  1.5801
 5814SOL     OW28903   0.859   2.890   8.732  0.3136  0.2495  0.3229
 5814SOL    HW128904   0.801   2.951   8.687 -0.9044 -0.6336  0.7103
 5814SOL    HW228905   0.940   2.904   8.682 -0.8256 -0.1439 -1.6561
 5815SOL     OW28906   1.671   0.203   2.776 -0.2224 -0.2711 -0.5253
 5815SOL    HW128907   1.598   0.142   2.767 -0.6372 -0.0269  1.0979
 5815SOL    HW228908   1.671   0.262   2.701  1.6131  0.9561  0.4235
 5816SOL     OW28909   3.698   2.947   7.339 -0.4527 -0.6770 -0.3093
 5816SOL    HW128910   3.710   2.889   7.414  2.7788 -1.2897 -1.2918
 5816SOL    HW228911   3.730   3.030   7.376 -0.6188  0.2347 -2.2118
 5817SOL     OW28912   4.539   3.447  14.212 -0.0752 -0.2833  0.0565
 5817SOL    HW128913   4.629   3.471  14.234  0.0453 -0.8930  0.2131
 5817SOL    HW228914   4.504   3.401  14.288  1.1206 -0.7124  0.3617
 5818SOL     OW28915   0.850   4.478  11.282  0.1895  0.0908  0.3213
 5818SOL    HW128916   0.775   4.529  11.250 -0.3901  0.4317  2.1911
 5818SOL    HW228917   0.834   4.390  11.249 -0.7416  0.6455 -0.6985
 5819SOL     OW28918   3.680   3.203   2.209 -0.0197 -0.0588 -0.3105
 5819SOL    HW128919   3.605   3.243   2.252  1.4747  0.2599  1.9601
 5819SOL    HW228920   3.651   3.111   2.211  0.0603 -0.0948 -0.8028
 5820SOL     OW28921   0.626   0.261   7.592  0.2225 -0.0079 -0.0699
 5820SOL    HW128922   0.713   0.295   7.571 -0.3929  1.2442 -0.5616
 5820SOL    HW228923   0.642   0.173   7.627 -0.8873  0.5039  1.7335
 5821SOL     OW28924   4.262   2.587   9.725  0.2826 -0.0094 -0.1230
 5821SOL    HW128925   4.228   2.562   9.639  0.7424  0.2075 -0.3663
 5821SOL    HW228926   4.345   2.628   9.703  0.8835 -0.8765  0.5380
 5822SOL     OW28927   3.834   3.457   6.371 -0.3179 -0.0749 -0.0262
 5822SOL    HW128928   3.763   3.397   6.397 -1.2321  1.0581  0.1120
 5822SOL    HW228929   3.799   3.495   6.291 -1.5191  1.6753  1.3302
 5823SOL     OW28930   4.223   2.490   2.974 -0.0082 -0.0831 -0.1489
 5823SOL    HW128931   4.176   2.442   2.905 -0.8319  0.1418  0.2623
 5823SOL    HW228932   4.215   2.577   2.935 -1.3357 -1.2585 -2.5633
 5824SOL     OW28933   3.616   0.301   6.477 -0.5631 -0.4224 -0.1213
 5824SOL    HW128934   3.658   0.378   6.438 -0.6821 -0.2663  0.0604
 5824SOL    HW228935   3.590   0.340   6.560  0.0593 -1.4759  0.5732
 5825SOL     OW28936   4.680   2.097   3.966 -0.0114 -0.0966 -0.1270
 5825SOL    HW128937   0.028   2.036   3.980  1.0431  1.1833  0.0197
 5825SOL    HW228938   4.667   2.090   3.871  0.1450  0.1208 -0.1637
 5826SOL     OW28939   3.679   0.865   7.357 -0.1637  0.3955  0.4668
 5826SOL    HW128940   3.654   0.773   7.358 -2.3143  0.9820  0.9494
 5826SOL    HW228941   3.704   0.880   7.448 -1.5799  2.3142  0.5363
 5827SOL     OW28942   3.587   0.574   7.369 -0.2676 -0.6123  0.2567
 5827SOL    HW128943   3.577   0.490   7.412 -2.1537  0.0024  0.9858
 5827SOL    HW228944   3.504   0.573   7.323 -0.0619  2.1523 -0.1680
 5828SOL     OW28945   1.530   1.124   8.306 -0.7438 -0.2025 -0.0957
 5828SOL    HW128946   1.435   1.110   8.299 -0.9798 -0.0590  2.9515
 5828SOL    HW228947   1.567   1.049   8.258  1.1267  0.6360  0.0553
 5829SOL     OW28948   3.800   1.589   2.012 -0.4880  0.3273  0.1733
 5829SOL    HW128949   3.881   1.614   1.969 -0.7626  0.6530 -0.1573
 5829SOL    HW228950   3.780   1.657   2.076  0.0312 -1.6715  2.4602
 5830SOL     OW28951   2.007   4.404  13.988  0.2607  0.1075  0.2155
 5830SOL    HW128952   2.033   4.466  13.919 -1.1447 -0.3091 -0.6807
 5830SOL    HW228953   1.955   4.464  14.041  0.2981 -0.2539  0.6580
 5831SOL     OW28954   1.437   3.670   2.825 -0.4065  0.1098 -0.4412
 5831SOL    HW128955   1.385   3.601   2.867 -1.6792  0.2465 -1.7847
 5831SOL    HW228956   1.449   3.736   2.893 -1.6561 -1.0591  0.9027
 5832SOL     OW28957   1.046   3.401  14.713  0.0612  0.3152 -0.2938
 5832SOL    HW128958   1.094   3.481  14.731  2.0970 -0.7989 -0.7325
 5832SOL    HW228959   1.068   3.370  14.625  0.1247  0.0135 -0.1739
 5833SOL     OW28960   3.408   1.496   6.390  0.7446 -0.5317 -0.1709
 5833SOL    HW128961   3.333   1.555   6.394  0.8891 -0.2786 -1.0063
 5833SOL    HW228962   3.380   1.429   6.328 -1.8625  0.2336  0.1992
 5834SOL     OW28963   0.561   0.649   7.275  0.4159 -0.5246  0.4612
 5834SOL    HW128964   0.630   0.586   7.257 -0.1612 -0.7669 -0.8347
 5834SOL    HW228965   0.492   0.612   7.221  0.9998 -1.7078  0.5190
 5835SOL     OW28966   3.895   3.461   4.404 -0.0625 -0.0489 -0.2433
 5835SOL    HW128967   3.944   3.494   4.479  1.8689  0.7944 -1.8526
 5835SOL    HW228968   3.840   3.538   4.389  0.5673  0.6482  1.0684
 5836SOL     OW28969   3.656   3.612   7.767 -0.1385 -0.5457 -0.1145
 5836SOL    HW128970   3.601   3.546   7.727  2.3451 -2.4721 -0.3502
 5836SOL    HW228971   3.591   3.668   7.810 -0.3498 -0.1934 -0.8914
 5837SOL     OW28972   0.658   2.522   2.112 -0.2810 -0.3730  0.6443
 5837SOL    HW128973   0.678   2.429   2.100 -1.5915 -0.3410 -1.8349
 5837SOL    HW228974   0.657   2.535   2.207  0.1218  0.4523  0.5359
 5838SOL     OW28975   1.189   3.087   1.037 -0.1264 -0.0522  0.1090
 5838SOL    HW128976   1.126   3.057   1.102  0.6071 -4.2357 -1.0795
 5838SOL    HW228977   1.256   3.126   1.092 -0.4614 -0.5860  0.8940
 5839SOL     OW28978   4.596   2.525  11.716 -0.0928 -0.1596  0.6125
 5839SOL    HW128979   4.615   2.607  11.671 -1.3626 -0.9376 -1.3461
 5839SOL    HW228980   4.679   2.515  11.762  0.1681 -0.2453  0.1257
 5840SOL     OW28981   2.263   3.257   7.292  0.6450  0.1246  0.0156
 5840SOL    HW128982   2.276   3.168   7.324  2.4117  0.0339 -0.9491
 5840SOL    HW228983   2.341   3.274   7.239  1.2317 -0.8918  0.5543
 5841SOL     OW28984   1.027   1.548   4.483 -0.1844 -0.7033 -0.0443
 5841SOL    HW128985   1.029   1.561   4.577 -2.0846  2.1808 -0.3979
 5841SOL    HW228986   0.941   1.506   4.476 -1.4823  1.8843  0.5269
 5842SOL     OW28987   2.975   3.137   1.480  0.3580  0.1827 -0.2424
 5842SOL    HW128988   2.996   3.224   1.512  3.9781 -0.5833 -0.4990
 5842SOL    HW228989   2.919   3.109   1.553  0.1078 -0.1553 -0.5600
 5843SOL     OW28990   0.612   0.559   2.663  0.3644  0.0223  0.6961
 5843SOL    HW128991   0.636   0.545   2.572 -0.9856 -2.7585  0.7790
 5843SOL    HW228992   0.654   0.642   2.684  0.9667  0.3942 -1.9706
 5844SOL     OW28993   1.089   2.072   8.040  0.3846 -0.5055 -0.3371
 5844SOL    HW128994   1.056   2.085   7.951  1.0312  0.5445 -0.4341
 5844SOL    HW228995   1.139   2.154   8.045  1.2466 -0.8963 -2.5045
 5845SOL     OW28996   2.842   0.002   5.740  0.3953  0.0578  0.2925
 5845SOL    HW128997   2.748   4.715   5.731  0.8119 -0.4902 -3.4369
 5845SOL    HW228998   2.860   4.672   5.817  1.2518  1.2553  0.9485
 5846SOL     OW28999   0.394   0.206   8.803 -0.1404 -0.1386 -0.2009
 5846SOL    HW129000   0.311   0.174   8.767  0.0504 -0.7354 -0.1052
 5846SOL    HW229001   0.426   0.127   8.848  0.3867 -0.2799 -0.8260
 5847SOL     OW29002   2.762   1.737   9.120 -0.2571  0.3408 -0.2805
 5847SOL    HW129003   2.764   1.748   9.215  1.6157  0.8598 -0.3682
 5847SOL    HW229004   2.689   1.676   9.113 -0.5163  0.8395 -1.9621
 5848SOL     OW29005   3.040   0.754   5.353 -0.8108  0.1528  0.0133
 5848SOL    HW129006   3.113   0.789   5.403 -2.3025  0.8005  1.7582
 5848SOL    HW229007   3.031   0.819   5.284 -2.0968 -0.6455 -0.5768
 5849SOL     OW29008   3.250   0.987   6.519  0.2384  0.1374  0.6108
 5849SOL    HW129009   3.252   0.986   6.615  0.2533 -1.9904  0.5740
 5849SOL    HW229010   3.163   1.026   6.507  0.9997  1.8807  0.8210
 5850SOL     OW29011   3.755   2.180   5.378  0.0373 -0.0886 -0.2202
 5850SOL    HW129012   3.732   2.152   5.466  0.3152  0.9924  0.1937
 5850SOL    HW229013   3.806   2.259   5.394  0.1529 -0.4548  1.2080
 5851SOL     OW29014   3.595   2.400   3.561 -0.2650  0.3538  0.1291
 5851SOL    HW129015   3.599   2.448   3.479  2.3474  1.9845  1.1781
 5851SOL    HW229016   3.544   2.452   3.624  1.1521  0.8004  0.9218
 5852SOL     OW29017   1.256   4.080   1.806  0.0799 -0.1330  0.2197
 5852SOL    HW129018   1.351   4.092   1.802  0.0991 -0.6196 -0.6738
 5852SOL    HW229019   1.229   4.167   1.838 -0.6294  0.0625 -0.9201
 5853SOL     OW29020   2.360   3.821  11.913  0.0931 -0.3329  0.4288
 5853SOL    HW129021   2.284   3.785  11.868  0.2257 -1.7162  1.3043
 5853SOL    HW229022   2.325   3.899  11.957 -1.2111 -0.0820 -1.0655
 5854SOL     OW29023   1.595   4.248   2.053 -0.6666 -0.2334  0.3439
 5854SOL    HW129024   1.651   4.326   2.044 -2.2983  0.6780 -1.7604
 5854SOL    HW229025   1.635   4.219   2.135  1.6164  2.2093  0.0995
 5855SOL     OW29026   0.870   1.740  13.630 -0.1755 -1.0919  0.0991
 5855SOL    HW129027   0.830   1.759  13.545  1.1733  0.3478 -0.2188
 5855SOL    HW229028   0.816   1.804  13.677  1.0704  1.3538 -1.7781
 5856SOL     OW29029   0.797   3.798   3.160  0.4937 -0.5230  0.2230
 5856SOL    HW129030   0.822   3.715   3.200 -0.4177 -0.5457  0.7483
 5856SOL    HW229031   0.714   3.812   3.206 -0.4043  1.2914 -1.9671
 5857SOL     OW29032   0.128   0.276  13.469  0.4863  0.6518 -0.3602
 5857SOL    HW129033   0.161   0.195  13.429 -1.1831 -1.7480  3.1639
 5857SOL    HW229034   0.070   0.311  13.401 -0.6131  0.4325  0.4922
 5858SOL     OW29035   2.087   3.727   1.012  0.0053  0.1572 -0.2949
 5858SOL    HW129036   2.049   3.639   1.006 -1.0643  0.6686 -0.7923
 5858SOL    HW229037   2.008   3.780   1.012  0.5369  0.9578  2.4827
 5859SOL     OW29038   4.163   2.582  10.042 -0.2031  0.5121 -0.1796
 5859SOL    HW129039   4.074   2.608  10.064 -0.1369  0.0479  0.6150
 5859SOL    HW229040   4.199   2.598  10.129 -0.2480 -0.3940  0.0027
 5860SOL     OW29041   3.046   1.196   9.948  0.3945 -0.3573  0.6868
 5860SOL    HW129042   2.962   1.240   9.954  0.2621 -0.5979  0.5977
 5860SOL    HW229043   3.039   1.116  10.000  1.2044  2.1887  4.7031
 5861SOL     OW29044   3.478   1.978  15.326  0.0669  0.1584 -0.1320
 5861SOL    HW129045   3.427   2.014  15.254 -1.3287 -0.1321  0.6943
 5861SOL    HW229046   3.563   1.974  15.284 -0.5274  3.6927 -1.6633
 5862SOL     OW29047   1.416   4.389   6.531  0.5900  0.5248 -0.1343
 5862SOL    HW129048   1.382   4.406   6.443 -0.0187  1.5012  0.2880
 5862SOL    HW229049   1.341   4.340   6.565  0.4970 -0.7698 -2.2597
 5863SOL     OW29050   1.387   1.812   1.147  0.5310  0.2484 -0.1564
 5863SOL    HW129051   1.299   1.849   1.156  0.8127  0.3979  1.9903
 5863SOL    HW229052   1.424   1.872   1.082  0.2550  0.3549 -0.2138
 5864SOL     OW29053   0.825   2.187   8.835  0.1049 -0.0691  0.0253
 5864SOL    HW129054   0.891   2.169   8.767  1.3680  3.1506  0.3845
 5864SOL    HW229055   0.749   2.149   8.791 -1.6979  4.5479 -0.8273
 5865SOL     OW29056   2.435   4.590   6.456  0.0476  1.2913 -0.2183
 5865SOL    HW129057   2.466   4.661   6.400  1.4021  1.8056  1.2002
 5865SOL    HW229058   2.519   4.572   6.498 -1.5905 -1.1602  2.0031
 5866SOL     OW29059   4.186   0.459   8.400 -0.0421 -0.1229 -0.0017
 5866SOL    HW129060   4.202   0.386   8.341  0.5256  0.9788 -1.1930
 5866SOL    HW229061   4.193   0.403   8.477  0.9381  1.0026  0.7155
 5867SOL     OW29062   4.568   0.358   4.200  0.2409 -0.3231  0.0396
 5867SOL    HW129063   4.622   0.278   4.204 -0.8843 -1.1610 -1.5770
 5867SOL    HW229064   4.551   0.385   4.290  0.1511  0.5780 -0.2465
 5868SOL     OW29065   2.646   4.555   4.946 -0.1243  0.4294  0.6353
 5868SOL    HW129066   2.591   4.482   4.974 -1.1421  1.3028  0.9205
 5868SOL    HW229067   2.591   4.627   4.976 -2.0207 -1.1547  0.9772
 5869SOL     OW29068   3.780   2.659   2.017 -0.1572 -0.6996 -0.1595
 5869SOL    HW129069   3.776   2.651   1.921 -1.1600 -1.4901 -0.0539
 5869SOL    HW229070   3.850   2.607   2.056 -2.3111 -1.9877  1.9781
 5870SOL     OW29071   1.247   2.501   1.387  0.0326 -0.3372 -0.2082
 5870SOL    HW129072   1.298   2.582   1.383  1.2501 -1.2395 -2.8207
 5870SOL    HW229073   1.314   2.434   1.404 -0.9949 -0.9230  1.5558
 5871SOL     OW29074   1.705   2.322   1.745  0.5860  0.5092 -0.0467
 5871SOL    HW129075   1.664   2.408   1.756  0.0273  0.4352 -1.6191
 5871SOL    HW229076   1.750   2.347   1.664  0.0921  2.1668  0.1845
 5872SOL     OW29077   3.896   0.295   0.472 -0.6667  0.2122  0.2147
 5872SOL    HW129078   3.845   0.261   0.545 -3.2476  2.2766 -0.6137
 5872SOL    HW229079   3.831   0.347   0.424 -0.5392  0.6016  0.4630
 5873SOL     OW29080   1.805   4.600   4.206 -0.2912  0.2997  0.2394
 5873SOL    HW129081   1.876   4.565   4.260 -1.5396 -0.4377  1.4170
 5873SOL    HW229082   1.812   4.532   4.139  1.6043 -0.1983  0.9477
 5874SOL     OW29083   3.063   1.630  16.234  0.1482 -0.1251 -0.2798
 5874SOL    HW129084   3.039   1.602  16.322  0.5697 -0.5745 -0.3109
 5874SOL    HW229085   3.003   1.578  16.180 -0.3006  0.2406 -0.1368
 5875SOL     OW29086   0.131   1.462  11.299 -0.5481  0.2263  0.0541
 5875SOL    HW129087   0.218   1.428  11.276 -1.1496 -1.2690 -0.0100
 5875SOL    HW229088   0.071   1.388  11.311  1.3125 -0.8295  3.1246
 5876SOL     OW29089   0.683   2.263  15.950 -0.2403 -0.1835 -0.1709
 5876SOL    HW129090   0.625   2.229  16.018 -0.6357 -0.8775 -0.8504
 5876SOL    HW229091   0.641   2.213  15.880 -1.4397  0.2097  0.2727
 5877SOL     OW29092   2.768   4.080   8.749 -0.5339 -0.1714  0.2238
 5877SOL    HW129093   2.699   4.026   8.710 -0.4467 -0.9874  1.2017
 5877SOL    HW229094   2.839   4.075   8.684 -0.6643 -1.7725  0.1912
 5878SOL     OW29095   1.889   3.938   5.714  0.6639  0.0413  0.2911
 5878SOL    HW129096   1.939   3.954   5.634 -0.3450  2.1230  0.0696
 5878SOL    HW229097   1.879   3.844   5.706  1.6303 -0.2236  2.2438
 5879SOL     OW29098   4.101   1.621   7.633  0.1487 -0.2548  0.2130
 5879SOL    HW129099   4.136   1.586   7.714 -1.2912  0.1288  1.0035
 5879SOL    HW229100   4.118   1.552   7.569 -0.4982  0.1160 -0.3733
 5880SOL     OW29101   0.882   1.464   5.671 -0.1691 -0.0658 -0.5285
 5880SOL    HW129102   0.836   1.492   5.751  1.0224 -0.7946  0.4130
 5880SOL    HW229103   0.855   1.535   5.613 -0.7212  1.2295  1.2863
 5881SOL     OW29104   1.454   3.026   8.742  0.1071  0.3284 -0.4389
 5881SOL    HW129105   1.506   3.094   8.699  1.2671  0.8694  1.8458
 5881SOL    HW229106   1.376   3.079   8.757 -0.0303  0.3892 -1.3761
 5882SOL     OW29107   2.312   2.543  12.443  0.7223 -0.4949 -1.0908
 5882SOL    HW129108   2.338   2.467  12.391  1.0131 -0.6864 -0.6632
 5882SOL    HW229109   2.387   2.602  12.440 -0.6014  1.0884 -2.8949
 5883SOL     OW29110   1.103   1.850   8.761  0.3775  0.4010 -0.2021
 5883SOL    HW129111   1.114   1.833   8.854  1.2379  1.8717 -0.0450
 5883SOL    HW229112   1.180   1.806   8.723 -1.0547 -1.1334 -1.3507
 5884SOL     OW29113   1.523   0.046   1.650  0.0775 -0.0368 -0.3951
 5884SOL    HW129114   1.542   0.114   1.585 -0.1689  2.1764  1.8175
 5884SOL    HW229115   1.558   4.690   1.611 -0.6740 -1.0692  1.0604
 5885SOL     OW29116   3.181   0.603  16.241 -0.3986 -0.1772 -0.3088
 5885SOL    HW129117   3.101   0.589  16.191 -1.6325  1.5119  1.2233
 5885SOL    HW229118   3.191   0.522  16.291 -3.6736 -0.7519 -0.6080
 5886SOL     OW29119   4.596   3.550   3.964  0.1344 -0.1170  0.1539
 5886SOL    HW129120   4.608   3.580   3.874 -1.5338 -1.5227 -0.5376
 5886SOL    HW229121   4.687   3.545   3.994  0.1008  1.3934  0.5461
 5887SOL     OW29122   2.780   0.602   7.081 -0.5321 -0.3724 -0.4240
 5887SOL    HW129123   2.795   0.509   7.099 -3.5581 -0.7704  0.0398
 5887SOL    HW229124   2.801   0.650   7.161 -0.2793 -1.4574  0.1663
 5888SOL     OW29125   0.680   3.850   4.174 -0.1648  0.6410 -0.0194
 5888SOL    HW129126   0.610   3.865   4.237  2.5852  0.0738  3.1788
 5888SOL    HW229127   0.742   3.917   4.203  0.6409 -1.1328  2.3272
 5889SOL     OW29128   0.907   1.953  12.821 -0.7897 -0.2012 -0.4306
 5889SOL    HW129129   0.956   1.879  12.786 -0.4693 -0.3744  0.4088
 5889SOL    HW229130   0.821   1.928  12.787 -1.0695 -1.9434  1.5909
 5890SOL     OW29131   2.869   2.005   3.489 -0.0196 -0.3472  0.1086
 5890SOL    HW129132   2.962   2.008   3.511 -0.1525 -3.8418  1.2126
 5890SOL    HW229133   2.834   1.938   3.549 -0.4508 -1.7107 -1.6672
 5891SOL     OW29134   1.683   3.268   3.595  0.0025 -0.3219 -0.5014
 5891SOL    HW129135   1.643   3.196   3.546  1.0619 -1.7651  0.7292
 5891SOL    HW229136   1.656   3.344   3.544  0.0009  0.6798  0.9819
 5892SOL     OW29137   2.200   1.263   9.997 -0.1853 -0.0099 -1.0030
 5892SOL    HW129138   2.250   1.320  10.056 -1.1578  0.0588 -0.2617
 5892SOL    HW229139   2.215   1.173  10.026 -0.7994  0.4307  0.6593
 5893SOL     OW29140   2.115   2.280  10.942  0.1961  0.1555 -0.0231
 5893SOL    HW129141   2.092   2.194  10.976  0.1960  0.5127  0.8788
 5893SOL    HW229142   2.144   2.330  11.019  0.1261  2.9924 -1.8398
 5894SOL     OW29143   2.670   0.836   5.112 -0.5793  0.0280 -0.1602
 5894SOL    HW129144   2.666   0.932   5.116 -2.3366  0.0284 -2.2030
 5894SOL    HW229145   2.765   0.837   5.101 -0.6049  1.0872 -0.2875
 5895SOL     OW29146   1.322   4.294   2.381  0.0073 -0.3095 -0.0525
 5895SOL    HW129147   1.317   4.220   2.320  0.3405 -1.3622  1.1798
 5895SOL    HW229148   1.232   4.292   2.411 -0.5527 -0.5366 -1.7509
 5896SOL     OW29149   2.908   3.920  11.026 -0.0457 -0.2887 -0.7477
 5896SOL    HW129150   2.836   3.952  11.080  1.6678  2.6661 -0.2217
 5896SOL    HW229151   2.867   3.917  10.940 -1.0995 -0.7074 -0.2285
 5897SOL     OW29152   2.603   1.806   7.586 -0.1437 -0.3866  0.3457
 5897SOL    HW129153   2.694   1.836   7.581 -0.6070  0.5207 -2.6203
 5897SOL    HW229154   2.587   1.823   7.493  1.1164  2.3523  0.6514
 5898SOL     OW29155   3.333   0.337  10.769  0.3541 -0.0499 -0.0641
 5898SOL    HW129156   3.353   0.419  10.815  0.6573 -0.3817  0.3912
 5898SOL    HW229157   3.322   0.283  10.847 -0.3811  3.0792  2.0303
 5899SOL     OW29158   0.263   1.215   5.445 -0.2197  0.2904  0.6172
 5899SOL    HW129159   0.238   1.297   5.486  1.3404  0.3647  1.4199
 5899SOL    HW229160   0.358   1.225   5.458 -0.3244  1.2507  0.6001
 5900SOL     OW29161   1.069   3.214   8.778 -0.0133  0.3306  0.3962
 5900SOL    HW129162   1.143   3.208   8.838 -2.5897  1.2303  3.6633
 5900SOL    HW229163   1.103   3.153   8.713  0.7703  0.0050  1.1152
 5901SOL     OW29164   2.846   4.630   5.316 -0.1778  0.3253  0.2645
 5901SOL    HW129165   2.856   4.681   5.235  1.8757 -0.0203  0.2955
 5901SOL    HW229166   2.936   4.633   5.347  0.1599 -0.6612 -0.6291
 5902SOL     OW29167   3.800   3.440   4.856  0.6763 -0.4953 -0.0224
 5902SOL    HW129168   3.865   3.437   4.786  0.5778 -0.3523 -0.1191
 5902SOL    HW229169   3.771   3.531   4.853  1.8086 -0.1864 -1.7229
 5903SOL     OW29170   0.657   1.967   9.627  0.2724  0.0407  0.1123
 5903SOL    HW129171   0.752   1.956   9.636  0.1447 -0.2899  1.0420
 5903SOL    HW229172   0.657   2.023   9.704  2.1314  1.2034 -0.7444
 5904SOL     OW29173   2.969   1.097   6.747  0.2788 -0.1521 -0.0144
 5904SOL    HW129174   3.011   1.174   6.785 -1.0817 -0.5852  2.3917
 5904SOL    HW229175   2.875   1.116   6.757  0.7186  1.9396  0.2569
 5905SOL     OW29176   4.034   0.182   9.294  0.7785 -0.1979 -0.3554
 5905SOL    HW129177   4.076   0.207   9.376  2.4605 -1.9905 -0.6622
 5905SOL    HW229178   3.959   0.241   9.290  1.4473  0.6514 -0.2381
 5906SOL     OW29179   0.750   2.017  10.126 -0.6833 -0.4670 -0.0403
 5906SOL    HW129180   0.747   2.059  10.212 -2.3250  0.6960 -0.6774
 5906SOL    HW229181   0.846   2.013  10.125 -0.6203  1.1871 -0.2495
 5907SOL     OW29182   3.899   1.233   6.081  0.5932  0.2147 -0.0037
 5907SOL    HW129183   3.957   1.159   6.098 -1.3739 -1.2371  0.4804
 5907SOL    HW229184   3.952   1.313   6.080 -0.9652  1.2231 -1.3788
 5908SOL     OW29185   0.280   3.860   4.638  0.3629 -0.2507 -0.4613
 5908SOL    HW129186   0.347   3.794   4.620  0.2634 -0.7687  1.0246
 5908SOL    HW229187   0.219   3.796   4.675  0.8289  1.3057  2.9820
 5909SOL     OW29188   3.795   1.785   5.150 -0.4094  0.1678 -0.2531
 5909SOL    HW129189   3.729   1.839   5.193 -0.9309 -0.1358 -0.6730
 5909SOL    HW229190   3.771   1.803   5.059  1.9697  1.9415 -0.5367
 5910SOL     OW29191   0.791   3.648   4.036  0.0644  0.0229  0.0871
 5910SOL    HW129192   0.808   3.578   4.100  0.2350 -0.1497 -0.1462
 5910SOL    HW229193   0.744   3.715   4.086  2.7966  2.7122 -0.9832
 5911SOL     OW29194   3.588   1.595   8.793  0.1131 -0.2837 -0.2600
 5911SOL    HW129195   3.502   1.594   8.834  0.1646  0.3479 -0.1457
 5911SOL    HW229196   3.643   1.632   8.862  0.0716  1.4567 -1.1714
 5912SOL     OW29197   2.226   2.457   8.750 -0.1719  0.0423  0.4428
 5912SOL    HW129198   2.142   2.446   8.705 -0.2506 -1.5042  0.9749
 5912SOL    HW229199   2.211   2.541   8.793 -1.3120  1.9852 -3.7120
 5913SOL     OW29200   0.374   0.508   7.561  0.4549 -0.0210 -0.0333
 5913SOL    HW129201   0.398   0.597   7.537 -1.5471  0.4104 -0.3903
 5913SOL    HW229202   0.460   0.467   7.572  1.7080  2.7109  0.1821
 5914SOL     OW29203   2.558   2.262   2.464 -0.1385 -0.0412 -0.5286
 5914SOL    HW129204   2.491   2.311   2.415  0.1290 -1.3737 -2.2440
 5914SOL    HW229205   2.595   2.218   2.387 -0.5381 -2.3487  0.5883
 5915SOL     OW29206   0.801   1.559   7.409  0.3179 -0.2003 -0.8457
 5915SOL    HW129207   0.804   1.648   7.374 -0.1826  0.9062  1.9672
 5915SOL    HW229208   0.890   1.557   7.443 -0.3285  0.4591  0.8764
 5916SOL     OW29209   3.489   4.542   4.937  0.1441  0.3404  0.3864
 5916SOL    HW129210   3.569   4.490   4.927  0.0429 -0.3577  3.3394
 5916SOL    HW229211   3.531   4.617   4.896  0.8278  0.1653  0.7741
 5917SOL     OW29212   1.500   0.726  12.384  0.1590  0.0534 -0.1042
 5917SOL    HW129213   1.565   0.692  12.446 -0.6720 -0.5632  0.4279
 5917SOL    HW229214   1.494   0.817  12.412 -1.0601  0.0751 -0.4612
 5918SOL     OW29215   3.774   4.149   0.622 -0.0443  0.0516 -0.2582
 5918SOL    HW129216   3.757   4.227   0.569  1.0903 -0.2171 -1.0160
 5918SOL    HW229217   3.708   4.149   0.691 -1.6430  1.3434 -1.7767
 5919SOL     OW29218   2.589   4.426   1.362  0.2765  0.1974  0.3487
 5919SOL    HW129219   2.572   4.508   1.409 -1.0754 -0.7100  1.4552
 5919SOL    HW229220   2.501   4.387   1.368  0.6566 -0.5748  0.8553
 5920SOL     OW29221   2.246   4.292  11.402  0.3249 -0.0579 -0.1310
 5920SOL    HW129222   2.217   4.338  11.481  0.4659  2.2329 -1.4132
 5920SOL    HW229223   2.334   4.261  11.425  0.1963 -0.0898  0.3205
 5921SOL     OW29224   2.501   2.644   2.760  0.5095 -0.2157  0.5611
 5921SOL    HW129225   2.542   2.594   2.689  1.4520  0.0412  0.9232
 5921SOL    HW229226   2.435   2.586   2.797  0.2680 -1.2290 -1.4247
 5922SOL     OW29227   0.516   2.866  12.935 -0.0258  0.0106 -0.7738
 5922SOL    HW129228   0.444   2.856  12.997  0.9651  1.1114  0.5511
 5922SOL    HW229229   0.485   2.934  12.876  0.1945  0.4382 -0.3983
 5923SOL     OW29230   4.479   1.609   8.180  0.1976 -0.2239  0.0301
 5923SOL    HW129231   4.510   1.542   8.242  0.2961 -1.1499 -1.0289
 5923SOL    HW229232   4.561   1.659   8.186  1.5977 -2.5395  0.3650
 5924SOL     OW29233   0.415   3.568  13.725  0.2949  0.0050  0.0623
 5924SOL    HW129234   0.344   3.610  13.774  1.8171 -1.5084  3.6013
 5924SOL    HW229235   0.480   3.599  13.788 -1.3419  2.0923  0.7306
 5925SOL     OW29236   1.900   2.172   2.472  0.1503  0.0694  0.2311
 5925SOL    HW129237   1.989   2.155   2.504 -0.5842 -0.2611  2.0784
 5925SOL    HW229238   1.848   2.157   2.551  0.5515  0.0716  0.4978
 5926SOL     OW29239   0.540   2.496   5.093 -0.2491 -0.7270  0.5626
 5926SOL    HW129240   0.509   2.522   5.180  0.3106  1.0539  0.2239
 5926SOL    HW229241   0.527   2.404   5.073 -1.3900 -0.6696  1.0251
 5927SOL     OW29242   3.359   3.339   3.368 -0.2258 -0.3684 -0.1981
 5927SOL    HW129243   3.421   3.401   3.329 -0.5415 -0.9436 -1.6167
 5927SOL    HW229244   3.414   3.273   3.409  0.5578  0.0097 -0.6511
 5928SOL     OW29245   0.541   4.523  16.177  0.0381  0.4007  0.3168
 5928SOL    HW129246   0.533   4.468  16.099  1.8716  0.6985 -0.0854
 5928SOL    HW229247   0.539   4.614  16.148  0.7044  0.4405  0.4115
 5929SOL     OW29248   4.354   2.403   6.103  0.0275 -0.3861  0.2788
 5929SOL    HW129249   4.370   2.317   6.142 -1.4316 -0.1314  1.4043
 5929SOL    HW229250   4.377   2.458   6.178 -1.3157  1.2210 -0.5003
 5930SOL     OW29251   1.427   4.438   8.646 -0.2880  0.3243 -0.1407
 5930SOL    HW129252   1.443   4.353   8.606  1.2658  1.2694 -1.5324
 5930SOL    HW229253   1.510   4.462   8.689  0.4497  0.6069 -1.7183
 5931SOL     OW29254   0.987   1.669   8.370 -0.2871  0.4119  0.4128
 5931SOL    HW129255   1.072   1.644   8.408  0.7060  0.0774 -2.0402
 5931SOL    HW229256   0.925   1.644   8.438 -0.5501  0.3017  0.1307
 5932SOL     OW29257   0.287   3.547   5.724 -1.1484  0.6374  0.2734
 5932SOL    HW129258   0.318   3.574   5.810  0.6819  0.7460 -0.4269
 5932SOL    HW229259   0.350   3.584   5.663 -0.4963 -0.8341  0.0487
 5933SOL     OW29260   2.317   1.751   9.205  0.0385  0.3946 -0.1453
 5933SOL    HW129261   2.237   1.782   9.248 -1.7039 -2.9158 -0.9689
 5933SOL    HW229262   2.295   1.658   9.204  0.1882  0.3624 -0.4338
 5934SOL     OW29263   4.553   0.510   9.425  0.5265  0.1054 -0.8901
 5934SOL    HW129264   4.645   0.493   9.449  0.5513  1.0393 -0.3318
 5934SOL    HW229265   4.504   0.474   9.498  0.7700 -1.9315 -1.7299
 5935SOL     OW29266   1.665   4.589   0.206 -0.2770 -0.0186 -0.7306
 5935SOL    HW129267   1.595   4.529   0.182 -2.1185  1.4932  0.9265
 5935SOL    HW229268   1.687   4.614   0.116  1.3830  3.5383  0.6891
 5936SOL     OW29269   1.478   2.561   6.036  0.1075  0.2042 -0.3267
 5936SOL    HW129270   1.481   2.471   6.068  1.3324  0.3668  0.0061
 5936SOL    HW229271   1.384   2.582   6.033 -0.0124 -0.4912 -1.4200
 5937SOL     OW29272   4.680   1.514   7.252 -0.8960  0.8022 -0.0914
 5937SOL    HW129273   0.038   1.526   7.300 -0.6387 -0.9865 -0.0959
 5937SOL    HW229274   4.657   1.423   7.233 -1.2730  1.4086 -2.5652
 5938SOL     OW29275   4.001   3.141   5.328 -0.0059  0.3591 -0.2846
 5938SOL    HW129276   3.982   3.203   5.258  1.2402  0.9119 -0.1219
 5938SOL    HW229277   3.983   3.058   5.283  2.4426 -0.3918  0.1429
 5939SOL     OW29278   2.404   1.604  10.749  0.0716  0.5758  0.5150
 5939SOL    HW129279   2.418   1.510  10.744 -3.3940  0.0023  1.8393
 5939SOL    HW229280   2.482   1.630  10.799  1.0755 -2.2896  0.4105
 5940SOL     OW29281   3.380   1.492  12.186 -0.4573  0.1048  0.1113
 5940SOL    HW129282   3.437   1.419  12.162  0.5302  0.8029  0.3559
 5940SOL    HW229283   3.402   1.543  12.108 -1.9860 -1.7118 -1.5328
 5941SOL     OW29284   3.213   4.534   5.443  0.0940  0.7668 -0.7439
 5941SOL    HW129285   3.294   4.562   5.486 -0.8035  0.7704  0.9625
 5941SOL    HW229286   3.177   4.606   5.391  0.0110  0.4409 -1.1395
 5942SOL     OW29287   2.280   0.622  16.912  0.3035  0.2949 -0.0662
 5942SOL    HW129288   2.204   0.587  16.958 -2.2278  1.0647 -3.6849
 5942SOL    HW229289   2.312   0.541  16.872  1.2311  1.0728 -0.8971
 5943SOL     OW29290   3.885   2.406   4.542  0.0209 -0.2726  0.1564
 5943SOL    HW129291   3.793   2.384   4.556 -0.4189  1.3370 -0.2089
 5943SOL    HW229292   3.918   2.388   4.630 -0.8136 -1.6159  0.1918
 5944SOL     OW29293   3.542   3.432   7.428  0.6465 -0.1313 -0.1767
 5944SOL    HW129294   3.617   3.491   7.422  2.2802 -2.3315 -1.4312
 5944SOL    HW229295   3.514   3.433   7.519 -1.9524  1.3421 -0.9935
 5945SOL     OW29296   1.056   1.467   7.968  0.1676 -0.5064  0.8894
 5945SOL    HW129297   0.972   1.473   8.013  0.4204  0.7586  1.1917
 5945SOL    HW229298   1.107   1.419   8.033  1.0552 -0.6195  0.1227
 5946SOL     OW29299   4.644   1.570   4.743 -0.1798  0.1572 -0.0257
 5946SOL    HW129300   4.567   1.514   4.759 -0.3751  0.2716 -0.5832
 5946SOL    HW229301   4.678   1.540   4.659  1.2561  0.5710  0.4138
 5947SOL     OW29302   1.427   2.748  17.227  0.0840 -0.0607 -0.4270
 5947SOL    HW129303   1.488   2.775  17.296  1.2345  0.6720 -1.7325
 5947SOL    HW229304   1.359   2.709  17.282 -0.5690  1.4802 -0.1517
 5948SOL     OW29305   2.114   1.232  11.441  0.5772  0.0750 -1.0811
 5948SOL    HW129306   2.144   1.161  11.385  0.7974  1.0306 -2.1680
 5948SOL    HW229307   2.072   1.283  11.372  1.2757  0.0887 -1.4928
 5949SOL     OW29308   0.943   4.351  13.608 -0.8128  0.3342 -1.0494
 5949SOL    HW129309   0.899   4.299  13.540  0.4289 -1.6376 -0.3384
 5949SOL    HW229310   0.960   4.432  13.560  2.0604  0.3030 -0.0812
 5950SOL     OW29311   1.075   2.838   9.151  0.1112  0.1798 -0.1616
 5950SOL    HW129312   1.081   2.762   9.092  3.1185  1.7429 -1.8521
 5950SOL    HW229313   1.035   2.908   9.099 -0.8715  1.1205  1.8771
 5951SOL     OW29314   1.706   3.027   2.630 -0.8719 -0.3231  0.7897
 5951SOL    HW129315   1.716   2.973   2.552 -0.0567  0.5153  0.3293
 5951SOL    HW229316   1.750   2.973   2.696  0.9928  1.5873  1.0846
 5952SOL     OW29317   2.056   2.789   6.249  0.3113  0.0720  0.3005
 5952SOL    HW129318   2.132   2.756   6.297  0.9715 -2.0678 -2.2631
 5952SOL    HW229319   1.990   2.808   6.316 -1.6215 -0.7012 -1.3847
 5953SOL     OW29320   3.406   0.149  14.309 -0.2610  0.4291 -0.1697
 5953SOL    HW129321   3.348   0.112  14.243 -1.0496  0.6809  0.3775
 5953SOL    HW229322   3.345   0.209  14.353  2.1389  2.6077  0.2408
 5954SOL     OW29323   1.631   2.934  10.825  0.0034  0.1968 -0.0713
 5954SOL    HW129324   1.698   2.969  10.883  1.4944  0.8605 -2.1824
 5954SOL    HW229325   1.585   3.015  10.802 -1.7784 -0.5718  0.7468
 5955SOL     OW29326   4.290   4.029   3.598 -0.0339 -0.3785  0.3433
 5955SOL    HW129327   4.372   4.055   3.640  0.1501 -1.0447  0.4049
 5955SOL    HW229328   4.307   4.064   3.510  1.3103 -0.8370  0.4196
 5956SOL     OW29329   2.881   0.849  17.420 -0.3344 -0.7362 -0.3541
 5956SOL    HW129330   2.828   0.833  17.497  1.1016  0.1583  0.8299
 5956SOL    HW229331   2.934   0.770  17.411 -0.7653 -1.2502  1.7519
 5957SOL     OW29332   1.284   0.957   8.943 -0.4753 -0.1216  0.2185
 5957SOL    HW129333   1.263   0.966   9.036  0.6077  0.5000  0.3959
 5957SOL    HW229334   1.221   1.022   8.913 -0.3235 -0.8856 -1.7729
 5958SOL     OW29335   2.828   3.874   8.035  0.4602  0.2743  0.3403
 5958SOL    HW129336   2.903   3.881   8.094 -0.4808 -0.9339  1.6589
 5958SOL    HW229337   2.848   3.789   7.994  1.3557 -0.1036  1.5709
 5959SOL     OW29338   1.915   0.734   6.832  0.3817  0.2410  0.4438
 5959SOL    HW129339   1.852   0.675   6.873 -2.4446  1.0689 -2.6318
 5959SOL    HW229340   1.864   0.784   6.768  0.1272 -1.4062 -0.6606
 5960SOL     OW29341   4.386   4.462   2.339  0.5212 -0.6961  0.7091
 5960SOL    HW129342   4.392   4.556   2.359 -3.7590  0.2584 -2.4545
 5960SOL    HW229343   4.319   4.478   2.272  0.1727 -0.2198  1.1683
 5961SOL     OW29344   0.284   3.172   2.360  0.2701 -0.5601 -0.8679
 5961SOL    HW129345   0.222   3.246   2.356 -1.1102 -1.7961 -2.6084
 5961SOL    HW229346   0.289   3.154   2.266 -1.6051  1.9345 -1.4728
 5962SOL     OW29347   0.661   2.280   2.260 -0.6586  0.4183  0.2440
 5962SOL    HW129348   0.740   2.271   2.206 -2.1838  1.2953 -2.1704
 5962SOL    HW229349   0.603   2.208   2.234 -0.0534 -0.1544  0.5019
 5963SOL     OW29350   3.168   2.413   0.260 -0.3077  0.0424 -0.4671
 5963SOL    HW129351   3.202   2.399   0.348 -0.8591  0.6996 -0.1476
 5963SOL    HW229352   3.077   2.431   0.282  0.3800  3.7883 -0.7064
 5964SOL     OW29353   2.046   1.518  17.341  0.3780  0.3363 -0.1920
 5964SOL    HW129354   2.009   1.467  17.268  1.7588  1.1550 -1.4661
 5964SOL    HW229355   1.968   1.517  17.396  0.9709 -0.8274  0.6358
 5965SOL     OW29356   0.927   3.629   3.629 -0.3404 -0.5600 -0.6430
 5965SOL    HW129357   0.969   3.544   3.619  1.3083  0.1919 -0.1012
 5965SOL    HW229358   0.934   3.668   3.542  0.4401  1.6126  0.3837
 5966SOL     OW29359   3.414   1.706   2.081  0.3743  0.4428 -0.4123
 5966SOL    HW129360   3.442   1.706   1.990  1.7383 -3.0106  0.0053
 5966SOL    HW229361   3.319   1.690   2.077  0.4136  0.3409 -0.9178
 5967SOL     OW29362   3.699   2.878   8.568 -0.2983  0.3179  0.7174
 5967SOL    HW129363   3.756   2.803   8.581  0.0724  0.4676 -0.0146
 5967SOL    HW229364   3.738   2.948   8.621 -0.1037  0.6291  0.1601
 5968SOL     OW29365   0.884   2.011   2.033  0.1866  0.3354  0.3374
 5968SOL    HW129366   0.851   2.081   1.975  0.2417 -1.6192 -2.0542
 5968SOL    HW229367   0.853   1.931   1.990 -0.5030  2.3117 -2.8629
 5969SOL     OW29368   2.221   0.422   6.400 -0.1210  0.1265  0.1482
 5969SOL    HW129369   2.288   0.474   6.444 -0.2425  0.7751 -0.4332
 5969SOL    HW229370   2.197   0.491   6.338  1.2008 -1.6401 -2.3209
 5970SOL     OW29371   4.191   1.001   6.906  0.4918 -0.2028  0.3554
 5970SOL    HW129372   4.111   1.002   6.958 -0.5299  0.1810 -1.2300
 5970SOL    HW229373   4.252   0.948   6.957  1.1403 -0.4131 -0.6251
 5971SOL     OW29374   4.148   0.222   2.205  0.2582  0.0736  0.1645
 5971SOL    HW129375   4.080   0.232   2.138  1.9037 -0.4348 -1.5720
 5971SOL    HW229376   4.116   0.275   2.278  0.0725  0.9237 -0.5251
 5972SOL     OW29377   3.282   1.077   4.369  0.7260  0.1526  0.0222
 5972SOL    HW129378   3.326   1.002   4.409 -1.0923 -0.1465  1.4690
 5972SOL    HW229379   3.191   1.065   4.395  0.7551 -0.3440 -0.1145
 5973SOL     OW29380   3.718   1.227   7.919  0.0844 -0.4672  0.3797
 5973SOL    HW129381   3.653   1.213   7.849 -0.1929  2.0707  0.1517
 5973SOL    HW229382   3.672   1.276   7.986  0.9334  1.4829 -0.4742
 5974SOL     OW29383   4.599   2.901   0.767  0.2076  0.3372 -0.6900
 5974SOL    HW129384   4.564   2.974   0.717  1.1739  1.7566  0.6922
 5974SOL    HW229385   4.556   2.826   0.727 -2.2638 -0.6630  3.8582
 5975SOL     OW29386   1.087   4.341  12.643 -0.4270  0.0806  0.3280
 5975SOL    HW129387   1.067   4.252  12.616  1.8787 -0.4516  0.4041
 5975SOL    HW229388   1.023   4.352  12.714 -1.1843 -0.2142 -0.3155
 5976SOL     OW29389   0.362   4.706   3.296  0.8311 -0.0625 -0.0169
 5976SOL    HW129390   0.348   4.678   3.205 -0.2367 -0.3489  0.2411
 5976SOL    HW229391   0.311   4.645   3.348 -0.9397  1.4343  0.0001
 5977SOL     OW29392   3.795   0.397  14.328  0.4211  0.5549 -0.4840
 5977SOL    HW129393   3.754   0.312  14.313  2.5989 -0.7471  0.8957
 5977SOL    HW229394   3.862   0.379  14.394 -2.4515  1.0968  2.5227
 5978SOL     OW29395   2.321   4.564  11.260  0.6970  0.4746  0.5351
 5978SOL    HW129396   2.326   4.502  11.187 -1.1661  1.1922 -0.1981
 5978SOL    HW229397   2.412   4.559  11.291  0.1484  0.3578  2.1212
 5979SOL     OW29398   3.668   0.161  14.281 -0.0861 -0.0787  0.4780
 5979SOL    HW129399   3.659   0.170  14.186  0.6791  0.4724  0.4607
 5979SOL    HW229400   3.575   0.165  14.302 -1.1224 -1.6915 -3.8322
 5980SOL     OW29401   4.559   2.902  10.987  0.1162 -0.1907 -0.2114
 5980SOL    HW129402   4.553   2.986  11.032  0.4236  0.4227 -1.3129
 5980SOL    HW229403   4.488   2.844  11.015 -0.2141 -0.3686 -1.4217
 5981SOL     OW29404   3.809   2.705  17.339  0.0955 -0.5562 -0.3837
 5981SOL    HW129405   3.894   2.695  17.296  0.0058 -0.8305 -0.4965
 5981SOL    HW229406   3.773   2.777  17.286 -1.2147 -1.3098 -0.4972
 5982SOL     OW29407   2.502   4.473   7.621  0.2309 -0.1812  1.0661
 5982SOL    HW129408   2.555   4.404   7.661 -0.1279  0.5365  2.7905
 5982SOL    HW229409   2.452   4.423   7.556 -0.9504 -0.7565  2.4028
 5983SOL     OW29410   1.418   0.912  11.444 -0.2309 -0.7735 -0.4512
 5983SOL    HW129411   1.418   0.856  11.522  0.5004  1.2549  1.0054
 5983SOL    HW229412   1.439   1.000  11.474  0.4334 -1.4898  1.1680
 5984SOL     OW29413   3.454   4.392   4.099 -0.0689  0.1648 -0.7934
 5984SOL    HW129414   3.394   4.359   4.033 -1.2011 -2.2698  1.4251
 5984SOL    HW229415   3.407   4.470   4.127 -1.4932 -1.0767  0.3134
 5985SOL     OW29416   2.337   2.673   4.898 -0.1981 -0.5419 -0.2653
 5985SOL    HW129417   2.261   2.729   4.914 -1.8075 -2.2108 -2.1035
 5985SOL    HW229418   2.389   2.730   4.842 -1.0662 -0.1741 -0.6978
 5986SOL     OW29419   2.319   0.187  15.398  0.2152  0.0599 -0.3518
 5986SOL    HW129420   2.301   0.278  15.420  1.6053 -0.3118  2.4636
 5986SOL    HW229421   2.353   0.164  15.485 -1.1045  0.7146  0.3271
 5987SOL     OW29422   2.200   2.693   3.466 -0.3408  0.3965 -0.4554
 5987SOL    HW129423   2.144   2.621   3.434  0.3748  0.9363 -2.8994
 5987SOL    HW229424   2.280   2.642   3.473  0.5503  1.7237 -1.0744
 5988SOL     OW29425   2.307   2.728   9.550  0.0896 -0.1349  0.3276
 5988SOL    HW129426   2.342   2.640   9.539 -0.3408 -0.3863  0.9347
 5988SOL    HW229427   2.235   2.715   9.612 -1.1688  0.8161 -0.9188
 5989SOL     OW29428   0.507   3.399   0.267 -0.0848  0.1308 -0.4095
 5989SOL    HW129429   0.561   3.396   0.188  1.9015 -2.2621  1.0604
 5989SOL    HW229430   0.418   3.413   0.235 -0.9692 -0.8946  1.5717
 5990SOL     OW29431   3.911   2.439   9.266  0.3708 -0.7158 -0.2186
 5990SOL    HW129432   3.911   2.529   9.299  1.0690 -0.4551 -0.9143
 5990SOL    HW229433   3.895   2.384   9.342 -0.9553 -0.4867 -0.3236
 5991SOL     OW29434   1.833   0.010  10.660  0.4150 -0.2168  0.6568
 5991SOL    HW129435   1.864   0.078  10.600 -1.1263  2.7775  3.2795
 5991SOL    HW229436   1.825   0.065  10.738 -1.7134  1.3156 -0.6503
 5992SOL     OW29437   4.017   0.922   0.875  0.0569 -0.2232  0.6635
 5992SOL    HW129438   4.036   0.974   0.796 -0.8966  2.8074  2.4139
 5992SOL    HW229439   4.043   0.984   0.943 -1.1493 -1.5167  2.2840
 5993SOL     OW29440   3.679   4.598   4.189  0.0753  0.2182  0.2140
 5993SOL    HW129441   3.722   4.632   4.111  1.1001  2.5587  1.7945
 5993SOL    HW229442   3.589   4.632   4.191  0.5551  1.3173  3.5862
 5994SOL     OW29443   4.348   2.903   4.075  0.1702 -0.8143  0.1284
 5994SOL    HW129444   4.309   2.848   4.143 -2.8527  2.5832  1.1807
 5994SOL    HW229445   4.378   2.836   4.014  0.5960 -0.9988  0.5377
 5995SOL     OW29446   4.186   2.648  17.668 -0.0971 -0.0078 -0.3615
 5995SOL    HW129447   4.134   2.635   0.049 -0.5591  1.1521 -0.4613
 5995SOL    HW229448   4.129   2.718  17.635 -1.6154 -0.1468  1.9594
 5996SOL     OW29449   0.350   2.476  11.957  0.0616  0.5559  0.1870
 5996SOL    HW129450   0.390   2.545  12.010 -2.2565  1.7762  0.3393
 5996SOL    HW229451   0.410   2.466  11.883 -0.9523 -2.0611 -0.2836
 5997SOL     OW29452   4.649   2.783   7.953 -0.8054 -0.4493 -0.1116
 5997SOL    HW129453   4.611   2.761   8.038 -0.6698 -0.8122 -0.1460
 5997SOL    HW229454   4.570   2.788   7.899 -0.6888  0.0900 -0.2347
 5998SOL     OW29455   3.338   3.875  11.834 -0.0252 -0.4438  0.2003
 5998SOL    HW129456   3.243   3.861  11.829  0.1425 -1.6603  0.2926
 5998SOL    HW229457   3.362   3.946  11.775  1.2668  0.5240  1.8698
 5999SOL     OW29458   2.399   1.380   3.063  0.9827 -0.0244  0.4432
 5999SOL    HW129459   2.377   1.288   3.055  0.6136  0.1409 -0.4552
 5999SOL    HW229460   2.419   1.394   3.155 -0.0418  1.5596  0.4369
 6000SOL     OW29461   3.886   1.924   6.785 -0.5786 -0.2612 -0.2482
 6000SOL    HW129462   3.805   1.974   6.781  0.8430  2.1911  1.7533
 6000SOL    HW229463   3.861   1.845   6.833  1.9969 -1.1840 -0.4027
 6001SOL     OW29464   1.240   2.644   4.385 -0.9886  0.4318 -0.2926
 6001SOL    HW129465   1.240   2.639   4.480  2.6287  0.3244 -0.2787
 6001SOL    HW229466   1.206   2.733   4.374 -0.7967  0.6507  0.8871
 6002SOL     OW29467   0.853   2.388   8.005 -0.2219 -0.0396 -0.0367
 6002SOL    HW129468   0.775   2.333   8.000 -1.6919  1.9887  0.4022
 6002SOL    HW229469   0.902   2.379   7.923 -0.3715 -0.2638 -0.0983
 6003SOL     OW29470   1.900   2.672   6.822  0.0610 -0.4016 -0.5310
 6003SOL    HW129471   1.864   2.692   6.908 -0.9516  0.5796 -1.1858
 6003SOL    HW229472   1.995   2.677   6.832 -0.1506  1.3462  0.5375
 6004SOL     OW29473   3.852   1.214   4.424  0.2076 -0.1319 -0.2834
 6004SOL    HW129474   3.804   1.144   4.380  0.1748  0.7002 -1.5622
 6004SOL    HW229475   3.792   1.284   4.398  1.2837  1.2378  0.9599
 6005SOL     OW29476   3.794   2.254   2.847  0.4649 -0.0310  0.1281
 6005SOL    HW129477   3.801   2.215   2.760 -0.3017 -2.2084  1.0335
 6005SOL    HW229478   3.699   2.250   2.859  0.3058 -0.8492 -1.3565
 6006SOL     OW29479   4.129   0.646   3.217  0.2167 -0.5130 -0.3749
 6006SOL    HW129480   4.135   0.724   3.272  0.1841 -0.7854  0.0200
 6006SOL    HW229481   4.036   0.636   3.199 -0.2442  2.7325  0.2735
 6007SOL     OW29482   3.114   3.610  14.804 -0.1173  0.2695  0.7889
 6007SOL    HW129483   3.048   3.672  14.772 -0.1201 -0.5066 -0.7378
 6007SOL    HW229484   3.125   3.553  14.728  1.8992 -0.2558  1.4962
 6008SOL     OW29485   2.430   1.092  16.103  0.2479 -0.5336  0.3666
 6008SOL    HW129486   2.372   1.167  16.087  0.6883 -0.5831 -1.4428
 6008SOL    HW229487   2.381   1.060  16.179 -0.7473  0.6913  0.2512
 6009SOL     OW29488   3.331   2.887  15.399 -0.0114  0.1862 -0.5211
 6009SOL    HW129489   3.357   2.944  15.471  2.4196  0.4041 -1.5655
 6009SOL    HW229490   3.414   2.840  15.390 -0.5554 -0.9891  0.5963
 6010SOL     OW29491   0.904   3.012  17.445  0.3410  0.3075  0.4544
 6010SOL    HW129492   0.911   3.025  17.539  0.7950  2.2920  0.1531
 6010SOL    HW229493   0.829   2.953  17.449 -1.2057  2.1557 -0.9707
 6011SOL     OW29494   1.767   0.719  11.154  0.1736  0.4529 -0.5358
 6011SOL    HW129495   1.690   0.730  11.209 -0.2812 -2.1972 -0.6413
 6011SOL    HW229496   1.726   0.760  11.078 -3.3817 -2.1002 -0.0022
 6012SOL     OW29497   2.557   4.700   1.923  0.0637 -0.0674 -0.3174
 6012SOL    HW129498   2.461   4.692   1.926 -0.0431  2.0646  2.2413
 6012SOL    HW229499   2.567   0.071   1.917 -1.0920 -0.0727 -2.4558
 6013SOL     OW29500   4.666   1.585   5.407  0.0611  0.3141  0.4451
 6013SOL    HW129501   4.626   1.651   5.463  0.4319  0.7907  0.1503
 6013SOL    HW229502   4.626   1.590   5.320 -0.5442  1.1631  0.7765
 6014SOL     OW29503   3.069   2.578   7.643 -0.0751  0.3002 -0.1709
 6014SOL    HW129504   3.074   2.496   7.692  0.5056  0.5436  0.1631
 6014SOL    HW229505   3.081   2.551   7.551 -1.3558 -2.1486  0.3633
 6015SOL     OW29506   2.815   0.524   2.742 -0.2662  0.1153 -0.5285
 6015SOL    HW129507   2.769   0.452   2.698 -2.0184  1.0618 -0.2465
 6015SOL    HW229508   2.749   0.593   2.740  0.1779  0.6534  2.7739
 6016SOL     OW29509   2.166   0.313   4.816  0.1047  0.3204  0.1968
 6016SOL    HW129510   2.261   0.316   4.810  0.1640 -0.4886  0.6808
 6016SOL    HW229511   2.137   0.374   4.748 -0.7043  0.5319  0.7381
 6017SOL     OW29512   0.068   0.977  11.140 -0.5277  0.1251  0.1075
 6017SOL    HW129513   0.115   1.055  11.168 -0.4805  0.0411  0.2614
 6017SOL    HW229514   4.721   1.014  11.088  0.4996  0.0220 -1.3871
 6018SOL     OW29515   2.621   1.095  15.868 -0.1478  0.2293 -0.3526
 6018SOL    HW129516   2.568   1.116  15.791 -1.4099  0.2618  0.5244
 6018SOL    HW229517   2.552   1.087  15.934  0.1255  0.7296 -0.0027
 6019SOL     OW29518   1.951   4.367  17.453 -0.1091  0.1748 -0.3857
 6019SOL    HW129519   1.973   4.422  17.527  0.8927  1.2814 -1.5047
 6019SOL    HW229520   1.857   4.369  17.468 -0.2672 -1.6561 -1.1388
 6020SOL     OW29521   1.568   1.035   1.637 -0.7597 -0.3986 -0.2614
 6020SOL    HW129522   1.478   1.059   1.661  0.0168 -1.0228  3.3645
 6020SOL    HW229523   1.588   1.109   1.581 -0.9811  0.8790  1.3490
 6021SOL     OW29524   2.673   2.413   6.680 -0.5083 -0.0062  0.1597
 6021SOL    HW129525   2.650   2.489   6.734  1.6885  0.4204  0.5145
 6021SOL    HW229526   2.667   2.463   6.599  1.3836  1.0556  0.6574
 6022SOL     OW29527   4.520   3.244  13.562  0.5383 -0.0869 -0.4245
 6022SOL    HW129528   4.429   3.260  13.588  0.0925 -0.9970 -1.4241
 6022SOL    HW229529   4.537   3.176  13.628  0.7487  1.5485  1.2136
 6023SOL     OW29530   0.104   0.359   3.943  0.3563  0.0600 -0.2744
 6023SOL    HW129531   0.115   0.278   3.993 -1.5692  0.6690  1.1117
 6023SOL    HW229532   0.097   0.326   3.853 -0.2945 -0.9111  0.1465
 6024SOL     OW29533   0.644   0.582  17.164  0.4098  0.1121  0.0533
 6024SOL    HW129534   0.591   0.651  17.123 -0.7132 -0.8735 -0.1773
 6024SOL    HW229535   0.672   0.622  17.246 -2.3850 -0.1024  1.1412
 6025SOL     OW29536   0.065   4.404   2.345  0.1080  0.3979 -0.1897
 6025SOL    HW129537   4.706   4.389   2.301  1.0933  0.4604 -2.0732
 6025SOL    HW229538   0.103   4.466   2.283 -0.6181  0.5375 -0.4913
 6026SOL     OW29539   3.632   3.918  15.431 -0.0644 -0.2766 -0.2355
 6026SOL    HW129540   3.650   3.824  15.437  1.3988  0.0428  0.3466
 6026SOL    HW229541   3.537   3.921  15.430 -0.0660 -0.7265 -2.6918
 6027SOL     OW29542   3.472   1.645   3.182  0.2173 -0.2899 -0.1376
 6027SOL    HW129543   3.551   1.648   3.130 -0.0876  0.7191 -0.5356
 6027SOL    HW229544   3.412   1.603   3.120  1.0680 -1.6921 -0.0112
 6028SOL     OW29545   1.194   2.351  16.127  0.4130  0.4871  0.2692
 6028SOL    HW129546   1.100   2.333  16.131  0.5905 -0.3690  0.5304
 6028SOL    HW229547   1.210   2.353  16.033  1.3921 -1.4009  0.3979
 6029SOL     OW29548   3.978   1.378   6.334 -0.1982 -0.1657  0.3589
 6029SOL    HW129549   4.001   1.315   6.403 -2.4601  0.1112  1.3781
 6029SOL    HW229550   3.896   1.333   6.312 -0.3876  0.2048  0.3120
 6030SOL     OW29551   1.886   0.638   9.549 -0.1642  0.6783  0.2130
 6030SOL    HW129552   1.797   0.672   9.554  0.7345  3.2635 -1.3561
 6030SOL    HW229553   1.904   0.600   9.635  0.3532  0.6347  0.0873
 6031SOL     OW29554   3.342   0.326  14.882  0.1822 -0.3131 -0.3196
 6031SOL    HW129555   3.354   0.270  14.805  0.9896 -1.4860  0.6595
 6031SOL    HW229556   3.338   0.415  14.845  1.6286  0.1157  0.5512
 6032SOL     OW29557   2.851   4.345   0.171  0.6054 -0.4926  0.4199
 6032SOL    HW129558   2.867   4.251   0.181  0.2601 -0.4790  1.0416
 6032SOL    HW229559   2.930   4.368   0.221  0.2647  2.2917 -0.3305
 6033SOL     OW29560   4.095   4.011   4.302 -0.0544  0.3628 -0.0761
 6033SOL    HW129561   4.016   3.960   4.286 -0.6136  1.7545 -1.7127
 6033SOL    HW229562   4.157   3.963   4.247  0.7865  0.2223  0.9962
 6034SOL     OW29563   3.960   3.737   5.316 -0.2611 -0.2164  0.1528
 6034SOL    HW129564   4.023   3.802   5.348 -0.4699 -0.1840  0.4984
 6034SOL    HW229565   4.007   3.658   5.342 -1.3608 -0.5704  1.0612
 6035SOL     OW29566   0.361   0.213   4.336 -0.6135 -0.4824  0.0653
 6035SOL    HW129567   0.415   0.253   4.404  1.4573 -0.9597 -1.3110
 6035SOL    HW229568   0.271   0.243   4.346  0.2699  2.4056 -0.7145
 6036SOL     OW29569   1.037   1.426  14.452  0.9569  0.2143 -0.1183
 6036SOL    HW129570   1.105   1.377  14.497  0.5993 -0.7331 -0.6131
 6036SOL    HW229571   1.025   1.368  14.377 -0.8862  2.0751 -1.2778
 6037SOL     OW29572   2.064   0.188  12.661  0.2069  0.6051  0.0581
 6037SOL    HW129573   1.974   0.213  12.677  0.5215  1.0789  1.0783
 6037SOL    HW229574   2.081   0.137  12.740  0.3385 -1.1281 -1.0837
 6038SOL     OW29575   2.976   2.406   9.020  0.1070 -0.4732 -0.3167
 6038SOL    HW129576   3.057   2.391   9.069  0.1387  1.7737  0.2947
 6038SOL    HW229577   2.921   2.329   9.039  0.0145  0.1449  1.9003
 6039SOL     OW29578   4.178   0.700   0.914  0.1257  0.5226 -0.0464
 6039SOL    HW129579   4.157   0.629   0.853 -2.1327 -0.4025  1.7914
 6039SOL    HW229580   4.126   0.773   0.879  0.8021  0.8398 -0.3797
 6040SOL     OW29581   3.573   2.440   1.633  0.5951  0.3935  0.2982
 6040SOL    HW129582   3.566   2.354   1.592  0.9463 -0.5749  2.2679
 6040SOL    HW229583   3.551   2.500   1.562 -1.6347  1.4647  1.9232
 6041SOL     OW29584   3.829   3.496  15.181  0.2350  1.1708  0.0529
 6041SOL    HW129585   3.873   3.441  15.116  2.2401 -0.4532  2.8077
 6041SOL    HW229586   3.797   3.422  15.231 -1.9421  1.4377 -0.9154
 6042SOL     OW29587   2.947   3.591  16.817  0.3533  0.2830  0.7007
 6042SOL    HW129588   3.020   3.650  16.802  1.3173 -0.5908  2.0255
 6042SOL    HW229589   2.906   3.619  16.899 -0.5982 -3.4986  1.5423
 6043SOL     OW29590   2.598   3.654   3.000 -0.3864  0.9423 -0.9920
 6043SOL    HW129591   2.683   3.694   2.984  0.5288 -0.1181  1.1375
 6043SOL    HW229592   2.534   3.721   2.977 -0.7599  1.2971  1.0194
 6044SOL     OW29593   4.507   2.113   1.405  0.5089  0.0546  0.6799
 6044SOL    HW129594   4.429   2.068   1.439 -0.9699  1.4482 -0.8617
 6044SOL    HW229595   4.475   2.196   1.369  0.7571  0.0394  0.4230
 6045SOL     OW29596   0.804   3.933  12.026  0.6731  0.3375  0.1617
 6045SOL    HW129597   0.861   3.864  11.991  1.9323  1.0188  0.8581
 6045SOL    HW229598   0.867   3.997  12.059  0.4739  0.8849 -0.5162
 6046SOL     OW29599   2.883   1.508   6.737  0.7528  0.4963  0.1587
 6046SOL    HW129600   2.874   1.602   6.754  0.7059  0.4975  0.1246
 6046SOL    HW229601   2.975   1.513   6.708  0.5919  1.2076 -0.2318
 6047SOL     OW29602   0.654   2.584  14.128 -0.3218  0.3859 -0.1150
 6047SOL    HW129603   0.726   2.524  14.149  0.0253  0.8164 -0.0742
 6047SOL    HW229604   0.590   2.519  14.099  0.3463 -0.4669  0.3070
 6048SOL     OW29605   2.836   1.432   6.316 -0.1283 -0.4511  0.0104
 6048SOL    HW129606   2.793   1.517   6.318 -0.4962 -0.7550  3.6884
 6048SOL    HW229607   2.769   1.379   6.357  1.3718 -2.2809  0.1017
 6049SOL     OW29608   3.486   0.415   7.130 -0.1261  0.2198  0.2234
 6049SOL    HW129609   3.492   0.375   7.216 -0.2507  0.3192  0.2786
 6049SOL    HW229610   3.565   0.382   7.087  0.2695  1.0510  0.3236
 6050SOL     OW29611   4.537   1.179   5.515 -0.3454  0.4404 -0.3156
 6050SOL    HW129612   4.615   1.134   5.482 -0.6936 -0.6144  0.2705
 6050SOL    HW229613   4.509   1.106   5.571 -1.9470  1.3337  0.0206
 6051SOL     OW29614   0.119   1.907   0.029  0.2290 -0.6613  0.8221
 6051SOL    HW129615   0.054   1.849   0.069  0.5878 -2.1681 -0.7858
 6051SOL    HW229616   0.168   1.931   0.108 -0.8272  0.1242  1.2194
 6052SOL     OW29617   1.137   4.559   6.835 -0.4275 -0.0525 -0.2659
 6052SOL    HW129618   1.173   4.646   6.847 -0.3477  0.0352 -1.1640
 6052SOL    HW229619   1.171   4.514   6.912 -0.3241  0.4095 -0.0475
 6053SOL     OW29620   2.975   4.598  17.419 -0.4899  0.2420  0.1476
 6053SOL    HW129621   2.903   4.661  17.424 -1.5178 -0.6891 -3.3082
 6053SOL    HW229622   3.040   4.629  17.482  1.1283 -3.3430  0.2442
 6054SOL     OW29623   2.442   0.394  14.578  0.5836 -0.2438 -0.2662
 6054SOL    HW129624   2.499   0.357  14.645 -2.7037 -0.1668  2.5267
 6054SOL    HW229625   2.377   0.326  14.562 -1.0980  1.3713 -0.3181
 6055SOL     OW29626   0.204   3.262   0.083 -0.5960  0.2925 -0.0086
 6055SOL    HW129627   0.150   3.204   0.030  0.6499 -2.4070  1.7059
 6055SOL    HW229628   0.169   3.236   0.168 -1.1140 -1.2758 -0.7131
 6056SOL     OW29629   2.616   4.460   8.697 -0.5386  0.2546 -0.2809
 6056SOL    HW129630   2.709   4.450   8.717 -0.6581  1.0387  0.6838
 6056SOL    HW229631   2.613   4.547   8.658 -0.1652  0.5965  0.4503
 6057SOL     OW29632   0.692   3.818   8.408 -0.1300  0.6692 -0.8044
 6057SOL    HW129633   0.746   3.799   8.331  2.0069 -1.3239  1.1829
 6057SOL    HW229634   0.699   3.742   8.466  3.1752  0.9465 -0.8282
 6058SOL     OW29635   0.961   2.523  16.573 -0.2478 -0.1517  0.8386
 6058SOL    HW129636   0.905   2.449  16.598 -1.0365  0.8458  2.0756
 6058SOL    HW229637   1.035   2.493  16.521 -1.7181 -0.9893 -0.7840
 6059SOL     OW29638   3.745   1.684   9.041 -0.0123  0.7062 -0.0864
 6059SOL    HW129639   3.710   1.773   9.031 -0.6745  0.4533 -0.0282
 6059SOL    HW229640   3.817   1.700   9.102 -0.4278 -0.3767  0.6713
 6060SOL     OW29641   0.064   4.188  13.530 -0.2569 -0.0128 -0.1100
 6060SOL    HW129642   0.149   4.146  13.533  1.0107  2.4078 -2.5115
 6060SOL    HW229643   0.006   4.129  13.579  0.1062 -1.8421 -1.9005
 6061SOL     OW29644   1.007   1.832  14.207  0.1854  0.4217 -0.0387
 6061SOL    HW129645   0.932   1.776  14.188 -0.1333  1.1037 -0.7796
 6061SOL    HW229646   1.022   1.822  14.301  0.8880 -1.6853 -0.3754
 6062SOL     OW29647   4.377   2.669   9.287  0.0908  0.2455 -0.1507
 6062SOL    HW129648   4.303   2.715   9.327 -2.5308 -2.3635 -2.0313
 6062SOL    HW229649   4.369   2.579   9.319  1.4437 -0.0325 -0.6010
 6063SOL     OW29650   0.897   1.750   9.717  0.2572 -0.3881  0.5147
 6063SOL    HW129651   0.939   1.753   9.803  0.5141 -0.8261  0.4023
 6063SOL    HW229652   0.811   1.711   9.733  0.5620 -1.3944 -0.2571
 6064SOL     OW29653   3.884   2.217   8.680 -0.1340  0.1320 -0.3639
 6064SOL    HW129654   3.910   2.150   8.743 -0.1466  1.0944  0.6759
 6064SOL    HW229655   3.850   2.283   8.741  1.3211  1.2687 -0.7501
 6065SOL     OW29656   0.718   2.463   6.903 -0.6318  0.0192  0.4854
 6065SOL    HW129657   0.669   2.383   6.924 -1.3744  0.4112  0.2509
 6065SOL    HW229658   0.698   2.525   6.973 -4.7281  0.5257 -1.1084
 6066SOL     OW29659   0.224   2.625   5.272 -0.4129 -0.0987 -0.2419
 6066SOL    HW129660   0.158   2.684   5.308 -0.0570 -0.8928  1.7413
 6066SOL    HW229661   0.178   2.607   5.190  0.0770  1.4210 -0.8633
 6067SOL     OW29662   3.923   3.302   0.340  0.0470  0.1030  0.4255
 6067SOL    HW129663   4.015   3.322   0.357  0.0790  0.8826 -0.6615
 6067SOL    HW229664   3.925   3.323   0.247  0.1149 -0.6431  0.2616
 6068SOL     OW29665   4.096   4.119   0.578 -0.6037  0.0831 -0.0403
 6068SOL    HW129666   4.129   4.134   0.666  0.6476 -3.3030  0.0752
 6068SOL    HW229667   4.033   4.050   0.601 -0.1004  0.2828  1.9808
 6069SOL     OW29668   4.684   2.821   3.073  0.3105 -0.0253 -0.0119
 6069SOL    HW129669   0.034   2.782   3.025 -1.9789 -0.3083 -3.3652
 6069SOL    HW229670   4.620   2.813   3.003  1.0741 -0.0509 -0.7161
 6070SOL     OW29671   3.553   2.979   4.777  0.6829 -0.5201 -0.0777
 6070SOL    HW129672   3.572   3.073   4.770 -0.8168 -0.2803 -1.0097
 6070SOL    HW229673   3.478   2.975   4.719  1.9999  0.7849 -1.8674
 6071SOL     OW29674   2.773   0.777   5.441  0.1181  0.3029 -0.0687
 6071SOL    HW129675   2.750   0.863   5.407 -1.6884 -0.9708 -2.0450
 6071SOL    HW229676   2.866   0.769   5.418  0.3914  1.7494  0.5291
 6072SOL     OW29677   3.550   2.122   5.213 -0.8133  0.1799 -0.0952
 6072SOL    HW129678   3.513   2.202   5.177 -1.4674  0.4003  1.0686
 6072SOL    HW229679   3.625   2.162   5.256 -1.1792  2.2773 -1.4073
 6073SOL     OW29680   3.806   0.164   2.443 -0.2944  0.5410  0.1484
 6073SOL    HW129681   3.823   0.203   2.357 -1.1819 -1.2293 -0.8103
 6073SOL    HW229682   3.760   0.083   2.423 -0.1631  0.0552  1.7462
 6074SOL     OW29683   3.860   3.961  17.198 -0.0059 -0.6397  0.2168
 6074SOL    HW129684   3.880   4.041  17.151 -0.3233 -0.1968  0.8394
 6074SOL    HW229685   3.768   3.949  17.173  0.1861 -0.6701 -0.4529
 6075SOL     OW29686   0.697   0.703   8.276 -0.2213 -0.3259  0.2454
 6075SOL    HW129687   0.706   0.609   8.292 -2.2767 -0.3121  1.5322
 6075SOL    HW229688   0.601   0.707   8.276 -0.1334  2.2307  1.0331
 6076SOL     OW29689   0.312   1.572   5.069  0.1793  0.1128 -0.0754
 6076SOL    HW129690   0.353   1.517   5.136  0.8505  1.2868  0.4858
 6076SOL    HW229691   0.233   1.527   5.039  0.7774 -0.4668 -0.7944
 6077SOL     OW29692   4.269   0.663   6.384  0.1506  0.1311  0.2282
 6077SOL    HW129693   4.239   0.609   6.312  2.3051  1.7259 -1.8795
 6077SOL    HW229694   4.297   0.734   6.326  0.3328  0.7365  1.0563
 6078SOL     OW29695   1.407   3.357   6.040 -0.0347 -0.0622  0.1236
 6078SOL    HW129696   1.448   3.347   6.125  1.1746 -1.0662 -0.5804
 6078SOL    HW229697   1.340   3.289   6.042  0.4538 -0.5773 -1.1502
 6079SOL     OW29698   3.107   4.306  12.870  0.3165 -0.1576  0.3625
 6079SOL    HW129699   3.193   4.265  12.883 -0.5475 -2.1109 -0.0804
 6079SOL    HW229700   3.070   4.290  12.957 -1.3387 -1.7526 -0.6340
 6080SOL     OW29701   2.869   2.761   7.635 -0.6184 -0.5455 -0.2345
 6080SOL    HW129702   2.862   2.740   7.728  0.8502  1.3624  0.3069
 6080SOL    HW229703   2.938   2.698   7.616 -0.4023 -0.3438 -0.1095
 6081SOL     OW29704   2.267   3.344   3.814  0.6509  0.2035  0.9071
 6081SOL    HW129705   2.248   3.319   3.723  0.7652  0.3713  0.8375
 6081SOL    HW229706   2.326   3.273   3.840 -0.3522  0.0219  2.6428
 6082SOL     OW29707   1.142   1.259   9.059 -0.4394  0.4036 -0.0614
 6082SOL    HW129708   1.051   1.261   9.031 -0.3018 -1.0939 -0.6435
 6082SOL    HW229709   1.181   1.325   9.001  0.7465 -0.1310  0.1287
 6083SOL     OW29710   4.596   1.993  11.228 -0.4520  0.0334  0.0584
 6083SOL    HW129711   4.589   1.913  11.279  0.1859  1.0806  1.7825
 6083SOL    HW229712   4.542   2.054  11.278 -2.2752  0.3426 -2.2809
 6084SOL     OW29713   1.320   2.611   7.216  0.7148 -0.0339  0.1684
 6084SOL    HW129714   1.371   2.653   7.285  0.8545  0.7632 -0.4207
 6084SOL    HW229715   1.354   2.521   7.226  0.0688 -0.1564  1.3214
 6085SOL     OW29716   2.427   0.360   4.987 -0.1074  0.1601  0.3234
 6085SOL    HW129717   2.469   0.445   4.999 -1.5277  1.1298 -1.6044
 6085SOL    HW229718   2.377   0.356   5.068  0.6091  0.8043  0.7942
 6086SOL     OW29719   0.174   2.125   5.839  0.4576 -0.3985 -0.2622
 6086SOL    HW129720   0.141   2.137   5.750  0.4503  0.0234 -0.2031
 6086SOL    HW229721   0.145   2.037   5.862 -0.9108 -0.7319 -3.2850
 6087SOL     OW29722   3.819   4.095   7.256 -0.1867  0.2784  0.3186
 6087SOL    HW129723   3.723   4.094   7.253 -0.2166  1.4187  0.9844
 6087SOL    HW229724   3.829   4.126   7.346  0.1691 -3.2690  1.5073
 6088SOL     OW29725   4.557   2.248   3.245  0.1856  0.4273 -0.6309
 6088SOL    HW129726   4.516   2.274   3.327 -0.9204 -1.1757 -0.6842
 6088SOL    HW229727   4.551   2.327   3.192  0.6523  1.0084  0.1861
 6089SOL     OW29728   1.540   2.878   7.047  0.1327 -0.1101 -0.0272
 6089SOL    HW129729   1.534   2.908   7.138  0.5510 -1.5177  0.4695
 6089SOL    HW229730   1.579   2.792   7.059  0.9145  0.2252 -0.1465
 6090SOL     OW29731   2.414   1.079   8.883  0.0386 -0.1735 -0.4272
 6090SOL    HW129732   2.469   1.076   8.805  0.8111 -3.0404  0.2174
 6090SOL    HW229733   2.422   0.996   8.930 -0.5110 -0.4166 -0.7588
 6091SOL     OW29734   0.266   0.952  16.012  0.4239  0.8343 -0.1355
 6091SOL    HW129735   0.239   1.039  15.981 -0.2786  0.0536 -1.6960
 6091SOL    HW229736   0.332   0.971  16.078  0.4535 -0.2354  0.1383
 6092SOL     OW29737   2.654   0.033   5.992  0.2755  0.3524 -0.2560
 6092SOL    HW129738   2.580   0.092   5.979  0.6491  0.7630 -0.4985
 6092SOL    HW229739   2.727   0.092   6.005 -1.1143  2.0323 -0.0934
 6093SOL     OW29740   0.413   0.273   8.211  0.5910 -0.5819  0.2448
 6093SOL    HW129741   0.360   0.295   8.134  1.3589 -1.2327 -0.4744
 6093SOL    HW229742   0.338   0.266   8.270 -0.1170  1.5860 -0.3995
 6094SOL     OW29743   2.779   3.600   3.750 -0.2544 -0.6703 -0.2647
 6094SOL    HW129744   2.816   3.557   3.673 -3.5655  1.0179 -2.7948
 6094SOL    HW229745   2.699   3.635   3.713 -1.7951 -1.2479  2.4718
 6095SOL     OW29746   2.690   3.618   6.118  0.4464 -0.5267 -0.2199
 6095SOL    HW129747   2.598   3.591   6.117 -0.0818  1.3108 -0.7740
 6095SOL    HW229748   2.690   3.696   6.064  0.3437 -0.4372 -0.0911
 6096SOL     OW29749   0.594   1.507   6.704 -0.1654  0.4347  0.1473
 6096SOL    HW129750   0.633   1.595   6.704 -2.4046  1.3848 -3.8133
 6096SOL    HW229751   0.599   1.488   6.798 -2.3926 -1.3214 -0.0970
 6097SOL     OW29752   1.966   0.151   8.840 -0.5566  0.3065 -0.1368
 6097SOL    HW129753   2.018   0.206   8.781 -1.4752  2.9038  1.4764
 6097SOL    HW229754   1.922   0.085   8.786 -2.0554  1.4480 -0.3012
 6098SOL     OW29755   2.412   0.648   9.298 -0.0294  0.3762 -0.6490
 6098SOL    HW129756   2.411   0.566   9.249 -3.8942 -0.4478  0.8496
 6098SOL    HW229757   2.334   0.648   9.353 -0.3419 -1.3322 -1.0987
 6099SOL     OW29758   3.593   4.242   0.797  0.3129 -0.5408  0.3735
 6099SOL    HW129759   3.646   4.301   0.851 -0.0059 -0.1932  0.3113
 6099SOL    HW229760   3.526   4.212   0.858 -0.7494  2.4060  0.6780
 6100SOL     OW29761   0.644   1.589   8.216 -0.5734  0.7253  0.4231
 6100SOL    HW129762   0.646   1.669   8.267 -0.3176  1.0184 -0.0466
 6100SOL    HW229763   0.665   1.525   8.284 -1.1838  0.5920  0.4864
 6101SOL     OW29764   2.276   3.389  15.782  0.1143 -0.0711 -0.4003
 6101SOL    HW129765   2.182   3.403  15.796  0.5217  1.3688  0.8526
 6101SOL    HW229766   2.272   3.386  15.687 -1.4120 -2.2297 -0.2978
 6102SOL     OW29767   1.569   3.906  14.335  0.2334 -0.3192 -0.4621
 6102SOL    HW129768   1.589   3.974  14.271  1.8834  0.5263  0.9555
 6102SOL    HW229769   1.497   3.946  14.385  0.1160  0.1408 -0.9941
 6103SOL     OW29770   4.031   4.616  14.825 -0.5563 -0.5152  0.0163
 6103SOL    HW129771   4.113   4.568  14.820 -0.1069  0.1803  0.6564
 6103SOL    HW229772   4.066   4.698  14.860  0.1195 -1.0085  0.4837
 6104SOL     OW29773   1.650   0.946   9.379 -0.6994 -0.2775  0.1499
 6104SOL    HW129774   1.623   0.865   9.422  0.2779 -0.3758  0.5718
 6104SOL    HW229775   1.645   0.913   9.289  0.9300 -2.5903  0.9002
 6105SOL     OW29776   2.990   4.388  14.117  0.1630 -0.2068  0.5207
 6105SOL    HW129777   2.915   4.415  14.064  1.2674 -1.9971 -1.9851
 6105SOL    HW229778   2.991   4.466  14.173 -2.2117 -0.5508  1.0354
 6106SOL     OW29779   0.430   2.457  14.135 -0.1757 -0.6515  0.5549
 6106SOL    HW129780   0.362   2.498  14.084  1.6517  0.7361 -0.7512
 6106SOL    HW229781   0.388   2.450  14.221 -1.1174  0.6461  0.1902
 6107SOL     OW29782   4.476   4.371   5.964  0.2364 -0.0847 -0.1888
 6107SOL    HW129783   4.434   4.310   5.903 -1.6274  0.7702  0.2212
 6107SOL    HW229784   4.549   4.314   5.986  1.0027  0.6014 -0.9385
 6108SOL     OW29785   3.763   3.454   8.617 -0.0416  0.7928  0.3109
 6108SOL    HW129786   3.850   3.453   8.577  0.4379 -3.2776  1.4662
 6108SOL    HW229787   3.788   3.417   8.701 -0.0789 -0.8921 -0.4110
 6109SOL     OW29788   1.129   3.119  15.714 -0.2340  0.1732  0.2257
 6109SOL    HW129789   1.053   3.125  15.771 -0.0271  0.0752  0.5094
 6109SOL    HW229790   1.195   3.129  15.783  1.6353 -3.4456 -1.0371
 6110SOL     OW29791   3.542   2.978   2.225  0.4647 -0.2844  0.1818
 6110SOL    HW129792   3.543   2.887   2.254 -1.4394 -0.6078 -0.7383
 6110SOL    HW229793   3.451   2.995   2.202  0.2002  0.7302  1.9717
 6111SOL     OW29794   2.444   4.148  16.373  0.5096  0.3854  0.4471
 6111SOL    HW129795   2.509   4.202  16.419 -0.2980  3.3277 -1.8380
 6111SOL    HW229796   2.426   4.089  16.446 -2.1589  1.4349  0.6414
 6112SOL     OW29797   4.348   3.500   2.043  0.2095  0.1815 -0.3219
 6112SOL    HW129798   4.340   3.596   2.041  2.2222  0.3767  1.7426
 6112SOL    HW229799   4.366   3.493   1.949  1.3787 -1.2406  0.0174
 6113SOL     OW29800   2.758   1.026   8.284  0.1366  0.2593  0.0292
 6113SOL    HW129801   2.797   0.952   8.236 -1.4804 -2.1507  2.4526
 6113SOL    HW229802   2.766   1.104   8.229  2.2530 -0.5122 -0.7769
 6114SOL     OW29803   0.940   4.224   2.089  0.0976  0.1263  0.3026
 6114SOL    HW129804   0.965   4.132   2.092 -2.1631 -0.4550  0.9773
 6114SOL    HW229805   0.859   4.200   2.045  0.1522 -1.1508  0.8849
 6115SOL     OW29806   0.339   3.251   9.260 -0.4677 -0.6161 -0.2639
 6115SOL    HW129807   0.361   3.159   9.271  0.0742 -0.2432  1.7999
 6115SOL    HW229808   0.311   3.247   9.169  0.5502 -1.9426 -0.5138
 6116SOL     OW29809   2.532   1.120   6.032  0.0557  0.0558  0.0808
 6116SOL    HW129810   2.438   1.106   6.030 -0.2187  2.1712 -2.0797
 6116SOL    HW229811   2.565   1.056   5.969 -0.9130  0.3442 -0.7047
 6117SOL     OW29812   1.398   3.823   0.749 -0.9082  0.0749  0.4356
 6117SOL    HW129813   1.339   3.763   0.703 -1.0401 -1.7976  3.0093
 6117SOL    HW229814   1.405   3.895   0.687  0.4418 -1.0267 -0.6806
 6118SOL     OW29815   0.858   1.627   8.967  0.7925 -0.2926  0.2710
 6118SOL    HW129816   0.813   1.712   8.970  2.9652  0.8310  1.4013
 6118SOL    HW229817   0.948   1.650   8.991  0.4391  1.1328  0.2300
 6119SOL     OW29818   1.069   4.069   6.997  0.0611 -0.0673 -0.2821
 6119SOL    HW129819   1.025   4.015   6.932  0.6619 -0.7425 -0.1301
 6119SOL    HW229820   0.993   4.105   7.042  0.2625  0.5744 -0.4528
 6120SOL     OW29821   2.510   0.378   8.053 -0.0742 -0.2245 -0.0314
 6120SOL    HW129822   2.437   0.344   8.001 -0.8928 -2.0209  2.2787
 6120SOL    HW229823   2.581   0.325   8.016 -0.8352 -0.7959 -0.6772
 6121SOL     OW29824   2.926   1.831  14.040  0.1548  0.3457  0.2856
 6121SOL    HW129825   2.955   1.919  14.018 -0.3463 -0.0449 -1.9070
 6121SOL    HW229826   2.832   1.825  14.023 -0.0801 -1.5241  2.2048
 6122SOL     OW29827   1.186   1.208   9.645  0.3198 -0.0704  0.0297
 6122SOL    HW129828   1.248   1.272   9.609  0.1490  0.3234  0.4445
 6122SOL    HW229829   1.181   1.140   9.577 -2.6794  0.6587 -0.4534
 6123SOL     OW29830   2.695   4.265   7.717  0.2951 -0.3051 -0.1179
 6123SOL    HW129831   2.779   4.308   7.732  0.3422 -0.2071 -0.6369
 6123SOL    HW229832   2.676   4.221   7.799  3.8202 -1.5646 -0.0003
 6124SOL     OW29833   4.252   2.985   3.666 -0.6787 -0.3192  0.0050
 6124SOL    HW129834   4.193   2.910   3.655  0.9207 -1.1615 -2.7809
 6124SOL    HW229835   4.238   3.009   3.758 -1.9198  0.8311 -0.4983
 6125SOL     OW29836   2.077   1.022   4.709  0.3853  0.2809 -0.3503
 6125SOL    HW129837   2.109   1.090   4.649 -1.1118  1.4010  0.1236
 6125SOL    HW229838   2.156   0.968   4.706  0.5222  0.4320  0.5975
 6126SOL     OW29839   4.329   3.776   6.635  0.2433  0.1513  0.7352
 6126SOL    HW129840   4.355   3.865   6.658 -1.3774 -0.0924  3.4960
 6126SOL    HW229841   4.234   3.776   6.649  0.5060 -2.5576  2.5123
 6127SOL     OW29842   0.056   2.920   8.557  0.4036  0.5458 -0.2664
 6127SOL    HW129843   0.039   2.991   8.618  2.1545  1.1478 -0.4858
 6127SOL    HW229844   4.691   2.889   8.544  0.3105  0.4512  0.5854
 6128SOL     OW29845   3.597   0.112  17.401 -0.1260  0.0715 -0.7560
 6128SOL    HW129846   3.575   0.180  17.338 -2.5015  0.0730  0.0714
 6128SOL    HW229847   3.527   0.127  17.465 -0.0221 -0.4926 -0.5074
 6129SOL     OW29848   4.320   4.391   0.328 -0.1679  0.0307  0.4306
 6129SOL    HW129849   4.349   4.310   0.286 -2.4552  0.5929 -2.2286
 6129SOL    HW229850   4.319   4.448   0.251  0.1065  0.4107  0.7049
 6130SOL     OW29851   4.418   2.088   4.369  1.0289  0.1800  0.2923
 6130SOL    HW129852   4.378   2.175   4.357 -1.5270 -0.4734  4.2216
 6130SOL    HW229853   4.372   2.038   4.301 -0.2449  0.6997  0.7739
 6131SOL     OW29854   4.548   0.041  12.489  0.2382 -0.0541 -0.2594
 6131SOL    HW129855   4.573   0.124  12.530 -1.7731  0.7615 -0.6433
 6131SOL    HW229856   4.637   0.016  12.463 -0.1560 -1.5619 -0.1692
 6132SOL     OW29857   2.681   1.410   4.127  0.1510  0.3161 -0.0354
 6132SOL    HW129858   2.617   1.479   4.149  1.4811  1.3890  0.4843
 6132SOL    HW229859   2.691   1.430   4.034 -3.5635 -3.4148 -1.2106
 6133SOL     OW29860   1.749   3.217   4.996 -0.3422 -0.5141 -0.8767
 6133SOL    HW129861   1.726   3.217   4.903 -1.0751 -1.3886 -0.7027
 6133SOL    HW229862   1.785   3.129   5.012  1.2896  0.2703 -0.3193
 6134SOL     OW29863   0.846   1.675   9.419 -0.2891 -0.3320  0.3004
 6134SOL    HW129864   0.861   1.592   9.374 -1.2636  0.3418 -1.2856
 6134SOL    HW229865   0.879   1.662   9.508 -0.3083  0.3747  0.4153
 6135SOL     OW29866   1.161   0.483   9.957 -0.5670 -0.4253 -0.1031
 6135SOL    HW129867   1.171   0.477   9.862 -1.1593 -2.2284 -0.0400
 6135SOL    HW229868   1.215   0.415   9.997 -0.7916 -1.0223 -0.8360
 6136SOL     OW29869   1.209   0.725  15.050  0.3250  0.3258  0.0068
 6136SOL    HW129870   1.282   0.786  15.045  0.1318  0.4009 -1.7232
 6136SOL    HW229871   1.249   0.640  15.070  0.2025 -0.2019 -1.9822
 6137SOL     OW29872   2.207   3.050  17.537  0.0937  0.0276  0.3082
 6137SOL    HW129873   2.112   3.049  17.540  0.1009  0.3802  0.6036
 6137SOL    HW229874   2.236   3.113  17.471  0.4288 -1.0793 -0.5932
 6138SOL     OW29875   3.412   0.893   4.493  0.3085  0.1531 -0.4930
 6138SOL    HW129876   3.458   0.815   4.462  0.1831 -0.6051  1.2248
 6138SOL    HW229877   3.385   0.857   4.578 -3.0493  0.8079 -1.2951
 6139SOL     OW29878   2.311   1.390   2.495 -0.0750  0.1840  0.1688
 6139SOL    HW129879   2.380   1.449   2.465 -0.2634 -1.0046 -2.6374
 6139SOL    HW229880   2.293   1.418   2.584 -0.7142 -3.5084  1.2171
 6140SOL     OW29881   2.208   4.689   1.639 -0.0721 -0.1549  0.1992
 6140SOL    HW129882   2.178   4.718   1.553  0.6505 -0.7404 -0.2529
 6140SOL    HW229883   2.211   0.048   1.685 -1.4163 -0.8634  1.5489
 6141SOL     OW29884   3.535   2.313   5.852 -0.2167  0.2267 -0.2909
 6141SOL    HW129885   3.455   2.301   5.801  0.4277  0.8776 -1.4644
 6141SOL    HW229886   3.531   2.240   5.914 -0.3740  0.5298  0.0524
 6142SOL     OW29887   4.696   3.931   1.341  0.4579  0.0595 -0.0775
 6142SOL    HW129888   4.620   3.919   1.284  0.1262  0.6916  0.2336
 6142SOL    HW229889   0.038   3.885   1.289 -0.3361 -1.5400  0.3274
 6143SOL     OW29890   4.698   0.091  16.672  0.2354 -0.0128 -0.2984
 6143SOL    HW129891   0.039   0.022  16.686  0.1144 -0.4505 -1.8766
 6143SOL    HW229892   0.003   0.154  16.738  0.0144 -0.2699  0.0493
 6144SOL     OW29893   0.615   4.175   1.149 -1.1367 -0.5723  0.0511
 6144SOL    HW129894   0.599   4.151   1.240  1.1201 -0.3043  0.5186
 6144SOL    HW229895   0.528   4.208   1.124 -2.0953 -2.6980  0.6062
 6145SOL     OW29896   3.363   4.542   0.704  0.1734 -0.6557  0.1995
 6145SOL    HW129897   3.276   4.551   0.665  0.3719 -0.6477 -0.2404
 6145SOL    HW229898   3.326   4.489   0.775 -0.2065  1.9463  1.9213
 6146SOL     OW29899   1.480   4.618   2.162  0.5455 -0.0100  0.5173
 6146SOL    HW129900   1.534   4.606   2.084  0.3814 -1.0592  0.5688
 6146SOL    HW229901   1.511   4.550   2.221  1.5377  0.9008  1.0414
 6147SOL     OW29902   3.630   1.067  15.734  0.3240 -0.5097 -0.0527
 6147SOL    HW129903   3.635   0.978  15.701  1.8883 -0.2327 -0.5390
 6147SOL    HW229904   3.657   1.040  15.822  1.2210  0.2411 -0.0892
 6148SOL     OW29905   2.763   1.442   2.466 -0.3622  0.1533  0.1919
 6148SOL    HW129906   2.811   1.382   2.523  0.8717  0.1540 -0.8530
 6148SOL    HW229907   2.806   1.525   2.489  0.7867 -0.0158 -1.3367
 6149SOL     OW29908   2.666   2.285   4.432  0.2954  0.0378  0.0287
 6149SOL    HW129909   2.735   2.220   4.424  1.1785  0.6058  2.9491
 6149SOL    HW229910   2.710   2.354   4.482  0.7287 -0.4638  0.3327
 6150SOL     OW29911   1.867   4.404   0.316 -0.3559 -0.9591  0.1254
 6150SOL    HW129912   1.772   4.401   0.321 -0.1857 -1.4646  3.0881
 6150SOL    HW229913   1.883   4.359   0.233  0.4655  0.9263 -0.7285
 6151SOL     OW29914   0.913   0.501   8.438  0.8663  0.2072  0.2055
 6151SOL    HW129915   0.948   0.466   8.520 -1.9290 -1.1787  0.8254
 6151SOL    HW229916   0.824   0.466   8.444  0.5262  0.9602 -0.4645
 6152SOL     OW29917   1.798   2.921   1.712 -0.2474  0.3671 -0.5731
 6152SOL    HW129918   1.812   2.828   1.729  2.0116  0.5051 -1.6447
 6152SOL    HW229919   1.795   2.912   1.617 -2.1582 -1.4706 -0.3546
 6153SOL     OW29920   2.609   1.106   3.987  0.5697 -0.5935 -0.3660
 6153SOL    HW129921   2.676   1.042   4.010  0.3040 -1.3613 -1.7122
 6153SOL    HW229922   2.635   1.128   3.897 -0.2286 -0.3179 -0.5330
 6154SOL     OW29923   2.938   1.980   2.101  0.1521 -0.0363 -0.1976
 6154SOL    HW129924   2.851   2.016   2.082  0.9760  2.1192  0.1019
 6154SOL    HW229925   2.911   1.894   2.131 -0.5361  0.1146 -0.3949
 6155SOL     OW29926   0.182   2.635   7.483 -0.2449 -0.6210 -0.0232
 6155SOL    HW129927   0.119   2.700   7.515 -0.9962 -0.0864 -2.6362
 6155SOL    HW229928   0.188   2.662   7.392 -1.3668  0.6132  0.2586
 6156SOL     OW29929   2.319   1.412  17.356 -0.0356  0.1099 -0.6041
 6156SOL    HW129930   2.232   1.452  17.354  0.0216  0.3055  0.5561
 6156SOL    HW229931   2.332   1.397  17.450 -0.1154 -0.3422 -0.6657
 6157SOL     OW29932   3.812   2.070  13.755  0.7157 -0.6386  0.1351
 6157SOL    HW129933   3.879   2.100  13.816  0.1508  1.5960 -0.3250
 6157SOL    HW229934   3.736   2.063  13.812 -1.0879  1.1656 -2.0246
 6158SOL     OW29935   2.325   1.089   4.531  0.1569 -0.2111  0.2062
 6158SOL    HW129936   2.319   1.052   4.443  1.4090  0.4663 -0.1706
 6158SOL    HW229937   2.331   1.008   4.583  0.8194 -1.2293 -1.4426
 6159SOL     OW29938   4.350   2.388  17.658 -0.1136 -0.6466 -0.3377
 6159SOL    HW129939   4.279   2.447  17.683  0.2353  0.3953 -1.7917
 6159SOL    HW229940   4.350   2.332   0.037 -0.0332  0.8754  0.7581
 6160SOL     OW29941   2.843   1.922  11.664  0.1534 -0.0635  0.1418
 6160SOL    HW129942   2.770   1.889  11.717 -2.2164  2.3569 -1.6429
 6160SOL    HW229943   2.831   1.858  11.593 -1.4755  0.0882  0.2878
 6161SOL     OW29944   3.016   0.221   1.122 -0.3478 -0.5124  0.4263
 6161SOL    HW129945   3.111   0.232   1.120 -0.7319  2.6874 -0.4263
 6161SOL    HW229946   3.002   0.131   1.149  1.1382 -1.0120 -0.4734
 6162SOL     OW29947   3.739   3.078   8.199  0.1773 -0.1101 -0.0133
 6162SOL    HW129948   3.657   3.030   8.190 -1.9287  3.9049 -2.2837
 6162SOL    HW229949   3.709   3.168   8.212 -1.3977 -0.5051 -0.9614
 6163SOL     OW29950   3.111   2.156   5.142  0.5837  0.1829 -0.6259
 6163SOL    HW129951   3.108   2.248   5.114 -0.4959  0.0492 -0.9488
 6163SOL    HW229952   3.175   2.158   5.213 -2.0968  1.1615  1.7662
 6164SOL     OW29953   0.482   0.587   6.026  0.8459  0.6071 -0.1258
 6164SOL    HW129954   0.414   0.521   6.015 -0.0202  1.4930 -0.0656
 6164SOL    HW229955   0.487   0.586   6.121 -0.8074 -0.3061 -0.0515
 6165SOL     OW29956   1.310   0.280  10.043 -0.0239 -0.5933  1.0266
 6165SOL    HW129957   1.368   0.217  10.000  0.8580  1.2856 -0.5736
 6165SOL    HW229958   1.266   0.229  10.111 -0.6111 -1.2504  0.1590
 6166SOL     OW29959   1.316   2.990   2.600  0.1691 -0.0712 -0.0339
 6166SOL    HW129960   1.305   2.898   2.625  0.8172 -0.7460 -2.2300
 6166SOL    HW229961   1.235   3.004   2.552  1.0386 -1.0247 -1.7645
 6167SOL     OW29962   0.693   0.231   3.035  0.0351  0.3560  0.1410
 6167SOL    HW129963   0.762   0.290   3.064 -0.4268 -0.1900  2.3364
 6167SOL    HW229964   0.665   0.187   3.115  2.8243  0.2471  1.0587
 6168SOL     OW29965   4.149   4.229   8.132 -0.6744 -0.0629  0.2217
 6168SOL    HW129966   4.133   4.323   8.130 -0.9570 -0.0957  1.2754
 6168SOL    HW229967   4.230   4.225   8.081 -0.5836  0.3781  0.3326
 6169SOL     OW29968   2.802   0.080   6.451 -0.3335  0.2833  0.2814
 6169SOL    HW129969   2.723   0.070   6.398 -1.6317  1.9259  1.8761
 6169SOL    HW229970   2.870   0.048   6.393  0.0584  0.2807  0.7427
 6170SOL     OW29971   4.532   3.340   6.494 -0.1078 -0.0284  0.3544
 6170SOL    HW129972   4.567   3.332   6.582  0.3696 -2.2891 -0.0425
 6170SOL    HW229973   4.463   3.400   6.522 -1.5903 -0.6623 -1.9294
 6171SOL     OW29974   4.163   2.626   8.694 -0.6138 -0.3459 -0.1133
 6171SOL    HW129975   4.196   2.624   8.784  0.8642  1.8112 -0.5951
 6171SOL    HW229976   4.209   2.560   8.643  0.4388  0.0975  0.2506
 6172SOL     OW29977   1.262   2.830   5.044 -0.1530 -0.4524  0.1212
 6172SOL    HW129978   1.355   2.851   5.049 -0.9089  3.1858 -0.7285
 6172SOL    HW229979   1.239   2.843   4.952 -1.4954  0.5270  0.5884
 6173SOL     OW29980   1.493   0.108   5.094  0.0104 -0.6812  0.4040
 6173SOL    HW129981   1.486   0.052   5.017 -1.5835  0.4137 -0.2488
 6173SOL    HW229982   1.587   0.110   5.110 -0.0078 -0.6621  0.5090
 6174SOL     OW29983   3.103   3.402   7.170 -0.8036  0.2733 -0.2909
 6174SOL    HW129984   3.183   3.445   7.201 -2.2123  2.7063 -0.0327
 6174SOL    HW229985   3.052   3.434   7.244  1.6525  1.8894  0.7197
 6175SOL     OW29986   3.895   3.988  15.456  0.2224  0.0502  0.6629
 6175SOL    HW129987   3.804   3.959  15.450 -0.5359  2.2740  1.4350
 6175SOL    HW229988   3.946   3.908  15.445 -0.9475 -0.8310  1.6793
 6176SOL     OW29989   1.121   1.036   3.719 -0.4772 -0.3395  0.0614
 6176SOL    HW129990   1.034   1.076   3.722 -0.9057 -1.1973 -1.1940
 6176SOL    HW229991   1.174   1.085   3.782 -3.0062  0.3088  1.7201
 6177SOL     OW29992   3.412   2.329  15.650  0.3285 -0.1150  0.6011
 6177SOL    HW129993   3.448   2.418  15.645  0.4481 -0.2829 -1.6289
 6177SOL    HW229994   3.327   2.341  15.692 -0.3377 -0.2378 -0.7039
 6178SOL     OW29995   3.856   2.296   7.386 -0.4086 -0.1805 -0.3850
 6178SOL    HW129996   3.783   2.279   7.445 -1.8794  2.6726 -1.4070
 6178SOL    HW229997   3.886   2.211   7.352  0.4578 -0.9264  2.2825
 6179SOL     OW29998   0.637   1.799   7.114 -0.1567  0.0019 -0.0617
 6179SOL    HW129999   0.601   1.719   7.153 -1.0548  1.6229  2.3644
 6179SOL    HW230000   0.608   1.873   7.167  1.0528 -0.3412  1.0471
 6180SOL     OW30001   2.949   2.490   3.035 -0.3063 -0.2223  0.3379
 6180SOL    HW130002   2.910   2.476   2.949  1.1160  2.5149 -0.7657
 6180SOL    HW230003   3.023   2.545   3.011 -0.0823 -0.6513  0.0542
 6181SOL     OW30004   2.695   2.482  10.693 -0.4033  0.7083 -0.5279
 6181SOL    HW130005   2.675   2.486  10.786 -3.4892  1.7230 -1.2224
 6181SOL    HW230006   2.783   2.519  10.691  0.2756 -0.9032 -0.4186
 6182SOL     OW30007   2.435   4.011   8.709  0.0473 -0.0899 -0.1577
 6182SOL    HW130008   2.493   3.957   8.655 -1.2251  0.9559 -2.5803
 6182SOL    HW230009   2.350   3.972   8.687  0.3842 -0.0663 -1.5528
 6183SOL     OW30010   2.281   0.178  12.968 -0.5416 -0.3157  0.1321
 6183SOL    HW130011   2.284   0.089  13.003 -0.7631 -0.9067 -1.3354
 6183SOL    HW230012   2.225   0.165  12.891 -0.8518  0.3577  0.2380
 6184SOL     OW30013   3.481   4.278   3.032  0.0802  0.1905 -0.2578
 6184SOL    HW130014   3.425   4.206   3.063  0.8676 -1.1873 -2.0434
 6184SOL    HW230015   3.560   4.234   3.002  0.3339 -0.2915  1.1004
 6185SOL     OW30016   0.274   0.920   4.676  0.6448  0.1219  0.4510
 6185SOL    HW130017   0.282   0.899   4.769  0.3295 -1.8920  0.0088
 6185SOL    HW230018   0.179   0.926   4.670  0.4847 -0.5458  2.1190
 6186SOL     OW30019   2.525   3.608   8.686 -0.2627  0.0443  0.1717
 6186SOL    HW130020   2.594   3.547   8.711 -0.0290 -0.4603 -1.6714
 6186SOL    HW230021   2.476   3.628   8.766  2.8758  2.5337  1.4580
 6187SOL     OW30022   1.295   1.052   4.805 -0.3842 -0.1865 -0.3279
 6187SOL    HW130023   1.217   1.072   4.856  0.0193  0.0210  0.2022
 6187SOL    HW230024   1.316   1.138   4.768  1.8109 -0.1840  0.9207
 6188SOL     OW30025   0.438   4.159   5.025  0.4386 -0.2982 -0.1698
 6188SOL    HW130026   0.404   4.136   5.111  1.2824  0.3539  0.3367
 6188SOL    HW230027   0.409   4.082   4.977 -0.6075 -0.1154  0.1798
 6189SOL     OW30028   0.308   1.351  11.147  0.2482  0.3138  0.2362
 6189SOL    HW130029   0.245   1.299  11.097 -1.1129  0.6822  1.5841
 6189SOL    HW230030   0.315   1.426  11.087 -1.4622  0.6964  0.5324
 6190SOL     OW30031   2.716   3.174   5.272 -0.1467  0.0109  0.5109
 6190SOL    HW130032   2.810   3.192   5.265 -0.0117 -1.2148 -0.8822
 6190SOL    HW230033   2.679   3.224   5.199 -0.3775 -0.1525  0.5174
 6191SOL     OW30034   2.728   0.963   0.854 -0.5196 -0.4762 -0.3263
 6191SOL    HW130035   2.760   0.919   0.934  1.2294 -0.0126 -0.7759
 6191SOL    HW230036   2.802   0.948   0.796 -0.0568  0.2360  0.0813
 6192SOL     OW30037   3.739   1.526   9.906 -0.4267 -0.2670  0.2279
 6192SOL    HW130038   3.740   1.458   9.973 -0.0234 -0.5699 -0.0824
 6192SOL    HW230039   3.711   1.481   9.827  0.7249  1.7457 -1.3248
 6193SOL     OW30040   0.490   0.115  15.422  0.2425 -0.1731  0.5664
 6193SOL    HW130041   0.474   0.185  15.360 -1.1045 -0.8921  0.0967
 6193SOL    HW230042   0.439   0.147  15.496 -2.8931 -4.3891  0.2216
 6194SOL     OW30043   0.631   4.057  17.343  0.1245 -0.1870  0.1561
 6194SOL    HW130044   0.724   4.036  17.352  0.6060  1.4102 -0.9577
 6194SOL    HW230045   0.597   3.978  17.302 -2.5447  0.6158  0.8295
 6195SOL     OW30046   4.003   2.855   1.103  0.2593  0.4018 -0.0297
 6195SOL    HW130047   4.057   2.817   1.172  1.1631 -0.2889 -1.1312
 6195SOL    HW230048   3.923   2.862   1.156  1.0606  1.1145  1.0777
 6196SOL     OW30049   2.166   4.148   5.932  0.0478 -0.9269  0.6664
 6196SOL    HW130050   2.223   4.167   6.006  2.0105 -0.9856 -0.8294
 6196SOL    HW230051   2.218   4.098   5.870  0.0768  1.3195 -1.1462
 6197SOL     OW30052   3.492   4.431  10.182 -0.4477 -0.2254 -0.1052
 6197SOL    HW130053   3.424   4.437  10.249 -0.8624  0.3726 -0.5887
 6197SOL    HW230054   3.566   4.435  10.242 -2.1918  0.4950  2.0115
 6198SOL     OW30055   2.415   2.610   7.579  0.1186 -0.0041  0.0499
 6198SOL    HW130056   2.442   2.668   7.651  1.9394 -3.2601  2.0067
 6198SOL    HW230057   2.440   2.527   7.620 -1.8416  0.2277  1.7392
 6199SOL     OW30058   0.249   1.365   6.146  0.1661  0.0700 -0.3136
 6199SOL    HW130059   0.281   1.304   6.079 -0.2590 -0.1337 -0.3303
 6199SOL    HW230060   0.168   1.395   6.104  1.0422  0.7102 -1.5636
 6200SOL     OW30061   2.513   0.763   2.684 -0.4039  0.3491  0.5487
 6200SOL    HW130062   2.426   0.790   2.657  0.2100  1.5566 -0.2336
 6200SOL    HW230063   2.497   0.724   2.770  3.4430  0.3834  1.3116
 6201SOL     OW30064   2.566   3.277   8.338 -0.3731  0.0364  0.6136
 6201SOL    HW130065   2.527   3.299   8.253  0.8435  0.1694  0.0933
 6201SOL    HW230066   2.611   3.357   8.362 -0.7284  0.2401  0.6029
 6202SOL     OW30067   1.211   4.630   5.360 -0.0895 -0.1331  0.9053
 6202SOL    HW130068   1.129   4.594   5.393 -1.5044  0.2449 -2.2599
 6202SOL    HW230069   1.233   4.681   5.437  1.8076  0.3393  0.0374
 6203SOL     OW30070   4.415   1.524   1.033  0.5406  0.5594  0.7205
 6203SOL    HW130071   4.327   1.560   1.022  0.9497  1.4144  0.2818
 6203SOL    HW230072   4.433   1.552   1.123 -1.4107 -1.2877  1.6800
 6204SOL     OW30073   4.423   3.923   4.581 -0.0211 -0.0456 -0.3884
 6204SOL    HW130074   4.505   3.896   4.539  0.4262  1.3895 -0.4497
 6204SOL    HW230075   4.464   3.982   4.645 -0.2996 -0.1142 -0.1506
 6205SOL     OW30076   3.364   4.504  14.085  0.0958 -0.1075  0.4467
 6205SOL    HW130077   3.451   4.546  14.085  0.5169 -1.0008 -1.0038
 6205SOL    HW230078   3.381   4.445  14.159 -1.2715 -2.5398 -1.1811
 6206SOL     OW30079   3.292   3.824   6.093 -0.3488  0.1338 -0.2937
 6206SOL    HW130080   3.223   3.769   6.054 -0.1588  0.9830 -1.8353
 6206SOL    HW230081   3.349   3.754   6.123 -0.6766  0.4843  1.1746
 6207SOL     OW30082   2.320   3.781   3.669  0.2033 -0.4038  0.1125
 6207SOL    HW130083   2.235   3.738   3.657  1.5077 -2.2751 -2.3805
 6207SOL    HW230084   2.314   3.872   3.641  0.7230 -0.5962 -0.6336
 6208SOL     OW30085   2.389   0.838  14.772 -0.3983 -0.3583  0.2593
 6208SOL    HW130086   2.327   0.827  14.845  0.9535  1.4896  1.6919
 6208SOL    HW230087   2.423   0.749  14.758  1.1696  0.3947 -0.6623
 6209SOL     OW30088   4.063   0.504   9.197  0.0777 -0.1475 -0.4846
 6209SOL    HW130089   4.072   0.420   9.241 -2.0418 -0.0256  0.1869
 6209SOL    HW230090   4.036   0.550   9.277  1.1339 -0.6206  0.1392
 6210SOL     OW30091   4.040   3.820  16.734  0.0171 -0.1231  0.0857
 6210SOL    HW130092   3.976   3.769  16.685 -0.3629 -0.0714  0.5349
 6210SOL    HW230093   4.071   3.877  16.663 -0.5937 -0.5414 -0.5077
 6211SOL     OW30094   2.119   0.136   4.250 -0.0146  0.2305  0.1358
 6211SOL    HW130095   2.054   0.182   4.197  1.8488  0.6703 -1.7844
 6211SOL    HW230096   2.191   0.116   4.190  1.4070  0.8023  1.6632
 6212SOL     OW30097   2.809   0.516  12.879  0.0566 -0.0936  0.2588
 6212SOL    HW130098   2.852   0.430  12.881  0.0288 -0.1340 -1.0086
 6212SOL    HW230099   2.716   0.495  12.876 -0.1217  0.7338  0.1200
 6213SOL     OW30100   2.156   3.517   0.570 -0.1335 -0.7223  0.0988
 6213SOL    HW130101   2.112   3.442   0.529  0.8044 -2.3093  1.9583
 6213SOL    HW230102   2.135   3.587   0.509 -0.7079 -0.1240  0.9906
 6214SOL     OW30103   0.510   1.286  14.968  0.8516  0.3580  0.0916
 6214SOL    HW130104   0.544   1.269  14.880  1.4116  2.3004 -0.0727
 6214SOL    HW230105   0.467   1.370  14.957  0.3169  0.2089  1.0364
 6215SOL     OW30106   1.157   3.001  14.803  0.3552 -0.6877 -0.1769
 6215SOL    HW130107   1.100   3.065  14.846  1.7107  0.2474  0.2265
 6215SOL    HW230108   1.178   3.045  14.721  0.5597 -0.4068  0.0236
 6216SOL     OW30109   0.774   1.083   6.576 -0.5105  0.0998 -0.6127
 6216SOL    HW130110   0.680   1.070   6.566 -0.6614 -0.1274  1.0794
 6216SOL    HW230111   0.809   0.994   6.588 -0.1125  0.4190  0.5864
 6217SOL     OW30112   2.813   2.402   2.771 -0.0219 -0.3928 -0.0345
 6217SOL    HW130113   2.766   2.335   2.721 -3.1395 -0.4660  3.0710
 6217SOL    HW230114   2.837   2.473   2.711 -0.3376 -0.2186  0.0482
 6218SOL     OW30115   0.799   2.037   6.945 -0.0635 -1.2988  0.1355
 6218SOL    HW130116   0.780   2.103   7.011 -1.2111 -1.7807  0.2881
 6218SOL    HW230117   0.760   1.964   6.993 -0.0836 -2.0057 -0.9388
 6219SOL     OW30118   2.965   1.014  10.686  0.2134 -0.2898 -0.3176
 6219SOL    HW130119   2.999   1.011  10.775  0.6341 -0.1051 -0.4690
 6219SOL    HW230120   3.053   1.020  10.647  0.5467 -0.9720  0.3455
 6220SOL     OW30121   3.052   2.790  15.539  0.0350  0.6887  0.0213
 6220SOL    HW130122   3.081   2.702  15.514 -2.6810  0.3557 -1.9629
 6220SOL    HW230123   3.105   2.842  15.479 -0.9744 -0.8901 -2.2113
 6221SOL     OW30124   3.100   2.629   2.476 -0.3382 -0.1388 -0.2065
 6221SOL    HW130125   3.070   2.643   2.566  1.9891 -0.2087  0.5716
 6221SOL    HW230126   3.091   2.719   2.446 -1.4404  0.0250  0.6136
 6222SOL     OW30127   1.435   3.213   4.978  0.1772  0.0679  0.2933
 6222SOL    HW130128   1.408   3.222   5.069 -1.0184 -0.9710  0.0434
 6222SOL    HW230129   1.511   3.271   4.974 -0.0823  0.3208 -1.0559
 6223SOL     OW30130   2.664   2.397   9.628  0.0350 -0.2996 -0.2169
 6223SOL    HW130131   2.694   2.487   9.616  1.2917 -0.7263 -0.3204
 6223SOL    HW230132   2.674   2.394   9.723  1.4658  2.2313 -0.2949
 6224SOL     OW30133   2.955   2.217  11.462 -0.3570 -0.4356 -0.5269
 6224SOL    HW130134   3.019   2.278  11.426  0.8691 -1.8585 -0.7897
 6224SOL    HW230135   2.880   2.272  11.442 -0.3389 -0.4353 -0.5962
 6225SOL     OW30136   3.117   1.681   2.108 -0.3535  0.0674 -0.2411
 6225SOL    HW130137   3.057   1.732   2.162 -1.3450 -0.6618 -0.6690
 6225SOL    HW230138   3.053   1.641   2.050  2.0737 -0.2657 -2.7224
 6226SOL     OW30139   4.328   0.709   5.701 -0.5066  0.0562  0.5586
 6226SOL    HW130140   4.372   0.673   5.777 -3.1991 -1.3307  1.4779
 6226SOL    HW230141   4.272   0.780   5.731 -0.6578  0.1345  0.0923
 6227SOL     OW30142   2.781   1.258   3.452 -0.1711  0.4633 -0.2149
 6227SOL    HW130143   2.700   1.207   3.454 -0.5749  1.1392  0.7317
 6227SOL    HW230144   2.776   1.304   3.369 -1.6648  0.5791 -0.0608
 6228SOL     OW30145   1.907   0.547   7.227  0.3708 -0.3390 -0.2017
 6228SOL    HW130146   1.866   0.462   7.211  0.8801 -0.4044 -1.1529
 6228SOL    HW230147   1.992   0.514   7.256  0.6446  0.1970 -0.3774
 6229SOL     OW30148   0.266   3.483   2.096 -0.3702  0.6550  0.1828
 6229SOL    HW130149   0.341   3.542   2.104 -0.1780  0.2497  1.4543
 6229SOL    HW230150   0.234   3.479   2.186  0.6960  2.2753  0.6409
 6230SOL     OW30151   1.605   3.478   3.403 -0.5317  0.4277  0.4919
 6230SOL    HW130152   1.600   3.560   3.354 -2.3673  0.3052  0.4407
 6230SOL    HW230153   1.513   3.461   3.427 -0.9720  0.0182 -1.4960
 6231SOL     OW30154   3.947   1.971  14.608 -0.2287  0.5238 -0.0322
 6231SOL    HW130155   3.873   2.025  14.637 -1.2766 -1.4155  0.8729
 6231SOL    HW230156   3.955   1.907  14.678  1.3393  1.6045  0.7822
 6232SOL     OW30157   4.419   1.346   5.018  0.3210  0.4892  0.1003
 6232SOL    HW130158   4.501   1.340   5.067  0.2789  3.4939  0.5616
 6232SOL    HW230159   4.454   1.356   4.930 -2.2511 -0.5563 -1.0235
 6233SOL     OW30160   2.602   0.402   3.014  0.0572 -0.7101 -0.0601
 6233SOL    HW130161   2.601   0.393   2.919  0.6196 -0.3642 -0.0975
 6233SOL    HW230162   2.694   0.426   3.027  0.9177 -3.1013 -1.8787
 6234SOL     OW30163   4.065   2.759   0.683 -0.2759 -0.1442  0.7148
 6234SOL    HW130164   4.101   2.836   0.639  0.4678 -2.0834 -2.0012
 6234SOL    HW230165   4.103   2.760   0.771 -0.5059  1.7758  0.7973
 6235SOL     OW30166   3.773   2.774  12.202 -0.2185  0.0437 -0.4760
 6235SOL    HW130167   3.851   2.768  12.146 -0.6669 -1.2040 -0.9593
 6235SOL    HW230168   3.723   2.695  12.186 -0.1292 -0.1212  0.0585
 6236SOL     OW30169   4.075   3.650   0.014 -0.3440 -0.2291 -0.1263
 6236SOL    HW130170   4.037   3.737   0.000  1.7411  0.6580 -0.2798
 6236SOL    HW230171   4.164   3.677   0.038 -0.1428 -0.7092 -0.3212
 6237SOL     OW30172   0.678   3.353  13.134 -0.7077 -0.1794  0.1693
 6237SOL    HW130173   0.721   3.438  13.150  0.6477 -1.0716  1.2518
 6237SOL    HW230174   0.589   3.353  13.169  0.0615 -1.7140  2.1371
 6238SOL     OW30175   1.280   1.476   9.559 -0.4353  0.1975  0.8387
 6238SOL    HW130176   1.219   1.548   9.570  0.1093  0.9234 -0.8674
 6238SOL    HW230177   1.290   1.465   9.654  3.1869 -1.0090  0.3288
 6239SOL     OW30178   3.238   3.029   1.416  0.2563 -0.0878 -0.2955
 6239SOL    HW130179   3.153   3.060   1.447 -0.3519 -0.5802 -1.4653
 6239SOL    HW230180   3.236   2.935   1.399 -0.6641  0.0334 -0.8683
 6240SOL     OW30181   0.293   1.168  13.348  0.2216 -0.1495 -0.3633
 6240SOL    HW130182   0.228   1.145  13.415 -0.7580  1.5964 -0.7151
 6240SOL    HW230183   0.239   1.182  13.270 -0.4384 -0.3785  0.0510
 6241SOL     OW30184   4.023   1.480   4.352  0.2311 -0.3584 -0.0698
 6241SOL    HW130185   3.933   1.507   4.373 -0.3926 -1.7174 -0.9859
 6241SOL    HW230186   4.011   1.442   4.265 -0.2939 -2.9744  1.1419
 6242SOL     OW30187   1.116   2.281  11.016  0.5166 -0.0794 -0.3525
 6242SOL    HW130188   1.122   2.208  11.078 -0.1562 -1.0072 -1.3810
 6242SOL    HW230189   1.194   2.330  11.041  1.2552 -1.8208  0.7672
 6243SOL     OW30190   0.019   3.004   1.025  0.4387 -0.3794 -0.4704
 6243SOL    HW130191   0.004   2.911   1.011  1.0175 -0.6443  0.7112
 6243SOL    HW230192   4.656   3.042   1.035  1.5777  1.9000  0.8596
 6244SOL     OW30193   0.995   1.596  10.121  0.2807  0.4345  0.0071
 6244SOL    HW130194   1.053   1.619  10.194  0.0094 -1.0983  0.7168
 6244SOL    HW230195   0.933   1.536  10.163  0.3515  0.8572  0.7135
 6245SOL     OW30196   3.213   2.937   0.677  0.6819  0.0932 -0.7713
 6245SOL    HW130197   3.277   2.990   0.629  0.4220  3.4796  2.5875
 6245SOL    HW230198   3.146   2.926   0.610 -0.4062 -2.0612  0.6639
 6246SOL     OW30199   0.533   4.329   4.820  0.5145 -0.6023 -0.2414
 6246SOL    HW130200   0.476   4.406   4.827  0.6745 -0.3505 -1.7119
 6246SOL    HW230201   0.510   4.277   4.898  1.2035  2.3430  1.9243
 6247SOL     OW30202   3.708   4.135   4.039 -0.0816  0.5529 -0.1221
 6247SOL    HW130203   3.763   4.074   3.989 -0.7908  0.6457 -1.0104
 6247SOL    HW230204   3.707   4.091   4.123 -2.4779  1.5813  0.3616
 6248SOL     OW30205   2.541   1.635  10.156 -0.0381 -0.3829  0.0123
 6248SOL    HW130206   2.544   1.614  10.063  0.2666  1.7114 -0.4687
 6248SOL    HW230207   2.468   1.697  10.154  0.3041 -0.0229 -1.1659
 6249SOL     OW30208   3.960   0.095   6.215  0.4430 -0.3747  0.3805
 6249SOL    HW130209   3.949   0.095   6.310 -0.7964 -1.9002  0.2439
 6249SOL    HW230210   3.944   0.002   6.196 -0.3644 -0.2367  0.4044
 6250SOL     OW30211   3.955   1.082  16.689  0.0628  0.2588 -0.6296
 6250SOL    HW130212   3.926   1.130  16.611 -0.7584 -1.1813 -1.2049
 6250SOL    HW230213   4.050   1.074  16.677 -0.3233 -3.5475 -1.0194
 6251SOL     OW30214   1.818   4.460   6.534  0.8402 -0.0406 -0.0583
 6251SOL    HW130215   1.876   4.395   6.495  0.7000 -0.4820  0.4803
 6251SOL    HW230216   1.768   4.408   6.597  0.5187 -0.0507 -0.3202
 6252SOL     OW30217   1.086   0.077   5.750  0.4882 -0.2475  0.6603
 6252SOL    HW130218   1.071   0.172   5.747 -0.3149 -0.3269  2.4111
 6252SOL    HW230219   0.997   0.042   5.742 -0.2573  2.0779 -1.2272
 6253SOL     OW30220   0.959   1.922   4.851 -0.9711 -0.1770 -0.3769
 6253SOL    HW130221   0.882   1.978   4.862  0.0025  1.0370  0.2045
 6253SOL    HW230222   0.977   1.896   4.941  0.2863 -2.9086 -1.4018
 6254SOL     OW30223   1.255   0.526   3.658  0.5632  0.1477  0.6791
 6254SOL    HW130224   1.218   0.582   3.726 -0.0918 -2.5497  2.5140
 6254SOL    HW230225   1.287   0.443   3.692  0.0460  0.0112  0.8291
 6255SOL     OW30226   4.563   0.722   3.695  0.1591 -0.5955 -0.5781
 6255SOL    HW130227   4.504   0.673   3.638 -0.4879  2.9907 -2.9582
 6255SOL    HW230228   4.629   0.754   3.634  2.1481 -0.4537  1.6285
 6256SOL     OW30229   4.354   2.739   0.206 -0.1566 -0.5847 -0.4318
 6256SOL    HW130230   4.381   2.829   0.193  2.3176 -1.1407  1.0456
 6256SOL    HW230231   4.409   2.702   0.136  0.7539  1.8268 -0.9746
 6257SOL     OW30232   3.127   2.345   2.733 -0.5356  0.5311 -0.6349
 6257SOL    HW130233   3.143   2.420   2.791 -1.4741 -0.0268  0.3476
 6257SOL    HW230234   3.169   2.365   2.649 -2.0029  0.4296 -1.3868
 6258SOL     OW30235   2.353   2.385   4.601 -0.8992 -0.5042 -0.5948
 6258SOL    HW130236   2.418   2.454   4.584  2.7112 -3.7294  0.1937
 6258SOL    HW230237   2.330   2.350   4.515 -1.2497  0.3631 -0.8581
 6259SOL     OW30238   3.973   2.408   0.813  0.1439  0.3122  0.4069
 6259SOL    HW130239   4.041   2.412   0.746  0.2869 -0.4572  0.5040
 6259SOL    HW230240   4.022   2.420   0.895 -2.7373 -0.0156  2.1946
 6260SOL     OW30241   1.393   0.556   9.648 -0.1772 -0.0625  0.1861
 6260SOL    HW130242   1.433   0.469   9.641  2.3708  1.1936 -1.1047
 6260SOL    HW230243   1.299   0.539   9.643 -0.1485 -0.5523  1.3275
 6261SOL     OW30244   3.730   2.259   5.649 -0.0044  0.0745  0.3729
 6261SOL    HW130245   3.801   2.269   5.712  1.4509 -1.4366 -1.0022
 6261SOL    HW230246   3.651   2.285   5.696  0.4433 -0.2516  1.3038
 6262SOL     OW30247   2.116   2.405   3.749 -0.2491  0.0591  0.2555
 6262SOL    HW130248   2.177   2.446   3.811 -1.4753  1.9421  0.2020
 6262SOL    HW230249   2.029   2.436   3.773 -0.1441  0.3665  0.2302
 6263SOL     OW30250   4.163   1.761   1.482  0.3234  0.0374 -0.3962
 6263SOL    HW130251   4.194   1.851   1.490  1.0997 -0.1831 -0.9114
 6263SOL    HW230252   4.197   1.722   1.562  1.7825 -0.5517 -1.2848
 6264SOL     OW30253   1.431   2.368   7.239  0.2884 -0.3264  0.6495
 6264SOL    HW130254   1.427   2.354   7.145  0.9946  0.1993  0.5411
 6264SOL    HW230255   1.513   2.321   7.257  0.1743 -0.2378  1.3877
 6265SOL     OW30256   3.212   1.187   5.362 -0.0908 -0.7232 -0.5503
 6265SOL    HW130257   3.186   1.233   5.282 -1.7210  0.9408  0.9492
 6265SOL    HW230258   3.126   1.173   5.402 -0.7144 -0.0575 -1.6492
 6266SOL     OW30259   2.133   1.679  16.560  0.3131 -0.0615 -0.0841
 6266SOL    HW130260   2.194   1.660  16.489  0.0313  0.4059 -0.4474
 6266SOL    HW230261   2.112   1.768  16.531  1.8643  0.2127 -0.4159
 6267SOL     OW30262   2.623   2.341   3.528 -0.2696 -0.1067  0.1642
 6267SOL    HW130263   2.656   2.348   3.438  3.5752 -2.0369  1.4360
 6267SOL    HW230264   2.531   2.323   3.509 -0.1539 -0.8720  0.3036
 6268SOL     OW30265   4.083   2.359  10.520  0.0432 -0.2788  0.2304
 6268SOL    HW130266   4.105   2.361  10.614  2.3510 -1.7614 -0.2636
 6268SOL    HW230267   4.034   2.441  10.518 -0.4304 -0.5557  0.3761
 6269SOL     OW30268   4.672   3.208   7.926  0.6831  0.1927  0.6866
 6269SOL    HW130269   4.594   3.155   7.940  0.3911  0.0010 -1.7197
 6269SOL    HW230270   4.640   3.293   7.958  0.8851  0.8997 -0.9593
 6270SOL     OW30271   3.691   1.688  10.872  0.5896  0.5399 -0.3772
 6270SOL    HW130272   3.721   1.616  10.927 -0.0638  0.1903 -0.4747
 6270SOL    HW230273   3.772   1.698  10.822  0.1414  1.3215 -0.9488
 6271SOL     OW30274   2.254   4.722   7.834 -0.1562 -0.0700 -0.1628
 6271SOL    HW130275   2.248   0.006   7.739 -0.5649 -1.0288 -0.2159
 6271SOL    HW230276   2.170   4.681   7.854 -0.3147  0.6717  0.6985
 6272SOL     OW30277   0.710   4.422   6.323  0.2599  0.1832  0.3733
 6272SOL    HW130278   0.711   4.505   6.275 -0.6366 -1.1896 -1.9981
 6272SOL    HW230279   0.803   4.408   6.342  0.4126  0.9608  0.1858
 6273SOL     OW30280   4.414   2.585   4.240 -0.0238  0.6023  0.1479
 6273SOL    HW130281   4.429   2.576   4.146  1.6594 -2.3864  0.6749
 6273SOL    HW230282   4.327   2.622   4.253  0.1694  0.6714  1.2749
 6274SOL     OW30283   0.239   3.757  12.386 -0.1517  0.1615 -0.4546
 6274SOL    HW130284   0.202   3.842  12.358 -0.9746 -0.2507 -0.6359
 6274SOL    HW230285   0.167   3.696  12.369  0.4722 -1.4216  2.6141
 6275SOL     OW30286   2.668   2.312   3.261 -0.1862 -0.0205 -0.3793
 6275SOL    HW130287   2.574   2.300   3.245 -0.2104 -2.3383  1.4004
 6275SOL    HW230288   2.714   2.301   3.178  1.5129 -1.5305  0.7566
 6276SOL     OW30289   4.324   4.110   3.334  0.8278 -0.4448 -0.4743
 6276SOL    HW130290   4.341   4.195   3.374 -0.5574 -0.4876  0.1837
 6276SOL    HW230291   4.371   4.118   3.250  0.3774  1.1799 -0.5724
 6277SOL     OW30292   1.644   0.624   8.724  0.0943 -0.6742 -0.1667
 6277SOL    HW130293   1.668   0.582   8.642  1.3395 -0.8095  0.2687
 6277SOL    HW230294   1.559   0.662   8.704 -0.2724 -0.3774  1.9529
 6278SOL     OW30295   1.776   1.071   7.702  0.3448  0.6649  0.7357
 6278SOL    HW130296   1.692   1.096   7.739  0.1279 -1.4373  1.6852
 6278SOL    HW230297   1.787   0.977   7.716  0.0904  0.9211  2.6771
 6279SOL     OW30298   3.073   3.296   9.390 -0.7008  0.0091 -0.1811
 6279SOL    HW130299   2.994   3.247   9.413  0.5432 -1.0143  1.9516
 6279SOL    HW230300   3.049   3.357   9.321  1.7903  1.5902  0.3348
 6280SOL     OW30301   3.567   4.598   8.932 -0.2945  0.3296 -0.2439
 6280SOL    HW130302   3.641   4.537   8.940 -0.1619  0.6612  0.9841
 6280SOL    HW230303   3.588   4.656   9.005 -0.0743 -0.3683  0.2562
 6281SOL     OW30304   0.895   2.655   5.054  0.1367 -0.0860  0.1830
 6281SOL    HW130305   0.976   2.668   5.003  0.0536 -1.3633 -0.2792
 6281SOL    HW230306   0.835   2.633   4.983 -1.1228 -0.4804  1.3866
 6282SOL     OW30307   1.312   1.286   9.939 -0.1574  0.5892  0.4562
 6282SOL    HW130308   1.305   1.201   9.981  3.1896  0.7184  1.2703
 6282SOL    HW230309   1.407   1.288   9.921 -0.9045 -0.8292 -3.6212
 6283SOL     OW30310   1.739   4.065  12.725 -0.1594  0.2869  0.0590
 6283SOL    HW130311   1.809   4.119  12.689  0.1514  0.1601  0.4762
 6283SOL    HW230312   1.685   4.046  12.648  0.0593 -0.1613  0.0091
 6284SOL     OW30313   2.542   4.053   0.659 -0.2128  0.0208  0.1244
 6284SOL    HW130314   2.574   4.124   0.715 -0.6934 -1.2542  2.0411
 6284SOL    HW230315   2.592   3.982   0.698 -1.9631 -2.2029 -1.7260
 6285SOL     OW30316   0.771   1.764   6.031 -0.1925  0.4644  0.1844
 6285SOL    HW130317   0.699   1.823   6.011  0.6332  1.0259 -1.1722
 6285SOL    HW230318   0.847   1.821   6.033 -0.2160  0.3914  3.3769
 6286SOL     OW30319   0.329   0.610   3.453  0.4295 -0.1261  0.0674
 6286SOL    HW130320   0.411   0.610   3.405  0.4288 -0.9854  0.0691
 6286SOL    HW230321   0.330   0.524   3.496  1.1323 -0.7197 -1.1468
 6287SOL     OW30322   2.330   0.462  10.240 -0.4478 -0.1604 -0.3434
 6287SOL    HW130323   2.383   0.484  10.164 -1.6997  1.3829 -0.7533
 6287SOL    HW230324   2.380   0.383  10.264  0.3328  0.8317  1.3089
 6288SOL     OW30325   3.236   0.639  14.465 -0.1023 -0.4194  0.2057
 6288SOL    HW130326   3.170   0.686  14.413  0.1098  1.4772  1.6563
 6288SOL    HW230327   3.308   0.701  14.473 -0.6727  0.2099  0.4318
 6289SOL     OW30328   0.435   2.715   4.835  0.0469 -0.1207  0.1458
 6289SOL    HW130329   0.412   2.622   4.844 -2.9626  0.5313 -0.9745
 6289SOL    HW230330   0.501   2.716   4.766  0.8295  2.1390  0.9331
 6290SOL     OW30331   1.590   2.270   8.984  0.4012 -0.1370 -0.4592
 6290SOL    HW130332   1.529   2.238   8.918  0.2588 -1.6465  0.4001
 6290SOL    HW230333   1.609   2.189   9.032 -0.2964  0.4338  0.7869
 6291SOL     OW30334   0.680   2.424  16.608 -0.7574  0.3930  0.1931
 6291SOL    HW130335   0.670   2.383  16.522  0.2834  1.0171 -0.2139
 6291SOL    HW230336   0.680   2.518  16.591  0.0513  0.2448 -0.6092
 6292SOL     OW30337   1.362   1.026   9.996 -0.1741  0.1296 -0.5453
 6292SOL    HW130338   1.394   0.943   9.962 -2.4845 -0.4709 -1.2919
 6292SOL    HW230339   1.336   0.987  10.079  2.1018 -0.5580 -0.1536
 6293SOL     OW30340   2.716   0.440   9.281  0.5884 -0.4940  0.1464
 6293SOL    HW130341   2.626   0.435   9.251  0.9947 -2.6032 -0.7343
 6293SOL    HW230342   2.726   0.355   9.325 -2.4717 -0.0896  1.6131
 6294SOL     OW30343   3.113   1.546   8.553 -0.1979  0.0241  0.1834
 6294SOL    HW130344   3.129   1.461   8.513  1.0171  0.2133  0.2480
 6294SOL    HW230345   3.029   1.528   8.594 -0.1377 -2.0691 -0.6236
 6295SOL     OW30346   1.879   2.492   7.566 -0.3183  0.0438  0.3210
 6295SOL    HW130347   1.966   2.508   7.528 -0.0767 -0.8240  0.5096
 6295SOL    HW230348   1.894   2.420   7.628  1.7292 -1.2012 -1.6169
 6296SOL     OW30349   3.552   3.117   7.132 -0.6683 -0.0449  0.1631
 6296SOL    HW130350   3.545   3.073   7.047 -1.2285 -1.0831  0.7441
 6296SOL    HW230351   3.608   3.064   7.189  1.3239 -0.2077 -1.9132
 6297SOL     OW30352   3.047   0.289   7.811 -0.1179 -0.0049 -0.5075
 6297SOL    HW130353   3.009   0.228   7.875 -0.9112 -1.7835 -2.6938
 6297SOL    HW230354   2.995   0.273   7.732  0.5667  1.7244 -1.3271
 6298SOL     OW30355   0.812   0.775   6.103 -0.3320  0.4341  0.2570
 6298SOL    HW130356   0.749   0.825   6.154 -1.1580  0.1435 -0.4702
 6298SOL    HW230357   0.881   0.839   6.088 -1.2650  0.7308 -2.9042
 6299SOL     OW30358   3.914   0.964  13.271  0.3120 -0.6356 -0.4270
 6299SOL    HW130359   3.851   1.018  13.320  1.8939  0.8457 -0.0185
 6299SOL    HW230360   3.854   0.928  13.206 -1.1564  0.6163  0.2221
 6300SOL     OW30361   3.596   1.762  15.764 -0.0534 -0.2010  0.2017
 6300SOL    HW130362   3.514   1.796  15.798 -1.1476 -1.5693 -1.0629
 6300SOL    HW230363   3.656   1.810  15.821 -1.2516 -0.8735  2.0549
 6301SOL     OW30364   0.386   3.998   2.538 -0.1686  0.2226 -0.2094
 6301SOL    HW130365   0.457   4.059   2.517 -1.2424  2.1002  1.6310
 6301SOL    HW230366   0.310   4.050   2.511  0.2495  1.1381  0.3671
 6302SOL     OW30367   1.554   4.303   8.273 -0.5240  0.3930 -0.0443
 6302SOL    HW130368   1.543   4.390   8.312  4.0159  0.0386  2.1141
 6302SOL    HW230369   1.467   4.303   8.234 -0.1404  1.7069 -0.8994
 6303SOL     OW30370   4.256   2.837  13.699 -0.0299 -0.0954 -0.1332
 6303SOL    HW130371   4.283   2.895  13.770  1.1289 -1.0888  0.2536
 6303SOL    HW230372   4.205   2.897  13.646  0.8307  0.3647 -0.4488
 6304SOL     OW30373   3.221   0.711   3.497 -0.3036 -0.2883 -0.0154
 6304SOL    HW130374   3.226   0.784   3.435 -0.3986  0.4801  0.8838
 6304SOL    HW230375   3.132   0.730   3.528 -0.2673 -1.4584  0.8402
 6305SOL     OW30376   0.907   2.125   6.706 -0.6082 -0.0755 -0.0085
 6305SOL    HW130377   0.828   2.119   6.653 -1.3691 -0.7866  1.2118
 6305SOL    HW230378   0.874   2.089   6.788 -0.1643  1.5638  0.8792
 6306SOL     OW30379   4.148   1.391  10.376 -0.5171 -0.6047  0.6154
 6306SOL    HW130380   4.222   1.434  10.332 -0.7241 -0.6205  0.2505
 6306SOL    HW230381   4.132   1.323  10.310 -1.5044  0.1278  0.1179
 6307SOL     OW30382   0.729   1.098   6.278 -0.8322  0.2776  0.2111
 6307SOL    HW130383   0.824   1.105   6.284 -0.7430 -1.5377  0.8672
 6307SOL    HW230384   0.713   1.186   6.313  1.8811  1.5261 -1.6987
 6308SOL     OW30385   0.088   0.650   3.290  0.3460  0.1781 -0.2418
 6308SOL    HW130386   0.177   0.640   3.325  0.3369  0.2893 -0.1868
 6308SOL    HW230387   0.113   0.709   3.219  2.1540 -0.2503  0.0484
 6309SOL     OW30388   3.948   1.547   7.978  0.7817  0.5864  0.1134
 6309SOL    HW130389   3.965   1.640   7.990  1.1473  0.7033 -1.3770
 6309SOL    HW230390   3.909   1.516   8.061  3.6008 -0.6490  0.9708
 6310SOL     OW30391   0.394   2.229   6.833 -0.0564 -0.3714 -0.3199
 6310SOL    HW130392   0.369   2.137   6.838 -0.6704 -0.0586  2.6951
 6310SOL    HW230393   0.427   2.235   6.744 -0.2315  0.5433 -0.3192
 6311SOL     OW30394   2.646   1.412   1.999  0.6369 -0.0220  0.3410
 6311SOL    HW130395   2.584   1.465   2.049  2.5609  1.7077  0.8979
 6311SOL    HW230396   2.594   1.375   1.928  2.2784 -0.7997 -0.4506
 6312SOL     OW30397   0.802   2.861   5.194  0.6335 -0.3606  0.6397
 6312SOL    HW130398   0.847   2.787   5.152  1.4948  0.9345 -0.7071
 6312SOL    HW230399   0.712   2.838   5.174  0.8561 -0.0764 -0.6737
 6313SOL     OW30400   1.049   4.634   7.194  0.5396 -0.0653  0.2478
 6313SOL    HW130401   1.027   4.706   7.135 -2.1433  0.3495  1.7807
 6313SOL    HW230402   1.088   4.574   7.130 -2.1224 -0.8070 -0.6552
 6314SOL     OW30403   2.482   1.102  13.905 -0.0627 -0.1780 -0.0891
 6314SOL    HW130404   2.483   1.132  13.996  1.1836 -2.2781  0.5936
 6314SOL    HW230405   2.576   1.098  13.889  0.0209 -0.5999  0.5210
 6315SOL     OW30406   1.592   3.969  12.920  0.4708 -0.2434 -0.1124
 6315SOL    HW130407   1.651   4.015  12.861  0.5233 -0.3659 -0.1552
 6315SOL    HW230408   1.575   3.887  12.873  1.3372  0.7487 -2.1433
 6316SOL     OW30409   2.659   4.555  10.959 -0.6561  0.3139 -0.2426
 6316SOL    HW130410   2.667   4.483  10.896  1.8894  0.0695  0.3552
 6316SOL    HW230411   2.629   4.512  11.039 -0.9512 -1.6243 -1.3943
 6317SOL     OW30412   0.532   1.771   3.922 -0.1181 -0.3544 -0.4337
 6317SOL    HW130413   0.551   1.683   3.889  2.6977  0.6043 -1.3211
 6317SOL    HW230414   0.507   1.754   4.013  0.9703  0.7553  0.0764
 6318SOL     OW30415   3.814   0.750   8.446 -0.4098  0.3646  0.3288
 6318SOL    HW130416   3.838   0.830   8.399 -2.7404  0.9495  0.1350
 6318SOL    HW230417   3.778   0.700   8.373  0.7788  0.9839 -0.6817
 6319SOL     OW30418   3.883   1.380  14.557  0.3142  0.4609 -0.0065
 6319SOL    HW130419   3.927   1.351  14.637  1.6047  0.2508 -0.7934
 6319SOL    HW230420   3.830   1.452  14.592 -2.7199 -1.8819  0.2066
 6320SOL     OW30421   0.284   0.979  14.774 -0.0770 -0.3437  0.0893
 6320SOL    HW130422   0.375   1.010  14.777 -0.0428 -0.3069 -1.1978
 6320SOL    HW230423   0.264   0.988  14.681 -0.6686  0.4560  0.2981
 6321SOL     OW30424   0.613   0.991   5.627 -0.2774 -0.6148  0.2000
 6321SOL    HW130425   0.576   1.071   5.665 -1.2554 -0.6489 -0.7025
 6321SOL    HW230426   0.543   0.964   5.568  1.4188 -0.0045 -2.0620
 6322SOL     OW30427   1.303   0.633  10.382  0.2702  0.9477  0.0150
 6322SOL    HW130428   1.322   0.721  10.414 -2.0090  1.4636 -0.0067
 6322SOL    HW230429   1.241   0.651  10.311 -1.6060 -1.1249  1.1151
 6323SOL     OW30430   1.575   1.500   7.571 -0.5653  0.1128  0.6216
 6323SOL    HW130431   1.595   1.459   7.487 -0.5707  2.4941 -0.5262
 6323SOL    HW230432   1.498   1.444   7.587 -1.9360  1.7588 -0.1976
 6324SOL     OW30433   2.923   3.200  13.274 -0.3085 -0.0621  0.1599
 6324SOL    HW130434   2.962   3.180  13.358  1.8217  2.0907 -0.2885
 6324SOL    HW230435   2.956   3.290  13.272 -2.6613  0.8378  1.2102
 6325SOL     OW30436   0.955   2.037   6.303  0.2209 -0.1872 -0.6389
 6325SOL    HW130437   1.024   2.074   6.249 -1.8335  0.3301 -2.9135
 6325SOL    HW230438   0.989   2.065   6.388  1.3492  0.4251 -1.3097
 6326SOL     OW30439   4.033   2.812   3.971 -0.7130 -0.6766 -0.2497
 6326SOL    HW130440   4.043   2.719   3.993 -0.1282 -1.0532 -2.1401
 6326SOL    HW230441   3.973   2.795   3.899 -0.2229 -1.7089 -0.4130
 6327SOL     OW30442   1.805   1.078   1.746  0.4452  0.1032 -0.4894
 6327SOL    HW130443   1.725   1.057   1.697  0.5339  4.5352 -2.5729
 6327SOL    HW230444   1.786   1.024   1.822  1.0842 -0.4739 -0.7357
 6328SOL     OW30445   4.185   3.853   6.965 -0.2758 -1.0469 -0.1985
 6328SOL    HW130446   4.148   3.899   7.040 -0.0398 -3.0612  1.1584
 6328SOL    HW230447   4.257   3.809   7.009  0.4338  1.0562  0.7396
 6329SOL     OW30448   0.136   0.613   2.833 -0.4224 -0.0435 -0.1957
 6329SOL    HW130449   0.077   0.552   2.879 -0.7584 -0.6595 -1.4435
 6329SOL    HW230450   0.210   0.553   2.825 -1.1042 -0.9585  0.2559
 6330SOL     OW30451   4.305   0.403   4.080 -0.0485 -0.2290 -0.8277
 6330SOL    HW130452   4.391   0.362   4.074  0.8207  1.2020  1.7830
 6330SOL    HW230453   4.324   0.497   4.082 -0.1495 -0.2569  1.5564
 6331SOL     OW30454   2.114   0.974   7.064 -0.2474  0.4291  0.4647
 6331SOL    HW130455   2.024   0.944   7.070  0.0589 -0.3104  1.3371
 6331SOL    HW230456   2.162   0.892   7.055 -1.2845 -0.1285  0.0615
 6332SOL     OW30457   3.189   2.418   4.445 -0.4373 -0.0021 -0.0088
 6332SOL    HW130458   3.281   2.389   4.445 -0.8665 -1.3536 -1.0076
 6332SOL    HW230459   3.155   2.384   4.527  0.2335 -1.5044 -0.3556
 6333SOL     OW30460   0.638   1.387   7.566 -0.1362  0.1642 -0.2083
 6333SOL    HW130461   0.694   1.309   7.574  1.6043  1.5636  1.1407
 6333SOL    HW230462   0.679   1.428   7.490 -0.9488  0.3420 -0.5414
 6334SOL     OW30463   3.784   0.154   4.056 -0.2474 -0.1832 -0.0632
 6334SOL    HW130464   3.790   0.184   3.965  0.7661 -0.5010 -0.0936
 6334SOL    HW230465   3.839   0.216   4.104 -1.2344 -1.6062  2.8982
 6335SOL     OW30466   2.600   4.054   9.774  0.4866 -0.1355  0.4174
 6335SOL    HW130467   2.648   4.063   9.692 -0.8875  1.2527 -0.2401
 6335SOL    HW230468   2.517   4.102   9.769  0.9482  0.2946 -3.1959
 6336SOL     OW30469   0.169   4.548   6.785  0.7489  0.5495 -0.1508
 6336SOL    HW130470   0.090   4.505   6.752  0.6077  0.9550 -0.3371
 6336SOL    HW230471   0.198   4.485   6.851 -0.5322  2.1100  1.9029
 6337SOL     OW30472   2.713   3.327   4.754  0.7186 -0.3068  0.1707
 6337SOL    HW130473   2.748   3.333   4.664  0.0270  3.8914  0.1761
 6337SOL    HW230474   2.762   3.398   4.794 -1.3107  0.6458  0.9547
 6338SOL     OW30475   1.623   1.858   2.961  0.9378 -0.4125 -0.0426
 6338SOL    HW130476   1.674   1.868   2.881 -0.1891  0.1042 -0.6963
 6338SOL    HW230477   1.661   1.926   3.017  1.7808 -0.8460 -0.0870
 6339SOL     OW30478   0.982   3.100  16.226 -0.6788 -0.0313 -0.2157
 6339SOL    HW130479   1.008   3.045  16.300 -0.8047  1.2602  0.7993
 6339SOL    HW230480   1.024   3.183  16.251 -0.6572  0.5108 -2.0778
 6340SOL     OW30481   3.650   3.858   8.761  0.3264 -0.2147 -0.3406
 6340SOL    HW130482   3.641   3.900   8.846 -0.5827 -0.1775 -0.4485
 6340SOL    HW230483   3.680   3.934   8.711  0.7038  0.4136  0.8462
 6341SOL     OW30484   4.221   3.803   8.346 -0.3046  0.5271 -0.5044
 6341SOL    HW130485   4.135   3.840   8.326 -0.7052 -1.1549 -1.9328
 6341SOL    HW230486   4.243   3.874   8.405 -0.2494  0.8501 -0.9174
 6342SOL     OW30487   3.352   2.832   5.402  0.0968  0.3872  0.1001
 6342SOL    HW130488   3.418   2.766   5.382 -0.0602 -0.0920  1.2331
 6342SOL    HW230489   3.377   2.851   5.492 -0.4474  0.9334  0.1377
 6343SOL     OW30490   0.166   3.570   6.633 -0.8790  0.4442  0.1343
 6343SOL    HW130491   0.226   3.512   6.586  0.0222  1.1923  0.3556
 6343SOL    HW230492   0.183   3.553   6.726  1.3398 -0.7183 -0.4932
 6344SOL     OW30493   2.590   3.558   5.000  0.2158 -1.1302 -0.0869
 6344SOL    HW130494   2.681   3.532   4.982  1.0054  0.3537  1.7952
 6344SOL    HW230495   2.554   3.589   4.917 -0.7470 -0.5662  0.5472
 6345SOL     OW30496   3.421   1.442  10.638  0.0390 -0.3603  0.2805
 6345SOL    HW130497   3.356   1.492  10.587  1.4569 -0.1106 -1.2919
 6345SOL    HW230498   3.377   1.366  10.676 -0.5391  0.4929  1.3289
 6346SOL     OW30499   2.187   0.010   7.560  0.4159 -0.2624  0.2172
 6346SOL    HW130500   2.098   0.002   7.527 -0.3554  1.4769  1.8539
 6346SOL    HW230501   2.225   4.648   7.544  1.6650  0.2613  0.3354
 6347SOL     OW30502   2.171   1.175   2.428  0.0108  0.0415  0.3683
 6347SOL    HW130503   2.203   1.264   2.442 -0.9628  0.5240 -0.4823
 6347SOL    HW230504   2.077   1.184   2.447  0.0107  1.8228 -0.4534
 6348SOL     OW30505   3.067   1.827   8.585  0.0760  0.2492  0.0747
 6348SOL    HW130506   3.058   1.839   8.679 -0.4092 -0.4015  0.1099
 6348SOL    HW230507   3.118   1.751   8.559  0.1180  0.3628 -0.1790
 6349SOL     OW30508   3.574   2.804   1.078 -0.0927 -0.1271 -0.0402
 6349SOL    HW130509   3.490   2.773   1.044  0.9595  0.4605 -3.1421
 6349SOL    HW230510   3.629   2.775   1.006  1.5169  0.1711  1.0699
 6350SOL     OW30511   2.271   4.167   0.877 -0.1795 -0.2780  0.7428
 6350SOL    HW130512   2.287   4.082   0.918 -0.3363 -0.5243  0.2964
 6350SOL    HW230513   2.248   4.147   0.786  2.0013  0.3209  0.0578
 6351SOL     OW30514   0.034   2.281   3.524  0.5792  0.2435 -0.0638
 6351SOL    HW130515   0.082   2.209   3.483  0.3707  0.4910 -0.7381
 6351SOL    HW230516   4.669   2.248   3.536  0.5454  0.3426 -0.0438
 6352SOL     OW30517   3.837   2.631  16.170 -0.6688 -0.0905 -0.2323
 6352SOL    HW130518   3.871   2.692  16.104  0.0362  0.8852  1.0269
 6352SOL    HW230519   3.746   2.660  16.175 -0.3566  1.1062 -1.3498
 6353SOL     OW30520   3.555   0.196   8.246  0.2607 -0.0681 -0.1638
 6353SOL    HW130521   3.607   0.128   8.201 -1.4357 -0.6253 -1.2689
 6353SOL    HW230522   3.622   0.246   8.293  3.0266 -4.3987  0.5196
 6354SOL     OW30523   1.487   0.788  10.789  0.5196  0.1307  0.3076
 6354SOL    HW130524   1.571   0.797  10.744  0.9546 -0.4282  1.0115
 6354SOL    HW230525   1.481   0.864  10.848  0.0051  0.7888 -0.5877
 6355SOL     OW30526   0.670   4.588   4.931 -0.1757  0.0283 -0.6802
 6355SOL    HW130527   0.715   4.527   4.989  0.7048  2.2161  0.9320
 6355SOL    HW230528   0.744   4.619   4.879  1.4334 -1.0844  0.9655
 6356SOL     OW30529   1.978   0.644  11.293 -1.1800 -0.5609  0.3301
 6356SOL    HW130530   1.971   0.551  11.314  0.9935 -0.4686  1.4146
 6356SOL    HW230531   1.896   0.666  11.249 -0.3974  2.6847  0.5131
 6357SOL     OW30532   3.088   0.128   6.808 -0.8198 -0.0454  0.7012
 6357SOL    HW130533   3.106   0.213   6.846  1.3098  0.2518 -0.9472
 6357SOL    HW230534   3.000   0.112   6.840 -0.5155  0.5847  1.8324
 6358SOL     OW30535   2.325   1.363   8.633  0.5029  0.1987 -0.0123
 6358SOL    HW130536   2.283   1.414   8.564  0.4603 -1.2537 -1.0737
 6358SOL    HW230537   2.370   1.298   8.579  1.8742  0.4683  0.7933
 6359SOL     OW30538   0.479   2.055   8.531 -0.2820  0.3807  0.2821
 6359SOL    HW130539   0.471   2.147   8.505 -0.1730  0.9257  2.1297
 6359SOL    HW230540   0.565   2.070   8.571  0.2871 -1.2037 -0.3673
 6360SOL     OW30541   4.562   2.019   5.433 -0.0841 -0.0808 -0.3095
 6360SOL    HW130542   4.523   1.995   5.350 -1.9375  0.3699  0.4339
 6360SOL    HW230543   4.510   1.966   5.493 -1.8625  0.3305 -1.5013
 6361SOL     OW30544   1.688   0.061   8.724  0.1683 -0.0462 -0.3372
 6361SOL    HW130545   1.715   0.119   8.652 -2.3384 -3.5619 -4.0860
 6361SOL    HW230546   1.594   0.059   8.709  0.0785  1.2493  0.0118
 6362SOL     OW30547   3.521   0.119   3.809  0.2340 -0.5372 -0.1289
 6362SOL    HW130548   3.517   0.210   3.839  0.3754  0.3720 -2.7955
 6362SOL    HW230549   3.428   0.096   3.808 -0.1239  0.9127  1.4872
 6363SOL     OW30550   2.358   1.286  17.131  0.5043 -0.4191  0.1217
 6363SOL    HW130551   2.290   1.222  17.152  0.6600  0.1269  2.2856
 6363SOL    HW230552   2.353   1.337  17.212  0.5360 -0.3515  0.0805
 6364SOL     OW30553   1.447   1.486  10.546  0.6859  0.0826 -0.1598
 6364SOL    HW130554   1.436   1.479  10.641  0.7825 -1.5102 -0.2684
 6364SOL    HW230555   1.440   1.394  10.522 -0.9001 -0.1042  0.9298
 6365SOL     OW30556   4.717   4.639   7.709  0.2681 -0.4852 -0.5118
 6365SOL    HW130557   4.709   4.561   7.655 -3.0423 -0.7374  0.3507
 6365SOL    HW230558   4.639   4.628   7.763  0.3078  1.9142  0.0173
 6366SOL     OW30559   0.113   2.099  11.252 -0.0685 -0.2943 -0.3939
 6366SOL    HW130560   0.036   2.046  11.232 -0.7015 -0.0162  1.3024
 6366SOL    HW230561   0.059   2.173  11.280  0.8406 -0.5536  2.0014
 6367SOL     OW30562   0.010   3.424   2.972  0.4002  0.5203 -0.5017
 6367SOL    HW130563   0.009   3.518   2.953  1.0149  0.7408  0.5125
 6367SOL    HW230564   0.050   3.431   3.059 -0.3776  2.4927 -0.2792
 6368SOL     OW30565   4.402   0.402  14.860  0.2448  0.4518 -0.9285
 6368SOL    HW130566   4.319   0.449  14.856 -0.6067 -0.7750  2.7361
 6368SOL    HW230567   4.453   0.475  14.895  0.2368  0.6835 -1.3988
 6369SOL     OW30568   1.215   1.600  14.113  0.1129 -0.1361  0.0378
 6369SOL    HW130569   1.173   1.618  14.198  2.3579 -1.7993  1.4813
 6369SOL    HW230570   1.195   1.508  14.099  0.8762 -0.3783  0.5472
 6370SOL     OW30571   4.297   1.481   7.784  0.6798  0.3926 -0.2331
 6370SOL    HW130572   4.368   1.480   7.721  1.5114  1.2284  0.6922
 6370SOL    HW230573   4.312   1.402   7.837  0.6763  0.1730 -0.5649
 6371SOL     OW30574   0.869   3.748  14.590 -0.3393  0.2786  0.3306
 6371SOL    HW130575   0.784   3.708  14.612 -0.1720 -0.3229 -0.1309
 6371SOL    HW230576   0.890   3.727  14.499  0.2659  0.2379  0.4800
 6372SOL     OW30577   2.882   4.662   2.517 -0.1746  0.1347 -0.2227
 6372SOL    HW130578   2.800   4.613   2.505 -0.1043 -0.3082  1.0440
 6372SOL    HW230579   2.847   4.703   2.596  0.4998 -0.1138  0.2087
 6373SOL     OW30580   4.131   0.436  15.765  0.4562 -0.7065  0.1605
 6373SOL    HW130581   4.182   0.359  15.738 -1.4598 -2.4223  1.4728
 6373SOL    HW230582   4.161   0.441  15.856  0.8753 -0.6074  0.0190
 6374SOL     OW30583   2.848   2.207   5.776 -0.3342  0.7875 -0.1864
 6374SOL    HW130584   2.870   2.184   5.685 -0.7322 -1.3071  0.2370
 6374SOL    HW230585   2.779   2.145   5.802  1.4400 -0.4564  1.5868
 6375SOL     OW30586   1.021   1.230   6.094  0.2019  0.2325 -0.0970
 6375SOL    HW130587   1.068   1.308   6.063 -1.5007  0.2673 -2.5543
 6375SOL    HW230588   0.990   1.257   6.180 -2.2394 -1.3956 -0.4759
 6376SOL     OW30589   1.557   2.045   7.930 -0.3567 -0.7558  0.0280
 6376SOL    HW130590   1.490   1.978   7.943 -0.8338  0.1638  2.4815
 6376SOL    HW230591   1.513   2.126   7.957  0.8438  0.7447 -2.5179
 6377SOL     OW30592   1.033   1.843   6.082  1.5157  0.4574  0.0588
 6377SOL    HW130593   1.110   1.878   6.037  1.0581  0.6287 -0.5829
 6377SOL    HW230594   1.041   1.891   6.164  0.2881 -0.2177  0.5862
 6378SOL     OW30595   3.587   1.969  11.983  0.3056  0.4310 -0.3256
 6378SOL    HW130596   3.605   1.915  11.906 -2.9709  0.0906 -0.8509
 6378SOL    HW230597   3.645   2.045  11.979  0.8864 -0.0481 -1.1414
 6379SOL     OW30598   0.207   0.555   8.024 -0.7174  0.0843 -0.3749
 6379SOL    HW130599   0.204   0.576   7.930  2.7523 -2.5536 -1.0564
 6379SOL    HW230600   0.182   0.640   8.061 -0.7083  0.2634 -0.7708
 6380SOL     OW30601   0.488   4.555  15.468 -0.3302  0.3542 -0.2147
 6380SOL    HW130602   0.466   4.536  15.377  0.2646 -1.8920  0.1131
 6380SOL    HW230603   0.514   4.646  15.456  1.9445 -0.1385  0.9819
 6381SOL     OW30604   0.483   2.659   5.345  0.3281  0.5360 -0.3336
 6381SOL    HW130605   0.496   2.593   5.413  0.3308  1.2782  0.3961
 6381SOL    HW230606   0.392   2.649   5.320  0.5241 -1.1058 -0.3645
 6382SOL     OW30607   3.242   1.336   1.690 -0.3239 -0.2981  0.3148
 6382SOL    HW130608   3.296   1.301   1.618 -1.3013 -0.7605 -0.1902
 6382SOL    HW230609   3.312   1.342   1.755  0.9294 -0.5678 -1.0060
 6383SOL     OW30610   2.529   3.781   4.006 -0.4694 -0.4454 -0.2089
 6383SOL    HW130611   2.605   3.727   3.985 -1.2602 -1.7711  0.3250
 6383SOL    HW230612   2.467   3.709   3.991 -1.1320  0.3310 -1.1797
 6384SOL     OW30613   0.455   2.992   5.541 -0.3803  0.0837  0.2363
 6384SOL    HW130614   0.388   2.925   5.550 -2.2868  2.2098  1.8854
 6384SOL    HW230615   0.430   3.051   5.612  1.7071  1.4550 -0.1747
 6385SOL     OW30616   2.195   4.260  16.042  0.0759  0.6967 -0.2546
 6385SOL    HW130617   2.155   4.309  16.114  0.9401  1.7677 -0.5054
 6385SOL    HW230618   2.141   4.273  15.964 -0.6298 -1.1815 -0.0828
 6386SOL     OW30619   0.273   0.124  10.826  0.2469  0.1709  0.0564
 6386SOL    HW130620   0.198   0.167  10.787  1.3645  0.5645 -1.6945
 6386SOL    HW230621   0.244   0.120  10.917  1.8248 -0.2880  0.5470
 6387SOL     OW30622   3.052   1.640   4.342  0.9273  0.3855 -0.0955
 6387SOL    HW130623   3.009   1.659   4.426  0.1085 -2.2406  0.0906
 6387SOL    HW230624   2.993   1.577   4.300 -0.5953  0.4795  1.8959
 6388SOL     OW30625   4.240   2.951   5.485 -0.0719 -0.2882  0.7977
 6388SOL    HW130626   4.215   3.043   5.469 -0.6517 -0.5628  0.1279
 6388SOL    HW230627   4.333   2.956   5.462  0.0847  1.0817  1.6607
 6389SOL     OW30628   3.601   0.446   7.778 -0.6592 -0.5774  0.2528
 6389SOL    HW130629   3.650   0.479   7.854  1.7190 -3.1604 -0.1899
 6389SOL    HW230630   3.669   0.381   7.763  0.1292  0.0089  1.2701
 6390SOL     OW30631   3.025   0.158   9.877 -0.0271 -0.0425 -0.0065
 6390SOL    HW130632   2.972   0.199   9.946 -1.2986 -3.4863  1.0561
 6390SOL    HW230633   3.107   0.147   9.926  0.9809  0.0770 -1.6842
 6391SOL     OW30634   1.218   2.010  15.024  0.3701 -0.1870  0.2396
 6391SOL    HW130635   1.172   2.040  14.946  4.8009  1.2463 -1.8446
 6391SOL    HW230636   1.211   1.918  14.998 -1.9517 -0.7463  2.8655
 6392SOL     OW30637   3.136   3.812  16.729 -0.3604  0.5170  0.3377
 6392SOL    HW130638   3.188   3.871  16.674 -1.5744  1.3037  0.0417
 6392SOL    HW230639   3.201   3.785  16.793 -1.7383  1.5552  2.1573
 6393SOL     OW30640   0.890   3.316   5.737 -0.2013  0.1265 -0.0213
 6393SOL    HW130641   0.925   3.245   5.791  0.6080 -0.5935 -1.4999
 6393SOL    HW230642   0.864   3.269   5.658  1.8611 -1.5165  0.2640
 6394SOL     OW30643   4.036   4.647   3.629  0.1191  0.2423  0.0223
 6394SOL    HW130644   3.953   4.693   3.619 -1.0281 -2.0715 -1.0611
 6394SOL    HW230645   4.034   4.596   3.548  0.1740  0.4732 -0.1273
 6395SOL     OW30646   0.102   2.109  15.977  0.3643  0.2762  0.3049
 6395SOL    HW130647   0.074   2.199  15.963 -1.5729 -0.1102  1.6847
 6395SOL    HW230648   0.179   2.111  15.920 -0.7291  1.9876 -1.1190
 6396SOL     OW30649   3.603   0.996  10.441 -0.0238  0.7919  0.2572
 6396SOL    HW130650   3.535   0.987  10.375 -0.7653  1.3641  0.9539
 6396SOL    HW230651   3.603   0.913  10.489  0.7905 -0.1583 -1.3593
 6397SOL     OW30652   2.255   1.482  13.878 -0.0024  0.0145 -0.1601
 6397SOL    HW130653   2.207   1.403  13.902 -1.3097  0.9926  0.5010
 6397SOL    HW230654   2.328   1.439  13.835  0.5770  0.6971  0.1400
 6398SOL     OW30655   4.551   4.185  14.742  0.1297 -0.4258 -0.1572
 6398SOL    HW130656   4.642   4.174  14.772  0.6251  0.8637 -1.1584
 6398SOL    HW230657   4.560   4.241  14.665 -1.4544 -0.7562 -0.5637
 6399SOL     OW30658   3.244   4.426   7.938 -0.2006 -0.1555  0.4237
 6399SOL    HW130659   3.220   4.506   7.985 -0.3881 -0.5551  1.0086
 6399SOL    HW230660   3.161   4.386   7.913  0.1795  0.5843 -2.0143
 6400SOL     OW30661   1.229   3.311   5.671 -0.3143 -0.1106 -0.1764
 6400SOL    HW130662   1.254   3.220   5.687 -2.2764 -0.6443 -0.2076
 6400SOL    HW230663   1.149   3.300   5.619 -1.5235  3.3321  0.9385
 6401SOL     OW30664   3.824   1.236   2.007 -0.0806  0.2576 -0.4456
 6401SOL    HW130665   3.899   1.247   1.949  0.5043  0.2597  0.3064
 6401SOL    HW230666   3.813   1.328   2.033  1.4724  0.2674  0.2111
 6402SOL     OW30667   2.837   0.083  16.204  0.1669 -0.0300 -0.1364
 6402SOL    HW130668   2.771   0.108  16.139  2.2694 -1.3523 -2.8270
 6402SOL    HW230669   2.799   0.120  16.283  1.8902  0.1787  0.5890
 6403SOL     OW30670   2.640   0.162  12.423 -0.1585  0.2419 -0.2874
 6403SOL    HW130671   2.595   0.083  12.393 -0.8046  0.4393  0.1812
 6403SOL    HW230672   2.635   0.223  12.350  0.0759  1.7575  0.9615
 6404SOL     OW30673   0.339   0.277   2.431  0.1231 -0.1185  0.2233
 6404SOL    HW130674   0.413   0.240   2.480  1.2156  0.3420 -1.0621
 6404SOL    HW230675   0.261   0.262   2.484  1.0156  1.0773  1.8787
 6405SOL     OW30676   1.117   3.366  17.614 -0.2533 -0.1182  0.0527
 6405SOL    HW130677   1.094   3.459  17.606 -0.4851 -0.1363  0.5133
 6405SOL    HW230678   1.098   3.354   0.008 -1.8399 -0.4582 -0.3109
 6406SOL     OW30679   3.285   0.464  11.428  0.6371  0.1740  0.2450
 6406SOL    HW130680   3.326   0.435  11.347 -0.2089  0.1662 -0.1831
 6406SOL    HW230681   3.304   0.394  11.491 -1.8499  0.0501  0.8657
 6407SOL     OW30682   0.499   1.356   5.567 -0.6601 -0.4088 -0.6338
 6407SOL    HW130683   0.436   1.413   5.611 -0.1868  1.7618 -2.7294
 6407SOL    HW230684   0.539   1.315   5.644 -0.5813 -1.9125 -1.4746
 6408SOL     OW30685   2.493   1.829   2.612  0.1076 -0.0582 -0.3058
 6408SOL    HW130686   2.403   1.855   2.592  0.3272  0.0767 -1.0798
 6408SOL    HW230687   2.510   1.887   2.686  0.9847 -1.6198  0.7220
 6409SOL     OW30688   0.661   2.090   6.551  0.4041  0.7123 -0.1230
 6409SOL    HW130689   0.654   2.100   6.456  0.9886 -1.5003 -0.3971
 6409SOL    HW230690   0.601   2.159   6.578 -0.7035  0.0921 -1.0345
 6410SOL     OW30691   0.003   4.702   3.696 -0.2439  0.2046  0.2213
 6410SOL    HW130692   4.720   4.619   3.742  0.6277  0.2033  0.3658
 6410SOL    HW230693   4.634   4.722   3.699 -0.1950  0.4539  0.0942
 6411SOL     OW30694   3.934   2.369   5.951  0.1872  0.1137 -0.1823
 6411SOL    HW130695   4.001   2.344   6.015 -0.4718 -0.9800  0.0743
 6411SOL    HW230696   3.979   2.380   5.867  1.0223 -0.9733  0.1115
 6412SOL     OW30697   0.947   3.099  15.942  0.0674  0.3302 -0.4418
 6412SOL    HW130698   0.969   3.007  15.933  0.7268  0.5628 -1.2756
 6412SOL    HW230699   0.958   3.115  16.036 -1.4185 -0.1207 -0.1984
 6413SOL     OW30700   4.251   3.480   6.814 -0.3752 -0.5478 -0.5946
 6413SOL    HW130701   4.217   3.567   6.794  0.9944  0.0346 -0.3426
 6413SOL    HW230702   4.225   3.439   6.731  1.3395  0.9762 -1.9077
 6414SOL     OW30703   2.993   1.290   4.497 -0.2078 -0.1762 -0.1229
 6414SOL    HW130704   2.931   1.311   4.427 -0.3182 -1.6667 -0.4875
 6414SOL    HW230705   3.042   1.221   4.452  1.1943  2.1357 -2.1211
 6415SOL     OW30706   4.437   3.178  12.801 -0.4752 -0.6591  0.4930
 6415SOL    HW130707   4.354   3.179  12.849 -0.8299  0.7465 -0.1521
 6415SOL    HW230708   4.499   3.156  12.871  0.1143  0.0878  0.2012
 6416SOL     OW30709   3.419   0.126  14.672  0.1578 -0.1102  0.3283
 6416SOL    HW130710   3.406   0.044  14.625 -0.0032 -0.5879  1.2076
 6416SOL    HW230711   3.473   0.177  14.612  1.2731 -0.3890  1.0776
 6417SOL     OW30712   1.198   2.160   6.857 -0.2172  0.3051 -0.2054
 6417SOL    HW130713   1.229   2.236   6.808  1.4722 -0.0584  0.2959
 6417SOL    HW230714   1.108   2.190   6.875 -0.1363 -0.1072  0.8984
 6418SOL     OW30715   1.893   2.886   6.531 -0.1226 -0.0949 -0.1226
 6418SOL    HW130716   1.877   2.884   6.625  0.2023  1.3286 -0.0375
 6418SOL    HW230717   1.986   2.909   6.531 -0.1672  0.0756 -1.3978
 6419SOL     OW30718   1.966   3.453   0.900 -0.1452 -0.0057 -0.0690
 6419SOL    HW130719   1.904   3.458   0.827 -1.6122  0.1514  1.1946
 6419SOL    HW230720   2.042   3.411   0.859  0.1792 -0.6090  1.1728
 6420SOL     OW30721   0.330   1.192   8.377  0.1540  0.2296 -0.1890
 6420SOL    HW130722   0.352   1.152   8.461  0.6612  0.4639 -0.2129
 6420SOL    HW230723   0.265   1.255   8.408  1.0018 -0.1453  2.3317
 6421SOL     OW30724   4.107   0.198  14.831  0.4720 -0.0601 -0.3955
 6421SOL    HW130725   4.050   0.160  14.765 -0.3419  1.2709 -0.4444
 6421SOL    HW230726   4.054   0.180  14.909  2.9155 -1.8684  0.8912
 6422SOL     OW30727   3.625   4.593   6.055 -0.0900 -0.1047  0.1475
 6422SOL    HW130728   3.639   4.667   5.996  1.8349  0.0869  0.8300
 6422SOL    HW230729   3.584   4.635   6.130  0.6849 -0.2230  0.6400
 6423SOL     OW30730   2.896   4.509  16.234  0.2688 -0.0339 -0.5739
 6423SOL    HW130731   2.849   4.592  16.232  1.5832  0.6745 -2.2753
 6423SOL    HW230732   2.972   4.515  16.176 -0.9308 -0.9870 -2.2592
 6424SOL     OW30733   1.692   1.252   7.938  0.5157 -0.1454 -0.0667
 6424SOL    HW130734   1.602   1.239   7.909  0.0736 -0.2552  1.3650
 6424SOL    HW230735   1.712   1.323   7.877  1.9117 -0.5557 -0.0868
 6425SOL     OW30736   0.128   3.451   9.216 -0.3112 -0.4898  0.1974
 6425SOL    HW130737   0.086   3.368   9.195  1.0864 -1.4538  1.2604
 6425SOL    HW230738   0.217   3.418   9.228 -0.2083  0.3395  1.6313
 6426SOL     OW30739   2.954   3.138   9.699 -0.4614  0.2896 -0.3269
 6426SOL    HW130740   2.886   3.202   9.723  0.4687  1.3261 -0.4384
 6426SOL    HW230741   3.029   3.166   9.752 -1.0148 -0.4332  0.8332
 6427SOL     OW30742   0.606   3.405   8.865 -0.1414 -0.1887 -0.1665
 6427SOL    HW130743   0.539   3.350   8.825  0.4677 -1.1934  0.1803
 6427SOL    HW230744   0.684   3.350   8.855 -1.6116 -2.2597 -0.1993
 6428SOL     OW30745   0.324   1.562   6.939  0.4151  0.1161 -0.1725
 6428SOL    HW130746   0.356   1.621   6.872  0.5986  1.2135  0.8779
 6428SOL    HW230747   0.254   1.610   6.985 -1.8636 -2.8576 -0.4758
 6429SOL     OW30748   1.790   0.634   2.867 -0.3791  0.2071  0.8767
 6429SOL    HW130749   1.701   0.600   2.857 -0.0680 -0.3497 -0.0283
 6429SOL    HW230750   1.789   0.712   2.922 -1.6185 -0.8911  2.4448
 6430SOL     OW30751   2.572   3.304   6.170 -0.1620 -0.2512  0.7403
 6430SOL    HW130752   2.542   3.271   6.255  1.2958  2.0726  2.1710
 6430SOL    HW230753   2.518   3.383   6.170  2.7220  1.7454 -0.2495
 6431SOL     OW30754   0.293   4.217   2.894  0.2966 -0.1922 -0.4611
 6431SOL    HW130755   0.267   4.303   2.926 -0.6783 -0.3320 -0.8683
 6431SOL    HW230756   0.375   4.242   2.850 -0.7959  1.0560 -1.7975
 6432SOL     OW30757   4.416   1.625   5.278 -0.1677  0.4577  0.4430
 6432SOL    HW130758   4.388   1.539   5.310 -1.8592  0.8954  0.1186
 6432SOL    HW230759   4.411   1.614   5.183  2.4661 -0.0392  0.3525
 6433SOL     OW30760   2.973   4.309   8.980 -0.6336  0.2889 -0.2315
 6433SOL    HW130761   2.955   4.361   8.902 -1.6169  0.1291 -0.1164
 6433SOL    HW230762   3.066   4.316   9.000 -0.2453 -0.1891 -1.8421
 6434SOL     OW30763   0.524   3.424   2.302  0.0723  0.2097 -0.4810
 6434SOL    HW130764   0.609   3.458   2.275  0.7935 -0.6590  0.6911
 6434SOL    HW230765   0.482   3.504   2.334 -1.0553  0.4063 -2.4294
 6435SOL     OW30766   1.465   2.565   8.575  0.0483 -0.7957  0.7727
 6435SOL    HW130767   1.411   2.519   8.512  2.9045 -0.0831 -2.2068
 6435SOL    HW230768   1.468   2.650   8.532 -1.0051  0.0743  2.3986
 6436SOL     OW30769   1.654   4.354  15.867  0.6514  0.3784  0.1557
 6436SOL    HW130770   1.637   4.341  15.774 -1.8314 -0.9058  0.7740
 6436SOL    HW230771   1.731   4.301  15.885 -0.6098 -0.7724  2.1973
 6437SOL     OW30772   2.272   0.917   2.430  0.2286 -0.3656  0.6704
 6437SOL    HW130773   2.188   0.885   2.398  0.3489 -0.0465  0.0319
 6437SOL    HW230774   2.263   1.012   2.431  0.1778 -0.3550 -0.7902
 6438SOL     OW30775   1.431   2.968  14.718  0.3344 -0.1275 -0.3704
 6438SOL    HW130776   1.382   2.945  14.639  0.2753  1.2870 -0.7530
 6438SOL    HW230777   1.361   2.962  14.783  0.7401  0.4190  0.1212
 6439SOL     OW30778   3.834   4.302   6.108 -0.2511  0.0382  0.0325
 6439SOL    HW130779   3.743   4.280   6.130 -0.3108  1.2846  1.0529
 6439SOL    HW230780   3.834   4.280   6.015 -0.8941 -0.9789  0.2797
 6440SOL     OW30781   2.327   1.876   8.228  0.1703  0.1484 -0.1855
 6440SOL    HW130782   2.233   1.892   8.223  0.6536  2.6678 -1.3154
 6440SOL    HW230783   2.343   1.939   8.298  0.0451 -0.2492  0.1995
 6441SOL     OW30784   0.171   2.520  13.001 -0.4328  0.0398  0.0729
 6441SOL    HW130785   0.250   2.484  12.959 -1.1514 -0.9922 -0.3962
 6441SOL    HW230786   0.142   2.585  12.938  0.2160  0.3802  0.1242
 6442SOL     OW30787   3.396   3.292   5.009 -0.2466  0.2428 -0.2889
 6442SOL    HW130788   3.356   3.206   5.022  1.5514 -0.1221  2.5936
 6442SOL    HW230789   3.318   3.348   5.007 -1.0184 -0.8331 -0.1342
 6443SOL     OW30790   0.311   1.751   6.151  0.1083  0.7490  0.3693
 6443SOL    HW130791   0.329   1.793   6.067  0.2509 -0.1326 -0.0421
 6443SOL    HW230792   0.248   1.683   6.124  0.5669  0.8305 -0.8466
 6444SOL     OW30793   4.532   4.565   3.502  0.4341 -0.0666  0.4587
 6444SOL    HW130794   4.618   4.605   3.485 -0.1799  1.1872  0.2483
 6444SOL    HW230795   4.504   4.611   3.581 -0.6174  0.8298 -0.4365
 6445SOL     OW30796   0.869   4.542   4.056  0.6093 -0.7683  0.4643
 6445SOL    HW130797   0.921   4.486   3.999 -2.2535 -1.6209 -1.3091
 6445SOL    HW230798   0.927   4.554   4.132  1.9802 -0.2707 -0.6688
 6446SOL     OW30799   2.628   4.677   9.456  0.0022  0.2942  0.4146
 6446SOL    HW130800   2.626   4.598   9.402 -1.9617 -1.4033  2.9883
 6446SOL    HW230801   2.692   4.654   9.522 -0.7226 -0.2476  0.9357
 6447SOL     OW30802   2.667   1.160   6.802 -0.0043  0.2922  0.4252
 6447SOL    HW130803   2.592   1.120   6.757  0.1081  0.0388  0.4601
 6447SOL    HW230804   2.657   1.113   6.885 -1.4238 -0.4989 -0.1902
 6448SOL     OW30805   2.300   2.280   5.751 -0.1116 -0.4607 -0.4174
 6448SOL    HW130806   2.291   2.308   5.660  2.3263 -1.1607 -0.8994
 6448SOL    HW230807   2.213   2.300   5.784  0.5849  0.2446  1.0178
 6449SOL     OW30808   0.705   1.384   8.404 -0.1493  0.1763 -0.3866
 6449SOL    HW130809   0.647   1.315   8.372 -0.6797 -0.2209  1.4322
 6449SOL    HW230810   0.753   1.346   8.478  1.9918  1.6962 -0.9900
 6450SOL     OW30811   3.004   3.216  12.968 -0.6708 -0.2770  0.3527
 6450SOL    HW130812   2.984   3.270  12.891  1.4831 -0.2846 -0.2075
 6450SOL    HW230813   3.099   3.212  12.977 -0.6562 -0.6567  0.0417
 6451SOL     OW30814   1.004   0.963   6.028 -0.0876  0.0227 -0.4760
 6451SOL    HW130815   1.080   0.925   5.985 -1.7775 -4.9028  1.0032
 6451SOL    HW230816   1.037   1.044   6.067 -1.0585  0.1299  0.1377
 6452SOL     OW30817   3.002   3.755   6.739 -0.4442 -0.8519  0.1862
 6452SOL    HW130818   3.040   3.712   6.816 -1.2190 -0.0326  1.0194
 6452SOL    HW230819   2.913   3.768   6.773  0.7745  1.4321  2.5164
 6453SOL     OW30820   2.656   3.845   0.754  0.7863  0.0957  0.1869
 6453SOL    HW130821   2.630   3.811   0.840  1.1245 -0.7904 -0.0587
 6453SOL    HW230822   2.737   3.883   0.789  1.7007 -1.7666  0.0904
 6454SOL     OW30823   0.034   3.726   2.995 -0.3997  0.0627  0.3745
 6454SOL    HW130824   0.092   3.672   3.048  0.4289  0.0691 -0.5278
 6454SOL    HW230825   0.102   3.789   2.972 -0.8604  0.7522  0.8908
 6455SOL     OW30826   2.116   2.844   4.978  0.5653 -0.7029 -0.1695
 6455SOL    HW130827   2.179   2.890   5.033  1.9675  1.1892 -3.3047
 6455SOL    HW230828   2.047   2.911   4.975 -0.1276 -1.4650 -1.3983
 6456SOL     OW30829   1.993   2.528  10.567  0.3236  0.1600  0.0238
 6456SOL    HW130830   1.946   2.608  10.545 -0.3814 -0.8369 -2.1143
 6456SOL    HW230831   2.088   2.534  10.557  0.5153 -0.5037  1.4033
 6457SOL     OW30832   0.290   1.219   4.764 -0.2609 -0.5677  0.0710
 6457SOL    HW130833   0.243   1.187   4.841 -0.4236 -2.5300 -0.8312
 6457SOL    HW230834   0.356   1.151   4.752  0.5183  0.3159 -0.5826
 6458SOL     OW30835   1.842   3.536  10.003  0.1216 -0.4478  0.0920
 6458SOL    HW130836   1.876   3.622  10.029  0.0890 -0.3084 -0.3229
 6458SOL    HW230837   1.831   3.549   9.909 -1.0736  1.0026  0.4460
 6459SOL     OW30838   2.266   3.030   4.724  0.2241  0.0002  0.2328
 6459SOL    HW130839   2.359   3.012   4.736  0.8680  0.3979 -4.2325
 6459SOL    HW230840   2.245   3.093   4.794  1.2689  2.1436 -1.3656
 6460SOL     OW30841   4.661   1.532   3.080 -0.0957  0.0151 -0.5216
 6460SOL    HW130842   0.016   1.580   3.054  0.9345 -2.1064 -1.2320
 6460SOL    HW230843   4.686   1.440   3.081  2.2657  0.6338 -2.8259
 6461SOL     OW30844   1.359   2.038   8.938 -0.4238 -0.1033 -0.9281
 6461SOL    HW130845   1.302   1.985   8.994  1.5522  0.1434  1.2927
 6461SOL    HW230846   1.406   1.969   8.891 -0.9363 -1.7702  0.9960
 6462SOL     OW30847   4.680   1.263   0.608 -0.0140  0.6871  0.4240
 6462SOL    HW130848   0.014   1.291   0.679  0.2402 -0.0081  0.4896
 6462SOL    HW230849   4.609   1.326   0.623  0.2139  0.8003  1.0354
 6463SOL     OW30850   3.122   0.248   3.013 -0.6671 -0.7741 -0.0620
 6463SOL    HW130851   3.046   0.193   2.996 -1.7134  0.2291  1.3503
 6463SOL    HW230852   3.188   0.204   2.959 -0.4998  0.1336 -0.5897
 6464SOL     OW30853   1.158   4.271   8.603  0.0083 -0.5005 -0.1826
 6464SOL    HW130854   1.142   4.364   8.622 -3.5782 -1.0158 -0.5943
 6464SOL    HW230855   1.154   4.282   8.508  0.9579 -1.0075 -0.2710
 6465SOL     OW30856   2.549   1.791   3.176 -0.0404  0.3587  0.3299
 6465SOL    HW130857   2.545   1.755   3.088 -2.0117 -0.5012  0.7588
 6465SOL    HW230858   2.607   1.866   3.163  0.7514 -0.5031 -1.0680
 6466SOL     OW30859   0.795   0.223   4.441 -0.2536  0.1149  0.0856
 6466SOL    HW130860   0.846   0.257   4.515 -0.5206 -1.0354  0.8168
 6466SOL    HW230861   0.855   0.236   4.368 -0.4333 -1.7594 -0.3895
 6467SOL     OW30862   1.663   0.233   1.906  0.3545 -0.0804  0.3702
 6467SOL    HW130863   1.635   0.256   1.995  0.2418 -1.2912  0.6538
 6467SOL    HW230864   1.710   0.313   1.886 -0.8304  0.7648  0.9498
 6468SOL     OW30865   3.144   1.802   2.447  0.1519  0.3146  0.3986
 6468SOL    HW130866   3.213   1.777   2.509  0.9627  1.0976 -0.1866
 6468SOL    HW230867   3.095   1.720   2.447 -0.1850  0.5356 -1.4221
 6469SOL     OW30868   2.572   1.567   8.544  0.4109 -0.2575  0.5807
 6469SOL    HW130869   2.588   1.653   8.582 -2.5228  1.0864 -1.2099
 6469SOL    HW230870   2.544   1.518   8.620 -2.6365  0.9902  0.2502
 6470SOL     OW30871   2.901   1.641   3.076  0.1815  0.5726 -0.0234
 6470SOL    HW130872   2.895   1.546   3.077 -1.4942  0.6681 -4.1844
 6470SOL    HW230873   2.866   1.665   2.991  3.3767  2.8139 -0.7175
 6471SOL     OW30874   3.966   2.034   7.435  0.4114 -0.5066  0.2485
 6471SOL    HW130875   3.907   2.002   7.367  0.6677  0.3135 -0.3586
 6471SOL    HW230876   4.050   2.034   7.389 -0.7279  3.9142 -1.8426
 6472SOL     OW30877   1.652   1.304   2.732  0.6850 -0.0046 -0.3056
 6472SOL    HW130878   1.689   1.234   2.679  0.1471  0.1308 -0.8535
 6472SOL    HW230879   1.589   1.257   2.786  1.6682  0.7405  1.4987
 6473SOL     OW30880   4.272   1.202   2.407  0.5729  0.1982 -0.0758
 6473SOL    HW130881   4.309   1.115   2.423  0.7608  0.2674 -0.1328
 6473SOL    HW230882   4.303   1.248   2.485 -0.7546  0.3301  0.3778
 6474SOL     OW30883   0.538   4.432  14.912  0.2411 -0.6440  0.1347
 6474SOL    HW130884   0.547   4.490  14.837  0.1109 -1.2623 -0.3585
 6474SOL    HW230885   0.446   4.414  14.895 -0.2349  0.0703  2.0196
 6475SOL     OW30886   0.053   4.439  17.131 -0.4653  0.2218 -0.4801
 6475SOL    HW130887   0.101   4.460  17.211  1.0333 -1.3171 -0.9963
 6475SOL    HW230888   0.112   4.403  17.065  1.8574  0.0149  1.7483
 6476SOL     OW30889   1.233   1.548   7.003  0.0764  0.3871  0.1938
 6476SOL    HW130890   1.213   1.464   7.043  1.6257 -0.3233 -0.5220
 6476SOL    HW230891   1.150   1.595   7.013 -0.7083 -0.9693  0.0692
 6477SOL     OW30892   4.546   4.122  16.739 -0.2829 -0.0935  0.0502
 6477SOL    HW130893   4.608   4.114  16.667  0.9042  1.0115  0.9639
 6477SOL    HW230894   4.601   4.112  16.817  0.2788 -1.4985 -0.5199
 6478SOL     OW30895   3.471   0.133  11.978 -0.1526  0.0583  0.3431
 6478SOL    HW130896   3.475   0.161  12.070  1.0695 -0.3254  0.4080
 6478SOL    HW230897   3.418   0.199  11.932  1.9417  2.4753  1.4030
 6479SOL     OW30898   4.248   3.434   2.904  0.3814  0.2425 -0.3693
 6479SOL    HW130899   4.288   3.491   2.838 -0.8430  3.2314  1.4679
 6479SOL    HW230900   4.331   3.395   2.931 -0.2636 -1.6482 -1.1712
 6480SOL     OW30901   1.063   1.825   4.439  0.3162 -0.1583  0.1320
 6480SOL    HW130902   1.077   1.732   4.419  4.3163  0.3049  0.7842
 6480SOL    HW230903   1.138   1.863   4.394  0.0415  0.4549  0.1883
 6481SOL     OW30904   0.281   0.343   3.533 -0.3330  0.1400 -0.1693
 6481SOL    HW130905   0.242   0.304   3.611 -1.3912 -1.0288 -1.2968
 6481SOL    HW230906   0.224   0.312   3.463 -0.6720  0.8326 -0.1964
 6482SOL     OW30907   0.890   3.414   7.183  0.1447  0.0866 -0.0171
 6482SOL    HW130908   0.876   3.451   7.270 -2.0201 -1.1573  0.1511
 6482SOL    HW230909   0.805   3.440   7.149 -0.2509 -1.2736 -0.0439
 6483SOL     OW30910   2.158   2.130   2.579  0.2401 -0.2468 -0.4964
 6483SOL    HW130911   2.222   2.171   2.636 -1.1379  1.5363 -0.2296
 6483SOL    HW230912   2.199   2.056   2.533  2.0632  0.6314 -0.2609
 6484SOL     OW30913   0.049   1.675  14.259 -0.3001 -0.1316 -0.2591
 6484SOL    HW130914   0.077   1.608  14.197  1.2649  1.3871 -1.1967
 6484SOL    HW230915   0.093   1.650  14.341 -0.6713  1.1483  0.3297
 6485SOL     OW30916   0.129   1.960   3.155  0.2356  0.0410  0.2525
 6485SOL    HW130917   0.185   1.960   3.078  0.3126  1.9129  0.3113
 6485SOL    HW230918   0.044   1.985   3.121  0.6469  2.5753  1.0285
 6486SOL     OW30919   0.244   2.775   5.975  0.6794 -0.3200 -0.2963
 6486SOL    HW130920   0.243   2.684   5.947 -2.2661  0.3584 -2.2647
 6486SOL    HW230921   0.186   2.815   5.911  2.1501 -1.0393 -2.0607
 6487SOL     OW30922   0.718   1.666   5.501 -0.1689  0.2726  0.4150
 6487SOL    HW130923   0.624   1.684   5.506  0.2584  2.4033  0.8312
 6487SOL    HW230924   0.755   1.751   5.477  1.8805 -0.5302  0.7233
 6488SOL     OW30925   3.224   3.343  16.035 -0.1900 -0.0693 -0.2325
 6488SOL    HW130926   3.269   3.322  16.117 -1.8630 -0.9913  0.4467
 6488SOL    HW230927   3.133   3.313  16.034 -0.6298  1.2365  0.9837
 6489SOL     OW30928   0.914   2.594   2.345  0.2184  0.1472  0.1624
 6489SOL    HW130929   0.818   2.599   2.346  0.3315  2.1325  2.7596
 6489SOL    HW230930   0.938   2.562   2.432 -1.4953 -0.0545  0.5637
 6490SOL     OW30931   2.228   0.227   9.517 -0.1472 -0.5897  0.0936
 6490SOL    HW130932   2.171   0.175   9.573 -0.5506  0.7654  0.9485
 6490SOL    HW230933   2.312   0.227   9.563 -1.3919 -0.9303  2.3640
 6491SOL     OW30934   3.098   1.329   6.385  0.4573  0.3864  0.3419
 6491SOL    HW130935   3.029   1.396   6.389  0.0524  0.0825 -1.5549
 6491SOL    HW230936   3.118   1.333   6.291  0.4067 -2.6874  0.1962
 6492SOL     OW30937   0.546   2.224  14.091 -0.2249 -0.1923 -0.6453
 6492SOL    HW130938   0.473   2.165  14.109 -0.1216  0.7886  2.8749
 6492SOL    HW230939   0.516   2.311  14.114 -0.5963 -0.1630 -1.2252
 6493SOL     OW30940   1.575   1.911  15.179 -0.2441 -0.0980  0.3113
 6493SOL    HW130941   1.570   1.868  15.094 -3.1332 -1.2261  1.0402
 6493SOL    HW230942   1.619   1.837  15.221 -1.4344 -1.7273 -1.3039
 6494SOL     OW30943   2.512   2.488   9.400 -0.2340 -0.1925 -0.7655
 6494SOL    HW130944   2.537   2.433   9.474 -0.2425  3.7830  2.1823
 6494SOL    HW230945   2.597   2.524   9.374  0.0876  0.1062  0.7103
 6495SOL     OW30946   4.330   2.097   8.824  0.3517 -0.2228 -0.4709
 6495SOL    HW130947   4.325   2.119   8.730 -1.0096  1.4253 -0.0346
 6495SOL    HW230948   4.339   2.002   8.822 -0.8753 -0.3177 -1.7520
 6496SOL     OW30949   2.488   0.342   0.955  0.2335  0.1085 -0.2166
 6496SOL    HW130950   2.440   0.269   0.914  0.2081  0.2804 -0.4916
 6496SOL    HW230951   2.508   0.295   1.036 -0.7362  0.1769  0.0679
 6497SOL     OW30952   3.486   4.130  16.981 -0.3324 -0.0412  0.8050
 6497SOL    HW130953   3.402   4.134  16.934  0.1870 -0.4429 -0.1650
 6497SOL    HW230954   3.490   4.216  17.022 -0.0188  1.3947 -2.1766
 6498SOL     OW30955   3.549   0.851   9.453 -0.1898 -0.1761 -0.3617
 6498SOL    HW130956   3.626   0.798   9.433 -1.6238 -2.1730 -0.6833
 6498SOL    HW230957   3.470   0.797   9.443 -1.0264  0.9941  0.0123
 6499SOL     OW30958   4.001   4.366   5.170 -0.2247  0.1995  0.7730
 6499SOL    HW130959   4.010   4.460   5.185  2.7971 -0.4008  2.6447
 6499SOL    HW230960   3.984   4.356   5.076  0.4014  2.7813  0.3887
 6500SOL     OW30961   4.083   1.228   1.863 -0.2649  0.9130  0.5810
 6500SOL    HW130962   4.084   1.168   1.788 -1.6720 -0.7468  1.8933
 6500SOL    HW230963   4.089   1.313   1.818  1.8847  0.6200  0.2967
 6501SOL     OW30964   3.765   4.505  14.689 -0.0187  0.4833 -0.3292
 6501SOL    HW130965   3.810   4.515  14.773  2.2510  1.5378 -1.6732
 6501SOL    HW230966   3.836   4.541  14.636 -0.1884 -0.2938 -1.0820
 6502SOL     OW30967   2.395   3.849   2.312 -0.0648  0.3488 -0.1821
 6502SOL    HW130968   2.383   3.943   2.294  0.4692  0.1714 -1.4703
 6502SOL    HW230969   2.403   3.812   2.225 -0.5528 -1.7055  0.6443
 6503SOL     OW30970   2.238   1.116   3.485 -0.2714 -0.0569 -0.0164
 6503SOL    HW130971   2.185   1.075   3.553  1.6579  0.3259  1.7487
 6503SOL    HW230972   2.172   1.172   3.446  0.3178 -0.8887 -2.2159
 6504SOL     OW30973   2.491   1.136   5.607 -0.6051 -0.1983  0.2373
 6504SOL    HW130974   2.486   1.231   5.612 -1.9608 -0.2943  0.6263
 6504SOL    HW230975   2.488   1.125   5.512  2.3559 -0.5200  0.1836
 6505SOL     OW30976   4.119   0.306  16.081 -0.0080  0.0870  0.1952
 6505SOL    HW130977   4.208   0.334  16.058 -0.2715 -1.0731 -2.2042
 6505SOL    HW230978   4.131   0.247  16.155 -0.1687  0.1143  0.2437
 6506SOL     OW30979   3.115   4.563   7.288  0.0530  0.4316  0.5852
 6506SOL    HW130980   3.036   4.568   7.235 -0.0291 -1.9412  0.4533
 6506SOL    HW230981   3.069   4.524   7.362  2.7122 -3.3184  0.2765
 6507SOL     OW30982   2.142   1.706   8.948  0.1030 -0.0122  0.0443
 6507SOL    HW130983   2.225   1.660   8.947 -0.3635 -0.8645  0.0903
 6507SOL    HW230984   2.146   1.779   8.886  0.2708  0.0032  0.0754
 6508SOL     OW30985   1.701   0.676   2.176  0.8286  0.1103 -0.4376
 6508SOL    HW130986   1.618   0.723   2.165 -0.1395 -1.0893  1.7326
 6508SOL    HW230987   1.756   0.755   2.182  1.0095 -0.1548  1.3352
 6509SOL     OW30988   1.560   4.156   3.650 -0.8516  1.0348  0.0661
 6509SOL    HW130989   1.634   4.185   3.598  1.6901 -2.2335  1.8140
 6509SOL    HW230990   1.494   4.225   3.647 -1.3708  0.5016 -0.6812
 6510SOL     OW30991   2.621   4.212   2.479 -0.3736 -0.1688  0.4832
 6510SOL    HW130992   2.566   4.141   2.511  0.2373 -0.7522  0.2316
 6510SOL    HW230993   2.600   4.220   2.386  0.8416  0.7840  0.2872
 6511SOL     OW30994   3.005   1.704   5.659  0.3010 -0.6024  0.1957
 6511SOL    HW130995   2.986   1.616   5.627 -1.6390  0.1364 -0.7192
 6511SOL    HW230996   3.066   1.685   5.730 -0.0348 -1.3018  0.3004
 6512SOL     OW30997   3.518   4.462   0.444 -0.1194 -0.0295  0.4401
 6512SOL    HW130998   3.588   4.472   0.509 -0.1985  2.2361  0.1765
 6512SOL    HW230999   3.447   4.507   0.489 -1.3112 -2.7028  1.1935
 6513SOL     OW31000   4.530   0.589   8.248  0.1350 -0.1526  0.1673
 6513SOL    HW131001   4.453   0.642   8.227 -0.2522 -0.0521  1.8366
 6513SOL    HW231002   4.538   0.609   8.341  1.0538 -1.2819  0.3193
 6514SOL     OW31003   2.487   4.633   7.945 -0.3719  0.1879  0.3606
 6514SOL    HW131004   2.404   4.674   7.921 -1.3510 -1.4398  0.9563
 6514SOL    HW231005   2.479   4.584   8.027  0.8696  1.5688  1.3064
 6515SOL     OW31006   1.927   2.056   5.715 -0.0744  0.3265  0.2544
 6515SOL    HW131007   1.863   2.048   5.786  0.5577  0.1665  0.8023
 6515SOL    HW231008   1.968   2.136   5.747  2.2321 -0.7840  0.0506
 6516SOL     OW31009   2.081   4.227   4.528 -0.4241  0.1491 -0.2708
 6516SOL    HW131010   2.049   4.300   4.581 -0.8457 -0.0449 -0.2496
 6516SOL    HW231011   2.167   4.256   4.499 -0.0837 -2.4769 -1.9061
 6517SOL     OW31012   0.236   2.347   4.449 -0.2824 -0.2127 -0.2696
 6517SOL    HW131013   0.282   2.426   4.476  0.1243 -0.0180 -1.5546
 6517SOL    HW231014   0.206   2.380   4.364  0.5761 -1.1851 -0.9383
 6518SOL     OW31015   3.510   0.056  13.547 -0.1161 -0.0115  0.3575
 6518SOL    HW131016   3.434   0.047  13.489  1.6751 -1.0023 -1.8467
 6518SOL    HW231017   3.557   4.701  13.520 -1.2270 -0.4692 -0.2852
 6519SOL     OW31018   2.106   1.691   7.318 -0.5569 -0.0027  0.0842
 6519SOL    HW131019   2.194   1.653   7.326 -0.3695  0.5172  0.4980
 6519SOL    HW231020   2.094   1.726   7.230 -0.2872  1.7216  0.7407
 6520SOL     OW31021   3.395   4.220   0.293 -0.9428 -0.3157  0.5606
 6520SOL    HW131022   3.468   4.281   0.282  0.2861 -2.2235 -1.9913
 6520SOL    HW231023   3.410   4.183   0.380 -1.0668 -1.4262  0.1199
 6521SOL     OW31024   1.870   4.708  14.996  0.2943 -0.3945 -0.0316
 6521SOL    HW131025   1.804   4.642  14.977 -0.0525 -0.1448  0.2794
 6521SOL    HW231026   1.935   4.652  15.037  0.8103  0.3320  0.1521
 6522SOL     OW31027   4.064   1.376  16.915 -0.2138 -0.4219 -0.0893
 6522SOL    HW131028   4.032   1.452  16.865 -1.9545  0.0668  1.7566
 6522SOL    HW231029   3.997   1.363  16.982  2.8444  0.5629  3.1449
 6523SOL     OW31030   4.165   3.471  10.305  0.1228 -0.2392  0.5768
 6523SOL    HW131031   4.099   3.521  10.353 -0.5435 -2.3083  1.7968
 6523SOL    HW231032   4.114   3.439  10.231 -0.1151 -0.5227  0.8629
 6524SOL     OW31033   0.211   0.401  10.414  0.5135  0.1277 -0.2672
 6524SOL    HW131034   0.186   0.364  10.499 -1.4662  1.5173 -0.2511
 6524SOL    HW231035   0.220   0.323  10.360  0.7350 -0.2858  0.3737
 6525SOL     OW31036   0.052   3.167   9.162  0.8772 -0.2748  0.6224
 6525SOL    HW131037   0.066   3.180   9.256  0.5721  1.4158  0.4313
 6525SOL    HW231038   0.015   3.078   9.159  2.7273 -1.1075  2.4440
 6526SOL     OW31039   2.889   3.921   0.862  0.4353 -0.6843  0.2169
 6526SOL    HW131040   2.952   3.993   0.873 -1.7134  1.0911  0.8239
 6526SOL    HW231041   2.935   3.846   0.899 -1.1553 -1.1618  1.1930
 6527SOL     OW31042   1.822   0.034   5.982 -0.0143 -0.2412 -0.2034
 6527SOL    HW131043   1.854   4.703   6.054 -1.1739 -0.4309  0.1809
 6527SOL    HW231044   1.809   4.689   5.917  0.9761 -0.5917 -0.0306
 6528SOL     OW31045   3.151   1.531   9.240 -0.9588 -0.0268  0.1874
 6528SOL    HW131046   3.109   1.583   9.308 -2.2821 -0.3010 -0.4147
 6528SOL    HW231047   3.157   1.449   9.290 -2.1857 -0.0063  0.3935
 6529SOL     OW31048   0.996   4.348  16.518  0.2900 -0.0436 -0.2824
 6529SOL    HW131049   1.063   4.368  16.453  1.2843  2.1158  1.4035
 6529SOL    HW231050   0.951   4.429  16.543  0.1865  0.0821 -0.8813
 6530SOL     OW31051   4.348   0.281   7.917 -0.4041 -0.3886 -0.1864
 6530SOL    HW131052   4.365   0.278   7.823 -1.4356  3.5533 -0.4999
 6530SOL    HW231053   4.443   0.272   7.931 -0.6748 -1.5025  0.8915
 6531SOL     OW31054   0.876   2.503   5.824 -0.0073 -0.4269  0.3905
 6531SOL    HW131055   0.913   2.583   5.861  2.2373 -1.0509 -0.5283
 6531SOL    HW231056   0.829   2.473   5.902  0.0410 -1.0546  0.1810
 6532SOL     OW31057   2.551   1.066   0.304 -0.2487  0.5187  0.3013
 6532SOL    HW131058   2.627   1.061   0.362 -0.1602 -1.5755  0.0149
 6532SOL    HW231059   2.555   0.979   0.265  1.6105  0.9798 -0.5399
 6533SOL     OW31060   4.172   0.821   3.416 -0.0432  0.3883  0.1461
 6533SOL    HW131061   4.260   0.860   3.414 -0.1175  0.8186  4.2597
 6533SOL    HW231062   4.190   0.774   3.498 -1.0166 -0.5801 -0.2032
 6534SOL     OW31063   1.496   3.501   7.648  0.0717  0.1769  0.4014
 6534SOL    HW131064   1.582   3.464   7.628  0.1300  1.5843 -1.9141
 6534SOL    HW231065   1.522   3.524   7.737 -0.9307 -1.0947  1.0183
 6535SOL     OW31066   4.030   3.911   6.573 -0.4197 -0.0567 -0.0666
 6535SOL    HW131067   4.032   3.823   6.610  1.0274 -0.7466 -1.7662
 6535SOL    HW231068   3.950   3.903   6.522  1.3139  1.6449 -3.0622
 6536SOL     OW31069   3.684   1.535   6.369 -0.0437  1.2777 -0.3185
 6536SOL    HW131070   3.591   1.523   6.350 -0.6700  5.4725  0.0600
 6536SOL    HW231071   3.715   1.445   6.378 -0.9505  1.0953  0.8921
 6537SOL     OW31072   1.800   1.175   5.498 -0.2480 -0.4558  0.1741
 6537SOL    HW131073   1.880   1.152   5.546 -0.6658 -0.2455  0.9775
 6537SOL    HW231074   1.735   1.138   5.558 -1.5276  0.9918 -0.3292
 6538SOL     OW31075   4.460   1.340   2.038 -0.0717 -0.3472 -0.4636
 6538SOL    HW131076   4.492   1.299   2.117  1.6632  0.4512 -0.7402
 6538SOL    HW231077   4.499   1.427   2.050 -0.7125  0.0323 -1.0404
 6539SOL     OW31078   1.905   4.432  10.265  0.3620 -0.6267  0.2095
 6539SOL    HW131079   1.854   4.509  10.290 -0.6144 -1.1917 -0.0204
 6539SOL    HW231080   1.928   4.446  10.173  0.2439  1.5101  0.5146
 6540SOL     OW31081   4.211   0.167  16.319  0.0944  0.1067  0.3094
 6540SOL    HW131082   4.228   0.073  16.320  0.0757  0.1059  0.6523
 6540SOL    HW231083   4.182   0.177  16.410 -1.0169 -1.1394  0.0862
 6541SOL     OW31084   0.788   1.928   9.016  0.5070  0.1533  0.2791
 6541SOL    HW131085   0.808   2.022   9.014 -0.9122  0.4251 -0.5760
 6541SOL    HW231086   0.801   1.915   9.110  0.6962  1.7971  0.4806
 6542SOL     OW31087   0.405   1.151   1.706  0.0435 -0.8679 -0.0360
 6542SOL    HW131088   0.417   1.123   1.615 -0.4126 -1.3521  0.0597
 6542SOL    HW231089   0.437   1.241   1.694 -0.3429 -0.8115 -0.6178
 6543SOL     OW31090   3.657   2.482   6.099  0.2836  0.4482  0.2613
 6543SOL    HW131091   3.647   2.504   6.006  0.9619 -1.1213 -0.1882
 6543SOL    HW231092   3.679   2.389   6.087 -0.7961  0.1009  0.8871
 6544SOL     OW31093   1.253   3.865   5.044  0.0897 -0.0143 -0.3657
 6544SOL    HW131094   1.327   3.827   5.092 -0.1793 -3.7142 -2.9429
 6544SOL    HW231095   1.281   3.869   4.953 -1.6133  0.2327 -0.8747
 6545SOL     OW31096   0.879   1.995  16.017 -0.4772 -0.3969  0.2154
 6545SOL    HW131097   0.931   1.925  16.056  1.8290  0.7081 -0.9154
 6545SOL    HW231098   0.812   2.000  16.085 -0.1519  0.8713  0.4456
 6546SOL     OW31099   2.558   2.662   6.240 -0.2321 -0.5497 -0.1293
 6546SOL    HW131100   2.652   2.674   6.254 -0.7392  3.3715  0.0562
 6546SOL    HW231101   2.549   2.690   6.149 -0.5301 -1.9530 -0.5320
 6547SOL     OW31102   3.365   0.401  14.404 -0.6765 -0.2055  0.6789
 6547SOL    HW131103   3.321   0.477  14.443 -0.2332  0.5868 -0.3611
 6547SOL    HW231104   3.345   0.416  14.312 -1.2099  1.5820  1.0855
 6548SOL     OW31105   1.405   4.516   3.817  0.3966 -0.5536  0.2617
 6548SOL    HW131106   1.388   4.442   3.759  1.5932  0.3243 -1.1947
 6548SOL    HW231107   1.413   4.463   3.896 -2.1297 -2.4807 -0.7580
 6549SOL     OW31108   4.579   0.481  12.346 -0.0115  0.1719  0.0909
 6549SOL    HW131109   4.530   0.416  12.296  0.0738 -1.5419  2.2886
 6549SOL    HW231110   4.662   0.434  12.347  0.0723  0.3020 -0.3577
 6550SOL     OW31111   4.282   3.044   6.939  0.1204  0.0671  0.1277
 6550SOL    HW131112   4.330   3.066   6.860 -0.0878  0.2304  0.0475
 6550SOL    HW231113   4.283   2.949   6.923  1.2004 -0.2991  2.2659
 6551SOL     OW31114   2.206   4.474   7.449 -0.0355 -0.1722  0.2422
 6551SOL    HW131115   2.187   4.423   7.370 -0.0977 -0.9156  0.7360
 6551SOL    HW231116   2.275   4.414   7.477  0.4168  0.9137  1.4525
 6552SOL     OW31117   2.719   1.903  13.057 -1.0997 -0.1434 -0.2663
 6552SOL    HW131118   2.789   1.878  12.997 -2.5560 -0.1731 -1.9579
 6552SOL    HW231119   2.769   1.910  13.138 -1.6958  0.0303  0.0891
 6553SOL     OW31120   1.383   1.703   5.422  0.0580 -0.3882 -0.3314
 6553SOL    HW131121   1.377   1.677   5.329  0.5923 -1.4761 -0.0660
 6553SOL    HW231122   1.362   1.619   5.463  1.2315  0.9209  2.9557
 6554SOL     OW31123   2.055   0.543  13.785 -0.0548  0.4043 -0.0907
 6554SOL    HW131124   2.049   0.455  13.746  0.5321  0.1923  0.2994
 6554SOL    HW231125   2.021   0.602  13.717  0.5669  0.1150 -0.6537
 6555SOL     OW31126   1.806   1.382  13.090 -0.4603 -0.1301 -0.0723
 6555SOL    HW131127   1.719   1.416  13.109 -0.2325 -0.8331  2.1942
 6555SOL    HW231128   1.858   1.456  13.123 -1.5866  0.5364  0.2055
 6556SOL     OW31129   0.271   4.592   0.411  0.6797 -1.3168  0.0326
 6556SOL    HW131130   0.263   4.600   0.316 -2.8731  2.9463  0.6920
 6556SOL    HW231131   0.365   4.599   0.427  0.1722 -0.6107  2.5643
 6557SOL     OW31132   1.047   0.143   8.029  0.4140 -0.4152 -1.0527
 6557SOL    HW131133   1.092   0.210   8.081  0.0600  0.7850 -2.2809
 6557SOL    HW231134   1.112   0.136   7.959 -0.0293  0.5162 -1.5551
 6558SOL     OW31135   2.818   2.013  15.327  0.9468 -0.4019  0.3931
 6558SOL    HW131136   2.732   1.976  15.347  0.8145  0.0313  0.6335
 6558SOL    HW231137   2.821   1.986  15.235 -0.1191 -0.2876  0.3223
 6559SOL     OW31138   2.773   1.493   7.831  0.1790 -0.7192  0.0618
 6559SOL    HW131139   2.811   1.533   7.909  1.0497 -1.4137 -0.0022
 6559SOL    HW231140   2.754   1.404   7.861  3.0023 -0.3748  2.8117
 6560SOL     OW31141   4.285   2.150   5.748  0.0647  0.3118  0.3311
 6560SOL    HW131142   4.221   2.155   5.678  0.5095  1.6562  0.0237
 6560SOL    HW231143   4.336   2.229   5.730 -0.2135  1.1790  3.3011
 6561SOL     OW31144   1.018   2.166   3.045  0.6210  0.2173 -0.2457
 6561SOL    HW131145   1.067   2.227   3.100  0.0323  1.6128 -1.2479
 6561SOL    HW231146   0.954   2.128   3.105 -0.4713 -0.4822 -1.8573
 6562SOL     OW31147   1.196   3.302  15.498 -0.3067 -0.5055 -0.0151
 6562SOL    HW131148   1.113   3.302  15.451  0.1687 -1.1313 -0.8615
 6562SOL    HW231149   1.188   3.248  15.577 -0.3422  1.1065  1.0800
 6563SOL     OW31150   4.074   4.211   4.662 -0.0538  0.1282 -0.2170
 6563SOL    HW131151   4.158   4.193   4.703 -0.7644 -1.0727  0.7170
 6563SOL    HW231152   4.017   4.219   4.738 -0.4230 -1.6152 -0.3182
 6564SOL     OW31153   1.413   1.442  17.479  0.2508 -0.5229  0.6932
 6564SOL    HW131154   1.407   1.422  17.386 -2.6007  2.0561  0.3342
 6564SOL    HW231155   1.464   1.521  17.460 -0.1386 -0.1656  1.1372
 6565SOL     OW31156   2.614   2.332  12.707 -0.3021  0.3541 -0.2487
 6565SOL    HW131157   2.626   2.259  12.768  0.0828  0.6013 -0.0338
 6565SOL    HW231158   2.588   2.279  12.631 -0.5523  1.6961 -1.1015
 6566SOL     OW31159   2.357   1.973  11.151 -0.4379  0.2332 -0.1031
 6566SOL    HW131160   2.448   1.997  11.134 -0.9871  3.2101  1.2891
 6566SOL    HW231161   2.383   1.921  11.227 -1.0272  2.3527  1.5146
 6567SOL     OW31162   3.215   2.535   2.886  0.3539 -0.0274  0.2264
 6567SOL    HW131163   3.242   2.523   2.977 -0.4070 -1.1281  0.3020
 6567SOL    HW231164   3.289   2.580   2.845 -0.6131  0.3312 -1.1325
 6568SOL     OW31165   4.060   1.273  16.169  0.4714  0.4683 -0.4077
 6568SOL    HW131166   4.031   1.280  16.078  1.5317  0.6687 -0.7224
 6568SOL    HW231167   4.083   1.364  16.186 -0.7819  0.7807 -0.3480
 6569SOL     OW31168   3.967   2.899   6.148 -0.1444  0.4153 -0.1758
 6569SOL    HW131169   4.051   2.886   6.104 -0.2241 -1.7759  0.3207
 6569SOL    HW231170   3.940   2.808   6.158  3.1221 -0.5744 -0.4088
 6570SOL     OW31171   1.770   0.056   7.869 -0.0364  0.1007 -0.0895
 6570SOL    HW131172   1.836   4.711   7.870  0.6774  0.7781 -0.1451
 6570SOL    HW231173   1.813   0.132   7.907 -1.6286  0.6752  0.5481
 6571SOL     OW31174   2.489   1.902   9.065  0.0952  0.0133 -0.4135
 6571SOL    HW131175   2.418   1.868   9.119  0.0257  1.5149  0.4475
 6571SOL    HW231176   2.535   1.957   9.129  0.2123 -0.7902  0.1864
 6572SOL     OW31177   4.067   2.300   3.865 -0.5006 -0.2425  0.1105
 6572SOL    HW131178   4.034   2.236   3.928  0.0528 -0.8184 -0.1780
 6572SOL    HW231179   3.995   2.302   3.802 -0.6721 -0.8226  0.2924
 6573SOL     OW31180   2.978   3.610   8.236 -0.3997  0.5438  0.0273
 6573SOL    HW131181   3.048   3.603   8.302  0.4046 -0.0002 -0.8762
 6573SOL    HW231182   2.997   3.543   8.170 -1.7182 -0.6817  0.8843
 6574SOL     OW31183   3.070   2.727   9.310 -0.5615  0.2129 -0.3927
 6574SOL    HW131184   3.054   2.701   9.400  1.2368 -2.1986 -0.7594
 6574SOL    HW231185   3.104   2.815   9.328 -0.2018  0.3975 -1.9518
 6575SOL     OW31186   0.661   2.236  11.054 -0.3867 -0.1777 -0.1386
 6575SOL    HW131187   0.717   2.308  11.023  0.2007 -1.7180 -2.7014
 6575SOL    HW231188   0.610   2.208  10.978  1.4330 -1.3339 -0.9422
 6576SOL     OW31189   4.149   3.541   8.380  0.1054 -1.0574 -0.7633
 6576SOL    HW131190   4.170   3.633   8.397 -1.2627 -0.4331 -2.4543
 6576SOL    HW231191   4.231   3.498   8.404  0.2720 -1.0355 -1.3101
 6577SOL     OW31192   4.684   1.594   6.329 -0.0515  0.0258 -0.2661
 6577SOL    HW131193   4.593   1.573   6.307 -1.3940  2.5832  2.8412
 6577SOL    HW231194   4.694   1.549   6.413 -0.0631  1.2622  0.4002
 6578SOL     OW31195   1.183   4.466  16.348  0.5034 -0.4854  0.3259
 6578SOL    HW131196   1.270   4.443  16.316  0.3139 -0.5335 -0.1580
 6578SOL    HW231197   1.181   4.558  16.323  0.5925 -0.4303  0.5181
 6579SOL     OW31198   1.933   1.116  15.944 -0.6166  0.6563 -0.0994
 6579SOL    HW131199   1.868   1.100  15.875 -0.7969 -1.2549  0.5061
 6579SOL    HW231200   1.895   1.197  15.976 -0.3713  1.0659 -0.8314
 6580SOL     OW31201   3.698   2.233   0.780  0.1112  0.5364  0.4944
 6580SOL    HW131202   3.788   2.262   0.796  0.0261  0.7257  0.6337
 6580SOL    HW231203   3.695   2.150   0.828 -0.1736 -0.6553 -1.6079
 6581SOL     OW31204   1.117   3.936   5.865 -0.1189  0.1529  0.0730
 6581SOL    HW131205   1.148   3.867   5.924 -0.0020  0.4813  0.3930
 6581SOL    HW231206   1.144   4.017   5.909  2.4891  0.2610 -1.6849
 6582SOL     OW31207   3.758   4.416   7.551 -0.5311 -0.0004 -0.0689
 6582SOL    HW131208   3.824   4.486   7.553 -2.1030  1.4216  1.7669
 6582SOL    HW231209   3.694   4.476   7.515 -0.8559  0.2591  0.9348
 6583SOL     OW31210   2.858   4.001   2.799 -0.9382 -0.2177 -0.5838
 6583SOL    HW131211   2.873   4.032   2.709 -2.5796  1.9567 -0.0966
 6583SOL    HW231212   2.950   3.982   2.820 -1.0252 -1.2856 -1.1753
 6584SOL     OW31213   0.775   0.164   5.353 -0.2366 -0.2376  0.4751
 6584SOL    HW131214   0.816   0.129   5.274 -1.1920  3.0640 -1.4869
 6584SOL    HW231215   0.717   0.093   5.378 -0.1574 -0.4732 -0.0178
 6585SOL     OW31216   0.312   1.545  10.969  0.2425 -0.0111  0.2542
 6585SOL    HW131217   0.227   1.578  10.940  0.3694 -1.3210 -1.6047
 6585SOL    HW231218   0.361   1.627  10.973 -2.8377  1.8317  0.1616
 6586SOL     OW31219   3.135   1.477   6.629  0.3567 -0.0029  0.4155
 6586SOL    HW131220   3.139   1.385   6.605  0.7281 -0.2994  1.5833
 6586SOL    HW231221   3.168   1.513   6.547 -0.1241  0.8688  0.6064
 6587SOL     OW31222   3.486   0.980   3.224 -0.3926  0.5371 -0.0810
 6587SOL    HW131223   3.394   0.988   3.252 -0.2469 -0.2995  0.6364
 6587SOL    HW231224   3.502   0.888   3.208 -3.5108  0.1158 -0.8845
 6588SOL     OW31225   4.345   0.111   3.528 -0.1835  0.3788  0.2124
 6588SOL    HW131226   4.280   0.167   3.487 -0.1342 -0.3144 -0.8187
 6588SOL    HW231227   4.400   0.080   3.456  1.6019  1.1975  1.1986
 6589SOL     OW31228   2.049   3.447   4.639  0.2519 -0.0219  0.0262
 6589SOL    HW131229   2.094   3.426   4.720 -1.9326 -3.4682  0.3339
 6589SOL    HW231230   2.098   3.394   4.576  0.5146 -1.6842  1.6590
 6590SOL     OW31231   4.662   1.442  16.165 -0.2175  0.0947  0.2498
 6590SOL    HW131232   4.583   1.390  16.179 -0.4852  0.5510  0.4387
 6590SOL    HW231233   4.653   1.504  16.239  1.4411 -0.0389  0.5645
 6591SOL     OW31234   3.603   3.313   0.792  0.1596  0.7439 -0.4930
 6591SOL    HW131235   3.602   3.279   0.702  1.1552  0.0338 -0.2386
 6591SOL    HW231236   3.691   3.285   0.817  0.5753  2.0990 -0.4285
 6592SOL     OW31237   1.913   0.224   7.235 -0.5630  0.1218 -0.5070
 6592SOL    HW131238   1.944   0.136   7.214 -0.2029 -0.2160  1.4551
 6592SOL    HW231239   1.887   0.219   7.327 -0.6901  3.1564 -0.3724
 6593SOL     OW31240   4.085   0.890   5.655  0.0738  0.1319  0.4051
 6593SOL    HW131241   4.007   0.882   5.600  0.0689  3.1345 -0.0210
 6593SOL    HW231242   4.080   0.982   5.682 -0.1448  0.9094 -2.2134
 6594SOL     OW31243   3.096   0.739   3.874 -0.2574 -0.6106 -0.3256
 6594SOL    HW131244   3.191   0.749   3.868 -0.1103 -0.6029  1.8078
 6594SOL    HW231245   3.066   0.784   3.796  2.5388 -1.3254 -1.8192
 6595SOL     OW31246   1.727   0.389   3.174 -0.2052  0.2334 -0.0822
 6595SOL    HW131247   1.803   0.403   3.118  0.7183 -1.6980  0.6704
 6595SOL    HW231248   1.768   0.372   3.259 -0.3968 -0.7889 -0.1966
 6596SOL     OW31249   1.682   0.215   3.748  0.4154 -0.1074  0.7152
 6596SOL    HW131250   1.623   0.272   3.798 -1.3680  1.0068 -2.6335
 6596SOL    HW231251   1.657   0.128   3.778  0.7924 -0.5015 -0.1041
 6597SOL     OW31252   2.243   2.963   4.026 -0.7100  0.3684 -0.4006
 6597SOL    HW131253   2.244   2.871   4.000 -2.0506 -0.0634  1.1039
 6597SOL    HW231254   2.160   2.986   3.984 -1.4452 -0.2133  0.7280
 6598SOL     OW31255   3.324   1.902   2.906 -0.2650 -0.0077 -0.4077
 6598SOL    HW131256   3.295   1.992   2.892 -1.0046 -0.2554 -0.4695
 6598SOL    HW231257   3.292   1.887   2.995  0.1131 -1.4769 -0.5235
 6599SOL     OW31258   3.241   2.537   9.201 -0.0079  0.3060 -0.6589
 6599SOL    HW131259   3.177   2.607   9.211 -0.5410 -0.2446 -0.2194
 6599SOL    HW231260   3.322   2.586   9.186  0.2622  0.6503  1.9017
 6600SOL     OW31261   2.301   2.482   5.552 -0.5006  0.0969  0.3876
 6600SOL    HW131262   2.220   2.532   5.539 -0.3605 -0.0871 -1.1074
 6600SOL    HW231263   2.334   2.470   5.464 -0.7797 -1.2887  0.4632
 6601SOL     OW31264   4.499   2.463  12.708 -0.2157 -0.1220 -0.2525
 6601SOL    HW131265   4.470   2.547  12.673 -2.7439 -0.3133  1.4350
 6601SOL    HW231266   4.425   2.438  12.762  0.7727 -1.5700  0.4503
 6602SOL     OW31267   1.819   3.267  13.403  0.3358 -0.0513  0.3330
 6602SOL    HW131268   1.843   3.325  13.330  0.1505  0.3947  0.6263
 6602SOL    HW231269   1.847   3.177  13.388 -1.2145 -0.2362 -1.4371
 6603SOL     OW31270   1.195   0.230   2.983 -0.4745  0.2821 -0.6100
 6603SOL    HW131271   1.133   0.300   2.963 -2.5932 -0.9137  1.6436
 6603SOL    HW231272   1.278   0.271   3.007 -0.0572 -1.7031  1.3536
 6604SOL     OW31273   1.976   1.832   9.732 -0.1282 -0.1338  0.5226
 6604SOL    HW131274   1.941   1.746   9.713  0.1299 -0.2402  0.5266
 6604SOL    HW231275   1.904   1.894   9.745  1.4419  1.7339  0.3886
 6605SOL     OW31276   0.107   2.493  11.838 -0.3078 -0.3337  0.2201
 6605SOL    HW131277   0.139   2.403  11.838 -3.7975 -1.5871  1.3841
 6605SOL    HW231278   0.166   2.543  11.894  1.6501  1.8950 -3.8328
 6606SOL     OW31279   0.546   1.047   7.797  0.7168  0.1518  0.4520
 6606SOL    HW131280   0.639   1.070   7.803  0.8838 -0.1839 -0.7584
 6606SOL    HW231281   0.502   1.131   7.785  1.6934  0.1712 -3.1664
 6607SOL     OW31282   0.392   0.439   3.990  0.0291 -0.0132  0.0725
 6607SOL    HW131283   0.310   0.396   3.966 -0.3639  1.4665 -1.2100
 6607SOL    HW231284   0.440   0.434   3.907 -3.6121 -0.8170 -1.9714
 6608SOL     OW31285   1.532   1.616   3.054 -0.5860 -0.8111  0.1009
 6608SOL    HW131286   1.559   1.696   3.010  1.5591 -1.6202 -0.0578
 6608SOL    HW231287   1.488   1.572   2.981 -0.9456 -2.0050  1.0338
 6609SOL     OW31288   4.168   2.606   2.482  0.3266 -0.0138 -0.7184
 6609SOL    HW131289   4.080   2.606   2.518  0.7668  1.9177  0.3400
 6609SOL    HW231290   4.209   2.679   2.529 -3.0860  0.9975  0.6524
 6610SOL     OW31291   2.760   0.848   9.850 -0.2838 -0.2231  0.2646
 6610SOL    HW131292   2.842   0.830   9.805 -1.3450 -2.8393 -0.5945
 6610SOL    HW231293   2.719   0.762   9.856 -1.2973  0.2416  0.0823
 6611SOL     OW31294   2.568   2.577   6.476  0.7395 -0.2771  0.5437
 6611SOL    HW131295   2.628   2.651   6.488 -2.3302  2.3181  0.0357
 6611SOL    HW231296   2.554   2.580   6.382 -1.5022 -1.5747  0.8318
 6612SOL     OW31297   2.297   0.434  10.819 -0.6600 -0.1196 -0.2304
 6612SOL    HW131298   2.240   0.358  10.804  1.4044 -1.1681 -2.8722
 6612SOL    HW231299   2.364   0.422  10.752 -0.1192 -0.2324  0.3404
 6613SOL     OW31300   3.179   1.876   9.334 -0.1756  0.0716 -0.3995
 6613SOL    HW131301   3.128   1.954   9.354  0.8952  0.3741  1.1055
 6613SOL    HW231302   3.122   1.810   9.374 -0.7965  0.2228 -1.0234
 6614SOL     OW31303   3.070   1.864   8.890 -0.0656  1.2237 -0.1115
 6614SOL    HW131304   3.054   1.778   8.927 -0.0449  0.6070 -1.5367
 6614SOL    HW231305   3.157   1.872   8.930 -0.2739  0.6891  0.4400
 6615SOL     OW31306   3.704   0.588   4.981 -0.0362  0.1850  0.0764
 6615SOL    HW131307   3.764   0.548   5.043 -1.1230  0.4388  1.3130
 6615SOL    HW231308   3.753   0.669   4.966 -1.4170  0.5294 -2.6803
 6616SOL     OW31309   1.468   0.905   5.550  0.1451  0.9066 -0.6320
 6616SOL    HW131310   1.436   0.958   5.477 -2.5899 -0.5151 -0.4717
 6616SOL    HW231311   1.518   0.966   5.604 -1.2013 -0.9266  2.6801
 6617SOL     OW31312   1.256   1.004   8.313 -0.0264 -0.3946 -0.0819
 6617SOL    HW131313   1.217   0.950   8.382  0.2488 -1.1302 -0.5044
 6617SOL    HW231314   1.184   1.062   8.286  1.0265 -0.1638 -2.2974
 6618SOL     OW31315   2.980   3.129   9.176  0.2228  0.0199  0.7933
 6618SOL    HW131316   2.907   3.159   9.231 -0.9389 -1.3175 -0.0367
 6618SOL    HW231317   2.927   3.107   9.099  1.2944 -1.8232  0.5957
 6619SOL     OW31318   2.711   1.350   6.555 -0.1984 -0.1689 -0.1522
 6619SOL    HW131319   2.709   1.281   6.621 -0.9282  1.0079  1.0372
 6619SOL    HW231320   2.739   1.426   6.605 -0.5113 -0.0602 -0.1425
 6620SOL     OW31321   2.901   1.712  11.912 -0.4553 -0.2402 -0.0513
 6620SOL    HW131322   2.938   1.797  11.889  2.1025 -1.3106  0.0478
 6620SOL    HW231323   2.973   1.664  11.952 -0.4103  1.1907  1.5558
 6621SOL     OW31324   4.076   3.409   9.038 -0.2378  0.2593 -0.4997
 6621SOL    HW131325   4.132   3.335   9.011 -1.3991 -0.4977 -0.8353
 6621SOL    HW231326   4.140   3.465   9.081  0.3277 -0.1623 -0.7949
 6622SOL     OW31327   2.951   4.136   8.324 -0.2495  0.0502 -0.0612
 6622SOL    HW131328   2.935   4.096   8.409  0.9174  1.3128  0.7524
 6622SOL    HW231329   2.861   4.160   8.301 -0.3581  0.8831  1.2955
 6623SOL     OW31330   0.022   3.092   8.772  0.2577  0.3185 -0.2401
 6623SOL    HW131331   0.074   3.167   8.748 -0.0763  0.7092  0.2486
 6623SOL    HW231332   0.077   3.049   8.837  1.8206  0.5062 -1.4558
 6624SOL     OW31333   3.394   0.622  15.611 -0.4022  0.3314 -0.4314
 6624SOL    HW131334   3.457   0.550  15.604 -1.6553 -0.5258 -2.7651
 6624SOL    HW231335   3.345   0.601  15.691  1.0998  1.7037  0.8625
 6625SOL     OW31336   3.345   2.749   0.907  0.2991 -0.3005 -0.0123
 6625SOL    HW131337   3.276   2.689   0.878  0.2345  0.3953 -1.2921
 6625SOL    HW231338   3.389   2.769   0.824  0.9655 -1.3804  0.0816
 6626SOL     OW31339   0.455   0.501  16.346  0.0518 -0.0857 -0.0067
 6626SOL    HW131340   0.483   0.520  16.257  1.0359 -0.7773  0.1506
 6626SOL    HW231341   0.499   0.576  16.387 -1.2283  0.3298  0.6087
 6627SOL     OW31342   3.419   2.666  12.329 -0.0206 -0.2765 -0.0084
 6627SOL    HW131343   3.494   2.625  12.286  0.3350  1.1205 -0.7227
 6627SOL    HW231344   3.379   2.588  12.366 -0.8637 -0.0225 -0.3905
 6628SOL     OW31345   2.074   2.143   9.301 -0.7432 -0.7485 -0.6440
 6628SOL    HW131346   2.053   2.139   9.208  0.6511 -0.2237 -0.9886
 6628SOL    HW231347   2.042   2.231   9.316 -0.5182 -0.5677 -1.2255
 6629SOL     OW31348   3.106   0.507   9.789  0.0581  0.8033  1.0344
 6629SOL    HW131349   3.121   0.423   9.746 -0.9759  2.3522 -2.3885
 6629SOL    HW231350   3.162   0.490   9.865  0.3221 -0.8793  0.4524
 6630SOL     OW31351   0.101   2.243   2.782 -0.0807  0.2184  0.1959
 6630SOL    HW131352   0.022   2.196   2.810 -0.2883 -0.8449 -2.1192
 6630SOL    HW231353   0.151   2.178   2.733 -1.2190 -0.6516  0.1782
 6631SOL     OW31354   4.447   4.268   5.491  0.1367 -0.2019 -0.6854
 6631SOL    HW131355   4.467   4.175   5.486  1.4157  0.0349  0.0270
 6631SOL    HW231356   4.417   4.294   5.404 -1.5653 -1.2724 -0.4219
 6632SOL     OW31357   0.491   3.649   4.056  0.4776 -0.2663  0.4848
 6632SOL    HW131358   0.480   3.702   3.977  0.8485  1.4011  1.5649
 6632SOL    HW231359   0.579   3.679   4.078  0.2412  0.5783  0.2495
 6633SOL     OW31360   3.705   0.023  11.272  0.2132  0.4693 -0.1798
 6633SOL    HW131361   3.783   0.064  11.308  0.3676 -1.2528  1.4566
 6633SOL    HW231362   3.684   0.078  11.197 -0.7019  0.6457  0.2059
 6634SOL     OW31363   2.937   0.440   6.678  0.7658  0.4054  0.6469
 6634SOL    HW131364   2.998   0.379   6.721  1.1743  0.7441  0.5475
 6634SOL    HW231365   3.003   0.491   6.632 -0.6994  0.2548 -1.5737
 6635SOL     OW31366   3.942   3.137   2.853  0.4744  0.6172 -0.8592
 6635SOL    HW131367   4.030   3.114   2.882  0.4843  0.8535 -0.7045
 6635SOL    HW231368   3.945   3.228   2.881  1.0802 -0.2941  2.0579
 6636SOL     OW31369   2.539   3.213   9.082  0.3521  0.0310  0.3895
 6636SOL    HW131370   2.543   3.206   9.178  1.3824 -0.1907  0.3371
 6636SOL    HW231371   2.476   3.285   9.076  0.9339  0.2776 -2.8275
 6637SOL     OW31372   2.637   0.881   4.538 -0.2338 -0.0536 -0.5406
 6637SOL    HW131373   2.672   0.957   4.491  1.4878 -1.2692 -1.2026
 6637SOL    HW231374   2.613   0.927   4.618 -2.7860  0.5789 -1.6626
 6638SOL     OW31375   0.648   1.410   5.353 -0.4561  0.3089 -0.0573
 6638SOL    HW131376   0.584   1.389   5.421  0.4007 -2.1086  0.0259
 6638SOL    HW231377   0.699   1.472   5.405 -0.5190 -0.2077  0.6174
 6639SOL     OW31378   0.161   1.938   6.382  0.1936  0.3192 -0.0030
 6639SOL    HW131379   0.146   1.897   6.296  2.1056 -0.5025  0.0733
 6639SOL    HW231380   0.175   1.867   6.444  0.9646  1.5362  1.1932
 6640SOL     OW31381   2.896   0.424   1.272  0.3817  0.4576 -0.6962
 6640SOL    HW131382   2.933   0.338   1.252 -1.6621 -0.6615  0.3670
 6640SOL    HW231383   2.977   0.474   1.267  0.4908  0.3689  0.2318
 6641SOL     OW31384   0.507   2.948   4.552 -0.3562 -0.2159  0.3557
 6641SOL    HW131385   0.593   2.989   4.563 -0.2817 -0.1779 -0.3574
 6641SOL    HW231386   0.495   2.968   4.460 -1.8560  1.3768  0.9118
 6642SOL     OW31387   2.023   0.356   9.317 -0.4991 -0.3746 -0.0166
 6642SOL    HW131388   2.096   0.400   9.360 -0.9146 -0.9434  1.2630
 6642SOL    HW231389   1.995   0.283   9.373  1.7040 -1.3679 -0.2297
 6643SOL     OW31390   2.788   3.186   7.643  0.7900 -0.0479 -0.0939
 6643SOL    HW131391   2.794   3.109   7.586  2.6197 -0.9587  1.2897
 6643SOL    HW231392   2.709   3.233   7.620  0.0111 -0.3939  1.8946
 6644SOL     OW31393   3.476   0.811   7.112  0.0337  0.2048 -0.5373
 6644SOL    HW131394   3.508   0.808   7.202  0.1433 -1.5809 -0.6253
 6644SOL    HW231395   3.437   0.898   7.108  2.2243  1.2075 -0.0501
 6645SOL     OW31396   0.777   0.198   2.437  0.0824 -0.5393 -0.0012
 6645SOL    HW131397   0.688   0.165   2.445 -0.0785 -0.2207 -0.4966
 6645SOL    HW231398   0.788   0.267   2.502 -0.0814 -0.7149  0.2106
 6646SOL     OW31399   2.868   2.316   3.951  0.2665 -0.0202 -0.0809
 6646SOL    HW131400   2.903   2.291   4.036  2.1586  0.7937 -0.6343
 6646SOL    HW231401   2.827   2.233   3.926  1.0755 -0.5755  0.4167
 6647SOL     OW31402   2.362   3.696   7.056  0.2880  1.2471 -0.0769
 6647SOL    HW131403   2.451   3.732   7.047 -0.3590  3.0548  0.9174
 6647SOL    HW231404   2.390   3.604   7.057 -1.1635  0.8074 -0.3926
 6648SOL     OW31405   4.632   4.470   6.690 -0.1307  0.7387  0.0178
 6648SOL    HW131406   4.581   4.469   6.771 -1.1091 -0.3179 -0.6253
 6648SOL    HW231407   4.596   4.396   6.641  2.4218 -2.0814  2.4110
 6649SOL     OW31408   1.156   1.629   6.583 -0.6064  0.3367 -0.2546
 6649SOL    HW131409   1.095   1.685   6.535 -0.1092 -0.6707 -2.0723
 6649SOL    HW231410   1.155   1.570   6.508  1.0301 -1.5788  1.2183
 6650SOL     OW31411   2.860   4.362  17.315 -0.3029 -0.4971  0.7070
 6650SOL    HW131412   2.800   4.435  17.302 -1.2950 -1.0231  2.2959
 6650SOL    HW231413   2.928   4.392  17.375 -2.4377  1.4799  2.1552
 6651SOL     OW31414   4.056   0.922   1.937 -0.1626 -0.4681 -0.3636
 6651SOL    HW131415   4.135   0.970   1.912 -0.0338 -1.1712 -1.3395
 6651SOL    HW231416   4.058   0.857   1.867 -2.2459  1.5787 -2.3293
 6652SOL     OW31417   0.705   4.439  16.968  0.2987 -0.1643 -0.1577
 6652SOL    HW131418   0.717   4.521  17.016  1.6219 -0.7599  0.5425
 6652SOL    HW231419   0.691   4.383  17.045 -1.6958  2.8700  1.6721
 6653SOL     OW31420   3.881   0.607   6.206  0.6526 -0.1091 -0.1151
 6653SOL    HW131421   3.830   0.577   6.131 -0.5280 -3.5774  2.1006
 6653SOL    HW231422   3.839   0.559   6.277  0.2835  1.3411  0.6406
 6654SOL     OW31423   4.041   4.129   5.311  0.4798 -0.2189  0.2749
 6654SOL    HW131424   3.953   4.098   5.335  0.6812 -0.0444  1.2402
 6654SOL    HW231425   4.017   4.188   5.240  0.3640  0.1220  0.5955
 6655SOL     OW31426   3.386   1.446   0.824  0.4604  0.2415  0.1316
 6655SOL    HW131427   3.292   1.440   0.842  0.9711  0.1222  2.7400
 6655SOL    HW231428   3.391   1.360   0.783 -0.4974  0.3450 -0.2219
 6656SOL     OW31429   3.712   3.378   4.022 -0.2206  0.1593 -0.1165
 6656SOL    HW131430   3.668   3.462   4.013  0.5206  0.7760  2.0197
 6656SOL    HW231431   3.656   3.341   4.090  1.7923 -0.2920  1.3079
 6657SOL     OW31432   0.678   0.419   2.213  0.1455  0.0283  0.3906
 6657SOL    HW131433   0.748   0.355   2.206  1.5238  1.6835 -1.1640
 6657SOL    HW231434   0.686   0.458   2.126 -0.1500  1.0272  0.8097
 6658SOL     OW31435   4.337   1.009   2.803  0.3173 -0.3943  0.4014
 6658SOL    HW131436   4.355   0.935   2.745  1.7661 -1.2796  1.9485
 6658SOL    HW231437   4.340   0.968   2.890 -3.4628 -0.9586  0.2416
 6659SOL     OW31438   3.477   1.292   8.387  0.0883  0.3778 -0.2112
 6659SOL    HW131439   3.481   1.349   8.463 -0.2931  1.0343 -0.6828
 6659SOL    HW231440   3.462   1.210   8.433 -1.1938  0.8586  0.2114
 6660SOL     OW31441   3.280   2.098  15.560 -0.7323 -0.3464  0.1248
 6660SOL    HW131442   3.204   2.144  15.523  0.1720  0.5192 -0.6555
 6660SOL    HW231443   3.248   2.059  15.641  0.7772 -1.4322  0.1995
 6661SOL     OW31444   1.747   0.050  13.060  0.3614  0.0403 -0.2494
 6661SOL    HW131445   1.748   4.691  13.106  0.2214 -0.4702 -1.1827
 6661SOL    HW231446   1.782   0.032  12.973  0.3569  1.0426 -0.4637
 6662SOL     OW31447   2.651   4.628   3.010 -0.0985 -0.6988 -0.0589
 6662SOL    HW131448   2.595   4.678   2.950 -0.8055  0.0025  1.1861
 6662SOL    HW231449   2.633   4.538   2.984  1.0526 -0.4743 -1.6684
 6663SOL     OW31450   3.809   1.111  16.901  0.0946  0.3649  0.3812
 6663SOL    HW131451   3.833   1.193  16.944 -0.5871  1.2386 -0.8940
 6663SOL    HW231452   3.866   1.109  16.824  0.7066 -3.0856  0.9352
 6664SOL     OW31453   1.762   2.105   8.411 -0.2254  0.6813  0.3658
 6664SOL    HW131454   1.825   2.075   8.477  0.8954  0.6080 -0.7333
 6664SOL    HW231455   1.756   2.031   8.351 -2.5835 -0.9312  2.6229
 6665SOL     OW31456   1.657   4.647  10.922 -0.2878 -0.2440  0.4027
 6665SOL    HW131457   1.675   4.593  10.845 -0.8036 -0.0324  0.1327
 6665SOL    HW231458   1.724   4.614  10.981  1.4377  0.1986 -1.3051
 6666SOL     OW31459   2.054   1.054   6.181 -0.5299 -0.2264  0.0915
 6666SOL    HW131460   1.993   1.127   6.190  2.6316  2.1197  2.5486
 6666SOL    HW231461   1.996   0.978   6.178  1.7571 -2.0001  0.6583
 6667SOL     OW31462   2.238   3.318  12.987  0.5676 -0.1033  0.1933
 6667SOL    HW131463   2.245   3.403  12.944  2.6025  0.0585  0.8579
 6667SOL    HW231464   2.203   3.344  13.072  0.8195 -1.2278  0.6429
 6668SOL     OW31465   4.076   0.328   8.640  0.1119  0.0178 -0.1293
 6668SOL    HW131466   4.027   0.336   8.722 -0.9696  0.0557 -0.7692
 6668SOL    HW231467   4.023   0.393   8.592  1.8134 -0.7832 -3.1368
 6669SOL     OW31468   0.838   2.312   2.036  0.7152  0.2409 -0.4251
 6669SOL    HW131469   0.865   2.264   1.958 -2.3806 -1.6074 -0.3558
 6669SOL    HW231470   0.914   2.363   2.064  0.2002  0.3285  0.8332
 6670SOL     OW31471   4.404   2.177  15.941  0.1215 -0.4502 -0.0767
 6670SOL    HW131472   4.487   2.224  15.928  0.1130 -0.1337  1.0078
 6670SOL    HW231473   4.388   2.182  16.035  3.8223 -0.5868  0.5445
 6671SOL     OW31474   0.951   2.679   7.378  0.1453 -0.4564  0.4776
 6671SOL    HW131475   0.861   2.713   7.382  0.8936  1.6097 -0.1492
 6671SOL    HW231476   0.995   2.742   7.320  2.4421 -0.6983  1.9696
 6672SOL     OW31477   2.536   3.419   4.479  0.7444  0.5016  0.7029
 6672SOL    HW131478   2.620   3.374   4.476 -0.0227 -0.9463  0.6675
 6672SOL    HW231479   2.568   3.505   4.453 -0.6397  0.9217  0.4051
 6673SOL     OW31480   0.768   3.595   9.172 -0.2220 -0.0153  0.7380
 6673SOL    HW131481   0.754   3.645   9.253  1.4367  0.5404  0.6994
 6673SOL    HW231482   0.678   3.577   9.149  0.2909  1.9196 -2.8010
 6674SOL     OW31483   4.625   1.584  10.288 -0.0265 -0.0973 -0.5145
 6674SOL    HW131484   4.566   1.647  10.247  1.1404 -0.3395 -2.5436
 6674SOL    HW231485   4.566   1.548  10.354  0.3545  1.1448  0.5079
 6675SOL     OW31486   1.148   4.372   3.112 -0.3910  0.4296  0.8565
 6675SOL    HW131487   1.193   4.421   3.043 -0.5578  0.0745  0.4973
 6675SOL    HW231488   1.149   4.424   3.192 -2.2078  0.7811  0.6531
 6676SOL     OW31489   0.829   1.797   3.124 -0.6976 -0.1572 -0.1332
 6676SOL    HW131490   0.852   1.889   3.136  0.3024 -0.3796 -0.3373
 6676SOL    HW231491   0.826   1.767   3.215  0.1524  0.0567 -0.0392
 6677SOL     OW31492   0.145   3.280  11.884  0.0021  0.4488 -0.4711
 6677SOL    HW131493   0.188   3.203  11.922  0.1296  0.0577 -1.4106
 6677SOL    HW231494   0.053   3.257  11.893  0.0245  0.2610 -0.7162
 6678SOL     OW31495   2.425   2.591  11.057 -0.0042  0.5190 -0.0578
 6678SOL    HW131496   2.395   2.540  11.133  0.2050  0.7143  0.1545
 6678SOL    HW231497   2.485   2.532  11.011  0.0197  0.0261  0.6013
 6679SOL     OW31498   0.671   4.542  10.185  0.5934  0.6030 -0.0005
 6679SOL    HW131499   0.608   4.504  10.123 -0.5326 -0.2858  1.7117
 6679SOL    HW231500   0.671   4.477  10.254  2.0170  2.2014  1.4917
 6680SOL     OW31501   3.625   2.356   4.848  0.3436 -0.7761  0.2541
 6680SOL    HW131502   3.596   2.321   4.932 -3.6795  2.3035  0.1475
 6680SOL    HW231503   3.660   2.441   4.877 -2.7327  0.9856 -1.1819
 6681SOL     OW31504   2.531   1.602   2.938  0.1052 -0.1108  0.0329
 6681SOL    HW131505   2.531   1.564   2.850  1.9357  0.0568 -0.0314
 6681SOL    HW231506   2.491   1.535   2.993 -2.4649  0.0688 -1.6345
 6682SOL     OW31507   3.269   3.045   5.279 -0.3193  0.2323 -0.2841
 6682SOL    HW131508   3.270   3.004   5.193 -1.8937  0.0595 -0.2243
 6682SOL    HW231509   3.295   2.969   5.331  1.0688 -0.3053 -1.7457
 6683SOL     OW31510   3.301   4.303   6.913  0.1576 -0.2067 -0.0431
 6683SOL    HW131511   3.266   4.305   6.824 -0.9768  1.6256  0.4388
 6683SOL    HW231512   3.295   4.398   6.924 -1.3526 -0.2285 -0.7005
 6684SOL     OW31513   1.088   0.001   3.834 -0.5900 -0.1235 -0.0684
 6684SOL    HW131514   1.076   0.035   3.923  0.6066 -0.7120  0.3319
 6684SOL    HW231515   1.080   4.632   3.853  0.3481  0.5437  3.6002
 6685SOL     OW31516   4.383   2.371   2.678 -0.5603  0.1707 -0.3533
 6685SOL    HW131517   4.423   2.429   2.743 -0.3320  2.0048 -2.1470
 6685SOL    HW231518   4.346   2.300   2.732  0.2349  0.5213  0.6597
 6686SOL     OW31519   1.668   3.509  12.398  0.1559 -0.0215 -0.5129
 6686SOL    HW131520   1.755   3.548  12.403 -0.3491  0.9303  0.9493
 6686SOL    HW231521   1.639   3.538  12.311 -1.4721 -0.4536 -0.1186
 6687SOL     OW31522   1.332   1.215   5.720 -0.4025 -0.1761  0.2436
 6687SOL    HW131523   1.335   1.128   5.680  0.1410  0.4816 -1.1647
 6687SOL    HW231524   1.245   1.251   5.705  0.7385  2.3842 -0.3479
 6688SOL     OW31525   2.930   4.724  13.870  0.1437  0.1619  0.5348
 6688SOL    HW131526   3.000   4.662  13.849 -0.7845 -1.2625  1.6553
 6688SOL    HW231527   2.876   0.005  13.791  1.2268  0.4915 -0.1933
 6689SOL     OW31528   2.227   0.739   2.648 -0.6052  0.1345  0.2178
 6689SOL    HW131529   2.202   0.788   2.726 -3.1364  0.8577 -1.0762
 6689SOL    HW231530   2.210   0.803   2.579  0.9064  0.8285  0.4869
 6690SOL     OW31531   4.584   1.555  16.391  0.0388 -0.1858  0.1330
 6690SOL    HW131532   4.666   1.579  16.434  0.2982 -0.1371 -0.3851
 6690SOL    HW231533   4.534   1.541  16.472  0.5531  1.3075  0.6977
 6691SOL     OW31534   2.895   3.322  17.157  0.8019 -0.3755 -0.0615
 6691SOL    HW131535   2.840   3.341  17.234 -2.0463 -2.3104 -1.6050
 6691SOL    HW231536   2.834   3.313  17.084 -0.2985  3.1192  0.4405
 6692SOL     OW31537   0.794   2.119   3.518 -0.7229 -0.3842 -0.0067
 6692SOL    HW131538   0.790   2.093   3.610  0.6049 -1.2410 -0.1999
 6692SOL    HW231539   0.796   2.212   3.540  0.7449 -0.0574 -1.4910
 6693SOL     OW31540   4.557   4.439   6.336 -0.3606 -0.1830  0.3756
 6693SOL    HW131541   4.472   4.419   6.297 -1.5601  1.7206  2.0120
 6693SOL    HW231542   4.542   4.393   6.418  0.5343 -0.9318  0.1209
 6694SOL     OW31543   0.680   1.801   6.519 -0.4699  0.7262 -0.4677
 6694SOL    HW131544   0.669   1.893   6.544 -0.8578  0.7774 -0.8115
 6694SOL    HW231545   0.606   1.804   6.458  0.4640 -2.4659 -1.7481
 6695SOL     OW31546   2.815   3.483   6.338  0.4452 -0.0559 -0.0434
 6695SOL    HW131547   2.789   3.497   6.248 -0.7558 -2.2955 -0.0349
 6695SOL    HW231548   2.849   3.572   6.345 -3.9777  1.4504  1.8020
 6696SOL     OW31549   4.049   1.634   6.058  0.4174  0.3944 -0.4952
 6696SOL    HW131550   4.113   1.579   6.012  0.2858 -0.1010 -0.0871
 6696SOL    HW231551   3.967   1.601   6.021  0.6127  0.5065 -1.0372
 6697SOL     OW31552   3.664   0.134  14.018  0.0251  0.5487 -0.3498
 6697SOL    HW131553   3.650   0.197  13.947 -1.1405  1.9857  1.1757
 6697SOL    HW231554   3.660   0.053  13.967  0.5770  1.0121 -1.1280
 6698SOL     OW31555   1.734   1.728   8.499 -0.4583 -0.4702 -0.0306
 6698SOL    HW131556   1.781   1.725   8.415  2.1452 -0.7479  1.4442
 6698SOL    HW231557   1.689   1.812   8.487 -0.6311 -0.7245 -1.1755
 6699SOL     OW31558   2.650   3.971   1.055 -0.1711  0.1195 -0.0499
 6699SOL    HW131559   2.692   3.909   1.115 -1.0449  0.1595  0.6131
 6699SOL    HW231560   2.717   4.006   0.996 -0.1187 -2.0915 -1.3231
 6700SOL     OW31561   3.483   0.166  10.130  0.0264 -0.1922 -0.1418
 6700SOL    HW131562   3.536   0.241  10.156 -0.0327 -0.1163 -0.2421
 6700SOL    HW231563   3.539   0.136  10.058 -0.6716  1.5365 -1.3990
 6701SOL     OW31564   2.481   2.713   2.437 -0.0595 -0.0642  0.1945
 6701SOL    HW131565   2.459   2.623   2.413 -0.6366  0.0881  0.1543
 6701SOL    HW231566   2.577   2.710   2.442 -0.1009 -1.4559  0.3326
 6702SOL     OW31567   0.127   3.233   6.587 -0.7690  0.3684 -0.0235
 6702SOL    HW131568   0.195   3.166   6.583  0.5017  1.6974 -0.3857
 6702SOL    HW231569   0.100   3.259   6.499 -1.8730  1.6478  0.6968
 6703SOL     OW31570   0.297   4.210  14.196 -0.2822  0.5539  0.2360
 6703SOL    HW131571   0.298   4.261  14.277  0.6344  1.6230 -0.4423
 6703SOL    HW231572   0.240   4.264  14.140 -0.3138  0.6253  0.3363
 6704SOL     OW31573   0.366   0.508   4.703  0.0413  0.3560 -0.4630
 6704SOL    HW131574   0.326   0.565   4.769  0.5327  2.2407 -1.8126
 6704SOL    HW231575   0.339   0.419   4.728  0.0863  1.0641  2.0890
 6705SOL     OW31576   0.687   4.225  10.896  0.1310 -0.1757  0.7056
 6705SOL    HW131577   0.603   4.206  10.854  0.5380  0.6726 -0.5089
 6705SOL    HW231578   0.712   4.308  10.856  0.6647 -0.2633  0.8579
 6706SOL     OW31579   4.561   1.878  14.180  0.0256  0.1138 -0.6057
 6706SOL    HW131580   4.627   1.815  14.152 -0.6675 -1.7274  1.9800
 6706SOL    HW231581   4.564   1.870  14.275  1.4311 -0.1430 -0.6694
 6707SOL     OW31582   0.705   1.747  15.731 -0.0587  0.2152  0.1595
 6707SOL    HW131583   0.625   1.740  15.783 -0.4147  2.9033 -0.0497
 6707SOL    HW231584   0.701   1.660  15.691 -2.4577 -1.1223  3.2933
 6708SOL     OW31585   0.975   4.268  13.310  0.2915  0.5245  0.8457
 6708SOL    HW131586   1.003   4.348  13.265  1.8875  0.0250  0.9514
 6708SOL    HW231587   1.057   4.218  13.318 -0.2480 -0.3791  0.7584
 6709SOL     OW31588   2.382   2.450  13.005  0.2577  0.3796 -0.1934
 6709SOL    HW131589   2.338   2.366  12.994 -0.6490  1.1790 -2.7907
 6709SOL    HW231590   2.310   2.499  13.045  0.0513  1.2749 -1.6376
 6710SOL     OW31591   0.698   4.406   8.044 -0.4809 -0.1213 -0.3732
 6710SOL    HW131592   0.757   4.471   8.080 -1.0502 -1.4398  2.9347
 6710SOL    HW231593   0.650   4.384   8.124 -0.3954  0.6371 -0.1203
 6711SOL     OW31594   2.517   0.289  11.919  0.1611  0.1108 -0.1183
 6711SOL    HW131595   2.588   0.353  11.910  1.8279 -1.5553  1.1449
 6711SOL    HW231596   2.455   0.328  11.857 -1.7305 -1.2384  0.9273
 6712SOL     OW31597   1.383   3.647   1.297 -0.2706 -0.9274 -0.0152
 6712SOL    HW131598   1.458   3.620   1.244  1.2790  0.1069  1.6712
 6712SOL    HW231599   1.320   3.596   1.246 -0.9837 -0.0291 -0.0242
 6713SOL     OW31600   3.360   3.312  16.254  0.2104  0.1032 -0.2255
 6713SOL    HW131601   3.366   3.273  16.342 -1.1312 -2.8365 -1.4512
 6713SOL    HW231602   3.420   3.385  16.268  0.2039 -0.1568  1.2234
 6714SOL     OW31603   1.573   4.054   2.503  0.6355 -0.1990  0.0348
 6714SOL    HW131604   1.506   4.006   2.454 -0.5243  0.0860  1.3069
 6714SOL    HW231605   1.637   3.984   2.515  1.2353  0.2059 -0.8583
 6715SOL     OW31606   2.315   3.735  12.613  0.0048 -0.4754 -0.0304
 6715SOL    HW131607   2.405   3.767  12.618 -0.3229  0.3834  0.2505
 6715SOL    HW231608   2.268   3.814  12.641  3.3264  1.3017  0.5183
 6716SOL     OW31609   3.923   1.916   2.320  0.0696  0.7783 -0.1033
 6716SOL    HW131610   3.979   1.962   2.383  0.2299 -0.3293  0.5555
 6716SOL    HW231611   3.858   1.982   2.296  1.1154  1.7614 -0.2189
 6717SOL     OW31612   1.482   2.891   8.183  0.0122  0.1753 -0.2349
 6717SOL    HW131613   1.572   2.887   8.153  0.2395 -1.3143  0.6159
 6717SOL    HW231614   1.452   2.801   8.169  1.5259  0.2305 -3.7310
 6718SOL     OW31615   4.193   4.312   6.802  0.1379 -0.2000 -0.4364
 6718SOL    HW131616   4.109   4.269   6.790  0.8026 -1.3123 -1.0634
 6718SOL    HW231617   4.199   4.345   6.712  0.7778  1.5275  0.2467
 6719SOL     OW31618   1.668   4.197   2.282 -0.2782  0.1315  0.2351
 6719SOL    HW131619   1.759   4.185   2.308  0.2887  0.2176 -1.6767
 6719SOL    HW231620   1.617   4.169   2.358 -2.1633 -1.2241 -1.5302
 6720SOL     OW31621   1.578   3.373   2.942 -0.4012  0.2198  0.5163
 6720SOL    HW131622   1.513   3.371   3.011 -1.2602 -0.2568 -0.3063
 6720SOL    HW231623   1.551   3.299   2.887 -0.2723  1.2380 -0.9266
 6721SOL     OW31624   1.150   0.108   1.703 -0.2350 -0.4550  0.2092
 6721SOL    HW131625   1.225   0.159   1.735  0.3635  0.0484 -2.0239
 6721SOL    HW231626   1.113   0.165   1.635 -0.8510  1.1293  1.8613
 6722SOL     OW31627   0.180   4.351  17.598 -0.4785  0.5661 -0.5182
 6722SOL    HW131628   0.092   4.313  17.603 -0.3483  0.2532 -0.5845
 6722SOL    HW231629   0.204   4.360  17.691  2.3686 -0.0582 -1.1943
 6723SOL     OW31630   3.249   2.471  12.467 -0.5271  0.0500 -0.6651
 6723SOL    HW131631   3.267   2.378  12.474  0.8373  0.2829 -1.0723
 6723SOL    HW231632   3.170   2.489  12.517  0.4270  2.2751  0.0544
 6724SOL     OW31633   2.269   1.005   2.924 -0.2341  0.0100 -0.3853
 6724SOL    HW131634   2.204   0.941   2.896  0.7662 -1.0120 -0.3638
 6724SOL    HW231635   2.252   1.073   2.858 -0.6023  0.8864  0.6098
 6725SOL     OW31636   2.828   1.586  10.276 -0.6730  0.5042  0.4673
 6725SOL    HW131637   2.852   1.524  10.207 -0.9235  1.5889 -0.5985
 6725SOL    HW231638   2.737   1.607  10.253 -0.9451  0.6103  1.6358
 6726SOL     OW31639   3.292   3.299   8.188  0.1820 -0.5237  0.3938
 6726SOL    HW131640   3.287   3.225   8.127  0.5030  0.3077 -0.6535
 6726SOL    HW231641   3.248   3.264   8.266 -2.1781 -0.7389 -1.0169
 6727SOL     OW31642   0.958   0.019   1.881 -0.0201 -0.4744 -0.4443
 6727SOL    HW131643   1.021   0.054   1.818  0.4729 -2.0788 -0.8480
 6727SOL    HW231644   0.918   4.676   1.826 -0.2262  0.7636 -1.8011
 6728SOL     OW31645   2.019   3.105   8.542  0.4537 -0.1140  0.3473
 6728SOL    HW131646   2.049   3.024   8.501  0.5985 -1.1984  2.5975
 6728SOL    HW231647   2.096   3.157   8.519 -0.0951  0.7535  0.4851
 6729SOL     OW31648   3.360   0.124   7.375 -0.3732 -0.0924  0.0415
 6729SOL    HW131649   3.290   0.089   7.320  0.1198 -0.0608 -0.6064
 6729SOL    HW231650   3.371   0.054   7.439 -4.6351  0.7654  1.6946
 6730SOL     OW31651   0.395   1.348   8.765 -0.1916 -0.2330 -0.6044
 6730SOL    HW131652   0.312   1.300   8.765  0.5477 -1.4821  1.8855
 6730SOL    HW231653   0.404   1.359   8.859  2.4218  1.7415 -1.0745
 6731SOL     OW31654   4.429   3.359   0.649  0.1912 -0.1339 -0.1307
 6731SOL    HW131655   4.440   3.448   0.617 -0.0749 -0.3191 -0.7435
 6731SOL    HW231656   4.334   3.363   0.655  0.1511 -2.5737  1.0697
 6732SOL     OW31657   4.073   1.002  13.760  0.3681  0.7206  0.1869
 6732SOL    HW131658   4.088   0.964  13.846  0.0735 -1.5676 -0.7669
 6732SOL    HW231659   3.985   1.037  13.772 -0.0090  1.0522 -3.6433
 6733SOL     OW31660   3.034   0.386   7.206 -0.1463  0.1169 -0.4156
 6733SOL    HW131661   2.944   0.391   7.236  0.6931  1.3955  1.8933
 6733SOL    HW231662   3.091   0.418   7.276 -0.8748 -1.8248  1.0644
 6734SOL     OW31663   1.688   1.018   6.001 -0.4568  0.2403 -0.1298
 6734SOL    HW131664   1.674   1.049   6.090  0.2270  0.5645 -0.1369
 6734SOL    HW231665   1.601   0.992   5.972 -0.1046  1.9428 -2.6936
 6735SOL     OW31666   4.355   2.689   7.532  0.1015 -0.8547  0.1797
 6735SOL    HW131667   4.384   2.725   7.449  0.4530  0.2029  0.7612
 6735SOL    HW231668   4.371   2.597   7.509 -1.9852 -1.2058  0.1202
 6736SOL     OW31669   3.642   4.335   9.727 -0.6201 -0.0267 -0.2571
 6736SOL    HW131670   3.682   4.363   9.810 -1.2909 -1.5085  0.5565
 6736SOL    HW231671   3.713   4.283   9.690 -0.9357 -3.3283  3.7304
 6737SOL     OW31672   3.587   0.501   8.621  0.3767  0.3028 -0.0550
 6737SOL    HW131673   3.513   0.527   8.676 -0.2165  2.8493 -2.0641
 6737SOL    HW231674   3.597   0.408   8.642 -1.3366  0.3245  0.8178
 6738SOL     OW31675   3.025   4.717   8.851 -0.0698  0.4782  0.2039
 6738SOL    HW131676   2.936   0.025   8.837 -0.5502 -0.4409  1.0530
 6738SOL    HW231677   3.055   0.060   8.911 -0.1682 -0.7917  1.6903
 6739SOL     OW31678   4.509   2.410   9.103 -0.2000 -0.3906 -0.6258
 6739SOL    HW131679   4.458   2.428   9.182  1.7021 -1.1944  0.7886
 6739SOL    HW231680   4.548   2.323   9.115 -1.0615 -0.3356  2.6145
 6740SOL     OW31681   4.253   2.571   3.226  0.2590  0.6513 -0.3641
 6740SOL    HW131682   4.260   2.477   3.244  0.2888  0.9794  1.3790
 6740SOL    HW231683   4.215   2.573   3.138  1.3132 -1.7564 -0.8697
 6741SOL     OW31684   2.771   1.659  11.645  0.1467 -0.4483  0.4609
 6741SOL    HW131685   2.816   1.629  11.724  0.4316 -0.4451  0.2969
 6741SOL    HW231686   2.807   1.607  11.573  0.1885 -1.4347  1.1891
 6742SOL     OW31687   0.933   0.763   9.368 -0.1132  0.1478  0.7118
 6742SOL    HW131688   0.993   0.691   9.387  0.0401  0.0234 -0.2922
 6742SOL    HW231689   0.996   0.835   9.381  1.2326 -0.7712 -0.7142
 6743SOL     OW31690   2.876   2.297   2.238  0.6258 -0.5647 -0.3286
 6743SOL    HW131691   2.801   2.238   2.232  0.9413 -0.7060 -2.8509
 6743SOL    HW231692   2.921   2.286   2.154  0.2874 -0.9388 -0.4592
 6744SOL     OW31693   4.643   1.895   8.461  0.0703  0.4115  0.4435
 6744SOL    HW131694   4.549   1.895   8.481  0.4372 -0.0649  2.1924
 6744SOL    HW231695   4.684   1.931   8.540 -0.1595  0.0212  0.7407
 6745SOL     OW31696   4.230   0.920   7.755  0.0540 -0.6684 -0.0584
 6745SOL    HW131697   4.292   0.961   7.695 -0.3132  0.2979  0.2317
 6745SOL    HW231698   4.218   0.984   7.824 -0.2372 -0.7551 -0.0254
 6746SOL     OW31699   4.442   0.268   8.958  0.1885  0.0504 -0.2099
 6746SOL    HW131700   4.468   0.178   8.977  0.7722 -0.2423 -2.3987
 6746SOL    HW231701   4.366   0.278   9.015 -0.4410  0.5844 -1.1336
 6747SOL     OW31702   1.128   2.334   3.276  0.2218 -0.5452 -0.6561
 6747SOL    HW131703   1.219   2.305   3.263  0.6841  0.6704 -0.1122
 6747SOL    HW231704   1.139   2.427   3.257  3.2724 -0.7302  0.1359
 6748SOL     OW31705   3.375   3.924   7.531 -0.0672 -0.1816  0.3629
 6748SOL    HW131706   3.368   3.996   7.469 -1.5041 -0.3558  0.3403
 6748SOL    HW231707   3.309   3.946   7.597  0.9610  0.3080  1.2419
 6749SOL     OW31708   2.511   2.938  13.541 -0.0304  0.2603 -0.2448
 6749SOL    HW131709   2.557   3.022  13.547  1.7502 -0.7005 -0.4675
 6749SOL    HW231710   2.485   2.939  13.449  0.4804 -1.8285 -0.4068
 6750SOL     OW31711   3.711   3.299   9.183  0.3092  0.5515 -0.2106
 6750SOL    HW131712   3.617   3.317   9.182 -0.0489 -1.4343 -1.4071
 6750SOL    HW231713   3.735   3.268   9.096  0.7845  1.2638 -0.3396
 6751SOL     OW31714   3.130   3.702  12.551  0.6293 -0.0835 -0.3153
 6751SOL    HW131715   3.168   3.748  12.625  0.1867 -0.7809  0.3432
 6751SOL    HW231716   3.213   3.677  12.509  0.7776  1.1254 -0.7504
 6752SOL     OW31717   1.112   1.159  15.478 -0.7832 -0.0157  0.5738
 6752SOL    HW131718   1.053   1.231  15.501  2.1050  2.0238  1.5219
 6752SOL    HW231719   1.072   1.134  15.394 -1.7536 -0.9018  1.3051
 6753SOL     OW31720   3.116   1.424   0.845  0.1797  0.1231 -0.1657
 6753SOL    HW131721   3.063   1.496   0.813  0.2586  0.2586  0.0084
 6753SOL    HW231722   3.072   1.351   0.802  1.0413  0.1578 -1.0871
 6754SOL     OW31723   4.424   2.536   6.347  0.6504 -0.2846  0.7783
 6754SOL    HW131724   4.504   2.580   6.320  0.4340 -1.5886 -1.9249
 6754SOL    HW231725   4.418   2.544   6.442  3.1053  0.6356  0.8584
 6755SOL     OW31726   1.359   3.281   4.133 -0.2399  0.2854 -0.1401
 6755SOL    HW131727   1.400   3.367   4.138  0.5886 -0.0797 -0.6051
 6755SOL    HW231728   1.433   3.227   4.102  0.8461  1.1806  0.9144
 6756SOL     OW31729   4.174   4.627  16.430  0.3344  0.5627  0.6647
 6756SOL    HW131730   4.118   4.616  16.507  1.3117 -0.7047  1.1938
 6756SOL    HW231731   4.146   4.565  16.362  2.1024 -0.6090  0.9889
 6757SOL     OW31732   0.180   1.328  13.771 -0.5097 -0.0509  0.6924
 6757SOL    HW131733   0.245   1.397  13.754  0.9588 -1.7856 -0.7946
 6757SOL    HW231734   0.121   1.350  13.699  0.5032 -2.7345 -0.9924
 6758SOL     OW31735   2.756   0.386   6.360 -0.1313 -0.8910  0.7399
 6758SOL    HW131736   2.745   0.291   6.350 -2.2681 -0.7431  1.6740
 6758SOL    HW231737   2.749   0.403   6.453  2.7433 -2.8320  1.3103
 6759SOL     OW31738   2.095   3.741   2.224 -0.0738  0.2267  0.4895
 6759SOL    HW131739   2.124   3.650   2.228 -2.1763 -0.4887 -0.6895
 6759SOL    HW231740   2.087   3.755   2.129  3.2313  0.1212  0.1999
 6760SOL     OW31741   0.802   2.123  14.106  0.4074 -0.0487 -0.1476
 6760SOL    HW131742   0.707   2.129  14.112  0.3958 -0.7368  0.3594
 6760SOL    HW231743   0.823   2.066  14.032 -0.1313 -2.3439  1.4671
 6761SOL     OW31744   3.370   1.505   2.982  0.2960  0.3941 -0.4000
 6761SOL    HW131745   3.372   1.411   2.997 -2.1066  0.4012 -0.0115
 6761SOL    HW231746   3.376   1.509   2.887 -3.7150  1.8208 -0.6254
 6762SOL     OW31747   1.901   1.334   5.811 -0.5720  0.4992  0.1006
 6762SOL    HW131748   1.814   1.345   5.850 -0.5021 -0.9010  0.6522
 6762SOL    HW231749   1.908   1.415   5.761  3.2076  1.0360  1.4746
 6763SOL     OW31750   3.086   2.479  12.697  0.1607 -0.0712 -0.7261
 6763SOL    HW131751   3.067   2.560  12.745 -0.3147 -0.6635  0.0838
 6763SOL    HW231752   3.008   2.424  12.698  1.1475 -1.4572  0.3063
 6764SOL     OW31753   3.678   0.711  16.011  0.3082  0.1330  0.2961
 6764SOL    HW131754   3.650   0.621  16.029  2.1373 -0.2140  1.3819
 6764SOL    HW231755   3.691   0.715  15.916  0.1641 -1.4529  0.2125
 6765SOL     OW31756   0.836   3.830   2.668 -0.4426  0.2468  0.0336
 6765SOL    HW131757   0.924   3.849   2.702 -0.6751  0.9679  0.2425
 6765SOL    HW231758   0.771   3.849   2.735 -2.4046  0.1565 -1.8651
 6766SOL     OW31759   2.981   0.151   1.484 -0.3059 -0.4872  0.4363
 6766SOL    HW131760   2.975   0.082   1.418  0.6266  0.3887 -0.5596
 6766SOL    HW231761   3.060   0.193   1.451 -0.7931  0.0580 -0.0225
 6767SOL     OW31762   1.751   2.112   5.907 -0.4499  0.0793  0.7201
 6767SOL    HW131763   1.805   2.146   5.979 -1.6930  3.3589  0.0836
 6767SOL    HW231764   1.682   2.079   5.964 -1.2251  0.2168 -0.1404
 6768SOL     OW31765   2.997   1.605   8.996  0.4058  0.1513  0.6578
 6768SOL    HW131766   3.037   1.574   9.077  0.3184 -0.8093  0.3383
 6768SOL    HW231767   2.909   1.619   9.028  0.3127  0.9935  0.0289
 6769SOL     OW31768   1.697   3.705   3.221  0.0319 -0.8297 -0.2325
 6769SOL    HW131769   1.773   3.688   3.165 -0.4866  1.6642 -1.6719
 6769SOL    HW231770   1.755   3.736   3.290 -2.4444  0.5136  1.2532
 6770SOL     OW31771   3.643   1.816  11.739 -0.0569 -0.2917  0.2300
 6770SOL    HW131772   3.674   1.833  11.650 -0.4301  0.6324  0.2768
 6770SOL    HW231773   3.568   1.761  11.716 -0.3815  0.7847 -1.3041
 6771SOL     OW31774   2.690   0.497  15.537  0.2594  0.8064 -0.0501
 6771SOL    HW131775   2.710   0.423  15.480  0.2099  0.2441  0.6546
 6771SOL    HW231776   2.595   0.491  15.551  0.5052 -0.0165  1.2603
 6772SOL     OW31777   1.474   2.825   8.544  0.9538 -0.2455 -0.6036
 6772SOL    HW131778   1.420   2.852   8.470 -2.9635  0.5942  2.5937
 6772SOL    HW231779   1.446   2.886   8.611 -0.4433 -1.7782  0.1952
 6773SOL     OW31780   3.273   0.709  15.071  0.2693 -0.0049 -0.2007
 6773SOL    HW131781   3.192   0.754  15.047  0.2486 -0.1604 -0.4241
 6773SOL    HW231782   3.254   0.623  15.034 -3.9148  0.6951  0.2093
 6774SOL     OW31783   1.774   1.881  14.459 -0.1308  0.1211  0.3201
 6774SOL    HW131784   1.867   1.889  14.435  0.2964 -1.3036  1.4802
 6774SOL    HW231785   1.760   1.798  14.413  0.2029 -1.4724  3.0573
 6775SOL     OW31786   4.116   3.924   2.670 -0.1642  0.3021 -0.3435
 6775SOL    HW131787   4.147   4.002   2.715  2.2045 -0.6255 -0.3549
 6775SOL    HW231788   4.134   3.851   2.729  1.3816  0.2639 -0.8515
 6776SOL     OW31789   2.193   3.757  10.200  0.2845  0.1254  0.2020
 6776SOL    HW131790   2.244   3.809  10.137 -0.7278 -0.2534 -0.9286
 6776SOL    HW231791   2.256   3.751  10.272  1.6962 -0.7504 -1.0956
 6777SOL     OW31792   2.176   3.541   5.223 -0.6688  0.0083 -0.7190
 6777SOL    HW131793   2.127   3.459   5.215  1.8306 -1.5619  0.0128
 6777SOL    HW231794   2.101   3.593   5.252  0.0976  0.2672  0.8344
 6778SOL     OW31795   0.718   2.561   4.125  0.1526  0.0486  0.0382
 6778SOL    HW131796   0.806   2.575   4.158  1.1060 -0.7111 -2.1808
 6778SOL    HW231797   0.679   2.504   4.191  0.2253  1.3781  1.2253
 6779SOL     OW31798   4.601   0.368   3.597 -0.2112  0.1556 -0.2239
 6779SOL    HW131799   4.508   0.362   3.621  0.0756  1.4985  1.2213
 6779SOL    HW231800   4.595   0.397   3.506  3.7158  1.8065  0.0461
 6780SOL     OW31801   2.775   0.101   8.782 -0.0458 -0.3707 -0.0463
 6780SOL    HW131802   2.718   0.063   8.715  2.3488 -3.7013 -0.2097
 6780SOL    HW231803   2.716   0.132   8.850 -0.1088  1.4960 -0.9552
 6781SOL     OW31804   0.251   3.784  11.970 -0.5501  0.2229  0.4372
 6781SOL    HW131805   0.185   3.818  12.031  0.0839  1.2985  0.5246
 6781SOL    HW231806   0.307   3.861  11.980  2.4404 -2.3234  3.4849
 6782SOL     OW31807   2.557   1.923   7.333  0.1145 -0.1240  0.1266
 6782SOL    HW131808   2.610   1.923   7.253 -2.0088 -0.5200 -1.2953
 6782SOL    HW231809   2.477   1.960   7.296  0.1573 -1.0907 -0.9283
 6783SOL     OW31810   2.194   0.601   8.952 -0.1991  0.1826 -0.1668
 6783SOL    HW131811   2.189   0.507   8.966 -0.4195  0.2902  0.4893
 6783SOL    HW231812   2.119   0.624   9.007  0.7466  1.5610  0.5276
 6784SOL     OW31813   0.491   0.739  16.589 -0.2428  0.3738  0.1551
 6784SOL    HW131814   0.565   0.733  16.529  0.8739  3.7247  1.1517
 6784SOL    HW231815   0.433   0.810  16.559 -1.1252 -0.5254 -0.2515
 6785SOL     OW31816   1.335   1.225   5.983  0.1794 -0.1342  0.4561
 6785SOL    HW131817   1.319   1.240   5.890 -1.2104  0.1516  0.7404
 6785SOL    HW231818   1.324   1.316   6.012 -0.9382  0.4194 -1.6886
 6786SOL     OW31819   3.978   2.201  15.499  0.3923  0.7938 -0.3170
 6786SOL    HW131820   4.021   2.159  15.573  1.0542 -0.8844 -1.6419
 6786SOL    HW231821   3.886   2.177  15.505  0.3308  1.2792  0.6619
 6787SOL     OW31822   1.546   0.734  11.299 -0.4657 -0.3404 -0.3237
 6787SOL    HW131823   1.464   0.703  11.262  0.4606 -0.6609 -2.1245
 6787SOL    HW231824   1.515   0.806  11.353 -0.8113 -1.3974  0.9021
 6788SOL     OW31825   3.946   2.715   5.131  0.1717 -0.0175  0.2898
 6788SOL    HW131826   3.918   2.675   5.049 -0.4549  0.3724  0.3121
 6788SOL    HW231827   4.032   2.675   5.141 -1.0879 -3.1768 -1.2272
 6789SOL     OW31828   0.262   1.109   3.276 -0.1556  0.3867 -0.0771
 6789SOL    HW131829   0.232   1.166   3.347 -0.0215 -1.9449  1.8362
 6789SOL    HW231830   0.340   1.074   3.320 -0.3343 -2.0359 -1.7027
 6790SOL     OW31831   3.568   0.775   2.603 -0.2695 -0.2828 -0.5809
 6790SOL    HW131832   3.655   0.797   2.634 -1.0218  2.0506 -0.1510
 6790SOL    HW231833   3.519   0.786   2.684  1.7230  0.9976  0.4477
 6791SOL     OW31834   3.569   2.712   3.134  0.3509 -0.3874 -0.7710
 6791SOL    HW131835   3.581   2.798   3.093  0.8142 -0.1826 -0.1979
 6791SOL    HW231836   3.603   2.652   3.068 -1.3778 -0.5365 -1.5265
 6792SOL     OW31837   1.508   3.397   7.296  0.6614  0.2974  0.5507
 6792SOL    HW131838   1.467   3.313   7.279 -2.5432  1.5460  2.0186
 6792SOL    HW231839   1.582   3.379   7.353 -0.3348  0.6173  1.9335
 6793SOL     OW31840   3.325   2.258   3.806  0.1603 -0.4878  0.4890
 6793SOL    HW131841   3.253   2.306   3.846 -0.5576  0.4265 -1.9333
 6793SOL    HW231842   3.305   2.165   3.816  0.0851 -0.6292 -0.9606
 6794SOL     OW31843   2.851   0.749  11.278  0.3371 -0.1178  0.2019
 6794SOL    HW131844   2.799   0.723  11.202  0.6792 -1.4127  0.4117
 6794SOL    HW231845   2.825   0.678  11.338  1.3952  0.2189  1.0632
 6795SOL     OW31846   4.425   2.132  14.170  0.5913  0.0603 -0.1020
 6795SOL    HW131847   4.494   2.177  14.219  1.3328  0.3712 -1.4344
 6795SOL    HW231848   4.465   2.049  14.144 -1.2397 -0.7116 -0.4405
 6796SOL     OW31849   1.032   1.244   3.401 -0.4334 -0.4551  0.2947
 6796SOL    HW131850   0.951   1.202   3.430  0.4146 -0.7410  2.2589
 6796SOL    HW231851   1.007   1.335   3.385  2.2594  0.0087 -1.3060
 6797SOL     OW31852   4.476   2.590   0.940 -0.2768 -0.2532 -0.0584
 6797SOL    HW131853   4.392   2.635   0.932 -0.3906 -0.4344  0.1014
 6797SOL    HW231854   4.448   2.499   0.954  0.9884 -0.4427  1.2011
 6798SOL     OW31855   2.603   4.224  17.211  0.0329 -0.0270 -0.0700
 6798SOL    HW131856   2.512   4.196  17.219 -0.5068  1.4145 -1.1555
 6798SOL    HW231857   2.593   4.319  17.205 -0.0590  0.0534  1.3702
 6799SOL     OW31858   0.515   0.270   0.310  0.0876  0.6381 -0.0410
 6799SOL    HW131859   0.424   0.270   0.281 -0.1800 -0.3078  0.7718
 6799SOL    HW231860   0.562   0.329   0.251  0.7542  0.3844  0.2318
 6800SOL     OW31861   0.086   1.674   7.028  0.3815  0.4492 -0.0256
 6800SOL    HW131862   0.116   1.661   7.118  0.6298  2.0210  0.1174
 6800SOL    HW231863   0.021   1.742   7.045 -0.5733 -0.1637 -1.2569
 6801SOL     OW31864   3.565   1.480  13.687 -0.3070  0.2342 -0.0890
 6801SOL    HW131865   3.517   1.500  13.767  1.2967 -3.0028  1.7392
 6801SOL    HW231866   3.505   1.434  13.629 -0.3809  2.8699 -2.0653
 6802SOL     OW31867   4.411   0.870   6.248  0.3777 -0.3758  0.1167
 6802SOL    HW131868   4.391   0.962   6.262  1.2373 -0.0979 -0.5073
 6802SOL    HW231869   4.497   0.871   6.205  1.0680 -0.1721  1.5053
 6803SOL     OW31870   2.128   1.667  14.237  0.1081  0.0309  0.1443
 6803SOL    HW131871   2.174   1.750  14.252  1.4650 -0.8713  0.8995
 6803SOL    HW231872   2.141   1.621  14.319 -1.0519  0.5166  0.6031
 6804SOL     OW31873   0.928   1.318   6.337 -0.1851  0.5098 -0.1778
 6804SOL    HW131874   0.934   1.322   6.433  0.0316 -0.6549 -0.1509
 6804SOL    HW231875   0.899   1.408   6.323 -1.0112  0.2809  0.0449
 6805SOL     OW31876   1.507   1.332   6.218 -0.5538 -0.3215 -0.7412
 6805SOL    HW131877   1.527   1.394   6.289 -0.0347  0.3357 -1.4585
 6805SOL    HW231878   1.463   1.396   6.162 -0.4627  1.1320  0.8463
 6806SOL     OW31879   2.508   0.403   0.397  0.6873  0.1221 -0.3546
 6806SOL    HW131880   2.453   0.363   0.464 -0.9654  1.3174 -0.9883
 6806SOL    HW231881   2.573   0.446   0.452  2.1106 -0.4289 -1.5997
 6807SOL     OW31882   0.903   0.001   1.078 -0.7695  0.7857  0.4962
 6807SOL    HW131883   0.902   4.716   1.173  0.2159 -2.7854  0.1855
 6807SOL    HW231884   0.942   4.642   1.051 -1.2092  0.5005  0.7501
 6808SOL     OW31885   4.471   1.253  10.414 -0.1205  0.2372  0.5133
 6808SOL    HW131886   4.445   1.326  10.470 -0.7855  0.0444  0.4663
 6808SOL    HW231887   4.429   1.263  10.328  1.4577  0.6399 -0.2038
 6809SOL     OW31888   3.021   2.635   2.717 -0.2800 -0.2625  0.0870
 6809SOL    HW131889   3.097   2.615   2.770  0.1718  2.3392  0.4251
 6809SOL    HW231890   2.957   2.678   2.775 -1.3596 -0.1568 -1.1684
 6810SOL     OW31891   2.854   4.359   4.167 -0.7957 -0.3838 -0.2863
 6810SOL    HW131892   2.858   4.443   4.214 -1.3215  0.8056 -2.3548
 6810SOL    HW231893   2.932   4.368   4.112  0.0314 -0.0940  0.9408
 6811SOL     OW31894   2.384   0.584  15.032 -0.9986  0.2444 -0.3724
 6811SOL    HW131895   2.398   0.610  14.941  0.5708 -1.7719 -0.7217
 6811SOL    HW231896   2.312   0.640  15.059 -1.0262  0.1462 -0.2438
 6812SOL     OW31897   1.529   0.980   6.896 -0.1288 -0.2121 -0.4814
 6812SOL    HW131898   1.569   0.963   6.810 -0.3346 -0.1235 -0.5932
 6812SOL    HW231899   1.444   0.946   6.869 -0.4543  1.3234 -1.4326
 6813SOL     OW31900   0.586   1.472   7.934  0.3087  0.2218 -0.1546
 6813SOL    HW131901   0.599   1.494   8.026  1.9579  0.5156 -0.4484
 6813SOL    HW231902   0.528   1.398   7.950  1.2978 -0.3965  0.5516
 6814SOL     OW31903   2.419   3.156   7.047 -0.1538  0.1602  0.0619
 6814SOL    HW131904   2.463   3.240   7.035 -0.1347  0.3417  1.4459
 6814SOL    HW231905   2.334   3.171   7.006  0.2943 -2.2100 -1.7302
 6815SOL     OW31906   3.703   3.583   1.355 -0.2419 -0.1053 -0.2593
 6815SOL    HW131907   3.631   3.534   1.395 -0.0195  0.4138  0.7656
 6815SOL    HW231908   3.685   3.671   1.387  0.4317  0.6274 -1.8986
 6816SOL     OW31909   1.081   4.303   4.275 -0.2598 -0.1220 -0.4711
 6816SOL    HW131910   1.022   4.263   4.211 -0.4751  0.6470 -0.7535
 6816SOL    HW231911   1.043   4.391   4.273  0.5113  0.2529  0.8637
 6817SOL     OW31912   4.129   2.979   8.499  0.1526  0.1811  0.0883
 6817SOL    HW131913   4.052   3.034   8.481 -0.9255 -0.0992  3.7888
 6817SOL    HW231914   4.101   2.890   8.479  0.9843 -0.1766  0.5607
 6818SOL     OW31915   0.223   1.144   6.328 -0.0752 -0.7093 -0.0941
 6818SOL    HW131916   0.223   1.215   6.264 -0.8457 -0.8872 -0.2851
 6818SOL    HW231917   0.241   1.068   6.272 -0.1709 -0.9200  0.1633
 6819SOL     OW31918   1.068   1.451   4.757 -0.3231 -0.1607 -0.4117
 6819SOL    HW131919   1.015   1.374   4.775  0.3140 -0.1782  1.3460
 6819SOL    HW231920   1.150   1.411   4.728  0.2591  1.6357 -1.2887
 6820SOL     OW31921   4.610   4.122   2.314  0.2864 -0.1188  0.1513
 6820SOL    HW131922   4.647   4.160   2.234 -2.9102 -0.4108 -1.4631
 6820SOL    HW231923   4.680   4.068   2.350  0.0700  1.7984  3.4596
 6821SOL     OW31924   3.285   2.403   8.943 -0.1901 -0.0145  0.4288
 6821SOL    HW131925   3.300   2.485   8.897 -0.2907 -0.6910 -0.8140
 6821SOL    HW231926   3.281   2.429   9.035  0.0211  1.5418 -0.0012
 6822SOL     OW31927   4.091   0.471   7.038  0.1847  0.4449  0.2228
 6822SOL    HW131928   4.103   0.539   7.105  0.3156  0.1066  0.5435
 6822SOL    HW231929   4.044   0.408   7.093 -0.2599  1.0842  0.5659
 6823SOL     OW31930   0.163   1.568  13.306 -0.1581 -0.0598 -0.3078
 6823SOL    HW131931   0.132   1.542  13.220 -1.6699 -0.3204  0.3086
 6823SOL    HW231932   0.232   1.633  13.292 -0.4795  0.6668  1.5007
 6824SOL     OW31933   0.922   2.466   0.039  0.0700  0.2875  0.3022
 6824SOL    HW131934   0.856   2.396   0.039  1.9635 -1.4879 -0.7820
 6824SOL    HW231935   0.912   2.500   0.128 -2.7012 -3.3721  1.4006
 6825SOL     OW31936   1.345   0.269   7.613  0.2213 -0.8869  0.8111
 6825SOL    HW131937   1.351   0.355   7.572 -0.6624 -0.4738  1.5547
 6825SOL    HW231938   1.354   0.209   7.539 -0.5745  1.9972 -1.5744
 6826SOL     OW31939   0.848   3.775   7.647 -0.6440 -0.4369 -0.3791
 6826SOL    HW131940   0.811   3.854   7.608 -0.5479  0.1832  0.7810
 6826SOL    HW231941   0.939   3.795   7.622 -0.8018 -0.1013 -0.6822
 6827SOL     OW31942   3.235   3.746   3.989  0.3444 -0.1586 -0.5861
 6827SOL    HW131943   3.160   3.695   3.961 -1.2543  1.4206  0.7983
 6827SOL    HW231944   3.216   3.833   3.952  0.9109  1.7698  3.6203
 6828SOL     OW31945   4.242   4.121   4.927 -0.0952  0.3704  0.4547
 6828SOL    HW131946   4.149   4.098   4.919 -0.2489  1.2864 -0.4989
 6828SOL    HW231947   4.237   4.169   5.009  0.5406  0.6698  0.3169
 6829SOL     OW31948   3.612   2.903  12.971  0.2785 -0.7343  0.2707
 6829SOL    HW131949   3.679   2.884  13.037 -0.1976 -0.4252  0.8413
 6829SOL    HW231950   3.557   2.825  12.975 -0.1346 -0.5126 -1.0943
 6830SOL     OW31951   1.703   2.190  15.445 -0.2275  0.3156 -0.1760
 6830SOL    HW131952   1.616   2.160  15.472 -0.7359  0.4236 -1.6893
 6830SOL    HW231953   1.704   2.281  15.474 -0.6554  0.6664 -1.2804
 6831SOL     OW31954   1.771   1.532   8.739  0.0439  0.1137  0.5541
 6831SOL    HW131955   1.824   1.583   8.800  0.7344  1.0992 -0.8625
 6831SOL    HW231956   1.811   1.559   8.656 -1.9345 -0.3509 -0.5596
 6832SOL     OW31957   0.597   1.137   2.753  0.1006 -1.0200  0.2052
 6832SOL    HW131958   0.658   1.205   2.778 -0.5593 -1.2280  2.4071
 6832SOL    HW231959   0.656   1.068   2.722 -0.7966 -0.9389 -1.6918
 6833SOL     OW31960   2.364   0.138   1.350  0.4427 -0.7249 -0.6819
 6833SOL    HW131961   2.273   0.123   1.377  0.2010 -0.4326 -1.3478
 6833SOL    HW231962   2.363   0.107   1.259 -0.2482 -0.6835 -0.6894
 6834SOL     OW31963   3.506   3.759  12.002 -0.8198 -0.1801 -0.1358
 6834SOL    HW131964   3.457   3.821  11.947 -0.5347  0.0929 -0.0811
 6834SOL    HW231965   3.438   3.740  12.066  0.6492 -1.3884  1.0561
 6835SOL     OW31966   4.522   1.562   9.723 -0.0005  0.1164 -0.5157
 6835SOL    HW131967   4.507   1.603   9.808  1.0992 -1.5289  0.4622
 6835SOL    HW231968   4.613   1.581   9.701  0.6063 -3.6346 -1.3409
 6836SOL     OW31969   4.204   1.229   5.216 -0.0826 -0.5353 -0.1251
 6836SOL    HW131970   4.216   1.279   5.135  0.3386  0.7372  0.7211
 6836SOL    HW231971   4.197   1.307   5.272  1.2694  0.6078 -1.5561
 6837SOL     OW31972   2.258   2.816  14.266 -0.2934 -0.2457  0.3202
 6837SOL    HW131973   2.264   2.888  14.204  0.7327 -0.3062  0.3496
 6837SOL    HW231974   2.347   2.822  14.299  0.6228 -1.6211 -1.9084
 6838SOL     OW31975   2.746   0.615  14.297 -1.3611 -0.5267 -0.2432
 6838SOL    HW131976   2.691   0.678  14.249 -0.8495  0.2413  0.1913
 6838SOL    HW231977   2.725   0.542  14.239  0.8402 -1.1331 -0.2667
 6839SOL     OW31978   1.456   4.161  17.335 -0.6013  0.1043 -0.0762
 6839SOL    HW131979   1.439   4.139  17.243 -0.9503 -1.3118  0.3263
 6839SOL    HW231980   1.494   4.083  17.376 -0.4388  0.2582  0.0663
 6840SOL     OW31981   4.546   1.870   4.795  0.3183 -0.1993 -0.5356
 6840SOL    HW131982   4.534   1.910   4.708 -1.0026 -0.5518 -0.5151
 6840SOL    HW231983   4.453   1.878   4.814  0.9083  0.9379  1.8420
 6841SOL     OW31984   0.594   2.258   7.031  0.2785  0.6022 -0.2323
 6841SOL    HW131985   0.518   2.241   6.974 -1.0543 -1.5307  2.1885
 6841SOL    HW231986   0.570   2.200   7.103 -2.4125  1.4433 -0.4335
 6842SOL     OW31987   0.238   3.769  14.333  0.6024  0.7576 -0.0655
 6842SOL    HW131988   0.303   3.839  14.331  0.1057  1.2395  0.7998
 6842SOL    HW231989   0.251   3.755  14.239 -1.0314 -0.3664 -0.1215
 6843SOL     OW31990   1.742   2.625   4.480 -0.0293 -0.6024  0.5254
 6843SOL    HW131991   1.662   2.597   4.436  1.2126 -0.1025 -2.0354
 6843SOL    HW231992   1.799   2.611   4.404 -3.2254 -3.1025 -1.4151
 6844SOL     OW31993   1.471   4.302  16.071  0.4553  0.5372 -0.2937
 6844SOL    HW131994   1.485   4.210  16.048 -0.3922  0.5399 -0.8485
 6844SOL    HW231995   1.538   4.343  16.015  0.2510  0.0999 -0.8521
 6845SOL     OW31996   4.170   1.477   5.343  0.1462 -0.2363  0.3372
 6845SOL    HW131997   4.094   1.503   5.291  1.1796 -1.3377 -1.7167
 6845SOL    HW231998   4.160   1.547   5.408  1.4197 -1.4043  1.7867
 6846SOL     OW31999   1.709   0.558   6.879 -0.1362 -0.4417  0.5331
 6846SOL    HW132000   1.651   0.602   6.941 -0.8634 -1.9190  0.8826
 6846SOL    HW232001   1.718   0.472   6.919  0.4153  0.1463  1.6845
 6847SOL     OW32002   2.475   3.873   2.756  0.4472 -0.3858  0.1719
 6847SOL    HW132003   2.470   3.935   2.683  0.4061 -2.1362 -1.3161
 6847SOL    HW232004   2.555   3.825   2.732  0.4029 -1.1876  1.6172
 6848SOL     OW32005   0.108   1.326   8.488  0.1105 -0.0814  0.1704
 6848SOL    HW132006   0.093   1.318   8.582  0.5108  0.8376  0.3048
 6848SOL    HW232007   0.118   1.420   8.475  2.5578 -0.1077  1.9320
 6849SOL     OW32008   0.773   1.687  14.441  0.2614 -0.2445 -0.7064
 6849SOL    HW132009   0.789   1.781  14.440 -1.6202  0.0786 -0.4196
 6849SOL    HW232010   0.797   1.668  14.351  1.5912  0.4289 -0.4922
 6850SOL     OW32011   0.123   2.468   7.110 -0.3642  0.2124 -0.5766
 6850SOL    HW132012   0.078   2.459   7.026  0.8794 -1.2256 -1.1090
 6850SOL    HW232013   0.063   2.532   7.147 -2.1309 -1.6836 -0.1614
 6851SOL     OW32014   0.867   1.931  17.218 -0.2550 -0.0655  0.0294
 6851SOL    HW132015   0.852   1.917  17.124  0.4973  1.8730 -0.3695
 6851SOL    HW232016   0.930   2.003  17.215 -0.7997  0.4245  0.3261
 6852SOL     OW32017   2.043   1.757   5.609  0.7923  0.0565 -0.3694
 6852SOL    HW132018   2.058   1.823   5.542  1.5594  1.1046  0.8297
 6852SOL    HW232019   2.074   1.677   5.566  1.0886  0.4682 -0.9248
 6853SOL     OW32020   1.794   1.010  17.225 -0.2630  0.2629  0.3819
 6853SOL    HW132021   1.870   0.954  17.245 -1.1937 -0.8142  0.9059
 6853SOL    HW232022   1.742   0.978  17.299 -1.3589  0.6777 -0.2180
 6854SOL     OW32023   2.556   0.869   5.861  0.0522  0.7005 -0.6462
 6854SOL    HW132024   2.469   0.882   5.822 -0.9263 -1.5272  0.8125
 6854SOL    HW232025   2.546   0.777   5.883  0.9094  0.5038 -1.1111
 6855SOL     OW32026   0.588   4.439  15.188 -0.5016  0.1503 -0.0891
 6855SOL    HW132027   0.585   4.415  15.095  1.0256 -2.0888  0.4347
 6855SOL    HW232028   0.575   4.354  15.231 -4.0348  1.9131  2.3620
 6856SOL     OW32029   2.009   1.896   8.070 -0.2922 -0.4576  0.3455
 6856SOL    HW132030   1.949   1.915   7.999  0.1811 -2.0634 -0.4817
 6856SOL    HW232031   2.075   1.963   8.052 -1.1485  0.0404 -0.9029
 6857SOL     OW32032   1.182   3.188   6.035  0.1603  0.5332  0.0697
 6857SOL    HW132033   1.138   3.173   6.119 -0.6963  0.1581 -0.4471
 6857SOL    HW232034   1.113   3.198   5.970  1.3152  3.2516 -0.7281
 6858SOL     OW32035   2.635   1.800   8.692 -0.0509  0.4485 -0.2575
 6858SOL    HW132036   2.615   1.891   8.672 -1.8477  0.0759 -0.1896
 6858SOL    HW232037   2.572   1.777   8.761 -0.9363  0.3115 -1.0997
 6859SOL     OW32038   1.145   0.432   9.671 -0.1210 -0.1779  0.0452
 6859SOL    HW132039   1.138   0.337   9.677 -1.7175 -0.0703 -0.2077
 6859SOL    HW232040   1.112   0.447   9.582 -0.7317 -0.3614  0.2404
 6860SOL     OW32041   3.371   0.666   0.796  0.1958  0.2727  0.3679
 6860SOL    HW132042   3.303   0.733   0.786  0.1564  0.0239 -0.9266
 6860SOL    HW232043   3.445   0.719   0.828 -0.2396  0.2193  1.4861
 6861SOL     OW32044   0.190   4.329   7.747 -0.0915  0.3193  0.2251
 6861SOL    HW132045   0.267   4.335   7.804 -0.5329 -1.4911  1.0127
 6861SOL    HW232046   0.127   4.306   7.816 -1.5542 -0.2013 -1.2825
 6862SOL     OW32047   0.883   1.041   5.618  0.1220 -0.3328  0.5501
 6862SOL    HW132048   0.789   1.032   5.627  0.0376 -0.5875 -0.5515
 6862SOL    HW232049   0.924   0.972   5.671  0.4706 -0.2995  0.3263
 6863SOL     OW32050   4.338   0.257  15.697  0.5910  0.0751  0.4556
 6863SOL    HW132051   4.318   0.298  15.612  0.8523  2.0505  1.3400
 6863SOL    HW232052   4.426   0.287  15.720  1.0899 -1.1920  0.2122
 6864SOL     OW32053   0.993   0.875  15.026 -0.4614  0.1768 -0.0500
 6864SOL    HW132054   1.058   0.807  15.042 -0.3434  0.5666  1.0816
 6864SOL    HW232055   1.045   0.933  14.970 -0.4163 -0.3090 -0.5188
 6865SOL     OW32056   1.952   4.004   4.628  0.5277 -0.4000  0.2906
 6865SOL    HW132057   2.017   3.941   4.658  0.4653 -0.3571  0.5174
 6865SOL    HW232058   1.997   4.060   4.565  0.9533  3.0201  3.6070
 6866SOL     OW32059   3.402   0.699   9.747 -0.2859  0.1556  0.5676
 6866SOL    HW132060   3.399   0.710   9.652  3.5925  0.5609  0.4628
 6866SOL    HW232061   3.460   0.772   9.772  0.9572 -0.7112  0.1950
 6867SOL     OW32062   0.047   3.546   1.647 -0.1837 -0.4843 -0.0257
 6867SOL    HW132063   4.677   3.554   1.631 -0.5796 -3.0863  0.9844
 6867SOL    HW232064   0.058   3.491   1.570  2.1794  1.2766 -0.9676
 6868SOL     OW32065   4.027   0.599   9.443 -0.5194 -0.3304 -0.4037
 6868SOL    HW132066   3.932   0.594   9.454 -0.4972 -0.0667 -0.1051
 6868SOL    HW232067   4.065   0.614   9.529 -0.1248  3.1113 -1.1741
 6869SOL     OW32068   3.455   3.339   6.110 -0.3593  0.2823  0.0618
 6869SOL    HW132069   3.483   3.326   6.020  2.4428  1.4038  0.7550
 6869SOL    HW232070   3.539   3.351   6.154 -0.9323  0.4362  1.1138
 6870SOL     OW32071   0.709   0.932   3.587 -0.4915 -0.2166  0.2311
 6870SOL    HW132072   0.722   0.881   3.667 -0.4734  0.4617  0.6632
 6870SOL    HW232073   0.786   0.920   3.531 -1.4235 -2.1439 -0.6201
 6871SOL     OW32074   4.198   3.315   3.561  0.3585 -0.1961 -0.1048
 6871SOL    HW132075   4.147   3.261   3.621  0.7077 -3.2802 -2.6054
 6871SOL    HW232076   4.283   3.318   3.605  1.6190  0.4128 -2.5813
 6872SOL     OW32077   1.179   1.875   1.432 -0.2291 -0.1694 -0.0439
 6872SOL    HW132078   1.245   1.935   1.468 -0.3565 -0.3566  0.4948
 6872SOL    HW232079   1.117   1.870   1.504 -0.4423 -0.0397 -0.2183
 6873SOL     OW32080   0.242   0.274   0.203 -0.3076  0.2570 -1.0143
 6873SOL    HW132081   0.196   0.306   0.281  0.4038 -2.2924  0.4522
 6873SOL    HW232082   0.171   0.297   0.144 -0.6594  1.6966 -0.0515
 6874SOL     OW32083   3.670   2.094  15.658  0.4393  0.3808  0.7332
 6874SOL    HW132084   3.669   2.037  15.735 -1.2914  1.6706  1.6546
 6874SOL    HW232085   3.719   2.169  15.692  3.5107 -0.9628 -0.7264
 6875SOL     OW32086   4.299   2.239  16.609 -0.7067 -0.3396 -0.1814
 6875SOL    HW132087   4.283   2.202  16.522 -0.2989  1.6751 -1.0953
 6875SOL    HW232088   4.241   2.197  16.673  1.2481  0.9566  2.4605
 6876SOL     OW32089   2.168   4.234  12.662  0.0519  0.3447 -0.2392
 6876SOL    HW132090   2.112   4.209  12.589 -0.5129 -0.3766  0.4397
 6876SOL    HW232091   2.154   4.328  12.669  2.3946  0.6303  0.6934
 6877SOL     OW32092   1.206   2.691   5.785 -0.3115  0.2270  0.3145
 6877SOL    HW132093   1.118   2.710   5.817  0.6580  2.5424  1.6273
 6877SOL    HW232094   1.264   2.696   5.861 -0.5208  0.6730  0.4455
 6878SOL     OW32095   4.375   0.653   5.983  0.3983 -0.5079  0.0876
 6878SOL    HW132096   4.299   0.683   6.034 -0.2498 -0.6679 -0.7788
 6878SOL    HW232097   4.380   0.561   6.009  0.2643 -0.7905 -0.8849
 6879SOL     OW32098   4.287   3.354   3.975 -0.0763 -0.7002 -0.1777
 6879SOL    HW132099   4.281   3.354   4.071  0.0209  2.1698 -0.1713
 6879SOL    HW232100   4.290   3.261   3.957 -1.5427 -0.7150 -0.3634
 6880SOL     OW32101   4.317   0.553  12.493  0.3448 -0.0934 -1.0394
 6880SOL    HW132102   4.327   0.458  12.486  1.9013 -0.0314  0.2280
 6880SOL    HW232103   4.244   0.574  12.435  1.7571  0.2528 -2.6906
 6881SOL     OW32104   3.772   2.916   2.460 -0.2431  0.4827  0.2036
 6881SOL    HW132105   3.831   2.882   2.392 -4.3218 -0.6396 -2.7414
 6881SOL    HW232106   3.704   2.855   2.431  0.9279 -0.8702  0.2872
 6882SOL     OW32107   2.682   4.353   9.321 -0.5689  0.0187  0.6421
 6882SOL    HW132108   2.664   4.291   9.250  1.0617  0.0837  0.1478
 6882SOL    HW232109   2.772   4.376   9.297 -1.0420  0.2197 -0.9856
 6883SOL     OW32110   3.138   0.074   5.701  0.8544  0.0097  0.1110
 6883SOL    HW132111   3.151   0.159   5.744  1.9883  1.5795 -3.3481
 6883SOL    HW232112   3.042   0.070   5.699  0.7417  1.8210  0.9714
 6884SOL     OW32113   1.732   4.157   5.601 -0.0949 -0.3129  0.1832
 6884SOL    HW132114   1.664   4.119   5.546 -0.1343  0.8587 -0.5608
 6884SOL    HW232115   1.746   4.084   5.662  1.5614 -1.5036 -1.5962
 6885SOL     OW32116   1.710   4.315   7.771 -0.0602  0.0716 -0.1259
 6885SOL    HW132117   1.632   4.259   7.763 -0.4962  0.6277  0.2364
 6885SOL    HW232118   1.780   4.251   7.761  1.0347  1.5456 -1.7045
 6886SOL     OW32119   4.700   0.817   3.456  0.2203  0.1307 -0.3427
 6886SOL    HW132120   0.003   0.750   3.395  2.3630  2.0961 -1.5446
 6886SOL    HW232121   0.047   0.880   3.443  0.7386 -0.3121  0.3011
 6887SOL     OW32122   3.957   4.232   6.670  0.7072 -0.0284  0.5147
 6887SOL    HW132123   3.890   4.269   6.614  0.0791  0.0990  1.3504
 6887SOL    HW232124   3.900   4.188   6.733 -1.1934  2.0947  0.2544
 6888SOL     OW32125   3.137   3.469   9.856  0.2120  0.1555 -0.0959
 6888SOL    HW132126   3.153   3.498   9.766 -0.7766 -0.4946 -0.4915
 6888SOL    HW232127   3.080   3.540   9.884 -0.0628  0.8400 -2.4052
 6889SOL     OW32128   1.425   2.344   4.083 -0.2768  0.1931  0.6118
 6889SOL    HW132129   1.487   2.273   4.097 -0.5642  0.0771  1.3098
 6889SOL    HW232130   1.349   2.309   4.129  0.5842 -3.1353 -0.5127
 6890SOL     OW32131   2.247   3.806   7.410 -0.3415 -0.1297  0.3048
 6890SOL    HW132132   2.286   3.773   7.492 -2.7490 -0.0798  1.4844
 6890SOL    HW232133   2.278   3.896   7.412 -0.3400 -0.1218 -0.0712
 6891SOL     OW32134   4.212   0.481  13.258  0.3030 -0.0776 -0.1338
 6891SOL    HW132135   4.170   0.553  13.306  0.9753 -0.9512  1.7687
 6891SOL    HW232136   4.190   0.409  13.316  2.4335 -0.1741  0.5815
 6892SOL     OW32137   1.199   1.352   8.689 -0.2850  0.0164  0.4805
 6892SOL    HW132138   1.125   1.411   8.699  1.1722  1.9233  0.0501
 6892SOL    HW232139   1.243   1.389   8.612  0.7124 -1.6964  0.2084
 6893SOL     OW32140   1.384   1.129   5.380  0.4462 -0.2230 -0.4146
 6893SOL    HW132141   1.299   1.172   5.387  0.5913  0.0622 -0.4410
 6893SOL    HW232142   1.411   1.147   5.290  0.1972  1.2350 -0.1911
 6894SOL     OW32143   0.249   1.314   3.939 -0.0485  0.3243 -0.3311
 6894SOL    HW132144   0.222   1.385   3.881  1.2878  0.3197 -0.9534
 6894SOL    HW232145   0.217   1.239   3.888  0.3687 -0.6909  0.8891
 6895SOL     OW32146   3.230   3.458   5.332 -0.1263  0.1701 -0.3205
 6895SOL    HW132147   3.152   3.407   5.351  0.5373 -0.4276  0.8176
 6895SOL    HW232148   3.275   3.456   5.417 -1.4265 -0.3398  0.3490
 6896SOL     OW32149   1.439   2.396   3.518 -0.0309 -0.1287  0.3505
 6896SOL    HW132150   1.417   2.360   3.433  0.5264 -0.8672  0.5246
 6896SOL    HW232151   1.365   2.456   3.525 -0.4835 -0.4873 -1.4866
 6897SOL     OW32152   0.653   3.666  17.579 -0.6268  0.6810 -0.5459
 6897SOL    HW132153   0.702   3.592  17.543  0.6622  1.6128 -0.6953
 6897SOL    HW232154   0.562   3.656  17.548 -1.2210 -0.3164  1.5658
 6898SOL     OW32155   1.574   0.644   7.675 -0.5114  0.3327 -0.6305
 6898SOL    HW132156   1.533   0.657   7.589 -1.5280 -0.3055 -0.2340
 6898SOL    HW232157   1.652   0.594   7.647  0.4695  1.3700  0.2664
 6899SOL     OW32158   3.715   2.094   2.293 -0.4070 -0.2295 -0.5597
 6899SOL    HW132159   3.642   2.037   2.273 -0.5987 -0.4690  0.8415
 6899SOL    HW232160   3.694   2.164   2.231 -1.6173 -0.9804 -0.9866
 6900SOL     OW32161   2.890   1.711   8.027  0.4128  0.2381 -0.3059
 6900SOL    HW132162   2.837   1.778   8.071  1.8770  0.3520  1.2933
 6900SOL    HW232163   2.937   1.680   8.105 -2.2169 -1.8673  0.4557
 6901SOL     OW32164   0.909   3.813   4.600 -0.4305 -0.3902 -0.0593
 6901SOL    HW132165   0.962   3.839   4.525  0.2749 -1.0991  0.2012
 6901SOL    HW232166   0.852   3.752   4.553 -2.0153  0.2352  1.0577
 6902SOL     OW32167   4.370   1.874   8.499  0.6634  0.6544  0.0944
 6902SOL    HW132168   4.295   1.931   8.518 -0.2596 -0.6783  0.4046
 6902SOL    HW232169   4.325   1.794   8.472  0.8047  0.1411  1.3897
 6903SOL     OW32170   4.232   4.452   6.043  0.5118  0.4254  0.1066
 6903SOL    HW132171   4.323   4.444   6.014  0.7355  0.1863  0.8672
 6903SOL    HW232172   4.212   4.364   6.072 -0.4990  0.2578 -1.1151
 6904SOL     OW32173   0.928   0.574   1.635  0.1380 -0.0665 -0.1289
 6904SOL    HW132174   0.980   0.551   1.558 -0.1657  0.6265 -0.5482
 6904SOL    HW232175   0.850   0.615   1.597  0.6992 -0.7537 -2.0266
 6905SOL     OW32176   2.603   1.315  16.972  0.0441  0.1012  0.4000
 6905SOL    HW132177   2.523   1.332  17.021  0.1278  1.8610 -0.0654
 6905SOL    HW232178   2.666   1.364  17.024  0.3901  1.8098 -1.6145
 6906SOL     OW32179   3.793   1.189   3.646 -0.0742 -0.2717  0.1390
 6906SOL    HW132180   3.844   1.127   3.594  0.9896 -0.9599  1.9819
 6906SOL    HW232181   3.711   1.189   3.596 -1.0254 -2.0121  1.6706
 6907SOL     OW32182   0.401   4.713  17.470 -0.2357  0.1083  0.0537
 6907SOL    HW132183   0.491   4.683  17.455  0.5076  2.5308 -0.3445
 6907SOL    HW232184   0.388   0.059  17.407  0.9745  0.6869  0.4505
 6908SOL     OW32185   4.645   0.616   7.369 -0.7289  0.0948  0.3075
 6908SOL    HW132186   4.586   0.575   7.431 -1.2874  0.2037 -0.1570
 6908SOL    HW232187   4.695   0.673   7.429  1.2651 -0.1412 -1.1178
 6909SOL     OW32188   2.219   2.711   3.947 -0.4369  0.0370 -0.4522
 6909SOL    HW132189   2.135   2.712   3.901 -0.0419  0.7945 -1.1508
 6909SOL    HW232190   2.274   2.718   3.870 -0.6843 -2.9620 -0.8897
 6910SOL     OW32191   2.876   0.609   4.088  0.1942 -0.5763 -0.1029
 6910SOL    HW132192   2.886   0.608   3.993  2.2826  3.0807  0.0755
 6910SOL    HW232193   2.964   0.582   4.113  0.4516  0.3696 -0.0113
 6911SOL     OW32194   2.512   3.694  14.683 -0.1236 -0.4052 -0.0907
 6911SOL    HW132195   2.541   3.780  14.714 -0.1595 -1.0933  1.8513
 6911SOL    HW232196   2.430   3.698  14.732  0.4650  2.6781  0.6548
 6912SOL     OW32197   0.847   2.841   8.053  0.4820 -0.4340  0.4686
 6912SOL    HW132198   0.838   2.813   7.962  2.0814  2.3830 -0.5567
 6912SOL    HW232199   0.797   2.773   8.098 -0.7299  0.8263  1.0187
 6913SOL     OW32200   0.401   2.279   0.714 -0.1491 -0.3912  0.1371
 6913SOL    HW132201   0.435   2.356   0.759  0.0781 -0.7705  0.6154
 6913SOL    HW232202   0.360   2.229   0.785  0.2817 -1.0547 -0.0775
 6914SOL     OW32203   2.067   1.326   9.243  0.2334 -0.0479 -0.2848
 6914SOL    HW132204   1.980   1.325   9.283 -0.3332  2.5407 -1.3869
 6914SOL    HW232205   2.061   1.273   9.163 -1.3811 -1.6161  0.8958
 6915SOL     OW32206   4.083   2.751  12.805  0.3414  0.0061  0.3106
 6915SOL    HW132207   4.051   2.803  12.878  0.3403 -2.7003  2.2186
 6915SOL    HW232208   3.998   2.719  12.774  0.0680  1.0901 -0.0599
 6916SOL     OW32209   2.333   4.126   3.693 -0.0707 -0.2594  0.2935
 6916SOL    HW132210   2.311   4.137   3.785  1.0621  1.2685  0.3873
 6916SOL    HW232211   2.301   4.205   3.651 -0.6886 -0.8540 -0.3583
 6917SOL     OW32212   3.894   2.995   5.132  0.8951 -0.2854  0.4998
 6917SOL    HW132213   3.907   2.901   5.122 -1.8395 -0.8399  2.0069
 6917SOL    HW232214   3.825   2.998   5.199  0.7098  2.7180  0.1590
 6918SOL     OW32215   3.810   1.199   9.791 -0.7025  0.7993  0.1297
 6918SOL    HW132216   3.830   1.147   9.714 -0.5619  0.5479  0.3364
 6918SOL    HW232217   3.782   1.276   9.741  2.6834  3.1666  1.8357
 6919SOL     OW32218   3.482   2.738   4.105  0.5495 -0.1481  0.1499
 6919SOL    HW132219   3.484   2.650   4.069  0.3426  0.7232 -1.9900
 6919SOL    HW232220   3.400   2.766   4.064  0.4775  1.9070  1.6903
 6920SOL     OW32221   1.003   3.506   3.888 -0.7012 -0.0866 -0.4485
 6920SOL    HW132222   0.967   3.580   3.938 -0.6639  0.0270 -0.5922
 6920SOL    HW232223   1.006   3.553   3.805 -0.1446 -0.8678 -0.8663
 6921SOL     OW32224   0.423   4.590   4.853 -0.4744 -0.6389 -0.3531
 6921SOL    HW132225   0.428   4.655   4.783 -0.8093 -0.3942 -0.1528
 6921SOL    HW232226   0.514   4.599   4.881 -0.8360 -1.6733  1.1349
 6922SOL     OW32227   0.918   0.366   3.140  0.4269  0.8675 -0.9779
 6922SOL    HW132228   0.969   0.330   3.213 -2.0020  0.5482  0.6028
 6922SOL    HW232229   0.906   0.457   3.168  0.1292  0.0874  1.4633
 6923SOL     OW32230   2.388   2.219  10.950  0.1305  0.1206  0.0810
 6923SOL    HW132231   2.293   2.226  10.937  0.3384  1.7740 -0.5681
 6923SOL    HW232232   2.389   2.159  11.023  0.6591 -0.5574 -0.4875
 6924SOL     OW32233   0.630   4.104  11.795 -0.3863  0.3331  0.0370
 6924SOL    HW132234   0.636   4.160  11.717  1.4508 -0.0116 -0.0779
 6924SOL    HW232235   0.706   4.126  11.849 -0.3519  0.9301 -0.2497
 6925SOL     OW32236   4.572   3.059   5.966 -0.6944  0.3451  0.2998
 6925SOL    HW132237   4.548   3.151   5.974 -0.2697  0.3768  1.1937
 6925SOL    HW232238   4.533   3.022   6.046  0.4900 -1.9309 -0.1827
 6926SOL     OW32239   1.497   0.858   8.592 -0.0351 -0.4112  0.2093
 6926SOL    HW132240   1.439   0.841   8.517 -0.7807 -3.3877  1.4496
 6926SOL    HW232241   1.479   0.950   8.608  0.5401 -0.1527 -0.5970
 6927SOL     OW32242   3.231   2.526   8.058 -0.6022  0.4482 -0.0304
 6927SOL    HW132243   3.154   2.484   8.020 -1.0703  0.6012  0.7326
 6927SOL    HW232244   3.265   2.566   7.978 -0.3331  1.1874  0.4467
 6928SOL     OW32245   4.312   1.151   4.659  0.1097  0.6775  0.1139
 6928SOL    HW132246   4.231   1.201   4.654  0.0792  0.4494 -1.5064
 6928SOL    HW232247   4.277   1.063   4.642 -0.4042  0.3980  2.6302
 6929SOL     OW32248   0.919   0.554   5.830  0.3351 -0.2733 -0.1130
 6929SOL    HW132249   0.838   0.564   5.781  1.0393  1.5224 -0.9043
 6929SOL    HW232250   0.970   0.628   5.797 -2.2576  2.4872  2.1354
 6930SOL     OW32251   2.095   0.901   3.911  0.2437  0.1060 -0.0877
 6930SOL    HW132252   2.043   0.970   3.953  0.3291  1.7216 -2.6310
 6930SOL    HW232253   2.184   0.925   3.937  0.9532 -0.2528 -2.2134
 6931SOL     OW32254   4.095   3.753  14.122 -0.5109 -0.0021  0.5756
 6931SOL    HW132255   4.158   3.754  14.195  1.5030 -1.1570 -1.1569
 6931SOL    HW232256   4.008   3.758  14.162 -1.3514 -3.5024 -0.8235
 6932SOL     OW32257   1.373   2.289   9.468 -0.0944 -0.1480  0.0211
 6932SOL    HW132258   1.448   2.343   9.494  0.2719 -1.2641  1.2190
 6932SOL    HW232259   1.316   2.305   9.543 -2.3529  0.8002 -1.8927
 6933SOL     OW32260   0.277   2.560   8.391  0.2433 -0.3735  0.4802
 6933SOL    HW132261   0.228   2.478   8.394  1.3391 -0.9940  1.3166
 6933SOL    HW232262   0.208   2.603   8.442  0.8754  1.3355 -0.1168
 6934SOL     OW32263   2.120   2.847   8.696 -0.3921 -0.2818 -0.3487
 6934SOL    HW132264   2.145   2.776   8.756  1.4944  1.1788  0.5875
 6934SOL    HW232265   2.048   2.880   8.748  1.1711  0.7153  1.1751
 6935SOL     OW32266   1.598   0.692   3.151 -0.0675 -0.0593 -0.0518
 6935SOL    HW132267   1.556   0.663   3.070  1.3998  0.3078 -0.9584
 6935SOL    HW232268   1.557   0.778   3.155 -0.7901 -0.3674 -0.7671
 6936SOL     OW32269   3.237   1.616   7.484  0.3488 -0.0810 -0.3392
 6936SOL    HW132270   3.211   1.567   7.406 -1.1440 -1.5348  1.0715
 6936SOL    HW232271   3.166   1.597   7.546 -0.1905 -0.1698 -0.9853
 6937SOL     OW32272   2.147   3.937  11.026  0.4012 -0.2384  0.4545
 6937SOL    HW132273   2.116   3.977  10.945 -0.1964 -0.8444  0.3838
 6937SOL    HW232274   2.171   4.013  11.078  1.5769  0.5423 -1.2074
 6938SOL     OW32275   3.225   0.117   3.807 -0.9245  0.0949 -0.9944
 6938SOL    HW132276   3.139   0.083   3.832 -0.8151 -0.2029 -1.0166
 6938SOL    HW232277   3.200   0.189   3.749 -0.1115  0.1533 -1.2726
 6939SOL     OW32278   0.978   4.341  13.987 -0.2540  0.0046  0.0621
 6939SOL    HW132279   0.965   4.436  13.997 -0.2482  0.0325 -0.2018
 6939SOL    HW232280   1.033   4.344  13.909 -0.5798  3.4487 -0.0371
 6940SOL     OW32281   4.148   0.396   5.108  0.4015  0.0378  0.3619
 6940SOL    HW132282   4.206   0.436   5.042 -0.1101 -1.4181 -0.9566
 6940SOL    HW232283   4.201   0.395   5.188 -0.6555 -0.4688  1.0544
 6941SOL     OW32284   0.373   3.961  13.837 -0.0770 -0.2246 -0.2391
 6941SOL    HW132285   0.437   3.959  13.909 -0.2628 -1.3897 -0.0985
 6941SOL    HW232286   0.406   4.021  13.771 -1.7855 -0.0842 -0.9604
 6942SOL     OW32287   2.470   3.309   5.782 -0.3295  0.2127 -0.3537
 6942SOL    HW132288   2.473   3.404   5.777 -0.5453  0.1179 -2.0793
 6942SOL    HW232289   2.428   3.287   5.700 -1.1655  0.7629 -0.0709
 6943SOL     OW32290   4.090   3.492   1.022 -0.6673  0.2008 -0.1592
 6943SOL    HW132291   4.096   3.484   0.927 -0.3622  1.3856 -0.2327
 6943SOL    HW232292   3.997   3.491   1.042 -0.1089  2.9263  2.4257
 6944SOL     OW32293   0.046   3.001   9.659  0.1035  0.3554 -0.4152
 6944SOL    HW132294   0.101   3.079   9.666 -1.0048  1.1169 -0.1649
 6944SOL    HW232295   4.682   3.038   9.667  0.7916  1.5869  1.6710
 6945SOL     OW32296   0.812   0.608   3.470  0.4103  0.1411  0.4188
 6945SOL    HW132297   0.893   0.561   3.451  0.7919  0.4408  1.2605
 6945SOL    HW232298   0.840   0.699   3.476 -0.6190  0.3693  1.8191
 6946SOL     OW32299   2.884   3.852  10.320 -0.6745  0.6446 -0.4595
 6946SOL    HW132300   2.874   3.911  10.245 -0.6950 -0.1612 -1.0984
 6946SOL    HW232301   2.886   3.767  10.275  2.4116 -0.0218  0.9092
 6947SOL     OW32302   1.029   4.147   8.142  0.1703 -0.0848  0.1988
 6947SOL    HW132303   0.937   4.140   8.119  0.1008 -0.3821  0.5674
 6947SOL    HW232304   1.074   4.174   8.062  1.5651 -1.1128  0.6226
 6948SOL     OW32305   2.640   4.535  17.257 -0.4400 -0.2217 -0.0155
 6948SOL    HW132306   2.609   4.514  17.345 -0.4513 -1.0281 -0.2080
 6948SOL    HW232307   2.632   4.630  17.249 -3.5041 -0.3047  2.1264
 6949SOL     OW32308   2.455   1.262   8.378 -0.6448  0.0475 -0.1874
 6949SOL    HW132309   2.466   1.220   8.293 -1.3944 -1.0498  0.2612
 6949SOL    HW232310   2.501   1.345   8.364 -0.4327  0.1189  0.8754
 6950SOL     OW32311   3.997   3.321  10.104 -0.7892  0.1255 -0.3887
 6950SOL    HW132312   3.978   3.272  10.024  0.8081  2.1703 -2.0296
 6950SOL    HW232313   3.907   3.342  10.130 -0.4656  3.2176 -1.7895
 6951SOL     OW32314   1.267   2.107  11.826  0.0585  0.3036 -0.3435
 6951SOL    HW132315   1.268   2.012  11.835 -1.2253  0.4481  1.3845
 6951SOL    HW232316   1.266   2.143  11.915  0.0302 -0.9322  0.1577
 6952SOL     OW32317   2.044   2.229  14.944 -0.7673 -0.0958 -0.2423
 6952SOL    HW132318   2.046   2.271  14.858  0.7870 -0.4183 -0.3645
 6952SOL    HW232319   2.028   2.304  15.001 -2.0900  0.2876 -1.1187
 6953SOL     OW32320   3.193   1.355   8.371  0.4438 -0.2258  0.0912
 6953SOL    HW132321   3.138   1.307   8.309  0.0854  0.5872 -0.2334
 6953SOL    HW232322   3.275   1.327   8.330  0.5061 -2.9424  2.1700
 6954SOL     OW32323   2.627   2.895   1.585 -0.2860  0.1766 -0.6221
 6954SOL    HW132324   2.534   2.919   1.590 -0.0447  1.1911 -1.0022
 6954SOL    HW232325   2.629   2.816   1.530  0.2737 -0.2701  0.0394
 6955SOL     OW32326   0.750   2.385  11.426  0.6243 -0.0576  0.3697
 6955SOL    HW132327   0.695   2.438  11.484  0.0265 -2.0602  1.6318
 6955SOL    HW232328   0.784   2.315  11.482  0.6694 -1.1712 -1.0393
 6956SOL     OW32329   3.611   2.749   6.366  0.1275 -0.0505 -0.1539
 6956SOL    HW132330   3.622   2.724   6.458 -0.9805  2.1967  0.6011
 6956SOL    HW232331   3.517   2.732   6.363  0.5435 -2.3677  0.0130
 6957SOL     OW32332   3.127   3.238   3.935 -0.5857 -0.1784 -0.0702
 6957SOL    HW132333   3.038   3.271   3.930 -1.2157 -1.8147  0.4601
 6957SOL    HW232334   3.118   3.162   3.877 -0.9129  0.1792 -0.4926
 6958SOL     OW32335   3.375   0.784   3.898 -0.1400 -0.2083 -0.1085
 6958SOL    HW132336   3.446   0.720   3.894 -0.3528 -0.4304 -0.3516
 6958SOL    HW232337   3.407   0.868   3.867 -1.0573 -0.9485 -3.0765
 6959SOL     OW32338   4.707   4.031  14.495  0.3071  0.2809 -0.6782
 6959SOL    HW132339   4.697   4.123  14.470  2.4073 -0.3418 -3.8195
 6959SOL    HW232340   0.034   4.024  14.575 -1.4224 -0.7320  0.3334
 6960SOL     OW32341   1.001   3.341  10.393  0.3846  0.8945 -0.3175
 6960SOL    HW132342   0.923   3.342  10.449  1.2692 -1.0143  0.9546
 6960SOL    HW232343   0.957   3.341  10.308 -1.7523  0.1327  0.7645
 6961SOL     OW32344   3.270   3.256   4.436  0.5055  0.1329 -0.3919
 6961SOL    HW132345   3.286   3.287   4.346  1.7955  0.2317 -0.1280
 6961SOL    HW232346   3.191   3.209   4.410 -0.6864  0.9976  1.6722
 6962SOL     OW32347   2.150   1.221   4.356  0.0688  0.2484 -0.1502
 6962SOL    HW132348   2.215   1.200   4.289 -0.9213 -0.1407 -0.9746
 6962SOL    HW232349   2.209   1.241   4.429  0.3212  2.4866 -0.9632
 6963SOL     OW32350   1.554   3.404  16.276  0.0208  0.3728  0.1932
 6963SOL    HW132351   1.512   3.321  16.301 -0.0301  0.1893 -0.5074
 6963SOL    HW232352   1.488   3.455  16.323 -0.7650  0.5596 -1.1035
 6964SOL     OW32353   3.818   1.833  10.561 -0.0587 -0.1773  0.2499
 6964SOL    HW132354   3.887   1.885  10.522  0.8803 -3.6695 -2.6875
 6964SOL    HW232355   3.866   1.815  10.642 -2.9777 -4.4156  1.0081
 6965SOL     OW32356   4.500   3.593   5.625 -0.6437 -0.2703 -0.4138
 6965SOL    HW132357   4.582   3.629   5.657 -0.9034  0.7630 -0.9005
 6965SOL    HW232358   4.439   3.637   5.685  0.9505  0.0203  0.9674
 6966SOL     OW32359   2.938   1.044  17.224  0.3396  0.4731 -0.9022
 6966SOL    HW132360   3.027   1.034  17.190 -0.0854 -0.0824 -1.8667
 6966SOL    HW232361   2.951   0.988  17.300 -0.3678  1.0221 -0.3720
 6967SOL     OW32362   1.758   3.149   8.863  0.6133 -0.3330  0.5876
 6967SOL    HW132363   1.731   3.184   8.947 -2.5117  0.5677 -0.7679
 6967SOL    HW232364   1.695   3.172   8.794  0.5506  2.0390  1.4709
 6968SOL     OW32365   1.209   0.891   9.722  0.0630 -0.6221  0.2218
 6968SOL    HW132366   1.158   0.953   9.773  0.8063 -0.4467  0.7623
 6968SOL    HW232367   1.187   0.909   9.631 -2.6207  0.3079  1.0656
 6969SOL     OW32368   2.374   1.648   7.574  0.4607  0.2606  0.1928
 6969SOL    HW132369   2.448   1.707   7.587 -0.1127  1.0476 -0.0703
 6969SOL    HW232370   2.386   1.621   7.483 -0.4400  1.3594 -0.2561
 6970SOL     OW32371   3.685   0.389  12.829 -0.7250  0.7722  0.2306
 6970SOL    HW132372   3.605   0.362  12.875 -0.7853  0.2240 -0.1949
 6970SOL    HW232373   3.692   0.310  12.776 -2.6421  0.7826 -0.0561
 6971SOL     OW32374   1.717   3.383   5.802  0.1503 -0.6178  0.2063
 6971SOL    HW132375   1.629   3.418   5.786 -0.6204 -2.7635 -0.1677
 6971SOL    HW232376   1.721   3.383   5.898  0.9072  1.8319  0.1699
 6972SOL     OW32377   4.354   3.710   5.817 -0.5872  0.6338  0.2340
 6972SOL    HW132378   4.268   3.692   5.855 -1.2606 -0.2935 -1.6911
 6972SOL    HW232379   4.388   3.774   5.880 -1.8283  1.7207 -0.1924
 6973SOL     OW32380   4.330   3.672   1.383  0.3921  0.2470  0.1708
 6973SOL    HW132381   4.361   3.666   1.292 -1.8242 -2.3647 -0.4342
 6973SOL    HW232382   4.235   3.678   1.368  0.0963 -2.1658  1.1217
 6974SOL     OW32383   4.278   4.598   3.069  0.4478  0.1892 -0.3589
 6974SOL    HW132384   4.244   4.676   3.113 -0.2375  1.1996 -2.6951
 6974SOL    HW232385   4.197   4.549   3.057  2.3720 -3.0954  0.1726
 6975SOL     OW32386   3.047   2.367   7.898 -0.5303 -0.1168  0.0136
 6975SOL    HW132387   2.978   2.304   7.875 -0.8415 -0.2309  1.2260
 6975SOL    HW232388   3.115   2.336   7.839 -1.0010  2.4368 -1.8410
 6976SOL     OW32389   4.689   3.851   1.603 -0.1132 -0.3088 -0.2140
 6976SOL    HW132390   0.038   3.789   1.602  0.4219  0.3225  0.5492
 6976SOL    HW232391   4.700   3.887   1.515 -0.2445 -1.9910 -0.9380
 6977SOL     OW32392   1.992   2.236   7.712  0.7255 -0.9873 -0.2029
 6977SOL    HW132393   1.899   2.217   7.724  0.4955  0.4132  0.3043
 6977SOL    HW232394   2.024   2.186   7.637  0.3546 -0.9800 -0.3676
 6978SOL     OW32395   0.421   0.419  17.041 -0.1576 -0.0279 -0.6331
 6978SOL    HW132396   0.435   0.506  17.003 -2.3225 -0.1212 -1.6081
 6978SOL    HW232397   0.328   0.402  17.055 -0.2029  0.3084 -0.5093
 6979SOL     OW32398   4.608   1.142   4.465  0.1029 -0.0497  0.2232
 6979SOL    HW132399   4.565   1.058   4.449 -0.5938  0.7143 -1.8220
 6979SOL    HW232400   4.700   1.117   4.462 -0.8998 -3.5462 -1.3310
 6980SOL     OW32401   1.098   1.100   5.018  0.0970 -0.2958  0.3680
 6980SOL    HW132402   1.004   1.114   5.016  0.0507 -0.6617 -0.0252
 6980SOL    HW232403   1.099   1.026   5.080 -1.3236  0.2110  0.9870
 6981SOL     OW32404   1.134   3.302   2.801  0.0175 -0.1346 -0.2452
 6981SOL    HW132405   1.225   3.299   2.771 -0.9759 -2.4692 -2.9578
 6981SOL    HW232406   1.118   3.208   2.806 -1.4768  0.0305 -1.9965
 6982SOL     OW32407   4.489   3.940   2.715  0.0990  0.1178 -0.2426
 6982SOL    HW132408   4.481   4.033   2.735  1.4241 -0.0422  1.0411
 6982SOL    HW232409   4.510   3.896   2.798 -0.5641 -0.3293 -0.3061
 6983SOL     OW32410   1.662   2.541  12.494  0.4991  0.2053  0.1974
 6983SOL    HW132411   1.718   2.474  12.533 -0.2640 -0.5960 -0.1005
 6983SOL    HW232412   1.594   2.494  12.446  1.2348  1.3263 -1.9073
 6984SOL     OW32413   2.096   0.701   3.125 -0.2730 -0.3866  0.2395
 6984SOL    HW132414   2.014   0.749   3.114 -0.3090 -1.0286 -2.3134
 6984SOL    HW232415   2.119   0.717   3.217  0.3401  1.3475 -0.2169
 6985SOL     OW32416   3.717   2.513  10.279  0.6288  0.1919  0.3475
 6985SOL    HW132417   3.669   2.434  10.305 -3.2523  2.0056 -1.3626
 6985SOL    HW232418   3.649   2.531  10.213  0.3434  1.6272  1.0395
 6986SOL     OW32419   0.716   3.871   6.621 -0.2854  0.1253  0.3149
 6986SOL    HW132420   0.664   3.950   6.635 -1.1122 -0.8420  2.5010
 6986SOL    HW232421   0.729   3.886   6.527  0.8743  3.4867  0.9960
 6987SOL     OW32422   1.138   3.126   1.452  0.3787 -0.7561  0.0558
 6987SOL    HW132423   1.048   3.124   1.485  0.5023  0.3798  0.4445
 6987SOL    HW232424   1.124   3.163   1.365 -0.1556  1.5044  1.1108
 6988SOL     OW32425   1.633   2.791   4.080  0.1568  0.2996  0.5889
 6988SOL    HW132426   1.720   2.827   4.097  0.0512  1.4761 -1.3612
 6988SOL    HW232427   1.626   2.817   3.989 -2.0512  0.7655  0.8951
 6989SOL     OW32428   3.381   1.187   9.188  0.0730 -0.5016  0.1424
 6989SOL    HW132429   3.427   1.249   9.132 -1.4410  0.3109 -0.1985
 6989SOL    HW232430   3.304   1.166   9.134  0.9995 -0.4047 -1.2307
 6990SOL     OW32431   3.566   0.304   9.391  0.8019  0.0640  0.7296
 6990SOL    HW132432   3.565   0.208   9.399 -0.1214  0.0287  0.1922
 6990SOL    HW232433   3.588   0.333   9.480 -1.4918 -1.3832  1.7834
 6991SOL     OW32434   1.458   4.413   3.259  0.3164  0.2131  0.3340
 6991SOL    HW132435   1.378   4.452   3.294  0.0518  1.1543 -1.3423
 6991SOL    HW232436   1.441   4.424   3.166 -0.3976 -2.4283  0.1597
 6992SOL     OW32437   1.827   4.446   5.129  0.0087  0.5015 -0.1660
 6992SOL    HW132438   1.835   4.435   5.034 -0.3813 -2.4105  0.1371
 6992SOL    HW232439   1.764   4.374   5.137 -1.3856  1.6510 -0.8943
 6993SOL     OW32440   3.238   0.764   6.294  0.0116  0.9873 -0.3128
 6993SOL    HW132441   3.332   0.748   6.285 -0.3713 -0.9548 -0.9498
 6993SOL    HW232442   3.237   0.833   6.360 -1.5947 -1.0640  1.8326
 6994SOL     OW32443   2.215   0.185   2.727  0.7859  0.4377 -0.2402
 6994SOL    HW132444   2.152   0.224   2.666 -0.3891  1.3481  1.5404
 6994SOL    HW232445   2.233   0.101   2.685  0.7321  1.4630 -2.3027
 6995SOL     OW32446   0.118   1.904  14.484  0.1895 -0.3909 -0.0029
 6995SOL    HW132447   0.125   1.842  14.556 -0.7977  0.2507  0.6427
 6995SOL    HW232448   0.206   1.941  14.474  0.4103 -0.4221  1.9742
 6996SOL     OW32449   2.207   1.467   6.517  0.1468 -0.2967 -0.7610
 6996SOL    HW132450   2.138   1.418   6.562 -0.4042 -0.7542 -2.1085
 6996SOL    HW232451   2.191   1.560   6.530 -1.9460 -0.5945 -1.2390
 6997SOL     OW32452   0.630   4.283   7.550 -0.0085  0.5562  0.6711
 6997SOL    HW132453   0.638   4.333   7.631  0.8960  1.2639  0.1450
 6997SOL    HW232454   0.563   4.218   7.572  1.5069  0.0373  3.7612
 6998SOL     OW32455   0.984   0.924   3.078  0.0136 -0.0040  0.1381
 6998SOL    HW132456   0.911   0.985   3.068 -1.4045 -1.5325  1.2824
 6998SOL    HW232457   0.961   0.864   3.149  0.0097  1.1674  1.1312
 6999SOL     OW32458   0.643   3.714  16.754  0.1104  0.4008  0.3286
 6999SOL    HW132459   0.673   3.638  16.805 -1.7983 -1.6190 -1.5411
 6999SOL    HW232460   0.565   3.728  16.807 -0.5844 -2.4750  0.0400
 7000SOL     OW32461   0.892   3.985   7.852  0.0597 -0.2204  0.5081
 7000SOL    HW132462   0.838   4.032   7.916 -0.0809 -0.5167  0.6085
 7000SOL    HW232463   0.823   3.928   7.819  0.9641 -0.8051 -0.3674
 7001SOL     OW32464   4.601   0.463   8.783  0.1560 -0.3732 -0.8735
 7001SOL    HW132465   4.639   0.455   8.870 -1.9079  0.2016  0.0878
 7001SOL    HW232466   4.512   0.497   8.794  0.5600  0.1478  0.7390
 7002SOL     OW32467   3.407   0.340  13.848  0.6142 -0.4752  0.1343
 7002SOL    HW132468   3.415   0.332  13.753 -1.7763 -0.6025 -0.0441
 7002SOL    HW232469   3.343   0.274  13.875  1.3589 -0.8656  0.9677
 7003SOL     OW32470   4.690   2.806  12.241  0.4544 -0.5636  0.3888
 7003SOL    HW132471   0.031   2.772  12.180  1.6528  1.1592  0.7234
 7003SOL    HW232472   0.007   2.887  12.270 -1.5869 -0.0184  1.7915
 7004SOL     OW32473   2.472   0.150   7.224 -0.0807 -0.2143  0.5502
 7004SOL    HW132474   2.475   0.233   7.176  0.6370  0.3186  1.5144
 7004SOL    HW232475   2.423   0.172   7.303  0.0793  0.1681  0.5420
 7005SOL     OW32476   1.924   2.991  11.269 -0.8670  0.8199 -0.3246
 7005SOL    HW132477   1.883   3.072  11.301 -0.4349  0.0328  2.2469
 7005SOL    HW232478   2.009   2.992  11.314  0.8463 -3.8172 -3.4444
 7006SOL     OW32479   0.866   4.622  14.709 -0.1161  0.2605  0.1058
 7006SOL    HW132480   0.877   4.673  14.628 -2.2885 -1.0521 -1.0060
 7006SOL    HW232481   0.873   4.692  14.775  0.3512  0.9439 -0.6649
 7007SOL     OW32482   1.965   4.433   7.759  0.1034  0.8138 -0.3076
 7007SOL    HW132483   1.965   4.417   7.853  1.5912  1.6584 -0.1688
 7007SOL    HW232484   1.877   4.396   7.755  0.2023  0.4935  0.5065
 7008SOL     OW32485   1.774   4.022   2.921  0.1977  0.1275 -0.2983
 7008SOL    HW132486   1.690   4.065   2.904  0.4222  0.2830 -1.0010
 7008SOL    HW232487   1.819   4.015   2.837  0.7390  1.2992 -0.1116
 7009SOL     OW32488   3.224   4.567   6.091  0.1755 -0.2446  0.7040
 7009SOL    HW132489   3.239   4.661   6.100  0.2306 -0.1532 -0.3357
 7009SOL    HW232490   3.242   4.554   5.998  0.1754  0.6219  0.5749
 7010SOL     OW32491   0.075   4.588   6.423 -0.3701  0.2627  0.1408
 7010SOL    HW132492   0.008   4.531   6.384  0.5578 -1.3692  0.9262
 7010SOL    HW232493   0.065   4.553   6.512 -0.7002  0.3925  0.1540
 7011SOL     OW32494   1.838   1.646   7.224  0.6642 -0.1240 -0.1234
 7011SOL    HW132495   1.828   1.741   7.218 -0.7277 -0.1598  1.6275
 7011SOL    HW232496   1.933   1.640   7.235  0.9654 -0.6639 -3.0126
 7012SOL     OW32497   2.118   2.116   2.954  0.3905  0.4879 -0.0857
 7012SOL    HW132498   2.035   2.157   2.931 -1.1931 -1.1159  2.7063
 7012SOL    HW232499   2.102   2.027   2.922  0.8303 -1.4294  5.0634
 7013SOL     OW32500   3.007   3.100   5.248  0.1951 -0.0333 -0.1897
 7013SOL    HW132501   3.004   3.009   5.221  2.1952  0.0263 -0.6364
 7013SOL    HW232502   3.102   3.109   5.251 -0.0034  2.4069 -1.0777
 7014SOL     OW32503   2.606   0.735   6.364  0.2337 -0.1206 -0.4123
 7014SOL    HW132504   2.626   0.757   6.455  0.8840  0.5953 -0.7232
 7014SOL    HW232505   2.608   0.823   6.325 -0.0144 -0.8306 -2.0065
 7015SOL     OW32506   0.935   0.655   9.077 -0.6222  0.0690 -0.0959
 7015SOL    HW132507   0.978   0.589   9.130 -1.1032  1.6027  2.2021
 7015SOL    HW232508   0.847   0.617   9.073  0.6356 -2.6889 -0.9752
 7016SOL     OW32509   1.249   3.531   6.272 -0.1166  0.3650  0.3333
 7016SOL    HW132510   1.287   3.548   6.185  1.0533 -1.3952  0.5053
 7016SOL    HW232511   1.163   3.570   6.261  0.0790  0.4389 -1.0398
 7017SOL     OW32512   0.107   0.902  10.297 -0.2215 -0.6290  0.0563
 7017SOL    HW132513   0.078   0.965  10.363 -1.0501 -1.1509  0.1925
 7017SOL    HW232514   0.197   0.892  10.327  0.1912  0.9116 -0.6805
 7018SOL     OW32515   4.220   1.017  15.744  0.0927 -0.2511 -0.5286
 7018SOL    HW132516   4.183   0.931  15.760 -0.0666  0.2944  1.9707
 7018SOL    HW232517   4.259   0.999  15.658  0.2556 -2.3394 -0.0122
 7019SOL     OW32518   1.849   0.556   1.987 -0.6437 -0.4574  0.6064
 7019SOL    HW132519   1.857   0.624   1.919  1.1945  0.3180  1.6046
 7019SOL    HW232520   1.789   0.599   2.047 -2.3058  0.0215 -1.3882
 7020SOL     OW32521   2.683   3.919  11.205  0.2291 -0.3824 -0.2947
 7020SOL    HW132522   2.710   3.885  11.290  1.7686  0.8251 -0.2973
 7020SOL    HW232523   2.623   3.849  11.180  0.0829 -0.0088 -0.9953
 7021SOL     OW32524   1.239   3.682   6.607 -0.4757 -0.1508 -0.1562
 7021SOL    HW132525   1.333   3.670   6.598 -0.5142  0.0317 -0.8076
 7021SOL    HW232526   1.228   3.703   6.699  0.6316  1.7624 -0.4553
 7022SOL     OW32527   1.777   2.768   9.026  1.0185 -0.5182 -0.4060
 7022SOL    HW132528   1.702   2.771   8.966  0.4998  3.9108  0.4432
 7022SOL    HW232529   1.729   2.726   9.097 -0.8648  2.0242 -0.1721
 7023SOL     OW32530   0.200   2.663   1.461  0.4624  0.5039  0.8979
 7023SOL    HW132531   0.173   2.728   1.396 -1.2342  1.7642  2.8619
 7023SOL    HW232532   0.272   2.713   1.499  0.2889  1.2589  0.2264
 7024SOL     OW32533   1.964   1.623   3.001 -0.0545  0.3419  0.1818
 7024SOL    HW132534   1.897   1.600   3.066  1.3106 -0.1161  1.4272
 7024SOL    HW232535   1.921   1.594   2.921  0.2627 -0.7409  0.4047
 7025SOL     OW32536   3.135   4.630   9.515  0.0494  0.2803 -0.0955
 7025SOL    HW132537   3.087   4.600   9.592  1.0423 -0.9850  0.0289
 7025SOL    HW232538   3.221   4.650   9.553  0.8064 -2.8623 -0.1339
 7026SOL     OW32539   4.269   0.801  13.975  0.1026  0.7383  0.2338
 7026SOL    HW132540   4.224   0.726  14.012 -0.1230  1.0937  0.6710
 7026SOL    HW232541   4.200   0.867  13.977 -0.3913  0.3062 -1.9947
 7027SOL     OW32542   3.753   0.458   0.893 -0.5991  0.4772  0.6549
 7027SOL    HW132543   3.835   0.463   0.844 -2.3511  0.2089 -2.2998
 7027SOL    HW232544   3.745   0.550   0.917  0.0854  1.0910 -1.4349
 7028SOL     OW32545   3.935   0.388  16.762  0.2357  0.2999 -0.2196
 7028SOL    HW132546   3.894   0.347  16.687 -1.6012  0.3395  0.7815
 7028SOL    HW232547   3.904   0.477  16.746 -1.6984 -0.3860 -0.1844
 7029SOL     OW32548   1.701   0.913  16.013 -0.5931 -0.1750  0.3762
 7029SOL    HW132549   1.688   0.954  15.927  0.3597  0.2881  0.4506
 7029SOL    HW232550   1.721   0.994  16.060 -2.0418  0.6359 -0.3912
 7030SOL     OW32551   0.936   0.884   2.766 -0.0488  0.1554 -0.0726
 7030SOL    HW132552   0.860   0.895   2.823 -1.0122  0.3080 -1.3779
 7030SOL    HW232553   1.007   0.891   2.830  0.9119  3.1427 -1.4596
 7031SOL     OW32554   2.316   4.391   1.580 -0.4723 -0.7777  0.0742
 7031SOL    HW132555   2.234   4.381   1.628 -1.2269  1.3938 -0.7849
 7031SOL    HW232556   2.322   4.318   1.520 -0.8959 -1.0273  0.3387
 7032SOL     OW32557   0.312   3.883   6.693  0.2677 -0.1268 -0.1528
 7032SOL    HW132558   0.345   3.926   6.614  2.6412 -1.0289  0.3342
 7032SOL    HW232559   0.368   3.805   6.691 -1.0152 -1.0264 -1.3361
 7033SOL     OW32560   2.431   0.406  11.394 -0.8665  0.1411 -0.0175
 7033SOL    HW132561   2.489   0.373  11.463  0.8526 -0.3317 -1.6849
 7033SOL    HW232562   2.348   0.396  11.440 -0.5404 -2.1170  0.0897
 7034SOL     OW32563   0.830   3.562   3.283  0.4006  0.4699 -0.0858
 7034SOL    HW132564   0.799   3.481   3.324 -1.5598  2.1665  1.8098
 7034SOL    HW232565   0.902   3.525   3.232 -0.0566 -0.8367  0.2246
 7035SOL     OW32566   3.654   0.115   7.698 -0.2490 -0.0152 -0.1369
 7035SOL    HW132567   3.735   0.144   7.656  0.1936 -2.6010 -1.0198
 7035SOL    HW232568   3.682   0.064   7.774 -2.4919 -2.7246 -1.1409
 7036SOL     OW32569   2.832   1.024   0.247  0.3755 -0.5957  0.0988
 7036SOL    HW132570   2.872   1.109   0.264  0.8977 -0.8219 -0.0088
 7036SOL    HW232571   2.869   0.979   0.323  0.1100 -1.5775 -0.3536
 7037SOL     OW32572   1.368   0.815   9.311 -0.4572 -0.0716  0.4194
 7037SOL    HW132573   1.414   0.872   9.249  0.4790 -1.8438 -0.4859
 7037SOL    HW232574   1.432   0.744   9.310  1.4100  1.6095  0.3629
 7038SOL     OW32575   2.309   1.999  11.872 -0.0140  0.2648 -0.6069
 7038SOL    HW132576   2.375   1.989  11.941 -0.9638  0.2841  0.3173
 7038SOL    HW232577   2.303   2.093  11.854 -1.9308 -0.0885 -1.7382
 7039SOL     OW32578   1.061   1.253   5.663  0.0646 -0.1642  0.3429
 7039SOL    HW132579   0.985   1.312   5.664  0.8975  0.8984  0.4171
 7039SOL    HW232580   1.023   1.170   5.633  0.5289  0.5449 -2.2036
 7040SOL     OW32581   2.160   3.167   5.000  0.5201  0.0185 -0.4601
 7040SOL    HW132582   2.064   3.164   4.999  0.4498  1.1479  2.4910
 7040SOL    HW232583   2.164   3.177   5.095  0.8362  1.9662 -0.6801
 7041SOL     OW32584   2.644   3.396   7.478  0.3679  0.0758 -0.7401
 7041SOL    HW132585   2.718   3.430   7.528  0.5271  1.0671 -1.6606
 7041SOL    HW232586   2.681   3.367   7.395  0.6386  0.7445 -0.8469
 7042SOL     OW32587   1.392   0.086   0.106 -0.6842 -0.4869  0.1497
 7042SOL    HW132588   1.313   0.033   0.121 -2.4527  1.3757 -2.5313
 7042SOL    HW232589   1.414   0.068   0.015 -0.1496 -0.8342  0.3508
 7043SOL     OW32590   1.470   0.032  17.537  0.3984  0.5092 -0.1465
 7043SOL    HW132591   1.520   4.697  17.481 -1.2365 -0.0562 -1.0049
 7043SOL    HW232592   1.394   0.036  17.479  0.9108 -1.3420 -0.9379
 7044SOL     OW32593   0.140   1.893  14.121  0.1337 -0.2210  0.3097
 7044SOL    HW132594   0.122   1.830  14.051  0.2020  0.7037 -0.5453
 7044SOL    HW232595   0.100   1.842  14.191 -0.5087 -0.1029  0.0332
 7045SOL     OW32596   2.612   4.073   2.942  0.2887 -0.2637  0.3218
 7045SOL    HW132597   2.537   4.022   2.913 -0.2766 -0.5908  2.3521
 7045SOL    HW232598   2.681   4.049   2.880 -1.4585 -1.1096 -1.2797
 7046SOL     OW32599   3.583   0.779   3.577 -0.1285 -0.1851  0.1023
 7046SOL    HW132600   3.677   0.790   3.590  0.0073  1.5370 -2.2474
 7046SOL    HW232601   3.550   0.831   3.650 -2.9821  1.2084 -2.1980
 7047SOL     OW32602   3.042   1.090   7.157 -0.2695 -0.2433 -0.3832
 7047SOL    HW132603   3.002   1.080   7.243 -0.3603  2.7084 -0.0884
 7047SOL    HW232604   3.051   0.999   7.129  0.4988  0.4389 -2.4015
 7048SOL     OW32605   2.614   4.167  17.486  0.4995 -0.3882 -0.6101
 7048SOL    HW132606   2.680   4.225  17.446  0.0016  1.1023  0.7297
 7048SOL    HW232607   2.537   4.174  17.430 -0.0048 -0.6825  0.0421
 7049SOL     OW32608   3.182   2.015   3.796  0.6257 -0.0516  0.1048
 7049SOL    HW132609   3.122   2.069   3.744 -2.2557 -1.5482  1.8475
 7049SOL    HW232610   3.178   1.931   3.750  1.2606 -0.3483  0.5912
 7050SOL     OW32611   0.381   1.851   8.834 -0.2306 -0.6046  0.1065
 7050SOL    HW132612   0.371   1.877   8.742 -1.6536  0.3903  0.5369
 7050SOL    HW232613   0.294   1.829   8.866 -0.4433 -0.3720 -0.3097
 7051SOL     OW32614   1.722   2.633   8.725  0.7243  0.1119 -0.2515
 7051SOL    HW132615   1.675   2.677   8.796  0.1201  1.6593 -1.6052
 7051SOL    HW232616   1.650   2.596   8.674  2.0912  0.9009 -2.7565
 7052SOL     OW32617   0.438   0.660  11.336  0.0326 -0.5120 -0.2121
 7052SOL    HW132618   0.350   0.690  11.313 -0.8625 -0.8351  2.7727
 7052SOL    HW232619   0.424   0.610  11.417  1.3698  0.1055  0.3987
 7053SOL     OW32620   2.338   0.046  15.861 -0.2864 -0.5045 -0.4613
 7053SOL    HW132621   2.426   0.021  15.891  0.7340  3.3287 -0.2464
 7053SOL    HW232622   2.290   4.687  15.863 -1.0030 -0.0743  0.2675
 7054SOL     OW32623   2.400   0.947  13.374  0.4178  0.0170 -0.3182
 7054SOL    HW132624   2.459   0.958  13.300  1.7499 -2.3416  0.4003
 7054SOL    HW232625   2.375   0.854  13.374  3.8735 -0.9234 -0.6899
 7055SOL     OW32626   2.111   3.317   6.080 -0.3347 -0.0534  0.7630
 7055SOL    HW132627   2.194   3.287   6.043  0.2226 -0.8410  2.6454
 7055SOL    HW232628   2.073   3.234   6.108 -0.7201 -0.1676 -0.0879
 7056SOL     OW32629   2.884   2.513  10.899  0.2996  0.5816  0.9920
 7056SOL    HW132630   2.970   2.522  10.858 -0.3643 -0.6360 -0.6356
 7056SOL    HW232631   2.902   2.435  10.952  0.2642  0.5207  0.9132
 7057SOL     OW32632   1.307   2.882   2.121  0.0550 -0.4042  0.4910
 7057SOL    HW132633   1.226   2.867   2.170 -0.6281 -1.7284 -1.0415
 7057SOL    HW232634   1.291   2.974   2.104  0.4270 -0.4139  0.0890
 7058SOL     OW32635   1.468   1.536   6.390  0.0959 -0.2858  0.2032
 7058SOL    HW132636   1.554   1.567   6.419 -0.8447 -0.0855  2.7384
 7058SOL    HW232637   1.420   1.522   6.471  1.3843  1.9981  1.3534
 7059SOL     OW32638   3.892   4.419   4.555  0.2668 -0.6040 -0.1785
 7059SOL    HW132639   3.974   4.380   4.584 -1.0894 -0.3966  3.9488
 7059SOL    HW232640   3.930   4.492   4.506  1.4710 -1.7789 -0.9742
 7060SOL     OW32641   3.010   0.586   5.715  0.3803  0.5991 -0.3793
 7060SOL    HW132642   2.953   0.575   5.791  2.0328 -1.0209  0.6285
 7060SOL    HW232643   3.034   0.677   5.733 -0.4149  0.6349  0.4444
 7061SOL     OW32644   4.184   3.443  12.939  0.5433 -0.6753  0.4745
 7061SOL    HW132645   4.182   3.349  12.955 -1.2730 -0.4059  1.8321
 7061SOL    HW232646   4.258   3.459  12.998 -0.1882  1.4356  0.8246
 7062SOL     OW32647   1.582   4.625   6.525 -0.8247  0.3699  0.5075
 7062SOL    HW132648   1.522   4.555   6.498  1.1150 -1.3133  0.6094
 7062SOL    HW232649   1.670   4.588   6.520 -2.1551 -2.1397 -3.5968
 7063SOL     OW32650   3.379   4.155   0.983 -0.1832 -0.4164  0.3056
 7063SOL    HW132651   3.373   4.155   1.079  0.0561  0.0751  0.3167
 7063SOL    HW232652   3.383   4.059   0.977  1.3124 -0.3274  0.0613
 7064SOL     OW32653   2.295   1.472   5.852 -0.0354  0.3704 -0.1007
 7064SOL    HW132654   2.331   1.559   5.870  1.7889 -0.2664 -0.7189
 7064SOL    HW232655   2.256   1.456   5.938  1.7219  0.1984  0.6647
 7065SOL     OW32656   2.787   0.382   3.699 -0.3514  0.2862  0.2800
 7065SOL    HW132657   2.717   0.435   3.662 -0.4980 -0.4195 -0.4456
 7065SOL    HW232658   2.745   0.296   3.710 -2.0314  1.2051  1.1100
 7066SOL     OW32659   1.845   2.565  12.205 -0.5033 -0.4579 -0.6360
 7066SOL    HW132660   1.885   2.652  12.208 -1.3084 -0.0754 -0.9746
 7066SOL    HW232661   1.752   2.584  12.218 -0.0065  0.6202  1.3155
 7067SOL     OW32662   4.721   1.273   8.243  0.3362 -0.0080 -0.9935
 7067SOL    HW132663   0.031   1.247   8.328  0.3720  2.5788 -0.2496
 7067SOL    HW232664   4.634   1.303   8.268  1.3785  4.0359 -2.3216
 7068SOL     OW32665   1.485   2.238  11.792  0.2396 -0.1751 -0.5978
 7068SOL    HW132666   1.396   2.204  11.803  0.1003  0.1768 -0.6351
 7068SOL    HW232667   1.534   2.164  11.828  1.0079  1.3383  1.4490
 7069SOL     OW32668   0.965   0.669   6.893 -0.1948 -0.0676  0.6413
 7069SOL    HW132669   1.028   0.607   6.858  0.1382 -0.6232  2.2307
 7069SOL    HW232670   0.907   0.618   6.950  0.1231 -1.3472 -0.2057
 7070SOL     OW32671   4.662   3.820   8.230  0.1763 -0.2744 -0.2088
 7070SOL    HW132672   0.025   3.833   8.265 -0.5265  2.4306  0.5153
 7070SOL    HW232673   4.654   3.732   8.267  0.7795 -1.8628 -3.8191
 7071SOL     OW32674   4.025   1.761   2.787  0.5262  0.1551 -0.2634
 7071SOL    HW132675   3.953   1.720   2.740  1.2569  0.6366 -1.8025
 7071SOL    HW232676   4.043   1.681   2.836 -0.7839  0.4236  0.6271
 7072SOL     OW32677   1.066   0.074   6.124  0.1849  0.2999  0.2231
 7072SOL    HW132678   0.991   0.119   6.164 -1.5589 -0.0249 -2.6980
 7072SOL    HW232679   1.110   0.149   6.083  0.1298 -1.2479 -2.6313
 7073SOL     OW32680   2.702   1.196   7.407 -0.2670  0.2620 -0.6583
 7073SOL    HW132681   2.705   1.278   7.457  0.5246  0.3165 -0.7978
 7073SOL    HW232682   2.609   1.206   7.385 -0.3000  0.8619 -0.2528
 7074SOL     OW32683   1.023   3.315  16.537  0.5272 -0.1557  0.4076
 7074SOL    HW132684   0.991   3.403  16.556 -1.6204 -0.7700 -0.3641
 7074SOL    HW232685   1.037   3.324  16.442  1.8945  4.0450  1.0013
 7075SOL     OW32686   3.619   1.829   6.193 -0.5263 -0.1796  0.2059
 7075SOL    HW132687   3.659   1.742   6.193  3.6830  1.7571 -1.5992
 7075SOL    HW232688   3.620   1.857   6.285 -0.5191  1.4621 -0.2867
 7076SOL     OW32689   2.707   0.002   8.084  0.5014 -0.1598  0.0243
 7076SOL    HW132690   2.727   4.634   8.101  1.6797  0.7586  3.6946
 7076SOL    HW232691   2.626   0.000   8.034 -0.1081 -0.3322  1.0154
 7077SOL     OW32692   3.220   2.475  10.913 -0.4061  0.2939 -0.4730
 7077SOL    HW132693   3.253   2.553  10.957 -0.4096  0.2809 -0.4471
 7077SOL    HW232694   3.262   2.482  10.827 -0.0901  0.5337 -0.2958
 7078SOL     OW32695   4.602   4.073   6.433 -0.3947 -0.0895  0.0110
 7078SOL    HW132696   4.623   4.058   6.525  0.2201  1.3941  0.1137
 7078SOL    HW232697   4.574   4.164   6.443 -0.8113 -0.2319  0.1616
 7079SOL     OW32698   4.666   1.329   5.145 -0.7572 -0.1372 -0.2019
 7079SOL    HW132699   4.721   1.273   5.200 -3.0293 -1.0255  1.1760
 7079SOL    HW232700   0.007   1.385   5.103 -1.0967  0.0311 -0.5012
 7080SOL     OW32701   2.719   4.458   2.181  0.3167 -0.9173  0.2702
 7080SOL    HW132702   2.757   4.517   2.115 -2.5873  0.5263 -0.0806
 7080SOL    HW232703   2.631   4.432   2.155  0.4040  0.5912 -1.5885
 7081SOL     OW32704   2.124   3.062   5.675  0.0654  0.0266 -0.6924
 7081SOL    HW132705   2.176   3.130   5.631 -1.2240  2.3575  1.3487
 7081SOL    HW232706   2.169   2.991   5.629  1.3451  0.0725  0.5085
 7082SOL     OW32707   2.017   1.796   6.723  0.5960 -0.1704 -0.0301
 7082SOL    HW132708   2.036   1.788   6.629  1.2128  1.2797 -0.0201
 7082SOL    HW232709   2.103   1.787   6.762  0.9184  1.8520 -0.2469
 7083SOL     OW32710   2.996   3.642   6.130 -0.0966  0.1696 -0.5090
 7083SOL    HW132711   2.909   3.671   6.104 -0.3503 -1.6445 -1.7020
 7083SOL    HW232712   2.993   3.677   6.219 -1.1559  0.6211 -0.7281
 7084SOL     OW32713   1.779   1.100   3.634 -0.1936  0.2425 -0.2219
 7084SOL    HW132714   1.716   1.059   3.694 -1.3238  1.5128 -0.5389
 7084SOL    HW232715   1.779   1.026   3.574  0.8168  0.8324 -0.9508
 7085SOL     OW32716   3.621   3.771  15.693  0.1092  0.4332 -0.2071
 7085SOL    HW132717   3.564   3.702  15.661 -1.6338  1.2144  1.1999
 7085SOL    HW232718   3.548   3.819  15.732  0.0113  1.1143 -1.2325
 7086SOL     OW32719   2.358   4.182  17.350 -0.0131 -0.4406  0.1794
 7086SOL    HW132720   2.308   4.102  17.334 -0.0700 -0.6370  1.3102
 7086SOL    HW232721   2.305   4.216  17.422 -2.3075 -0.9876 -1.2545
 7087SOL     OW32722   1.924   1.075   3.206 -0.1384  0.3852  0.0513
 7087SOL    HW132723   1.881   1.154   3.172  0.0672  0.4754  0.0028
 7087SOL    HW232724   1.979   1.111   3.275  1.7443 -0.1635 -1.1548
 7088SOL     OW32725   0.958   3.958   1.350 -0.3454  0.1673  0.6114
 7088SOL    HW132726   1.023   3.970   1.281 -4.1733 -0.3445 -3.0674
 7088SOL    HW232727   1.003   3.917   1.424 -0.4914 -0.4946  0.3408
 7089SOL     OW32728   2.229   2.438   5.137 -0.2224 -0.1239  0.3335
 7089SOL    HW132729   2.270   2.440   5.223 -1.0830 -0.6738  0.7587
 7089SOL    HW232730   2.294   2.487   5.087  0.5851 -0.9469  0.5926
 7090SOL     OW32731   2.365   0.069   4.093 -0.2466  0.4550 -0.7282
 7090SOL    HW132732   2.331   4.705   4.106  0.0237  0.5071  0.2929
 7090SOL    HW232733   2.398   0.065   4.003  0.0458 -2.2689 -0.4791
 7091SOL     OW32734   1.790   2.356  10.614 -0.3476  0.1888 -0.2158
 7091SOL    HW132735   1.861   2.419  10.629 -1.3255  0.8135  1.7376
 7091SOL    HW232736   1.769   2.361  10.521 -0.5205  1.8022 -0.0801
 7092SOL     OW32737   0.960   0.951  10.888 -0.2959  0.2723  0.0765
 7092SOL    HW132738   0.992   0.985  10.971  1.8081  3.1218 -1.9193
 7092SOL    HW232739   0.978   0.857  10.892 -0.4018  0.2240 -0.5969
 7093SOL     OW32740   2.348   0.473   1.467  0.6394 -0.1706 -0.6572
 7093SOL    HW132741   2.387   0.481   1.381  0.1578 -1.4702 -1.0014
 7093SOL    HW232742   2.261   0.506   1.445  0.3909 -0.4483 -0.1038
 7094SOL     OW32743   2.118   0.315   8.654 -0.0537 -0.0112  0.0379
 7094SOL    HW132744   2.189   0.348   8.599 -2.3964 -0.2168 -3.1249
 7094SOL    HW232745   2.065   0.394   8.650  0.0399  0.0764  0.5282
 7095SOL     OW32746   4.669   2.590  14.914  0.4060  0.1205 -0.4728
 7095SOL    HW132747   0.035   2.620  14.902 -0.7411  3.6150 -0.2076
 7095SOL    HW232748   4.624   2.646  14.852  0.3848  1.3402  0.6602
 7096SOL     OW32749   2.254   0.798   1.208 -0.3779  0.0310  0.0038
 7096SOL    HW132750   2.196   0.726   1.233 -0.9544  0.5805  0.2434
 7096SOL    HW232751   2.245   0.879   1.259  0.2090  1.0920 -1.5789
 7097SOL     OW32752   0.073   1.020   8.881  0.3769 -1.0069 -0.7712
 7097SOL    HW132753   0.033   1.015   8.967 -2.2605  1.6297 -1.8403
 7097SOL    HW232754   0.050   0.934   8.845 -0.0096 -0.1448 -2.6017
 7098SOL     OW32755   2.622   1.600  15.372 -0.2142  0.2956  0.0501
 7098SOL    HW132756   2.600   1.507  15.372  1.1021 -0.0159  0.6349
 7098SOL    HW232757   2.695   1.596  15.310 -0.2504 -0.1249  0.0370
 7099SOL     OW32758   2.942   4.153  16.784 -0.0514  0.2560  0.2059
 7099SOL    HW132759   2.959   4.208  16.861 -2.2913  0.4458  0.5556
 7099SOL    HW232760   2.877   4.091  16.818  0.4359  0.1260  0.9189
 7100SOL     OW32761   2.346   3.550   7.354  0.5553  0.5687  0.2670
 7100SOL    HW132762   2.291   3.622   7.325 -3.3418 -1.6275  2.2035
 7100SOL    HW232763   2.281   3.484   7.379 -0.7693  1.4293 -0.9001
 7101SOL     OW32764   2.345   0.652   8.476  0.0951  0.2377  0.6280
 7101SOL    HW132765   2.347   0.653   8.572 -0.1337  1.6003  0.6241
 7101SOL    HW232766   2.423   0.703   8.453  0.5809 -0.9360 -0.3219
 7102SOL     OW32767   3.936   4.276   1.272 -0.2383  0.4447  0.0386
 7102SOL    HW132768   3.943   4.275   1.368  2.8974  3.5385 -0.1184
 7102SOL    HW232769   3.916   4.184   1.257  0.1302  0.5362 -1.0032
 7103SOL     OW32770   2.446   0.842  14.461  0.0041  0.4847  0.2618
 7103SOL    HW132771   2.356   0.812  14.455 -0.4602  1.8689  0.2262
 7103SOL    HW232772   2.493   0.828  14.379 -1.0290  0.4618 -0.3263
 7104SOL     OW32773   1.114   2.849   3.437 -0.3576  0.0607  0.6093
 7104SOL    HW132774   1.170   2.846   3.515  2.3990  0.0214 -1.3725
 7104SOL    HW232775   1.032   2.868   3.482 -0.9863  1.6952 -1.2500
 7105SOL     OW32776   0.218   0.308   7.449 -0.1381 -0.1816 -0.1378
 7105SOL    HW132777   0.260   0.370   7.508 -0.0544  0.0755 -0.4643
 7105SOL    HW232778   0.293   0.285   7.395  0.1066 -0.4680  0.3331
 7106SOL     OW32779   2.058   0.380   5.389 -0.3067  0.1034 -0.1950
 7106SOL    HW132780   1.977   0.425   5.414  0.4376 -0.2910  2.9486
 7106SOL    HW232781   2.026   0.339   5.309  1.6724 -1.6326 -0.0877
 7107SOL     OW32782   0.765   0.789   4.956 -0.2163  0.1130  0.4508
 7107SOL    HW132783   0.692   0.848   4.934  1.7726  2.9907  1.6452
 7107SOL    HW232784   0.820   0.799   4.878 -1.7303  0.5020 -0.5736
 7108SOL     OW32785   2.823   0.255   7.626 -0.3187  0.1357  0.0182
 7108SOL    HW132786   2.789   0.334   7.585 -1.5904 -1.4145 -1.9429
 7108SOL    HW232787   2.854   0.203   7.551  1.9163  0.1948  0.8875
 7109SOL     OW32788   0.400   4.216   8.441  0.1965 -0.3249  0.0444
 7109SOL    HW132789   0.323   4.226   8.385 -0.1698  1.0701  0.8167
 7109SOL    HW232790   0.415   4.123   8.426  2.9899  0.0153  0.6593
 7110SOL     OW32791   0.702   1.693   2.257  0.3920  0.6643 -0.0948
 7110SOL    HW132792   0.701   1.709   2.163 -0.2860  0.1897 -0.1746
 7110SOL    HW232793   0.644   1.617   2.263 -0.3151  1.3417  1.5815
 7111SOL     OW32794   1.561   0.531   4.472 -0.1216  0.0939 -0.1738
 7111SOL    HW132795   1.621   0.473   4.425 -0.2908  0.2598 -0.5963
 7111SOL    HW232796   1.623   0.579   4.526 -0.2080  0.6127 -0.5325
 7112SOL     OW32797   0.403   3.523   2.792 -0.0193  0.2988  0.2662
 7112SOL    HW132798   0.374   3.610   2.819  2.5275  1.3231 -0.3416
 7112SOL    HW232799   0.457   3.516   2.870 -0.3713 -0.0658  0.4807
 7113SOL     OW32800   2.853   4.325   3.790 -1.0972  0.0221 -0.1596
 7113SOL    HW132801   2.808   4.291   3.712 -0.6472 -2.2833  0.6050
 7113SOL    HW232802   2.821   4.416   3.788 -2.7967 -0.5901 -0.6897
 7114SOL     OW32803   0.410   1.827   8.205  0.2461  0.2354 -0.4694
 7114SOL    HW132804   0.495   1.817   8.249 -0.2596  1.4603  0.8131
 7114SOL    HW232805   0.359   1.824   8.286  1.3541 -0.7185  0.1874
 7115SOL     OW32806   4.239   3.502   2.348  0.1316  0.3647 -0.0712
 7115SOL    HW132807   4.176   3.510   2.419  0.1801  1.3657 -0.1441
 7115SOL    HW232808   4.250   3.597   2.336 -1.9927  0.9547  2.7417
 7116SOL     OW32809   2.026   0.554  10.986  0.1388  1.0901  0.6335
 7116SOL    HW132810   1.951   0.496  10.990 -0.3127  1.8396  2.9544
 7116SOL    HW232811   1.993   0.619  11.048 -0.4897 -0.4215  1.8819
 7117SOL     OW32812   2.605   3.629  10.006  0.0456  0.0203  0.5926
 7117SOL    HW132813   2.518   3.633   9.965 -0.2206 -1.1004  1.0511
 7117SOL    HW232814   2.601   3.562  10.074  0.2502  0.0954  0.6776
 7118SOL     OW32815   4.561   3.392   8.947 -0.4392  0.6970  0.1409
 7118SOL    HW132816   4.655   3.399   8.928 -0.3255  2.3184  1.2519
 7118SOL    HW232817   4.537   3.305   8.915 -0.5475  1.6282 -2.3084
 7119SOL     OW32818   0.831   0.366   2.629 -0.2312 -0.0628  0.3957
 7119SOL    HW132819   0.830   0.299   2.698 -1.8712  0.1177  0.5431
 7119SOL    HW232820   0.766   0.423   2.669  3.3158  4.5662 -0.4225
 7120SOL     OW32821   3.672   2.268   1.855 -0.4758 -0.0291  0.5358
 7120SOL    HW132822   3.633   2.320   1.784 -1.9257 -1.3269  0.3813
 7120SOL    HW232823   3.716   2.207   1.796 -0.9091  0.4437 -0.2892
 7121SOL     OW32824   4.503   4.710   8.182  0.3540  0.7248  0.0321
 7121SOL    HW132825   4.570   4.670   8.127 -0.1894 -1.6376  1.0903
 7121SOL    HW232826   4.554   0.018   8.256  1.0853 -1.2538  0.3885
 7122SOL     OW32827   2.895   2.058  12.076 -0.1739 -0.4648  0.4339
 7122SOL    HW132828   2.885   1.974  12.122 -1.6916  0.0263  0.9809
 7122SOL    HW232829   2.860   2.125  12.135  0.9412 -1.4842  2.2605
 7123SOL     OW32830   4.337   3.246   9.606  0.4963 -0.3301  0.1990
 7123SOL    HW132831   4.318   3.312   9.672 -1.2779 -1.2212  0.5995
 7123SOL    HW232832   4.269   3.266   9.542 -0.6673  2.3475  2.2867
 7124SOL     OW32833   4.713   1.779  15.255  0.3836  0.4096  0.0235
 7124SOL    HW132834   0.013   1.866  15.223  0.0139  0.3954 -0.3040
 7124SOL    HW232835   4.641   1.761  15.194  2.5023  0.9483 -2.6426
 7125SOL     OW32836   2.454   1.554   7.334 -0.2558 -0.6397 -0.0732
 7125SOL    HW132837   2.519   1.488   7.358 -0.1716 -0.2925  0.6714
 7125SOL    HW232838   2.489   1.607   7.262 -2.7712 -0.0765 -0.8788
 7126SOL     OW32839   2.204   3.535  12.386 -0.5412  0.1821 -0.1179
 7126SOL    HW132840   2.262   3.589  12.440 -1.5368  0.2102  0.9177
 7126SOL    HW232841   2.212   3.570  12.298  0.8435  0.8803  0.2837
 7127SOL     OW32842   1.627   3.191   8.298  0.2767  0.4800  0.1059
 7127SOL    HW132843   1.559   3.155   8.241 -0.1388 -0.5302  1.2467
 7127SOL    HW232844   1.679   3.113   8.314  1.3356  0.7677 -2.0205
 7128SOL     OW32845   4.345   3.773   1.994 -0.0123  0.0161  0.0722
 7128SOL    HW132846   4.369   3.777   1.901  2.6635  3.6689  0.9092
 7128SOL    HW232847   4.416   3.825   2.032 -0.5814 -0.2708  1.5169
 7129SOL     OW32848   2.639   2.665  15.425  0.1847 -0.0614  0.1337
 7129SOL    HW132849   2.613   2.574  15.438 -0.1508  0.2708  1.7922
 7129SOL    HW232850   2.563   2.686  15.370 -0.7778 -0.6435  1.2568
 7130SOL     OW32851   4.189   2.558   5.180  0.4639  0.1462  0.3418
 7130SOL    HW132852   4.243   2.624   5.136  1.1163 -2.1271 -2.2864
 7130SOL    HW232853   4.247   2.529   5.249  2.4329 -0.8123 -1.7231
 7131SOL     OW32854   4.390   0.647   3.962 -0.5175  0.3223  0.5663
 7131SOL    HW132855   4.451   0.583   3.925  0.2740 -0.0197  2.4662
 7131SOL    HW232856   4.449   0.721   3.978  0.1711  0.1411 -1.1578
 7132SOL     OW32857   3.210   1.284   7.486 -0.7327  0.4465 -0.0161
 7132SOL    HW132858   3.132   1.265   7.538 -0.6971  1.8479  0.5650
 7132SOL    HW232859   3.166   1.310   7.405  0.4837  2.1761 -0.1174
 7133SOL     OW32860   2.420   1.589   8.022 -0.5093  0.5261 -0.1201
 7133SOL    HW132861   2.387   1.575   8.111  2.0812 -1.2229  0.5575
 7133SOL    HW232862   2.457   1.678   8.025 -0.4085  0.4035  2.6230
 7134SOL     OW32863   2.869   4.568  13.437  0.0120  0.5290  0.3880
 7134SOL    HW132864   2.939   4.594  13.497  0.5374  0.7532 -0.3222
 7134SOL    HW232865   2.900   4.492  13.388  1.4203  0.0665  1.9593
 7135SOL     OW32866   1.361   4.591   8.431  0.2051 -0.5043  0.5332
 7135SOL    HW132867   1.425   4.577   8.361 -0.3402 -2.1930  0.3923
 7135SOL    HW232868   1.396   4.531   8.497  1.3735 -0.9972 -0.5296
 7136SOL     OW32869   0.178   2.623  14.101  0.8833  0.3661  0.3682
 7136SOL    HW132870   0.182   2.633  14.196 -0.6949  2.7184  0.1707
 7136SOL    HW232871   0.088   2.637  14.072  1.1274 -0.1933 -0.6571
 7137SOL     OW32872   4.402   3.095   7.689 -0.7569 -0.1667 -0.2086
 7137SOL    HW132873   4.316   3.112   7.651  0.1151 -0.1957 -2.1839
 7137SOL    HW232874   4.455   3.163   7.647  0.2656 -0.8937 -0.0747
 7138SOL     OW32875   1.189   0.537   2.580 -0.1751 -0.0059 -0.3162
 7138SOL    HW132876   1.129   0.570   2.646 -0.5386  0.5316 -0.9190
 7138SOL    HW232877   1.125   0.520   2.511 -1.9865 -1.3601  1.6900
 7139SOL     OW32878   3.085   2.255   0.646 -0.3691  0.0452  0.2089
 7139SOL    HW132879   2.993   2.284   0.642 -0.0640  0.3563 -4.6588
 7139SOL    HW232880   3.127   2.313   0.709  0.0362 -0.1329  0.1025
 7140SOL     OW32881   0.591   3.796   8.940  0.8897 -0.3358  0.0810
 7140SOL    HW132882   0.589   3.889   8.963  0.1797 -0.2720 -0.2403
 7140SOL    HW232883   0.546   3.762   9.017  1.3283  0.3406  0.6381
 7141SOL     OW32884   3.828   4.092  14.352  0.1027  0.1907 -0.1143
 7141SOL    HW132885   3.870   4.153  14.413  1.7421  1.8484 -2.8989
 7141SOL    HW232886   3.854   4.008  14.390  2.4218  1.0370  0.1782
 7142SOL     OW32887   3.755   3.766   3.536 -0.1391 -0.3388 -0.7141
 7142SOL    HW132888   3.783   3.699   3.475 -1.8847 -1.7975  0.0881
 7142SOL    HW232889   3.697   3.719   3.596  0.3681 -1.4649 -1.1092
 7143SOL     OW32890   1.856   0.450   6.382 -1.0322 -0.3507 -0.0056
 7143SOL    HW132891   1.912   0.500   6.441 -0.9647 -1.5107  0.9165
 7143SOL    HW232892   1.774   0.449   6.431 -0.3375  0.1663  1.1600
 7144SOL     OW32893   0.965   3.927   6.786  0.4442 -0.2555 -0.6282
 7144SOL    HW132894   0.873   3.901   6.794 -0.5423  2.9562 -1.6690
 7144SOL    HW232895   0.956   4.005   6.732 -2.6000 -0.8717 -1.0116
 7145SOL     OW32896   1.097   2.480   5.635  0.2361 -0.1809 -0.5959
 7145SOL    HW132897   1.007   2.512   5.624 -0.2375 -2.1589 -2.2861
 7145SOL    HW232898   1.113   2.530   5.715 -1.5073  0.0424 -0.3663
 7146SOL     OW32899   3.527   0.918   2.859  0.0351 -0.2779 -0.3564
 7146SOL    HW132900   3.452   0.966   2.823  0.3667  0.8304  0.4263
 7146SOL    HW232901   3.599   0.980   2.847 -1.6512  2.1030  1.7939
 7147SOL     OW32902   3.276   1.350   7.755 -0.5161 -0.3846  0.2908
 7147SOL    HW132903   3.181   1.356   7.755 -0.4589  0.7857  1.0705
 7147SOL    HW232904   3.291   1.378   7.665  2.6663  1.8600  1.4981
 7148SOL     OW32905   2.304   4.065   7.462 -0.0299 -0.3975  0.1685
 7148SOL    HW132906   2.356   4.140   7.433  1.1276 -1.4388 -0.4463
 7148SOL    HW232907   2.245   4.101   7.529 -1.1384  2.0921 -2.1075
 7149SOL     OW32908   0.450   0.167   2.856  0.4075  0.3705  0.5057
 7149SOL    HW132909   0.531   0.180   2.906  0.3224 -0.2473  0.8061
 7149SOL    HW232910   0.486   0.162   2.767  1.7930  2.4881  0.9448
 7150SOL     OW32911   1.287   2.207  16.366 -0.7388 -0.3578 -0.7990
 7150SOL    HW132912   1.263   2.292  16.401 -0.7136 -1.1253  1.0717
 7150SOL    HW232913   1.245   2.223  16.281 -1.3086 -1.0333 -0.6387
 7151SOL     OW32914   0.297   0.184   1.657 -0.6384 -0.3931 -0.3399
 7151SOL    HW132915   0.282   0.277   1.641  0.3671 -0.1925 -0.0506
 7151SOL    HW232916   0.365   0.183   1.724 -1.2203 -0.7990  0.2486
 7152SOL     OW32917   3.168   3.706   6.514  0.1417  0.2437 -0.8217
 7152SOL    HW132918   3.259   3.697   6.541 -0.0338 -0.7741 -0.5732
 7152SOL    HW232919   3.115   3.722   6.592  1.0874 -0.6051 -0.0268
 7153SOL     OW32920   0.964   4.630   8.392 -0.2686  0.0404 -0.0286
 7153SOL    HW132921   0.871   4.640   8.413 -0.3266 -2.5108  1.0107
 7153SOL    HW232922   0.967   4.584   8.307 -2.0647 -0.8573  0.3926
 7154SOL     OW32923   4.036   2.860  17.528 -0.4516 -0.0084  0.1574
 7154SOL    HW132924   4.002   2.881  17.441  0.5912 -1.1039 -0.5199
 7154SOL    HW232925   4.106   2.925  17.529  0.0423 -0.5525  1.2141
 7155SOL     OW32926   2.823   2.553   7.196  0.3134  0.4058 -0.1607
 7155SOL    HW132927   2.803   2.512   7.280  0.4651  2.2395  0.7807
 7155SOL    HW232928   2.778   2.491   7.140  0.9548 -0.5441  0.3706
 7156SOL     OW32929   0.935   2.182   4.948 -0.1400  0.0026  0.4040
 7156SOL    HW132930   1.016   2.139   4.977  0.7862  1.1458 -0.4997
 7156SOL    HW232931   0.913   2.226   5.030  2.2670  2.3656 -0.1958
 7157SOL     OW32932   4.532   2.853  12.659  0.4152 -0.5075 -0.9425
 7157SOL    HW132933   4.553   2.857  12.752  0.2534 -3.0636 -0.7899
 7157SOL    HW232934   4.447   2.810  12.668 -0.2906  1.6309  2.5170
 7158SOL     OW32935   4.264   4.720   7.242  0.2731 -0.0334  0.3535
 7158SOL    HW132936   4.353   0.032   7.238  0.4346 -0.4923 -0.2044
 7158SOL    HW232937   4.235   4.721   7.151  0.7470  3.3144  0.2241
 7159SOL     OW32938   1.557   3.889   0.974 -0.0212 -0.2587  0.1937
 7159SOL    HW132939   1.617   3.918   0.905  1.8183 -0.9839  1.4873
 7159SOL    HW232940   1.500   3.834   0.920  1.1378 -1.6434  0.3687
 7160SOL     OW32941   2.281   0.439   5.883  0.0208 -0.3377  0.0052
 7160SOL    HW132942   2.313   0.462   5.795 -1.8860 -1.7330 -1.0541
 7160SOL    HW232943   2.187   0.443   5.865  0.5829  1.4921 -2.5292
 7161SOL     OW32944   0.256   4.435   3.031  0.1560  0.1678 -0.3727
 7161SOL    HW132945   0.332   4.475   2.989  0.7469 -1.3732 -0.7711
 7161SOL    HW232946   0.188   4.493   2.998 -1.9647 -0.7748  2.2731
 7162SOL     OW32947   2.827   3.836   4.392 -0.1387  0.2356  0.5134
 7162SOL    HW132948   2.870   3.860   4.309 -2.0676  1.4784 -0.1311
 7162SOL    HW232949   2.887   3.868   4.460  1.4650 -0.8686 -0.3681
 7163SOL     OW32950   2.695   4.475   2.488 -0.1617 -0.3194 -0.5427
 7163SOL    HW132951   2.627   4.410   2.506 -0.2415  0.2376  1.2341
 7163SOL    HW232952   2.699   4.471   2.393 -4.0655 -0.7749 -0.6741
 7164SOL     OW32953   2.787   2.378   5.118  0.3035 -0.0945  0.0829
 7164SOL    HW132954   2.866   2.431   5.107  0.1216  0.0769 -0.3914
 7164SOL    HW232955   2.748   2.435   5.184 -1.8283  0.5749 -1.7651
 7165SOL     OW32956   3.100   0.033   5.322 -0.0927 -0.7953  0.0711
 7165SOL    HW132957   3.120   0.122   5.352  1.1910 -0.6886 -1.1010
 7165SOL    HW232958   3.055   0.044   5.239  2.1748  0.4719 -0.9786
 7166SOL     OW32959   3.836   3.937   4.315 -0.2987 -0.9324  0.2772
 7166SOL    HW132960   3.839   3.842   4.305 -0.1648 -0.9120  0.1255
 7166SOL    HW232961   3.744   3.956   4.294  0.7816  1.3760 -2.4171
 7167SOL     OW32962   2.006   1.897   2.865  0.4854 -0.1133 -0.4471
 7167SOL    HW132963   1.927   1.890   2.811  1.5349  2.9358 -2.3732
 7167SOL    HW232964   2.000   1.812   2.909 -0.2656 -1.0243 -2.3246
 7168SOL     OW32965   2.960   1.073   7.996  0.8391  0.3030 -0.0132
 7168SOL    HW132966   2.917   1.023   7.926  0.5089  1.1311 -0.4015
 7168SOL    HW232967   2.885   1.123   8.028  1.9054  1.6976  0.3111
 7169SOL     OW32968   2.909   1.229   0.736 -0.4319  0.0702  0.2699
 7169SOL    HW132969   2.951   1.172   0.672  0.8079  0.4456  0.7535
 7169SOL    HW232970   2.832   1.245   0.681  0.1135  2.9741  0.3188
 7170SOL     OW32971   3.451   0.519  13.629  0.0796  0.0041 -0.0156
 7170SOL    HW132972   3.425   0.484  13.544 -1.6618 -1.2704  1.0442
 7170SOL    HW232973   3.542   0.489  13.622  0.7650  2.2193 -0.3892
 7171SOL     OW32974   1.985   0.235   3.288 -0.3996 -0.1039 -0.2098
 7171SOL    HW132975   2.006   0.283   3.207  0.0743 -0.6470 -0.4158
 7171SOL    HW232976   1.955   0.305   3.346 -1.5795 -2.2281  1.7544
 7172SOL     OW32977   2.909   4.443   8.758  0.1777 -0.1087 -0.1801
 7172SOL    HW132978   2.972   4.512   8.778 -0.8904  1.2791 -1.6499
 7172SOL    HW232979   2.900   4.449   8.663 -0.1566  0.2003 -0.1248
 7173SOL     OW32980   3.659   3.793   9.807 -0.2060 -0.7541 -0.5403
 7173SOL    HW132981   3.588   3.780   9.869 -0.2602 -1.3919 -0.7367
 7173SOL    HW232982   3.705   3.872   9.835  1.0279 -1.6834  0.0340
 7174SOL     OW32983   4.473   1.060   5.197  0.2943 -0.0586 -0.1199
 7174SOL    HW132984   4.417   1.107   5.258 -2.0754 -0.9783 -1.5590
 7174SOL    HW232985   4.514   1.132   5.149  0.4637  0.4914  0.8597
 7175SOL     OW32986   0.807   0.749   5.236  0.4270  0.2388  0.3773
 7175SOL    HW132987   0.806   0.841   5.260 -0.7460  0.6482 -1.2488
 7175SOL    HW232988   0.817   0.754   5.141 -2.2885  0.0243  0.0907
 7176SOL     OW32989   1.252   4.007   2.588  0.0981 -0.2623  0.2346
 7176SOL    HW132990   1.255   3.975   2.497  2.9181  2.3961 -0.6042
 7176SOL    HW232991   1.343   4.004   2.619  0.6634  1.1803 -1.2390
 7177SOL     OW32992   1.674   3.611  16.218 -0.2927 -0.2878  0.0327
 7177SOL    HW132993   1.752   3.557  16.208  0.8043  1.0071  1.7658
 7177SOL    HW232994   1.622   3.538  16.252 -0.6377  0.3538  0.8885
 7178SOL     OW32995   1.335   3.339   2.307  0.3056  0.6657  0.0903
 7178SOL    HW132996   1.245   3.305   2.311  0.4406  0.3011 -0.0137
 7178SOL    HW232997   1.323   3.413   2.247 -2.4273  0.2854  0.1383
 7179SOL     OW32998   2.139   1.376   1.581 -0.1592 -0.1050 -0.4565
 7179SOL    HW132999   2.228   1.406   1.599  0.2682 -1.5674 -0.0899
 7179SOL    HW233000   2.115   1.416   1.498  1.3767  2.4146  0.3095
 7180SOL     OW33001   1.676   3.653  14.294 -0.3699 -0.7934 -0.2740
 7180SOL    HW133002   1.691   3.633  14.387 -0.0651  3.5405  0.5743
 7180SOL    HW233003   1.632   3.736  14.309 -1.1959 -1.4077  0.6948
 7181SOL     OW33004   3.011   2.821   5.196  0.3147 -0.1977 -0.6391
 7181SOL    HW133005   3.002   2.777   5.281  0.0968 -1.2201 -1.1901
 7181SOL    HW233006   2.980   2.751   5.138 -3.2353 -0.8429  2.0411
 7182SOL     OW33007   3.073   2.344   4.756  0.9217  0.0156 -0.3490
 7182SOL    HW133008   2.989   2.351   4.802  2.2751  0.5246  2.0278
 7182SOL    HW233009   3.115   2.278   4.810  2.4556  2.3688  1.3325
 7183SOL     OW33010   1.749   4.570   5.796  0.2306 -0.4906  0.1505
 7183SOL    HW133011   1.736   4.482   5.830  1.9765 -0.8639 -0.1506
 7183SOL    HW233012   1.690   4.571   5.721  1.2243 -1.2946 -0.6393
 7184SOL     OW33013   0.349   2.166  13.339 -0.2037 -0.1587  0.2097
 7184SOL    HW133014   0.356   2.230  13.410  1.4964 -1.1073  0.9051
 7184SOL    HW233015   0.301   2.223  13.279 -0.3311  1.1465  1.5477
 7185SOL     OW33016   0.366   3.819  15.743 -0.1401  0.1712 -0.4500
 7185SOL    HW133017   0.348   3.728  15.768 -1.0169  0.1818 -1.0445
 7185SOL    HW233018   0.448   3.803  15.696 -0.5154  0.0964 -1.0755
 7186SOL     OW33019   1.059   3.736  15.741  0.2404 -0.0617  0.3287
 7186SOL    HW133020   1.023   3.658  15.783 -0.0048  0.8504  1.7796
 7186SOL    HW233021   1.129   3.701  15.685 -1.9583 -2.5267 -0.8669
 7187SOL     OW33022   4.488   3.587   8.551 -0.1780  0.6853  0.0702
 7187SOL    HW133023   4.420   3.585   8.618 -1.4672 -1.3298 -1.2861
 7187SOL    HW233024   4.530   3.506   8.581  0.5250  0.0759 -2.5977
 7188SOL     OW33025   4.518   2.782   6.921 -0.2081  0.2502 -0.6023
 7188SOL    HW133026   4.425   2.797   6.940 -0.1372 -1.3213  0.9129
 7188SOL    HW233027   4.528   2.824   6.835  2.3055 -0.8699 -0.8399
 7189SOL     OW33028   3.611   3.892   0.463 -0.0569 -0.5264 -0.4370
 7189SOL    HW133029   3.591   3.845   0.544 -0.3889  3.6554  1.9272
 7189SOL    HW233030   3.571   3.832   0.401  1.0094 -3.0519  1.3084
 7190SOL     OW33031   2.726   3.105  12.936 -1.1992  0.1034 -0.2390
 7190SOL    HW133032   2.641   3.146  12.955 -0.0609  2.7826 -0.9992
 7190SOL    HW233033   2.757   3.154  12.860  0.5284 -4.1902 -2.3452
 7191SOL     OW33034   2.139   3.456  16.949  0.1512 -0.1489 -0.1057
 7191SOL    HW133035   2.103   3.479  16.864 -3.7071 -1.1502  1.2359
 7191SOL    HW233036   2.208   3.522  16.945 -1.5947  1.7587  0.8137
 7192SOL     OW33037   0.992   3.381  13.200  0.1595 -0.0487 -0.3403
 7192SOL    HW133038   0.940   3.362  13.278  0.1856  1.3555  0.0232
 7192SOL    HW233039   1.002   3.476  13.212  0.3951 -0.2538  1.1212
 7193SOL     OW33040   2.530   3.662   0.980  0.1928  0.7835 -0.5936
 7193SOL    HW133041   2.506   3.570   0.996  1.1692  0.6204 -0.0072
 7193SOL    HW233042   2.542   3.684   1.072  2.5039 -0.1850 -0.6388
 7194SOL     OW33043   4.166   0.259   3.420 -0.7542 -0.3433 -0.2769
 7194SOL    HW133044   4.142   0.231   3.332  2.3087 -1.3736 -0.7781
 7194SOL    HW233045   4.080   0.284   3.454 -0.8874 -1.1709  0.0099
 7195SOL     OW33046   1.308   3.620  10.300  0.0505 -0.1905  0.2360
 7195SOL    HW133047   1.398   3.637  10.273 -0.2309  0.9252 -0.0010
 7195SOL    HW233048   1.268   3.707  10.304  3.6750  1.2782  4.9912
 7196SOL     OW33049   4.478   3.562  15.291 -0.4141  0.2108 -0.3105
 7196SOL    HW133050   4.545   3.497  15.269 -0.3140 -0.0222  0.6991
 7196SOL    HW233051   4.440   3.525  15.371 -0.3626 -0.0831 -0.4221
 7197SOL     OW33052   2.929   1.759   7.277 -0.1724 -0.2333  0.0108
 7197SOL    HW133053   2.875   1.759   7.198  1.7467 -0.7350 -1.3174
 7197SOL    HW233054   2.969   1.672   7.280 -1.8287 -0.9630  0.6154
 7198SOL     OW33055   1.774   3.734   9.676 -0.5317  0.0138 -0.2262
 7198SOL    HW133056   1.746   3.644   9.692  1.0118 -0.3156  0.5629
 7198SOL    HW233057   1.735   3.776   9.752  0.6773 -1.8030  1.3863
 7199SOL     OW33058   2.099   1.700   9.382 -0.5435 -0.5380  0.1293
 7199SOL    HW133059   2.004   1.697   9.376 -0.6670  0.0493  1.7083
 7199SOL    HW233060   2.104   1.640   9.457  0.3394 -1.2664 -0.5073
 7200SOL     OW33061   0.948   2.759   4.521 -0.2054 -0.1042 -0.0278
 7200SOL    HW133062   0.876   2.775   4.460 -1.3316 -2.0525  0.7904
 7200SOL    HW233063   0.921   2.683   4.573  2.0081  0.2248  1.5784
 7201SOL     OW33064   2.847   2.264   3.606  0.2229 -0.1040 -0.1895
 7201SOL    HW133065   2.852   2.183   3.557 -0.7337 -0.5387  0.4361
 7201SOL    HW233066   2.758   2.285   3.580  0.4419  3.2898  1.7325
 7202SOL     OW33067   4.058   2.001   2.101  0.3481  0.0839 -0.1246
 7202SOL    HW133068   3.996   1.959   2.160 -0.1390  1.2552  0.2057
 7202SOL    HW233069   4.012   2.085   2.091 -0.7857 -0.3258  1.5658
 7203SOL     OW33070   4.605   3.327   5.419 -0.2115  0.1193 -0.9490
 7203SOL    HW133071   4.595   3.277   5.338  1.9528 -2.2869  0.2739
 7203SOL    HW233072   4.687   3.371   5.399  1.0180 -1.9057 -0.3434
 7204SOL     OW33073   3.914   3.178   8.440  0.0517  0.4200 -0.6786
 7204SOL    HW133074   3.872   3.122   8.374 -2.6056  0.2364  1.1583
 7204SOL    HW233075   3.941   3.259   8.397 -2.0223  0.8262 -1.2576
 7205SOL     OW33076   2.040   0.884   2.803 -0.5257  0.5721  1.0970
 7205SOL    HW133077   1.973   0.873   2.871  0.7803 -1.0767  2.1036
 7205SOL    HW233078   2.008   0.956   2.748 -0.2918  0.6912  1.1159
 7206SOL     OW33079   1.074   3.280   2.308  0.4215 -0.1156  0.1166
 7206SOL    HW133080   1.038   3.338   2.241  1.0090 -0.2729 -0.3375
 7206SOL    HW233081   0.996   3.277   2.363  0.0083 -0.8881 -0.4970
 7207SOL     OW33082   4.506   3.766  17.019 -0.1562  0.2895 -0.0400
 7207SOL    HW133083   4.581   3.720  16.981 -1.9019 -0.2994 -2.7666
 7207SOL    HW233084   4.434   3.704  17.009 -0.4460  0.5468  0.4357
 7208SOL     OW33085   3.933   1.512   4.061  0.3135  0.1331  0.0271
 7208SOL    HW133086   3.947   1.429   4.015  1.1243  1.0490 -1.3620
 7208SOL    HW233087   3.887   1.563   3.995 -0.5044  0.9786  1.2494
 7209SOL     OW33088   3.914   4.076  17.470 -0.2323  0.1593 -0.3097
 7209SOL    HW133089   3.830   4.122  17.473  0.4794  1.5269 -0.8954
 7209SOL    HW233090   3.907   4.025  17.390  0.0420  0.2338 -0.3841
 7210SOL     OW33091   1.876   1.611  14.964 -0.1993 -0.4358  0.1368
 7210SOL    HW133092   1.806   1.663  15.003  0.2217  1.0350 -1.0520
 7210SOL    HW233093   1.847   1.610  14.873 -0.3707 -0.5316  0.1935
 7211SOL     OW33094   4.616   1.841  11.469 -0.0085  0.2510 -0.7853
 7211SOL    HW133095   4.630   1.748  11.488  1.1221  0.3493 -1.1544
 7211SOL    HW233096   4.704   1.868  11.493  0.6089 -2.4611 -0.0684
 7212SOL     OW33097   2.100   0.819   7.791 -0.2200 -0.0895 -0.5886
 7212SOL    HW133098   2.059   0.884   7.847 -0.7764 -0.4523 -0.5741
 7212SOL    HW233099   2.032   0.753   7.779 -0.9376  0.2301  1.8988
 7213SOL     OW33100   4.146   2.837   2.168  0.0652  0.2262 -0.3396
 7213SOL    HW133101   4.209   2.859   2.237  1.7955  2.8262 -2.7649
 7213SOL    HW233102   4.170   2.894   2.095 -2.0121  2.2829  0.5904
 7214SOL     OW33103   4.699   0.102   8.375  0.2967 -0.1108  0.1613
 7214SOL    HW133104   4.680   0.181   8.324 -1.1010 -0.2452  0.4908
 7214SOL    HW233105   4.647   0.120   8.454  0.9694  3.3487 -0.1590
 7215SOL     OW33106   1.799   0.810   7.682 -0.3431 -0.1401 -0.0849
 7215SOL    HW133107   1.707   0.785   7.689 -0.7830  1.1056 -1.3405
 7215SOL    HW233108   1.822   0.756   7.606  2.9183  2.6968 -1.1439
 7216SOL     OW33109   4.680   1.079   4.096 -0.7996 -0.0481  0.0076
 7216SOL    HW133110   4.717   1.080   4.008  1.3735  0.9869  0.9367
 7216SOL    HW233111   0.021   1.019   4.133 -0.0834  2.7488  3.2663
 7217SOL     OW33112   1.609   3.955   8.951 -0.2960  0.1308  0.0520
 7217SOL    HW133113   1.648   4.018   9.012  0.3388 -0.6846  0.4881
 7217SOL    HW233114   1.531   4.003   8.921  1.4475  1.4210 -2.3937
 7218SOL     OW33115   4.577   3.274   0.354  0.2764  0.0446 -0.1102
 7218SOL    HW133116   4.574   3.354   0.301 -0.9782 -0.3539 -0.6434
 7218SOL    HW233117   4.485   3.248   0.345  0.3960 -0.9519  1.6001
 7219SOL     OW33118   1.217   3.293   3.081 -0.1569  0.3765  0.3754
 7219SOL    HW133119   1.199   3.268   2.990  2.1397  1.2495 -0.3260
 7219SOL    HW233120   1.265   3.218   3.115  0.3780  1.4433  1.9702
 7220SOL     OW33121   2.534   4.694   6.836  0.2041  0.0821 -0.1548
 7220SOL    HW133122   2.460   4.723   6.890  0.5749 -0.0682  0.4395
 7220SOL    HW233123   2.481   4.648   6.772 -1.7376  1.7621  0.2193
 7221SOL     OW33124   1.355   0.823  13.574  0.2583 -0.4768  0.7378
 7221SOL    HW133125   1.422   0.776  13.524  1.5139 -0.3521  2.2853
 7221SOL    HW233126   1.305   0.863  13.504 -1.1556  0.7861  2.4598
 7222SOL     OW33127   1.610   1.059   0.785  0.4694  0.3561 -0.1136
 7222SOL    HW133128   1.635   1.029   0.698  0.0698 -0.0970 -0.0742
 7222SOL    HW233129   1.654   1.144   0.778  0.2762  0.6991  2.7493
 7223SOL     OW33130   0.831   4.528   1.786  0.1403 -0.0333 -0.2348
 7223SOL    HW133131   0.860   4.437   1.781 -2.8710 -1.0700  0.6150
 7223SOL    HW233132   0.737   4.508   1.791  0.1053  0.1219 -0.2617
 7224SOL     OW33133   3.878   3.070  10.353 -0.0421 -0.2994 -0.4192
 7224SOL    HW133134   3.881   3.091  10.447 -0.9768 -1.5019 -0.1071
 7224SOL    HW233135   3.840   3.143  10.305 -0.3774  0.8804  1.6458
 7225SOL     OW33136   3.249   3.789   5.159 -0.6068 -0.4920  0.1233
 7225SOL    HW133137   3.335   3.758   5.134 -0.8358 -2.4362  1.6749
 7225SOL    HW233138   3.271   3.879   5.184 -1.7665 -0.6050  1.6017
 7226SOL     OW33139   0.265   2.178   3.963 -0.0053 -0.2041  0.2593
 7226SOL    HW133140   0.199   2.243   3.986  1.4440  0.4092  2.7718
 7226SOL    HW233141   0.349   2.225   3.964 -0.0142 -0.1297 -2.5264
 7227SOL     OW33142   3.011   3.170   0.761 -0.4228 -0.2509 -0.3907
 7227SOL    HW133143   2.939   3.133   0.712 -0.2050 -0.0282 -0.8827
 7227SOL    HW233144   3.084   3.162   0.700  0.2292  0.0904  0.3314
 7228SOL     OW33145   0.190   0.424   1.526  0.1671 -0.5026  0.0826
 7228SOL    HW133146   0.106   0.439   1.568  0.0822  1.1872 -0.7114
 7228SOL    HW233147   0.159   0.432   1.436 -1.7146 -0.8094  0.7160
 7229SOL     OW33148   1.463   3.173   7.991  0.0523 -0.3344  0.0318
 7229SOL    HW133149   1.375   3.207   7.976  0.1079  0.1292  0.7412
 7229SOL    HW233150   1.452   3.085   8.027 -0.3521 -1.0938 -2.0006
 7230SOL     OW33151   2.390   1.948   4.041 -0.3400  0.5776 -0.0048
 7230SOL    HW133152   2.345   1.901   4.112 -0.9353  0.3316 -0.5470
 7230SOL    HW233153   2.457   2.002   4.083 -0.5715  1.3116 -0.5775
 7231SOL     OW33154   1.509   2.299   5.779  0.6596  0.9135 -0.4701
 7231SOL    HW133155   1.463   2.383   5.773  0.8445  1.1245  1.0969
 7231SOL    HW233156   1.451   2.247   5.834  0.4829  1.0580 -0.5215
 7232SOL     OW33157   0.733   1.019  11.979 -0.0977 -0.1111 -0.2017
 7232SOL    HW133158   0.759   0.955  12.045  0.0998  0.5767  0.3930
 7232SOL    HW233159   0.782   0.982  11.905 -0.1604  0.8813 -0.7340
 7233SOL     OW33160   3.863   0.628   5.616  0.6084 -0.6356  0.1297
 7233SOL    HW133161   3.854   0.699   5.553 -0.1209  1.8686  3.0448
 7233SOL    HW233162   3.781   0.635   5.664  1.3240 -0.1388  1.2819
 7234SOL     OW33163   1.042   3.897   4.033 -0.2706 -0.8671  0.2403
 7234SOL    HW133164   1.047   3.826   4.098  2.7706  1.1624  2.1832
 7234SOL    HW233165   1.001   3.845   3.963  0.2390 -1.1598  0.1643
 7235SOL     OW33166   1.610   2.930   6.763  0.0864 -0.0073 -0.1967
 7235SOL    HW133167   1.575   2.875   6.693 -1.1052 -0.3455  0.6649
 7235SOL    HW233168   1.599   2.884   6.847 -0.6984 -0.5034 -0.5716
 7236SOL     OW33169   1.967   2.702   7.308  0.2663  0.0515 -0.1657
 7236SOL    HW133170   2.000   2.621   7.346  1.0291 -0.2507 -1.4703
 7236SOL    HW233171   1.919   2.737   7.383  0.0374 -3.3118  1.2581
 7237SOL     OW33172   3.993   0.807   2.429  0.0683  0.4231  0.2722
 7237SOL    HW133173   3.969   0.754   2.353  1.3322 -1.4309  1.1622
 7237SOL    HW233174   4.044   0.874   2.382  1.5605 -0.2155  0.9594
 7238SOL     OW33175   2.020   2.561   5.508  0.2864 -0.0795  0.8226
 7238SOL    HW133176   1.977   2.476   5.506 -1.3626  0.8262 -2.7503
 7238SOL    HW233177   1.938   2.606   5.485  1.5335  1.1483 -1.2639
 7239SOL     OW33178   2.527   4.336   5.047 -0.8921 -0.0490  0.1376
 7239SOL    HW133179   2.559   4.335   5.138 -0.8707  1.8088  0.1652
 7239SOL    HW233180   2.564   4.253   5.017 -1.2387 -0.1575  0.0180
 7240SOL     OW33181   3.427   2.349   4.629 -0.3372  0.4615 -0.0651
 7240SOL    HW133182   3.423   2.394   4.714  0.6102 -0.5127  0.4942
 7240SOL    HW233183   3.516   2.315   4.637  0.4968  2.9051  1.1376
 7241SOL     OW33184   2.054   4.476   1.707  0.3116  0.1277  0.2742
 7241SOL    HW133185   2.113   4.548   1.728 -1.5275  2.4642 -2.5085
 7241SOL    HW233186   2.015   4.510   1.626 -0.3170  0.8701  0.8943
 7242SOL     OW33187   0.927   0.929   9.093  0.2111 -0.1142  0.4039
 7242SOL    HW133188   0.906   0.946   9.002  0.2568  0.2139  0.4563
 7242SOL    HW233189   0.920   0.834   9.100  1.4929 -0.0598  2.4965
 7243SOL     OW33190   0.916   3.245   4.711  0.1097  0.1555  0.4758
 7243SOL    HW133191   0.877   3.193   4.782  0.7511  0.0869  0.7757
 7243SOL    HW233192   0.910   3.334   4.745 -2.6514 -0.5173  1.8094
 7244SOL     OW33193   4.283   1.875  13.306 -0.0731  0.0872 -0.0584
 7244SOL    HW133194   4.261   1.962  13.270  0.5479 -0.6342 -2.2039
 7244SOL    HW233195   4.248   1.871  13.395 -2.1375 -1.5341 -0.9320
 7245SOL     OW33196   3.201   2.468   8.427  0.3427  0.3125  0.5257
 7245SOL    HW133197   3.121   2.422   8.403  0.7372  0.3587 -0.9017
 7245SOL    HW233198   3.203   2.476   8.522 -0.3491 -1.8636  0.7093
 7246SOL     OW33199   3.594   4.104  17.489  0.1712  0.0762  0.2275
 7246SOL    HW133200   3.563   4.089  17.579 -1.0802 -0.4131 -0.2873
 7246SOL    HW233201   3.618   4.197  17.486  2.0181 -0.5085 -2.2520
 7247SOL     OW33202   0.484   4.684   4.297  0.6207  0.1939 -0.1063
 7247SOL    HW133203   0.443   0.042   4.321 -0.8231 -0.4232 -0.4407
 7247SOL    HW233204   0.569   4.707   4.260  0.6003  1.0228  0.3698
 7248SOL     OW33205   3.457   3.844   6.851 -0.3877 -0.1122  0.1803
 7248SOL    HW133206   3.500   3.799   6.924  0.2816 -2.2658 -1.5538
 7248SOL    HW233207   3.414   3.906   6.911  1.1906  2.2681 -1.1258
 7249SOL     OW33208   2.158   1.702   3.733  0.4625  0.6948  0.0885
 7249SOL    HW133209   2.125   1.616   3.706  0.6603  0.2092  1.4075
 7249SOL    HW233210   2.078   1.748   3.758 -0.6689 -2.3495  2.0254
 7250SOL     OW33211   3.918   0.943  15.634  0.7274 -0.3200  0.0030
 7250SOL    HW133212   3.983   0.885  15.594 -1.9531 -2.5438 -1.1153
 7250SOL    HW233213   3.913   1.025  15.583 -3.0831 -0.6548 -0.1930
 7251SOL     OW33214   1.902   2.351  16.147  0.0541 -0.1351  0.4334
 7251SOL    HW133215   1.985   2.393  16.124 -0.2136 -0.7899 -1.7606
 7251SOL    HW233216   1.901   2.365  16.242  0.6561 -3.0750  0.8866
 7252SOL     OW33217   0.934   1.817   2.769  0.3057 -0.2154  0.1709
 7252SOL    HW133218   1.026   1.799   2.788  1.2563  2.0762 -2.4418
 7252SOL    HW233219   0.903   1.726   2.770  1.1713 -0.5063 -0.1186
 7253SOL     OW33220   1.867   4.173  11.195 -0.1770  0.5903 -0.2702
 7253SOL    HW133221   1.926   4.107  11.231 -0.7562  0.0853 -0.2427
 7253SOL    HW233222   1.817   4.195  11.274  0.8578 -2.8349  1.3480
 7254SOL     OW33223   0.404   3.348  11.698 -0.0143 -0.1534  0.1291
 7254SOL    HW133224   0.379   3.431  11.737 -2.1248  0.4444 -2.4657
 7254SOL    HW233225   0.340   3.290  11.739  0.6669 -0.7538  0.3472
 7255SOL     OW33226   2.378   3.492   5.465 -0.0280  0.2971  0.4325
 7255SOL    HW133227   2.392   3.478   5.372 -1.5605  2.3891 -0.1242
 7255SOL    HW233228   2.452   3.547   5.491  2.1007 -2.7256  0.7104
 7256SOL     OW33229   1.922   0.277   4.090  0.1469 -0.0947  0.5433
 7256SOL    HW133230   1.895   0.351   4.143  0.4946 -0.5328  1.3203
 7256SOL    HW233231   1.956   0.305   4.005 -0.6434 -1.3459 -0.1909
 7257SOL     OW33232   1.497   2.565  10.226  0.2477  0.0718 -0.2001
 7257SOL    HW133233   1.407   2.598  10.230  1.1408  2.4298  0.0195
 7257SOL    HW233234   1.480   2.472  10.242  0.7034  0.3235  1.6823
 7258SOL     OW33235   3.884   0.421  15.672 -0.0868 -0.1724 -0.6476
 7258SOL    HW133236   3.959   0.400  15.728  0.1083 -0.2685 -0.9413
 7258SOL    HW233237   3.926   0.403  15.588 -0.3525 -0.7473 -0.6550
 7259SOL     OW33238   3.582   1.980   3.157 -0.4572 -0.3011  0.1359
 7259SOL    HW133239   3.505   2.034   3.135 -1.0357 -1.4426 -0.6252
 7259SOL    HW233240   3.647   2.025   3.103  0.5953 -0.5938  1.1869
 7260SOL     OW33241   0.039   3.217   3.657  0.3852  0.0452  0.3281
 7260SOL    HW133242   4.685   3.268   3.678 -0.3836 -1.7048  1.7200
 7260SOL    HW233243   0.086   3.278   3.601  0.0579 -0.0266 -0.0221
 7261SOL     OW33244   4.047   1.731   1.866 -0.1759 -0.3101  0.2546
 7261SOL    HW133245   3.967   1.784   1.860  0.5767  0.8413  0.5155
 7261SOL    HW233246   4.042   1.670   1.793  0.7566 -1.0504  0.8108
 7262SOL     OW33247   4.206   0.095   5.277  0.1327 -0.0506 -0.4273
 7262SOL    HW133248   4.216   0.189   5.293 -1.5199  0.0490 -0.0161
 7262SOL    HW233249   4.208   0.076   5.371  1.6382  0.5730 -0.3277
 7263SOL     OW33250   1.542   2.340   8.158 -0.4323  0.4696  0.8118
 7263SOL    HW133251   1.582   2.423   8.180 -0.3631  0.7205 -0.2500
 7263SOL    HW233252   1.623   2.292   8.170  0.3165  1.7501  0.8185
 7264SOL     OW33253   0.624   4.414   4.059  0.1003 -0.5759 -0.2732
 7264SOL    HW133254   0.701   4.462   4.029  0.6548 -0.1972  1.7054
 7264SOL    HW233255   0.550   4.454   4.014 -0.9230 -3.0233 -0.7734
 7265SOL     OW33256   0.374   1.487   5.828 -0.0962  0.4123  0.1340
 7265SOL    HW133257   0.317   1.410   5.815 -0.0082  0.6461 -1.5890
 7265SOL    HW233258   0.436   1.450   5.890 -1.6253 -3.2299 -0.4886
 7266SOL     OW33259   2.367   2.338   8.944  0.2419  0.3484  0.0831
 7266SOL    HW133260   2.324   2.359   8.861  1.5474 -2.4188 -1.3250
 7266SOL    HW233261   2.368   2.421   8.990 -0.1746  0.2901  0.1963
 7267SOL     OW33262   0.291   0.042   7.451  0.0416 -0.7362 -0.4900
 7267SOL    HW133263   0.255   0.127   7.476  1.8213  0.1042 -0.7670
 7267SOL    HW233264   0.382   0.040   7.480 -0.0306 -4.1795 -0.5813
 7268SOL     OW33265   4.053   4.033   2.410  0.3419 -0.3472 -0.2917
 7268SOL    HW133266   4.118   4.103   2.418 -0.2458  0.0985  0.4886
 7268SOL    HW233267   4.077   3.986   2.490  0.2234  0.1807  0.0464
 7269SOL     OW33268   4.190   1.024   4.993  0.6402 -0.0534  0.1535
 7269SOL    HW133269   4.149   1.107   5.017 -0.7781 -0.2123 -1.7285
 7269SOL    HW233270   4.220   0.995   5.079  2.8686 -0.1114 -0.6182
 7270SOL     OW33271   0.175   1.447   5.528 -0.0359  0.0838 -0.8255
 7270SOL    HW133272   0.191   1.537   5.556  0.1612 -0.2499  0.1255
 7270SOL    HW233273   0.094   1.467   5.480  0.7938 -0.0830 -2.2805
 7271SOL     OW33274   0.873   4.632   7.745  0.1719 -0.1624  0.2773
 7271SOL    HW133275   0.950   4.658   7.693 -0.1598 -0.8157 -0.5357
 7271SOL    HW233276   0.920   4.582   7.812  1.4838 -1.3685 -1.5380
 7272SOL     OW33277   4.483   2.724   1.445  0.2646 -0.0249  0.7119
 7272SOL    HW133278   4.518   2.773   1.371  0.8383  0.0791  1.0595
 7272SOL    HW233279   4.503   2.785   1.516 -1.8930 -0.8248  2.0143
 7273SOL     OW33280   1.368   3.116  12.954 -0.2256 -0.4604  0.1125
 7273SOL    HW133281   1.413   3.184  12.904 -1.6413  1.7983  1.8966
 7273SOL    HW233282   1.413   3.039  12.917  0.6634 -0.5519  1.3549
 7274SOL     OW33283   3.547   3.327   5.845  0.5160  0.1776 -0.3492
 7274SOL    HW133284   3.509   3.273   5.776  0.8416  0.6551 -0.9066
 7274SOL    HW233285   3.518   3.416   5.827 -0.3762 -0.6356 -2.9857
 7275SOL     OW33286   3.449   3.091   4.009  0.2363 -0.1394 -0.5122
 7275SOL    HW133287   3.501   3.171   4.018  1.2368 -0.8496  0.0537
 7275SOL    HW233288   3.510   3.029   3.970  1.1767  0.4632  0.0070
 7276SOL     OW33289   3.961   2.412  15.297  0.4511  0.0035 -0.0946
 7276SOL    HW133290   3.998   2.352  15.362 -3.8790 -0.4561  1.9840
 7276SOL    HW233291   3.883   2.359  15.277  0.9563 -1.3599  1.4845
 7277SOL     OW33292   1.313   3.557   9.821  0.4984  0.0130 -0.3599
 7277SOL    HW133293   1.284   3.485   9.765  1.9429  0.0195 -1.1137
 7277SOL    HW233294   1.270   3.545   9.906 -1.8706  0.5633 -1.4758
 7278SOL     OW33295   3.794   1.255   7.325 -0.7987 -0.2876 -0.4776
 7278SOL    HW133296   3.780   1.251   7.420 -2.4567  2.6498 -0.6163
 7278SOL    HW233297   3.792   1.350   7.318 -1.5668 -0.4640 -2.8253
 7279SOL     OW33298   0.495   1.654  14.156  0.2692 -0.0131  0.1917
 7279SOL    HW133299   0.529   1.731  14.201 -1.7736  1.2320 -0.3992
 7279SOL    HW233300   0.543   1.662  14.074  1.5270 -3.6190  0.5728
 7280SOL     OW33301   3.266   0.097  17.007  0.1444 -0.8242  0.5141
 7280SOL    HW133302   3.193   0.117  16.949  0.2388 -1.0267  0.3268
 7280SOL    HW233303   3.227   0.123  17.090 -1.4181 -1.6674  0.0283
 7281SOL     OW33304   1.283   0.047   2.047 -0.5199  0.2445  0.6862
 7281SOL    HW133305   1.333   4.709   2.099 -1.6961 -0.3874  1.0455
 7281SOL    HW233306   1.357   0.097   2.013  0.4598 -1.4237  0.3897
 7282SOL     OW33307   2.299   4.177   8.269 -0.1741  0.4235  0.2203
 7282SOL    HW133308   2.327   4.168   8.360 -0.6617 -2.2514  0.1062
 7282SOL    HW233309   2.209   4.206   8.284 -0.9719 -2.5275  1.0538
 7283SOL     OW33310   1.827   4.367   2.635  0.2463 -0.0548 -0.3330
 7283SOL    HW133311   1.852   4.307   2.565  1.2008  1.4965 -1.3098
 7283SOL    HW233312   1.885   4.326   2.700 -0.6419  1.0348  1.1604
 7284SOL     OW33313   1.384   0.367  11.760 -0.2797 -0.2225 -0.1009
 7284SOL    HW133314   1.300   0.412  11.750 -0.5289 -0.2398  1.9108
 7284SOL    HW233315   1.352   0.277  11.755  1.4484 -0.7590 -1.4499
 7285SOL     OW33316   3.384   0.276   4.214 -0.0449  0.2729  0.8542
 7285SOL    HW133317   3.339   0.193   4.197  2.4207 -0.8774 -0.0011
 7285SOL    HW233318   3.305   0.309   4.259  0.1735 -0.5126  1.8041
 7286SOL     OW33319   2.392   2.898   3.320  0.3106 -0.2451 -0.0227
 7286SOL    HW133320   2.439   2.861   3.394  0.8732 -1.0053 -0.7556
 7286SOL    HW233321   2.439   2.854   3.249 -1.5301 -0.7935 -0.9096
 7287SOL     OW33322   2.208   2.785   5.843  0.3585 -0.4871  0.1897
 7287SOL    HW133323   2.231   2.866   5.888 -2.7639  0.0595  0.7863
 7287SOL    HW233324   2.118   2.792   5.809  1.0407  1.9219 -1.1540
 7288SOL     OW33325   0.032   2.096   7.436 -0.1545 -0.3642  0.2897
 7288SOL    HW133326   0.103   2.150   7.402 -0.2169 -0.4835 -0.0279
 7288SOL    HW233327   4.691   2.158   7.470 -0.4620 -0.2973 -0.4249
 7289SOL     OW33328   1.585   2.253  16.997 -0.6400 -0.1876 -0.0433
 7289SOL    HW133329   1.531   2.235  16.920 -0.8702 -3.8213  0.9591
 7289SOL    HW233330   1.669   2.266  16.953 -1.0032 -0.3222 -0.7621
 7290SOL     OW33331   3.197   1.602   1.763 -0.1465 -0.1411  0.0447
 7290SOL    HW133332   3.194   1.515   1.723  1.2306 -0.0891 -0.1817
 7290SOL    HW233333   3.107   1.631   1.775  0.0623 -0.3753  2.1711
 7291SOL     OW33334   1.674   1.876   6.171  0.1340  0.3485  0.1608
 7291SOL    HW133335   1.623   1.955   6.149  2.4599  1.1384 -2.3486
 7291SOL    HW233336   1.765   1.895   6.151  0.6149 -0.3661  1.7028
 7292SOL     OW33337   3.909   1.649   2.373  0.1350 -0.3067 -0.2388
 7292SOL    HW133338   3.907   1.741   2.345 -0.5844 -0.4429 -0.6340
 7292SOL    HW233339   3.891   1.596   2.295  0.2053 -2.1981  1.0449
 7293SOL     OW33340   2.810   0.171   9.144  0.1029  0.8905  0.5622
 7293SOL    HW133341   2.879   0.213   9.092  0.3267  0.1321  0.2409
 7293SOL    HW233342   2.866   0.100   9.177  0.7047  0.6249 -1.0315
 7294SOL     OW33343   3.162   3.205   8.414  0.4465  0.3211  0.3860
 7294SOL    HW133344   3.223   3.136   8.442 -1.5267 -1.7777 -0.5762
 7294SOL    HW233345   3.085   3.155   8.390  2.6270 -4.3589  3.0228
 7295SOL     OW33346   2.382   2.539   9.158  0.0482  0.1650  0.0550
 7295SOL    HW133347   2.433   2.524   9.238 -0.7476  1.7389  0.8714
 7295SOL    HW233348   2.414   2.627   9.136 -3.0792  0.9917 -1.1094
 7296SOL     OW33349   2.711   2.598   4.865  0.1235  0.1533 -0.1198
 7296SOL    HW133350   2.678   2.688   4.866  0.5546  0.3237 -1.1624
 7296SOL    HW233351   2.705   2.575   4.773  1.1379 -0.9386  0.0787
 7297SOL     OW33352   2.214   1.931   9.845 -0.3200  0.0485  0.1189
 7297SOL    HW133353   2.138   1.891   9.803 -0.0525 -0.1857 -0.1416
 7297SOL    HW233354   2.177   2.013   9.877 -0.6991 -0.3947  0.8140
 7298SOL     OW33355   3.019   0.847   4.774  0.0390  0.2614  0.1593
 7298SOL    HW133356   3.097   0.833   4.828 -1.3350 -2.5592  1.4352
 7298SOL    HW233357   3.030   0.939   4.752 -0.5672  0.3785  0.3278
 7299SOL     OW33358   4.524   3.226  13.304  0.2910  0.6585 -0.1868
 7299SOL    HW133359   4.589   3.294  13.287 -0.6834  1.6825  0.2144
 7299SOL    HW233360   4.499   3.258  13.391  1.6248  2.2427 -0.3962
 7300SOL     OW33361   1.194   4.361   6.100 -0.4180 -0.1506  0.6219
 7300SOL    HW133362   1.184   4.447   6.059 -1.8915 -1.8026 -2.4508
 7300SOL    HW233363   1.248   4.376   6.178  1.4922 -2.6299 -0.2417
 7301SOL     OW33364   3.956   0.963  16.018 -0.1532  0.0799 -0.1738
 7301SOL    HW133365   3.874   0.951  16.066  0.2379  2.1991  1.0189
 7301SOL    HW233366   4.022   0.913  16.066  1.0115  0.3967 -1.4484
 7302SOL     OW33367   0.212   0.268  14.108 -0.2089 -0.0359  0.0219
 7302SOL    HW133368   0.188   0.353  14.072  2.4567  0.3680 -0.7238
 7302SOL    HW233369   0.195   0.212  14.032 -1.6921 -1.3643  1.3180
 7303SOL     OW33370   0.358   2.492   6.975 -0.1524 -0.0788  0.4480
 7303SOL    HW133371   0.286   2.466   7.032 -0.6627  0.4499  0.0456
 7303SOL    HW233372   0.391   2.410   6.939 -0.2079  0.7649 -1.5328
 7304SOL     OW33373   3.047   1.568  12.878 -0.6753 -0.6960  0.5682
 7304SOL    HW133374   2.991   1.644  12.899  0.0340  0.1083 -0.4509
 7304SOL    HW233375   3.129   1.604  12.844 -0.6186  0.1824  1.6053
 7305SOL     OW33376   3.524   2.105   8.783 -0.0852  0.0014 -0.7281
 7305SOL    HW133377   3.520   2.191   8.740  0.5284  0.3544 -0.0794
 7305SOL    HW233378   3.610   2.118   8.822 -0.2047 -0.8765 -0.1805
 7306SOL     OW33379   3.517   3.331  10.741  0.1565  1.0022 -0.1278
 7306SOL    HW133380   3.558   3.417  10.752 -0.8186  1.2208  1.6813
 7306SOL    HW233381   3.551   3.301  10.656 -2.3247  1.8777 -1.4378
 7307SOL     OW33382   3.253   0.555  15.855 -0.2176  0.0670 -0.1808
 7307SOL    HW133383   3.200   0.485  15.894 -0.6015  0.6391  0.3294
 7307SOL    HW233384   3.194   0.626  15.879  0.3408  0.6945 -0.6699
 7308SOL     OW33385   3.574   1.101   4.509  0.0323  0.1573  0.2439
 7308SOL    HW133386   3.526   1.018   4.511 -3.2099  1.9727 -1.6386
 7308SOL    HW233387   3.592   1.111   4.416  0.7153 -1.1813  0.2314
 7309SOL     OW33388   2.041   4.083   5.097  0.8968  0.1205  0.1919
 7309SOL    HW133389   1.999   4.084   5.183 -0.5637 -1.0774 -0.5065
 7309SOL    HW233390   2.084   4.168   5.096 -0.6022  0.8646  0.8337
 7310SOL     OW33391   4.450   2.048   8.089 -0.6127  0.3505 -0.3063
 7310SOL    HW133392   4.386   1.983   8.118  0.9859 -1.2957 -0.4161
 7310SOL    HW233393   4.389   2.107   8.045 -1.4564  2.5756  3.9353
 7311SOL     OW33394   1.852   3.015   0.576  0.0059  0.1525  0.1108
 7311SOL    HW133395   1.909   3.009   0.653  0.0479 -1.1964 -0.0317
 7311SOL    HW233396   1.902   3.068   0.515 -3.2365  1.4396 -1.4514
 7312SOL     OW33397   2.777   4.374   1.649  0.1809 -0.5428 -0.0319
 7312SOL    HW133398   2.744   4.287   1.671 -2.4403  0.9524  1.9544
 7312SOL    HW233399   2.848   4.365   1.585 -0.5953 -2.4744 -0.6108
 7313SOL     OW33400   2.460   4.026   4.441 -0.0392  0.4280 -0.2227
 7313SOL    HW133401   2.381   3.984   4.473 -1.4648  2.0973 -1.4880
 7313SOL    HW233402   2.456   4.043   4.346 -0.1061  2.7339  0.1765
 7314SOL     OW33403   0.183   2.377  15.096  0.1954 -0.3431  0.3643
 7314SOL    HW133404   0.234   2.404  15.173 -0.9377 -0.9230  1.3215
 7314SOL    HW233405   0.252   2.384  15.030  1.5595  1.0723  1.9350
 7315SOL     OW33406   2.590   0.568   0.841  0.4541  0.5165 -0.0114
 7315SOL    HW133407   2.542   0.639   0.885 -1.5181 -1.7449  1.4526
 7315SOL    HW233408   2.550   0.490   0.878  4.0265 -1.2834  0.0414
 7316SOL     OW33409   4.594   2.071   4.591 -0.3852 -0.6564 -0.4427
 7316SOL    HW133410   4.655   2.003   4.563  1.0182 -0.0720  1.2448
 7316SOL    HW233411   4.548   2.079   4.507 -1.8659 -0.0601  0.4308
 7317SOL     OW33412   3.619   4.547   8.374 -0.6179  0.0132 -0.0267
 7317SOL    HW133413   3.535   4.503   8.387  0.5122 -2.2195 -0.2961
 7317SOL    HW233414   3.672   4.520   8.449  0.7202 -0.1589 -1.0329
 7318SOL     OW33415   2.160   3.988   8.627 -0.2119 -0.2390  0.0510
 7318SOL    HW133416   2.111   3.957   8.703  1.1096  0.4239  1.1778
 7318SOL    HW233417   2.090   4.019   8.569 -0.4007 -1.3535 -0.3086
 7319SOL     OW33418   0.759   4.199   5.234  0.6993 -0.2077 -0.3802
 7319SOL    HW133419   0.709   4.118   5.225  2.2778 -1.2966  0.6854
 7319SOL    HW233420   0.787   4.203   5.143 -1.3750  0.6160 -0.9669
 7320SOL     OW33421   1.790   3.073   7.271 -0.8933 -0.3324 -0.2856
 7320SOL    HW133422   1.740   3.079   7.190 -1.3728  1.1706  0.1176
 7320SOL    HW233423   1.739   3.004   7.312 -0.6440  0.6458  1.7097
 7321SOL     OW33424   0.796   3.737   0.104  0.0898  0.0830 -0.3922
 7321SOL    HW133425   0.743   3.707   0.030 -1.0180 -0.0364  0.4624
 7321SOL    HW233426   0.730   3.737   0.172  0.2673 -0.9716 -0.2217
 7322SOL     OW33427   3.211   3.049   8.154 -0.6868  0.1808 -0.7378
 7322SOL    HW133428   3.215   3.014   8.243 -2.7578  0.6686 -0.4595
 7322SOL    HW233429   3.149   2.989   8.114  0.1162 -0.8779 -0.3857
 7323SOL     OW33430   1.233   2.608  10.236  0.4586  0.0015 -0.1168
 7323SOL    HW133431   1.167   2.651  10.181  0.8787  0.0629 -0.5713
 7323SOL    HW233432   1.180   2.529  10.245 -1.5967  1.6278  1.9836
 7324SOL     OW33433   4.480   1.606   1.577 -0.1026  0.4601  0.4032
 7324SOL    HW133434   4.472   1.545   1.650  0.6283  0.8754  0.8232
 7324SOL    HW233435   4.476   1.684   1.631  0.8603 -0.2114  1.4363
 7325SOL     OW33436   2.626   4.637   3.658  0.1125 -0.1272  0.4758
 7325SOL    HW133437   2.577   4.597   3.587  0.2116 -0.2740  0.4912
 7325SOL    HW233438   2.708   4.658   3.613 -0.2028 -1.4463 -0.6819
 7326SOL     OW33439   2.050   2.989   3.474 -0.3465  0.2882  0.2213
 7326SOL    HW133440   1.978   2.943   3.516 -0.9732 -1.1234 -2.4413
 7326SOL    HW233441   2.012   3.076   3.463  0.7771  0.4514 -2.3094
 7327SOL     OW33442   1.731   2.596   5.863  0.0166  0.7204 -0.2983
 7327SOL    HW133443   1.788   2.654   5.914  1.8297 -2.9033  1.7861
 7327SOL    HW233444   1.647   2.585   5.909  0.9847 -0.5716  1.1594
 7328SOL     OW33445   3.620   0.166   6.914  0.1334  0.1696 -0.5898
 7328SOL    HW133446   3.694   0.164   6.975  0.3424 -3.1194 -0.9556
 7328SOL    HW233447   3.595   0.075   6.902  0.0980  0.2688 -1.2708
 7329SOL     OW33448   0.980   4.348   9.716  0.5645  0.1276 -0.3320
 7329SOL    HW133449   1.002   4.427   9.666  0.5169  1.2746  1.4527
 7329SOL    HW233450   0.934   4.303   9.646 -2.1527  1.8740  0.3089
 7330SOL     OW33451   2.839   3.764   2.958  0.8268  0.1138  0.3957
 7330SOL    HW133452   2.922   3.756   3.005  0.6685 -1.2156  0.4431
 7330SOL    HW233453   2.852   3.849   2.916  0.6512  0.7771  1.6895
 7331SOL     OW33454   3.361   0.555   5.325 -0.0392  0.4361  0.2136
 7331SOL    HW133455   3.405   0.618   5.268 -1.3838  2.3862  1.3342
 7331SOL    HW233456   3.297   0.515   5.266  1.9140 -0.8787 -1.0305
 7332SOL     OW33457   1.123   2.947   4.508 -0.1180  0.7462 -0.2004
 7332SOL    HW133458   1.060   2.876   4.521  2.2442 -0.5899  3.8709
 7332SOL    HW233459   1.115   2.968   4.415  4.0501  0.0000 -0.7412
 7333SOL     OW33460   3.004   4.302  14.402  0.0809 -0.2907 -0.3977
 7333SOL    HW133461   2.947   4.270  14.332 -0.8662  0.2232  0.1413
 7333SOL    HW233462   2.945   4.368  14.439  0.7081 -1.3230  2.5047
 7334SOL     OW33463   0.875   1.171   0.946 -0.1324  0.2398 -0.5836
 7334SOL    HW133464   0.935   1.103   0.913 -0.9647 -2.4333  3.4290
 7334SOL    HW233465   0.870   1.149   1.039 -0.1533 -1.2365 -0.9341
 7335SOL     OW33466   3.842   3.971   9.880 -0.0947 -0.0544  0.6607
 7335SOL    HW133467   3.840   4.061   9.848  1.9866  0.0512  0.8104
 7335SOL    HW233468   3.909   3.940   9.819  3.5450 -0.4065  4.8400
 7336SOL     OW33469   4.239   0.289   7.496  0.3797 -0.2977 -0.2851
 7336SOL    HW133470   4.316   0.269   7.549 -0.1421  1.3091  1.0935
 7336SOL    HW233471   4.186   0.328   7.566 -2.4277 -0.4924 -2.3096
 7337SOL     OW33472   2.485   0.793   0.599 -0.0117 -0.3798 -0.0335
 7337SOL    HW133473   2.449   0.871   0.641 -0.4659 -0.9393  0.6171
 7337SOL    HW233474   2.559   0.832   0.553 -0.6933 -0.7952 -1.4799
 7338SOL     OW33475   2.625   3.833  12.646 -0.3801 -0.8549  0.6670
 7338SOL    HW133476   2.710   3.798  12.619  0.1569 -0.1509  1.4445
 7338SOL    HW233477   2.630   3.820  12.740 -0.8430 -0.7830  0.7010
 7339SOL     OW33478   3.054   2.171  15.409 -0.0638  0.6008 -0.2051
 7339SOL    HW133479   2.971   2.144  15.370 -0.9227 -1.1448  2.8527
 7339SOL    HW233480   3.107   2.199  15.334  2.3548  2.3041  2.1210
 7340SOL     OW33481   2.092   2.090  10.306 -0.3525 -0.0618 -0.0043
 7340SOL    HW133482   2.049   2.083  10.221  1.6401  1.5311 -1.1258
 7340SOL    HW233483   2.110   1.998  10.323 -1.0398 -0.1071  0.5161
 7341SOL     OW33484   0.681   2.869  10.085 -0.3103  0.1168 -0.2720
 7341SOL    HW133485   0.632   2.795  10.049 -1.8986  0.4412  1.2204
 7341SOL    HW233486   0.747   2.820  10.135 -0.1408  3.6917  2.9705
 7342SOL     OW33487   1.860   1.367   3.572 -0.1322 -0.6660 -0.0335
 7342SOL    HW133488   1.836   1.278   3.595 -2.4807 -0.5903 -2.0781
 7342SOL    HW233489   1.785   1.403   3.523 -1.2147 -2.3055  0.4024
 7343SOL     OW33490   0.145   3.942   8.638 -0.6863 -0.7868 -0.3429
 7343SOL    HW133491   0.109   3.870   8.587 -0.0221 -0.8165 -0.7741
 7343SOL    HW233492   0.081   3.936   8.709  1.1746 -0.5608  1.3649
 7344SOL     OW33493   4.176   4.603   5.122  0.2968 -0.1148 -0.2844
 7344SOL    HW133494   4.201   4.647   5.040 -1.1210  2.4534  0.6651
 7344SOL    HW233495   4.208   4.667   5.186 -1.3902  0.9705 -0.5266
 7345SOL     OW33496   0.166   0.514   4.191  0.3638  0.0115 -0.5072
 7345SOL    HW133497   0.192   0.525   4.283  0.0669  0.2398 -0.4487
 7345SOL    HW233498   0.205   0.596   4.162 -1.2516  0.4018 -1.6318
 7346SOL     OW33499   0.352   0.953   6.795 -0.2096 -0.4139  0.4529
 7346SOL    HW133500   0.290   0.883   6.816  0.0945 -1.0316 -0.7308
 7346SOL    HW233501   0.292   1.025   6.773 -0.6313 -1.9987 -3.5873
 7347SOL     OW33502   0.566   1.679  13.702 -0.0402 -0.8948  0.2025
 7347SOL    HW133503   0.540   1.770  13.693 -1.5496 -1.2185  1.3009
 7347SOL    HW233504   0.628   1.669  13.629 -0.3870  1.3377 -0.3812
 7348SOL     OW33505   0.766   4.578   2.451 -0.1233 -0.3187  0.1225
 7348SOL    HW133506   0.838   4.640   2.435  0.0745 -0.9708 -1.5084
 7348SOL    HW233507   0.731   4.572   2.362 -1.2507 -0.0893  0.5490
 7349SOL     OW33508   4.271   0.716   8.193  0.0889 -0.1043 -0.1167
 7349SOL    HW133509   4.239   0.807   8.187 -1.6437 -0.6927  0.1636
 7349SOL    HW233510   4.207   0.688   8.258 -1.5362 -0.9723 -2.0632
 7350SOL     OW33511   2.675   3.408  16.832 -0.1220  0.3083 -0.2694
 7350SOL    HW133512   2.627   3.460  16.897 -0.2685  1.3837 -1.2386
 7350SOL    HW233513   2.604   3.401  16.767 -1.0081  0.0207  0.7246
 7351SOL     OW33514   0.078   1.782   4.739 -0.4990 -0.1587 -0.3094
 7351SOL    HW133515   0.006   1.831   4.779 -1.2781 -0.9113 -0.7843
 7351SOL    HW233516   0.032   1.698   4.735  0.7387 -0.7968 -1.2017
 7352SOL     OW33517   4.274   2.997  15.781  0.1632 -0.7261  0.0545
 7352SOL    HW133518   4.342   3.055  15.815 -0.7939  0.9236 -0.8686
 7352SOL    HW233519   4.230   2.973  15.863 -1.4922  1.0008 -0.3428
 7353SOL     OW33520   0.296   1.322   3.088  0.7289 -0.1344  0.4235
 7353SOL    HW133521   0.252   1.322   3.003  0.6992 -1.6703  0.4405
 7353SOL    HW233522   0.278   1.235   3.124 -1.0536  0.2992  0.5642
 7354SOL     OW33523   1.585   0.521  11.616 -0.0844 -0.0919 -0.8664
 7354SOL    HW133524   1.524   0.453  11.645  0.9843 -0.3945  0.6912
 7354SOL    HW233525   1.527   0.596  11.614  0.8498  0.6131 -1.3065
 7355SOL     OW33526   1.017   4.654   3.250  0.4682  0.2472  0.9047
 7355SOL    HW133527   0.975   4.571   3.273 -1.1148  0.7024 -0.3428
 7355SOL    HW233528   0.962   4.719   3.293 -0.4778 -0.2296  0.4196
 7356SOL     OW33529   2.112   1.804   0.375 -0.2945  0.2044 -0.3450
 7356SOL    HW133530   2.061   1.727   0.350 -0.0447  0.1631 -0.7375
 7356SOL    HW233531   2.094   1.804   0.469  0.7528 -1.1331 -0.1556
 7357SOL     OW33532   2.460   3.805  13.103 -0.5228  0.3055  0.1200
 7357SOL    HW133533   2.518   3.771  13.035  0.8818 -0.2022  1.5722
 7357SOL    HW233534   2.497   3.893  13.116 -1.0608  0.4096  0.9215
 7358SOL     OW33535   3.012   2.272   6.795  0.0529 -0.2525 -0.1030
 7358SOL    HW133536   3.095   2.239   6.831  0.2122  1.4240  1.0679
 7358SOL    HW233537   3.009   2.367   6.809 -2.1887 -0.3372 -0.0322
 7359SOL     OW33538   1.565   1.403   8.639 -0.1925 -0.2701 -0.1901
 7359SOL    HW133539   1.633   1.344   8.605  0.5855 -0.9511  2.5394
 7359SOL    HW233540   1.624   1.462   8.686  1.5389 -1.9044 -0.2855
 7360SOL     OW33541   3.763   0.555   4.632  0.0120  0.2729 -0.4093
 7360SOL    HW133542   3.793   0.504   4.557  0.7416  0.2884 -0.1353
 7360SOL    HW233543   3.736   0.480   4.685  1.9969  0.5892  1.0641
 7361SOL     OW33544   3.652   1.954   5.594 -0.0230  0.5920  0.1601
 7361SOL    HW133545   3.661   2.037   5.641  0.0904  0.4085  0.4637
 7361SOL    HW233546   3.562   1.957   5.562  0.3670  0.0430 -1.0185
 7362SOL     OW33547   3.570   3.973  10.024 -0.3319  0.2604  0.1820
 7362SOL    HW133548   3.574   3.933  10.111 -0.3489  1.8814  0.9156
 7362SOL    HW233549   3.594   4.063  10.045  0.1521  0.7385 -2.4364
 7363SOL     OW33550   3.242   1.568   5.401  0.5005 -0.4306  0.3361
 7363SOL    HW133551   3.277   1.582   5.313 -1.1170 -0.3505 -0.3038
 7363SOL    HW233552   3.318   1.561   5.459 -0.0224  1.2550  1.2046
 7364SOL     OW33553   4.438   4.087   6.196 -0.9451  0.1015 -0.4632
 7364SOL    HW133554   4.500   4.046   6.256 -1.1093 -3.1087 -2.4929
 7364SOL    HW233555   4.501   4.124   6.135  1.1580 -0.0070  1.6135
 7365SOL     OW33556   2.728   3.443   8.749  0.2105 -0.1623 -0.5876
 7365SOL    HW133557   2.717   3.348   8.750 -3.0483  0.2062 -2.1011
 7365SOL    HW233558   2.823   3.451   8.761  0.3870 -0.0403 -2.1528
 7366SOL     OW33559   1.243   1.287   3.565  0.1649  0.4242 -0.0837
 7366SOL    HW133560   1.182   1.271   3.493 -1.0302 -0.9400  1.2538
 7366SOL    HW233561   1.196   1.242   3.635  0.0050  0.5880 -0.0858
 7367SOL     OW33562   2.200   3.398   4.871 -0.3033 -0.1852 -0.7042
 7367SOL    HW133563   2.284   3.385   4.827  1.3351 -0.5097  2.5533
 7367SOL    HW233564   2.190   3.313   4.915  1.6331 -0.6999 -1.2290
 7368SOL     OW33565   2.173   2.574   8.400 -0.6011  0.4498  0.1138
 7368SOL    HW133566   2.262   2.579   8.435 -0.3530 -1.0028 -0.3061
 7368SOL    HW233567   2.195   2.610   8.314  2.0321 -5.2172 -1.6310
 7369SOL     OW33568   4.195   1.249   2.788 -0.0672  0.2894 -0.4285
 7369SOL    HW133569   4.232   1.164   2.765 -1.6753 -0.1817 -1.3235
 7369SOL    HW233570   4.258   1.310   2.750  0.9404  0.2035  1.1576
 7370SOL     OW33571   3.727   2.374   2.441  0.1121 -0.3500 -0.4005
 7370SOL    HW133572   3.684   2.459   2.453  1.0923  0.0296  0.3973
 7370SOL    HW233573   3.684   2.342   2.362  0.3546  1.4467 -1.2430
 7371SOL     OW33574   0.675   3.834   1.578  0.1285 -0.1399  0.0052
 7371SOL    HW133575   0.592   3.823   1.625 -0.3072  0.1781 -0.6941
 7371SOL    HW233576   0.718   3.872   1.655  1.4818  0.9900 -1.3298
 7372SOL     OW33577   3.799   4.515   5.801  0.0473  0.2048 -0.0123
 7372SOL    HW133578   3.784   4.576   5.729 -0.7965  0.4228  0.3440
 7372SOL    HW233579   3.889   4.482   5.791 -0.3421 -1.2133  1.1255
 7373SOL     OW33580   3.850   1.278   5.418  0.0307 -0.6254  0.7066
 7373SOL    HW133581   3.771   1.250   5.464 -1.3017 -1.0849 -1.8531
 7373SOL    HW233582   3.887   1.348   5.472 -0.7736 -0.3599  0.9013
 7374SOL     OW33583   3.860   1.535   5.511 -0.0974  0.6948  0.5021
 7374SOL    HW133584   3.865   1.631   5.513 -0.1387  0.7072  0.0584
 7374SOL    HW233585   3.796   1.520   5.442  2.1519 -2.0285 -0.9956
 7375SOL     OW33586   0.580   4.007   3.286 -0.1969 -0.2015 -0.2805
 7375SOL    HW133587   0.574   4.096   3.320 -0.8458  0.1490 -1.3058
 7375SOL    HW233588   0.639   3.982   3.357 -0.8673  0.7769  0.6274
 7376SOL     OW33589   3.175   1.236   0.591  0.5818 -0.6596 -0.3142
 7376SOL    HW133590   3.120   1.270   0.520  0.6770  0.0397 -0.0491
 7376SOL    HW233591   3.124   1.156   0.604 -1.0416  0.7059  1.7303
 7377SOL     OW33592   0.925   2.328  10.524 -0.1801 -0.0390  0.5655
 7377SOL    HW133593   0.905   2.408  10.573  1.2490  1.0176 -0.5706
 7377SOL    HW233594   0.968   2.276  10.591  3.6369 -0.2157 -1.9994
 7378SOL     OW33595   0.557   2.471  13.710  0.2284  0.1551  0.2778
 7378SOL    HW133596   0.537   2.549  13.763  0.2553  0.4332 -0.1187
 7378SOL    HW233597   0.493   2.490  13.641  2.1172 -2.3722 -2.1454
 7379SOL     OW33598   0.242   3.094   3.795  0.5152  0.2399 -0.2209
 7379SOL    HW133599   0.171   3.134   3.744 -0.0631 -0.8907 -0.2915
 7379SOL    HW233600   0.230   3.001   3.775 -0.4632  0.1788  0.6622
 7380SOL     OW33601   0.441   1.294   8.101 -0.2793 -0.0329  0.1050
 7380SOL    HW133602   0.422   1.239   8.177  0.6703 -0.2202  0.2051
 7380SOL    HW233603   0.360   1.342   8.086 -1.7837 -2.6450 -0.2296
 7381SOL     OW33604   1.938   2.868   4.131 -1.5074 -0.1378  0.1594
 7381SOL    HW133605   1.964   2.936   4.193 -2.0929  1.4517 -1.3428
 7381SOL    HW233606   1.957   2.914   4.050 -1.8192  0.8357  0.6440
 7382SOL     OW33607   2.926   1.190  14.265  0.4934  0.4993  0.3189
 7382SOL    HW133608   3.015   1.221  14.246 -0.5927  2.2731 -1.8559
 7382SOL    HW233609   2.879   1.265  14.228 -0.8970 -1.0402 -0.9803
 7383SOL     OW33610   0.291   2.339   0.452  0.3028 -0.4128 -0.6329
 7383SOL    HW133611   0.307   2.433   0.448  0.3605 -0.3671  0.9020
 7383SOL    HW233612   0.321   2.307   0.537 -3.3566  0.0152  0.8339
 7384SOL     OW33613   0.966   3.357   7.929 -0.1707 -0.7915 -0.1796
 7384SOL    HW133614   1.033   3.423   7.943 -0.7672 -0.4460  1.0188
 7384SOL    HW233615   0.887   3.410   7.935  0.1305 -0.5325  1.5647
 7385SOL     OW33616   2.852   0.607   3.810 -0.3406  0.4463  0.5247
 7385SOL    HW133617   2.895   0.635   3.729 -1.7770 -0.0915 -0.4481
 7385SOL    HW233618   2.836   0.514   3.790 -0.0066  0.2033  1.4098
 7386SOL     OW33619   3.704   4.131   1.041 -0.0546 -0.0345 -0.0409
 7386SOL    HW133620   3.756   4.124   1.121 -1.4638 -0.1150  0.8590
 7386SOL    HW233621   3.628   4.184   1.062 -0.2558 -0.2828 -0.1380
 7387SOL     OW33622   2.839   1.057   7.677  0.0425  0.1955 -0.4540
 7387SOL    HW133623   2.859   0.967   7.703  0.5279  1.0437  2.0966
 7387SOL    HW233624   2.747   1.069   7.699 -0.1602 -0.0944 -1.1455
 7388SOL     OW33625   3.653   4.245  10.043 -0.1854  0.8161 -0.3920
 7388SOL    HW133626   3.589   4.301  10.088 -1.2575 -0.4330 -0.3610
 7388SOL    HW233627   3.729   4.304  10.045 -1.0109  1.8313  1.7731
 7389SOL     OW33628   0.567   4.364   8.258 -0.1986  0.2835  0.4084
 7389SOL    HW133629   0.571   4.305   8.333 -0.4399 -1.3823 -0.8971
 7389SOL    HW233630   0.493   4.422   8.278  0.5369  0.9312  1.2867
 7390SOL     OW33631   2.214   1.970   0.772  0.2236 -0.4490 -0.6228
 7390SOL    HW133632   2.157   1.938   0.702 -2.0993 -0.3432  1.2568
 7390SOL    HW233633   2.153   1.960   0.845  0.6716  2.0766  0.0887
 7391SOL     OW33634   1.669   0.431   8.911  0.4069  0.0152  0.2908
 7391SOL    HW133635   1.665   0.509   8.855 -1.7543 -0.9937 -0.9579
 7391SOL    HW233636   1.758   0.433   8.945  0.5880 -3.7473 -0.0118
 7392SOL     OW33637   2.730   3.010   5.026 -0.1862  0.2497 -0.2448
 7392SOL    HW133638   2.695   3.096   5.049 -1.5353 -0.4988  0.4956
 7392SOL    HW233639   2.817   3.034   4.994  0.0244 -0.3335 -0.1134
 7393SOL     OW33640   1.931   1.814   3.429  0.0997  0.1776  0.4838
 7393SOL    HW133641   2.010   1.865   3.445  0.2706 -0.0285  0.2915
 7393SOL    HW233642   1.866   1.884   3.430  2.2765  2.2187  0.2655
 7394SOL     OW33643   1.640   2.053   5.182  0.1811 -0.4251  0.0013
 7394SOL    HW133644   1.727   2.028   5.151  0.1442  0.8405 -1.1802
 7394SOL    HW233645   1.638   2.145   5.155  0.8152 -0.4970 -0.2887
 7395SOL     OW33646   4.677   4.330   0.831 -0.3197 -0.1069  0.3613
 7395SOL    HW133647   4.629   4.334   0.749 -0.9082 -1.7140  0.6333
 7395SOL    HW233648   0.032   4.383   0.823  0.7389 -1.6193  0.7183
 7396SOL     OW33649   3.169   1.262   9.714 -0.2002 -0.4102  0.6400
 7396SOL    HW133650   3.092   1.227   9.668  0.3722 -1.2358  0.3168
 7396SOL    HW233651   3.139   1.251   9.804 -1.9853  0.6312  0.1914
 7397SOL     OW33652   1.078   3.643  16.282  0.5580 -0.0458  0.1356
 7397SOL    HW133653   1.040   3.718  16.236 -1.4498 -1.1239  0.0551
 7397SOL    HW233654   1.044   3.649  16.372 -2.6504  0.3500 -1.0891
 7398SOL     OW33655   4.519   3.471   7.192  0.2477  0.0630  0.4546
 7398SOL    HW133656   4.519   3.402   7.125  0.1334  1.1039 -0.6205
 7398SOL    HW233657   4.534   3.546   7.135 -0.3880  0.6582  1.0781
 7399SOL     OW33658   0.509   1.824  15.902  0.3171 -0.1448 -0.4401
 7399SOL    HW133659   0.492   1.882  15.977 -1.0764 -1.4349  0.2361
 7399SOL    HW233660   0.467   1.742  15.930 -0.1198 -0.0049 -0.6901
 7400SOL     OW33661   4.613   4.450   4.270 -0.2289  0.2961 -0.0259
 7400SOL    HW133662   4.688   4.440   4.212  1.1590  0.5376  1.7457
 7400SOL    HW233663   4.644   4.496   4.347 -1.8603  0.3928  0.5812
 7401SOL     OW33664   3.032   4.001  16.296 -0.2170  0.3915 -0.2721
 7401SOL    HW133665   2.953   3.989  16.350  1.3766  1.6047  2.3124
 7401SOL    HW233666   3.010   3.949  16.218 -0.9427  1.4566 -0.7892
 7402SOL     OW33667   2.628   2.517   2.549 -0.1276  0.0589 -0.0532
 7402SOL    HW133668   2.587   2.438   2.513  1.4943 -1.3061  1.0581
 7402SOL    HW233669   2.715   2.508   2.510 -0.9546 -0.0485 -1.8618
 7403SOL     OW33670   3.761   1.755   3.293  0.2823  0.2314  0.1641
 7403SOL    HW133671   3.826   1.817   3.326 -1.1147  1.5595  0.4146
 7403SOL    HW233672   3.704   1.815   3.243  0.1696  1.4128  1.7162
 7404SOL     OW33673   4.207   2.294   6.662 -0.1811  0.0823  0.0968
 7404SOL    HW133674   4.123   2.336   6.645  0.1994  1.6178  1.9099
 7404SOL    HW233675   4.180   2.235   6.732 -0.9788  1.0464  0.6097
 7405SOL     OW33676   2.349   0.644   6.494  0.1235 -0.4431 -0.0205
 7405SOL    HW133677   2.271   0.697   6.513  0.9370  0.3991  0.9833
 7405SOL    HW233678   2.424   0.703   6.506 -0.7409  0.5837  0.3782
 7406SOL     OW33679   2.438   1.016   1.466  0.2717 -0.6016  0.2358
 7406SOL    HW133680   2.486   0.946   1.422  0.2742 -1.4969  1.6680
 7406SOL    HW233681   2.510   1.078   1.457 -1.0586  0.9417  0.2518
 7407SOL     OW33682   1.029   4.127   2.382 -0.3900 -0.0803  0.1035
 7407SOL    HW133683   0.999   4.217   2.385 -1.4970 -0.3725 -2.0382
 7407SOL    HW233684   0.952   4.075   2.405  0.0585  0.1667  2.1278
 7408SOL     OW33685   0.728   4.206  14.002  0.3454 -0.0273 -0.3056
 7408SOL    HW133686   0.760   4.148  14.071  2.3564  1.0882 -0.2895
 7408SOL    HW233687   0.809   4.246  13.969 -0.2275  2.9718  1.9793
 7409SOL     OW33688   2.450   2.675   4.508  0.1582  0.3075 -0.1072
 7409SOL    HW133689   2.442   2.748   4.446 -0.4288  0.5843  0.2884
 7409SOL    HW233690   2.357   2.669   4.531  0.5602 -1.7784  0.9590
 7410SOL     OW33691   0.694   1.182   7.344 -0.4004  0.3228  0.2880
 7410SOL    HW133692   0.775   1.140   7.372 -0.1865  1.8212  1.9305
 7410SOL    HW233693   0.725   1.235   7.271  1.3170 -2.3017 -0.8693
 7411SOL     OW33694   0.971   1.080   7.108 -0.0330 -0.0098  0.4025
 7411SOL    HW133695   0.882   1.043   7.103  0.1868 -0.5145  0.2517
 7411SOL    HW233696   0.998   1.048   7.022  0.4692  0.6430  0.3218
 7412SOL     OW33697   2.027   4.650   3.110  0.4092  0.5964 -0.0452
 7412SOL    HW133698   2.106   4.691   3.146  0.3742  1.8691 -1.3861
 7412SOL    HW233699   1.985   0.002   3.070 -0.4786 -0.1936 -0.5998
 7413SOL     OW33700   3.816   3.073  12.133  0.1017  0.0029  0.7577
 7413SOL    HW133701   3.862   3.023  12.065 -0.5491 -0.3640  0.5866
 7413SOL    HW233702   3.728   3.064  12.096  0.3187 -0.6098  0.3887
 7414SOL     OW33703   0.665   1.034   8.534  0.1909 -0.0724  0.1308
 7414SOL    HW133704   0.699   1.092   8.603  0.5339 -0.3913  0.2253
 7414SOL    HW233705   0.573   1.021   8.557 -0.0914 -1.2996 -1.7173
 7415SOL     OW33706   3.943   0.748  10.258  0.3359 -0.0841 -0.4298
 7415SOL    HW133707   3.897   0.822  10.298 -1.7652 -0.4321 -2.1885
 7415SOL    HW233708   4.034   0.774  10.242  0.7179  0.5998  2.9101
 7416SOL     OW33709   2.616   0.062   0.222  0.2420 -0.1024 -0.0075
 7416SOL    HW133710   2.685   0.078   0.287  0.6674 -0.8159 -0.2768
 7416SOL    HW233711   2.671   0.044   0.145  1.1021 -2.0110  1.0561
 7417SOL     OW33712   1.582   3.172   6.506 -0.0442 -0.4041 -0.2022
 7417SOL    HW133713   1.543   3.239   6.563 -1.4555  0.2359 -1.9319
 7417SOL    HW233714   1.620   3.105   6.563  1.7263  1.0643  0.3420
 7418SOL     OW33715   1.381   3.091   3.836 -0.3047  0.1732 -0.0208
 7418SOL    HW133716   1.323   3.168   3.842 -1.1634 -0.3454 -1.6973
 7418SOL    HW233717   1.450   3.104   3.901 -0.8579  2.4446  0.1434
 7419SOL     OW33718   0.959   2.506   4.757  0.2071 -0.1765 -0.3561
 7419SOL    HW133719   0.945   2.422   4.714 -0.0157  0.4801 -1.5712
 7419SOL    HW233720   0.881   2.508   4.813  0.8519  2.0582  0.4672
 7420SOL     OW33721   2.689   3.610   4.348 -0.6901  0.2104 -0.8905
 7420SOL    HW133722   2.751   3.593   4.277 -0.4013  1.2788 -0.8906
 7420SOL    HW233723   2.736   3.680   4.394 -1.7535  0.1208  0.3197
 7421SOL     OW33724   1.043   4.444   3.855  0.1317 -0.2223  0.0686
 7421SOL    HW133725   1.108   4.386   3.894 -0.0859  0.3458  1.2901
 7421SOL    HW233726   0.974   4.388   3.818  1.4958 -0.8740 -1.4735
 7422SOL     OW33727   1.142   1.200  12.867  0.3317  0.4454  0.1271
 7422SOL    HW133728   1.208   1.265  12.892 -0.2532  1.3334 -0.6524
 7422SOL    HW233729   1.191   1.118  12.878 -1.1593 -0.2933  1.3386
 7423SOL     OW33730   0.286   4.037   5.229 -0.2534 -0.4258  0.5117
 7423SOL    HW133731   0.277   3.958   5.283  2.3263 -0.4387  0.9201
 7423SOL    HW233732   0.197   4.067   5.211  0.2871 -0.0805 -1.6471
 7424SOL     OW33733   0.957   3.665  16.516  1.0616 -0.2512 -0.3412
 7424SOL    HW133734   0.945   3.634  16.606 -3.3267 -0.4863 -1.0382
 7424SOL    HW233735   0.867   3.662  16.486  0.9951  0.9601 -0.2545
 7425SOL     OW33736   0.013   3.090   5.602  0.1515  0.1357 -0.0584
 7425SOL    HW133737   0.077   3.159   5.622  0.0599  0.0609  0.4645
 7425SOL    HW233738   0.038   3.023   5.665 -0.0636 -1.0627 -1.2480
 7426SOL     OW33739   2.204   4.694   1.123 -0.4412 -0.0660  0.4731
 7426SOL    HW133740   2.150   4.644   1.062 -0.2373 -1.5373  1.5046
 7426SOL    HW233741   2.282   4.639   1.130 -1.3636 -1.2636  1.1867
 7427SOL     OW33742   2.879   1.348   9.310  0.0855  0.3321  1.1419
 7427SOL    HW133743   2.927   1.285   9.256 -2.1778 -2.1006  2.0037
 7427SOL    HW233744   2.948   1.389   9.362  0.3773 -0.1564  1.1393
 7428SOL     OW33745   2.940   3.236   6.999 -0.2487  0.1454 -0.3504
 7428SOL    HW133746   3.000   3.291   7.050 -1.5889 -1.6458  3.1169
 7428SOL    HW233747   2.866   3.291   6.974  0.1600 -0.1695 -2.3183
 7429SOL     OW33748   3.139   2.010   4.353 -0.0390  0.3505 -0.1554
 7429SOL    HW133749   3.227   1.993   4.388 -0.8433 -2.6245  0.4349
 7429SOL    HW233750   3.162   2.052   4.270 -0.8631 -1.7676 -1.4545
 7430SOL     OW33751   2.484   2.759   0.331 -0.0221  0.5249 -0.1354
 7430SOL    HW133752   2.404   2.767   0.280  0.1949  1.0583 -0.3959
 7430SOL    HW233753   2.447   2.739   0.417  1.6093  0.2274  0.5162
 7431SOL     OW33754   3.167   4.208  13.971  0.4064 -0.2850  0.2708
 7431SOL    HW133755   3.191   4.160  14.051 -1.8455  0.6957  1.5476
 7431SOL    HW233756   3.110   4.277  14.007 -0.8281 -0.3474 -1.5694
 7432SOL     OW33757   2.746   4.168   5.815  0.7018 -0.5142 -0.1673
 7432SOL    HW133758   2.666   4.212   5.844  0.5641 -2.4704  2.4635
 7432SOL    HW233759   2.749   4.207   5.728  0.8015  1.3233  0.6572
 7433SOL     OW33760   1.019   3.544   8.369 -0.6186  0.6841  0.2819
 7433SOL    HW133761   0.971   3.474   8.413  1.2095 -1.3947 -1.0043
 7433SOL    HW233762   1.097   3.553   8.424  0.5254 -0.5057 -1.1301
 7434SOL     OW33763   0.716   2.493   4.907 -0.3650 -0.4208 -0.0154
 7434SOL    HW133764   0.696   2.419   4.849 -1.2233  0.4851 -0.8708
 7434SOL    HW233765   0.662   2.492   4.985  0.1181 -1.1068  0.3110
 7435SOL     OW33766   3.854   1.731   9.755  0.1092  0.3501  0.3548
 7435SOL    HW133767   3.780   1.785   9.727  0.5336 -0.0966 -1.6642
 7435SOL    HW233768   3.809   1.657   9.796  0.9133  0.0417  0.6758
 7436SOL     OW33769   2.654   0.810   8.735  0.1202 -0.0331 -0.6129
 7436SOL    HW133770   2.591   0.865   8.688 -0.4935 -2.0869 -2.1574
 7436SOL    HW233771   2.594   0.744   8.769 -0.7110  2.5027  2.8841
 7437SOL     OW33772   4.188   2.933   8.841 -0.0107  0.3229 -0.7561
 7437SOL    HW133773   4.217   2.843   8.850 -1.4876 -0.0942 -0.1111
 7437SOL    HW233774   4.244   2.971   8.773 -1.3119  2.5127 -0.6297
 7438SOL     OW33775   2.202   1.521   8.429  0.3153  0.5716 -0.2509
 7438SOL    HW133776   2.168   1.474   8.353  0.6364  1.5652 -1.0229
 7438SOL    HW233777   2.258   1.589   8.391  0.6071 -0.3328 -1.4126
 7439SOL     OW33778   1.612   0.025   9.189  0.3200  0.0697  0.1633
 7439SOL    HW133779   1.533   4.696   9.178 -0.6756  1.5446  0.0207
 7439SOL    HW233780   1.672   4.675   9.194 -0.8763 -0.7378  2.3704
 7440SOL     OW33781   0.768   1.562   0.394  0.2503  0.4967 -0.3536
 7440SOL    HW133782   0.794   1.523   0.311  1.7410  1.3980 -0.3176
 7440SOL    HW233783   0.715   1.492   0.433  2.0253 -0.6457 -0.0029
 7441SOL     OW33784   2.944   3.995  14.358  0.1441 -0.3618  0.6973
 7441SOL    HW133785   2.987   3.910  14.363  1.0671 -0.0117 -1.0649
 7441SOL    HW233786   2.903   3.994  14.444 -0.1063  2.2200  0.6023
 7442SOL     OW33787   4.380   4.222   5.778  0.4882  0.6594 -0.3643
 7442SOL    HW133788   4.396   4.132   5.749  0.6139  0.6551 -0.2792
 7442SOL    HW233789   4.386   4.269   5.695 -1.8856  1.8285  0.1048
 7443SOL     OW33790   1.189   4.140   2.961 -0.0825 -0.6577 -0.1014
 7443SOL    HW133791   1.281   4.162   2.945  0.2909 -2.2643 -0.1335
 7443SOL    HW233792   1.162   4.216   3.014 -0.7230  0.0654 -1.4632
 7444SOL     OW33793   1.003   3.805  11.899  0.7303  0.0953 -0.3233
 7444SOL    HW133794   0.983   3.716  11.869 -0.8050  0.0398  0.8498
 7444SOL    HW233795   1.021   3.859  11.822 -0.9060 -2.5641 -2.5951
 7445SOL     OW33796   0.663   0.936  17.280 -0.0669  0.0734  0.0920
 7445SOL    HW133797   0.617   0.950  17.363  1.0753  0.2081  0.6993
 7445SOL    HW233798   0.717   1.015  17.288  1.0400 -0.4607 -2.1623
 7446SOL     OW33799   3.869   2.046   9.232  0.0596 -0.6356 -0.3224
 7446SOL    HW133800   3.822   2.031   9.314 -0.9572 -0.2216 -0.8212
 7446SOL    HW233801   3.799   2.008   9.178 -0.6533  0.3266 -0.0748
 7447SOL     OW33802   3.777   0.275  13.093 -0.7639 -0.4232 -0.0148
 7447SOL    HW133803   3.771   0.193  13.043 -0.6852 -0.2682 -0.2796
 7447SOL    HW233804   3.844   0.326  13.046 -1.7295  0.6690 -0.2048
 7448SOL     OW33805   1.889   1.210   2.908  0.3378 -0.0059  0.0266
 7448SOL    HW133806   1.844   1.260   2.976  1.4694  2.2914 -0.9227
 7448SOL    HW233807   1.975   1.251   2.920 -0.3200  1.7953 -1.4179
 7449SOL     OW33808   2.363   0.797  16.055 -0.1827  0.3154  0.2751
 7449SOL    HW133809   2.391   0.795  16.146  2.0529 -1.2244 -0.4423
 7449SOL    HW233810   2.373   0.888  16.028  0.4334  0.0111 -0.5377
 7450SOL     OW33811   2.848   3.669   2.681  0.0268  0.2339 -0.5921
 7450SOL    HW133812   2.798   3.590   2.701  0.5992 -0.2411 -1.0320
 7450SOL    HW233813   2.842   3.709   2.768  1.9564  0.1345 -0.4068
 7451SOL     OW33814   0.076   0.741   8.665  0.2676  0.0198  0.4947
 7451SOL    HW133815   4.722   0.776   8.622 -0.1887 -0.2784  1.0830
 7451SOL    HW233816   0.042   0.730   8.754 -0.1986 -1.9420  0.0727
 7452SOL     OW33817   1.908   4.632   7.557 -0.0280 -0.2361 -0.4017
 7452SOL    HW133818   1.838   4.584   7.513 -1.1217 -0.3578  1.4592
 7452SOL    HW233819   1.948   4.556   7.599 -1.1260 -0.7829 -0.3438
 7453SOL     OW33820   1.071   3.735  17.513  0.0347 -0.4575  0.8007
 7453SOL    HW133821   1.144   3.748  17.452 -0.0455  1.3889  1.1020
 7453SOL    HW233822   1.017   3.685  17.452 -0.5012  3.5393 -2.0259
 7454SOL     OW33823   3.358   1.301   6.819 -0.5880  0.1199  0.3679
 7454SOL    HW133824   3.274   1.291   6.864 -0.2932  2.6530  1.4465
 7454SOL    HW233825   3.421   1.337   6.881 -1.4955  0.4760  1.0801
 7455SOL     OW33826   0.370   1.253   5.108  0.3701  0.1796 -0.6759
 7455SOL    HW133827   0.409   1.197   5.175 -0.1865 -0.9257 -1.2768
 7455SOL    HW233828   0.300   1.202   5.067 -0.0363 -1.4238  2.0184
 7456SOL     OW33829   0.409   2.664  12.749 -0.0811 -0.3127 -0.4653
 7456SOL    HW133830   0.392   2.597  12.815 -1.1717  1.2763  0.8644
 7456SOL    HW233831   0.463   2.722  12.803  2.4644 -0.5151 -2.8280
 7457SOL     OW33832   2.277   4.035   2.907  0.1114  0.1675 -0.2021
 7457SOL    HW133833   2.303   3.988   2.828  0.4804  0.2451 -0.1261
 7457SOL    HW233834   2.246   3.961   2.960  1.3258 -0.4266 -0.3146
 7458SOL     OW33835   3.511   4.642   1.884 -0.4372  0.0625  0.0655
 7458SOL    HW133836   3.443   4.688   1.932  0.8930  1.4916  0.5952
 7458SOL    HW233837   3.529   4.568   1.943  0.7481 -0.1990 -0.6144
 7459SOL     OW33838   1.116   0.678   5.680  0.3246 -0.3176  0.3253
 7459SOL    HW133839   1.191   0.703   5.627 -1.1041  2.1384 -0.5431
 7459SOL    HW233840   1.057   0.677   5.605  0.8290 -3.6569 -0.0289
 7460SOL     OW33841   4.556   4.333   8.273  0.5732 -0.5161  0.4085
 7460SOL    HW133842   4.617   4.392   8.318  0.1856  1.2857 -1.4496
 7460SOL    HW233843   4.544   4.373   8.187 -1.2106 -0.0172  0.8965
 7461SOL     OW33844   1.815   1.679   5.350 -0.6637 -0.2577 -0.0594
 7461SOL    HW133845   1.780   1.641   5.270 -1.4572  0.6556 -0.1496
 7461SOL    HW233846   1.747   1.742   5.375  0.1906 -0.5528  2.9609
 7462SOL     OW33847   2.366   0.858   9.077 -0.5668 -0.1337 -0.5574
 7462SOL    HW133848   2.273   0.872   9.059 -0.0787  1.9322 -1.4756
 7462SOL    HW233849   2.368   0.794   9.148 -3.5843 -1.3386 -1.5851
 7463SOL     OW33850   0.394   4.439  15.703 -0.1855  0.0270 -0.1710
 7463SOL    HW133851   0.321   4.404  15.653  0.7270 -1.8960 -0.1235
 7463SOL    HW233852   0.441   4.474  15.627  0.1101  1.5294  0.7008
 7464SOL     OW33853   2.469   1.580   2.131 -0.1242 -0.7569 -0.1387
 7464SOL    HW133854   2.374   1.564   2.138 -0.1072 -0.6958  0.2812
 7464SOL    HW233855   2.475   1.603   2.039 -2.7822 -0.4778 -0.2579
 7465SOL     OW33856   0.498   1.684  17.483 -0.0216 -0.1730  0.3392
 7465SOL    HW133857   0.451   1.761  17.516 -0.4463 -0.9094  1.4459
 7465SOL    HW233858   0.548   1.736  17.420  0.7077 -2.3868 -0.8958
 7466SOL     OW33859   2.174   4.650   2.213  0.0078 -0.0488  0.1006
 7466SOL    HW133860   2.205   4.724   2.265 -1.1341  0.8331 -0.4620
 7466SOL    HW233861   2.112   4.688   2.151 -0.2254  2.7212  2.0397
 7467SOL     OW33862   4.349   4.167   1.021  0.2002  0.0500 -0.1217
 7467SOL    HW133863   4.340   4.191   1.114 -2.8037 -1.5135 -0.0016
 7467SOL    HW233864   4.439   4.134   1.013 -0.0363 -1.2021  2.3129
 7468SOL     OW33865   0.103   2.294   6.737  0.2439  0.3783  0.3055
 7468SOL    HW133866   0.075   2.204   6.752  0.4763  0.2192 -0.2102
 7468SOL    HW233867   0.176   2.308   6.797  0.4674 -1.6396  0.5053
 7469SOL     OW33868   1.812   2.414   6.752 -0.3196  0.6234  0.2661
 7469SOL    HW133869   1.843   2.447   6.668  0.2333  1.0090  0.6171
 7469SOL    HW233870   1.842   2.492   6.799  0.0745  0.8895 -0.4242
 7470SOL     OW33871   1.294   2.399   5.494  0.0101 -0.0727 -0.7306
 7470SOL    HW133872   1.222   2.436   5.544  1.4403  0.1691  1.1368
 7470SOL    HW233873   1.299   2.471   5.430 -0.2059  1.6628  1.2144
 7471SOL     OW33874   1.758   0.681   3.367  0.3706  0.2564  0.2315
 7471SOL    HW133875   1.686   0.663   3.307  1.4404 -1.6826 -0.4595
 7471SOL    HW233876   1.752   0.601   3.419 -2.3669  1.1451  1.2958
 7472SOL     OW33877   0.769   4.127   8.055  0.0043  0.5928  0.1011
 7472SOL    HW133878   0.688   4.094   8.093 -0.6186  0.5353 -1.2693
 7472SOL    HW233879   0.755   4.219   8.032  0.2299  0.6877  0.3466
 7473SOL     OW33880   2.087   1.539   3.536  0.6505  0.1825 -0.1904
 7473SOL    HW133881   1.992   1.524   3.536  0.3890  1.7712 -1.1990
 7473SOL    HW233882   2.103   1.573   3.448  0.4267 -0.3903 -0.4456
 7474SOL     OW33883   4.635   0.277   7.929 -0.0796  0.0240  0.1968
 7474SOL    HW133884   4.674   0.341   7.870 -1.1283 -0.2578 -0.7979
 7474SOL    HW233885   4.666   0.194   7.892  0.1334  0.5899 -0.8760
 7475SOL     OW33886   3.122   1.137  16.006  0.0186 -0.4731 -0.4109
 7475SOL    HW133887   3.099   1.157  15.915  0.1860 -1.3681 -0.6493
 7475SOL    HW233888   3.042   1.165  16.051  0.2530  0.2993 -0.4846
 7476SOL     OW33889   0.770   4.194   4.952 -0.2596  0.3054 -0.4992
 7476SOL    HW133890   0.707   4.255   4.914  0.3697  0.4356 -1.3272
 7476SOL    HW233891   0.817   4.155   4.878 -0.6511 -2.1211  0.5166
 7477SOL     OW33892   1.099   2.062   7.367  0.0972 -0.2951  0.0298
 7477SOL    HW133893   1.142   1.980   7.343 -1.4371 -0.6414 -1.5243
 7477SOL    HW233894   1.082   2.105   7.283 -0.2519  0.2645  0.3861
 7478SOL     OW33895   1.612   4.550   4.380 -0.4037  0.2922 -0.7349
 7478SOL    HW133896   1.677   4.577   4.315  0.6818 -1.5384 -0.4259
 7478SOL    HW233897   1.547   4.620   4.378 -1.2604 -0.4730  0.5562
 7479SOL     OW33898   2.295   0.159   5.756  0.1452  0.4864  0.0875
 7479SOL    HW133899   2.327   0.233   5.807  0.6935  0.5480 -0.3544
 7479SOL    HW233900   2.246   0.209   5.691 -0.1891 -1.3222 -1.0573
 7480SOL     OW33901   1.979   0.806   2.400 -0.5232  0.0453  0.2278
 7480SOL    HW133902   1.899   0.825   2.448  0.8697  2.8706  1.3934
 7480SOL    HW233903   1.962   0.836   2.310  0.1460  1.1294  0.4657
 7481SOL     OW33904   0.062   2.873   0.445  0.2031  0.6592 -0.0071
 7481SOL    HW133905   0.009   2.807   0.401  1.3379  0.0820 -0.4973
 7481SOL    HW233906   0.047   2.951   0.392 -0.1554  1.6399  1.5195
 7482SOL     OW33907   0.146   2.520   6.307  0.1001  0.0412  0.4202
 7482SOL    HW133908   0.083   2.582   6.271  0.4709 -0.2767 -0.7479
 7482SOL    HW233909   0.107   2.435   6.289 -0.9131  0.2392  1.6024
 7483SOL     OW33910   3.838   0.976   1.778 -0.1752  1.1664  0.2123
 7483SOL    HW133911   3.902   0.974   1.848  0.2716 -0.2769 -0.2321
 7483SOL    HW233912   3.757   0.970   1.829  0.2596  0.0487  0.7603
 7484SOL     OW33913   1.273   3.943   8.926  0.3638 -0.1473  0.1732
 7484SOL    HW133914   1.229   3.984   9.001 -1.4386  2.3506 -2.2410
 7484SOL    HW233915   1.274   3.851   8.951  1.0269  0.0808  1.0025
 7485SOL     OW33916   2.218   0.234   4.516  0.4868 -0.1405 -0.1089
 7485SOL    HW133917   2.180   0.198   4.436 -1.4923 -1.8685  1.6014
 7485SOL    HW233918   2.193   0.170   4.583 -0.5997  2.4717  1.9532
 7486SOL     OW33919   1.401   0.672   2.673  0.5716 -0.4818 -0.0768
 7486SOL    HW133920   1.444   0.706   2.595  3.3002 -1.5476  0.9519
 7486SOL    HW233921   1.345   0.602   2.638 -0.6276  0.6163 -0.3383
 7487SOL     OW33922   2.060   1.198   8.004 -0.2950  0.3372  0.1270
 7487SOL    HW133923   2.063   1.103   7.999 -3.1680  0.2186  0.6546
 7487SOL    HW233924   2.041   1.232   7.917  2.9464  0.6635 -0.4712
 7488SOL     OW33925   3.000   1.749   5.395 -0.4370  0.2960  0.4891
 7488SOL    HW133926   3.084   1.708   5.376 -0.7043  0.0668 -0.1769
 7488SOL    HW233927   2.994   1.750   5.491 -0.6473  0.8545  0.4753
 7489SOL     OW33928   4.649   3.897  16.435 -0.4205  0.2477  0.2614
 7489SOL    HW133929   4.598   3.885  16.355  0.0221  0.6331 -0.0770
 7489SOL    HW233930   4.578   3.867  16.492  0.1285 -2.3385 -0.4131
 7490SOL     OW33931   4.669   1.283   3.567  0.0404  0.5137 -0.4539
 7490SOL    HW133932   4.615   1.351   3.608 -0.8424  1.0030 -2.4407
 7490SOL    HW233933   4.613   1.257   3.494 -1.3322  2.3524 -0.0668
 7491SOL     OW33934   0.973   0.400   6.530  0.2700  0.2428 -0.2748
 7491SOL    HW133935   1.040   0.355   6.479  1.1899 -0.2568  1.3975
 7491SOL    HW233936   0.997   0.491   6.515 -1.3625  0.9214  1.2321
 7492SOL     OW33937   2.783   0.372   7.266  0.3831 -0.1262 -0.2121
 7492SOL    HW133938   2.736   0.289   7.266  0.2579 -0.0564 -1.2604
 7492SOL    HW233939   2.744   0.423   7.337  2.1167  1.1708 -0.1893
 7493SOL     OW33940   1.947   2.237   2.199  0.0046  0.5104  0.1607
 7493SOL    HW133941   1.870   2.182   2.182  0.2255  0.2828 -0.1146
 7493SOL    HW233942   1.959   2.215   2.291 -3.4703 -1.2220  0.2338
 7494SOL     OW33943   4.204   3.423   0.354  0.6368 -0.3197 -0.1196
 7494SOL    HW133944   4.186   3.440   0.261  2.6114 -3.0341 -1.0179
 7494SOL    HW233945   4.246   3.504   0.382  1.9830 -1.0068 -0.1355
 7495SOL     OW33946   2.983   1.118   5.487  0.0828 -0.9467 -0.0567
 7495SOL    HW133947   2.892   1.126   5.457  0.4296 -0.8531 -1.1055
 7495SOL    HW233948   2.977   1.046   5.549  0.8476 -2.0390 -1.2608
 7496SOL     OW33949   3.425   2.206   2.582 -0.3671  0.6635  0.3452
 7496SOL    HW133950   3.423   2.262   2.504 -0.1289  2.2339  1.4586
 7496SOL    HW233951   3.335   2.174   2.575 -0.0120 -0.2912  0.2367
 7497SOL     OW33952   3.235   0.874   7.612  0.3197 -0.0800  0.2666
 7497SOL    HW133953   3.301   0.820   7.657  1.6956 -0.3581 -2.0856
 7497SOL    HW233954   3.187   0.904   7.689 -1.4492  3.5610 -2.2870
 7498SOL     OW33955   0.715   0.755   8.677 -0.4311  0.3204 -0.5751
 7498SOL    HW133956   0.666   0.757   8.595 -0.2691 -0.6713 -0.6950
 7498SOL    HW233957   0.723   0.661   8.691 -0.6347  0.4833  0.6150
 7499SOL     OW33958   3.980   2.761   3.176 -0.6930 -0.2865  0.7485
 7499SOL    HW133959   4.051   2.719   3.223  0.3714  2.2980  1.4503
 7499SOL    HW233960   3.960   2.838   3.229 -0.8748  0.2834 -0.1537
 7500SOL     OW33961   0.578   0.826  17.032  0.5816 -0.2192  0.6732
 7500SOL    HW133962   0.640   0.850  17.101 -2.2988  2.2522  2.4345
 7500SOL    HW233963   0.595   0.896  16.968 -1.9043  0.8055  1.0938
 7501SOL     OW33964   3.236   0.357  16.340 -0.1120 -0.1003  0.3988
 7501SOL    HW133965   3.326   0.326  16.350  0.0759  0.5547  0.7409
 7501SOL    HW233966   3.178   0.281  16.332 -0.3453  0.1824 -0.5497
 7502SOL     OW33967   3.583   4.709  13.817  0.4705 -0.3203  0.0996
 7502SOL    HW133968   3.587   4.645  13.746 -1.1985 -1.1147  0.7318
 7502SOL    HW233969   3.534   0.055  13.774  0.0561  0.5223  1.9350
 7503SOL     OW33970   2.534   0.345   0.143 -0.0123  0.6016  0.4364
 7503SOL    HW133971   2.527   0.356   0.238  1.8598 -0.6459  0.7077
 7503SOL    HW233972   2.541   0.250   0.142  2.0095  0.7005  3.3353
 7504SOL     OW33973   4.659   2.653   6.178 -0.0900 -0.1167  0.1811
 7504SOL    HW133974   4.714   2.692   6.110 -0.0916 -0.3683  0.0367
 7504SOL    HW233975   4.572   2.677   6.147 -0.0566 -1.0171 -0.6218
 7505SOL     OW33976   0.152   0.144   8.646  0.0599  0.0208  0.1527
 7505SOL    HW133977   0.059   0.127   8.631  0.1366 -1.1835  1.0444
 7505SOL    HW233978   0.151   0.240   8.647 -0.5281 -0.0134  2.3840
 7506SOL     OW33979   4.302   3.692   5.165  0.6553 -0.0249 -0.2095
 7506SOL    HW133980   4.272   3.778   5.194 -0.4454 -0.2907 -0.5614
 7506SOL    HW233981   4.295   3.644   5.248 -0.1006 -0.0447 -0.2862
 7507SOL     OW33982   2.443   1.581  15.590 -0.2714  0.2824  0.0936
 7507SOL    HW133983   2.513   1.606  15.530 -0.3524 -1.8797 -0.8754
 7507SOL    HW233984   2.442   1.666  15.635 -1.1707  1.4621 -2.1898
 7508SOL     OW33985   4.502   1.901   5.204  0.3534  0.1237 -0.0276
 7508SOL    HW133986   4.492   1.806   5.210  1.1232  0.2190  3.0669
 7508SOL    HW233987   4.420   1.943   5.178  0.6695  1.3142  0.9072
 7509SOL     OW33988   1.386   3.992   4.417 -0.2460  0.2881  0.0749
 7509SOL    HW133989   1.385   4.006   4.512  1.9191 -2.7004  0.5229
 7509SOL    HW233990   1.374   4.082   4.385 -0.1184 -0.4998 -2.1938
 7510SOL     OW33991   1.593   2.124  16.157 -0.4590  0.3327  0.0575
 7510SOL    HW133992   1.612   2.212  16.188 -1.0699  0.9879 -1.3812
 7510SOL    HW233993   1.578   2.139  16.063  0.3234  0.1907 -0.0903
 7511SOL     OW33994   2.233   1.492  13.552 -0.3723 -0.4268 -0.5732
 7511SOL    HW133995   2.273   1.407  13.570 -0.3280 -0.2403  0.2350
 7511SOL    HW233996   2.223   1.498  13.457 -1.6016  2.2556 -0.2751
 7512SOL     OW33997   0.730   3.702   1.949 -0.1408 -0.2077 -0.3246
 7512SOL    HW133998   0.782   3.649   2.011 -1.1126 -1.3430 -0.4818
 7512SOL    HW233999   0.704   3.627   1.896  2.1811 -2.6064  1.9078
 7513SOL     OW34000   4.373   2.194   7.253  0.3679 -0.2906 -0.1780
 7513SOL    HW134001   4.302   2.220   7.194  0.3084  1.9547  0.8832
 7513SOL    HW234002   4.333   2.117   7.292 -2.2080  0.8519 -0.5626
 7514SOL     OW34003   2.627   0.650  12.137 -0.1155  0.3205 -0.2227
 7514SOL    HW134004   2.533   0.670  12.142 -0.2426 -0.0521 -1.0960
 7514SOL    HW234005   2.646   0.606  12.054 -1.8641  0.7097 -0.8332
 7515SOL     OW34006   2.060   0.632   4.075  0.0980 -0.1194  0.4821
 7515SOL    HW134007   2.083   0.639   4.167  1.1433  0.0378  0.2057
 7515SOL    HW234008   2.106   0.709   4.042 -1.5531  1.0492  0.9171
 7516SOL     OW34009   0.370   4.056   0.732 -0.1699  0.2393  0.5479
 7516SOL    HW134010   0.460   4.068   0.761 -0.2468  0.0298  0.8799
 7516SOL    HW234011   0.369   3.960   0.734  0.6919  0.1977 -1.2658
 7517SOL     OW34012   4.197   0.608   4.250 -0.1324 -0.1185 -0.6523
 7517SOL    HW134013   4.151   0.526   4.230  1.0128 -1.1036  0.7502
 7517SOL    HW234014   4.125   0.671   4.245 -1.3448 -1.5579 -1.2571
 7518SOL     OW34015   1.016   1.066   7.870  0.2549 -0.0644  0.3338
 7518SOL    HW134016   1.029   0.994   7.809  1.1066 -3.4042  4.4060
 7518SOL    HW234017   0.922   1.076   7.857  0.4777 -0.9507 -1.8315
 7519SOL     OW34018   4.475   0.529  15.591 -0.0776 -0.1538  0.1944
 7519SOL    HW134019   4.424   0.475  15.531 -0.3210 -0.8579  1.0282
 7519SOL    HW234020   4.548   0.527  15.530 -1.6810 -0.4448 -1.7021
 7520SOL     OW34021   4.577   3.570   6.050  0.2639 -0.3026  0.3332
 7520SOL    HW134022   4.568   3.662   6.026 -1.5370 -0.6527 -0.3138
 7520SOL    HW234023   4.525   3.576   6.130 -0.9054  0.3869 -0.4984
 7521SOL     OW34024   0.013   2.317   4.630  0.2503 -0.0549 -0.7834
 7521SOL    HW134025   0.069   2.319   4.553 -0.3508  1.8343 -1.1512
 7521SOL    HW234026   4.703   2.227   4.633 -1.7352  0.7841  1.7746
 7522SOL     OW34027   2.748   3.356   9.761  0.0880  0.8140  0.1218
 7522SOL    HW134028   2.777   3.448   9.760 -0.1194  0.8624 -1.2345
 7522SOL    HW234029   2.730   3.347   9.854  0.3192 -1.1191 -0.0260
 7523SOL     OW34030   1.878   4.612  17.220  0.1686 -0.2567  0.7149
 7523SOL    HW134031   1.834   4.604  17.136 -0.7025  0.2039  1.1223
 7523SOL    HW234032   1.906   4.522  17.235 -0.7987 -0.5097  1.0125
 7524SOL     OW34033   3.158   3.092   6.935 -0.0769 -0.2143  0.1001
 7524SOL    HW134034   3.083   3.148   6.954 -0.3100 -0.9837  1.4966
 7524SOL    HW234035   3.218   3.094   7.009  0.5826 -2.9614 -0.3687
 7525SOL     OW34036   0.746   2.117   7.669  0.0446 -0.2725 -0.6464
 7525SOL    HW134037   0.745   2.213   7.666 -2.8100 -0.1984  2.2028
 7525SOL    HW234038   0.690   2.092   7.742 -0.0242  1.1877 -0.1882
 7526SOL     OW34039   3.563   2.800   5.838 -0.2406 -0.1666 -0.1762
 7526SOL    HW134040   3.579   2.708   5.817  2.7319  0.6410 -1.4177
 7526SOL    HW234041   3.639   2.825   5.890  0.3444 -1.4589 -0.4064
 7527SOL     OW34042   2.175   1.189   5.859 -0.1126  0.1698 -0.4698
 7527SOL    HW134043   2.223   1.270   5.841  0.5556  0.1906  1.3798
 7527SOL    HW234044   2.089   1.231   5.855 -1.0000 -1.5870  0.2968
 7528SOL     OW34045   3.368   0.808  16.093 -0.3825 -0.4949  0.3146
 7528SOL    HW134046   3.277   0.807  16.063 -0.3710  1.3916  0.2037
 7528SOL    HW234047   3.386   0.902  16.084  1.8390 -0.7848  1.8808
 7529SOL     OW34048   4.551   1.250   3.320  0.2396 -0.4028 -0.2533
 7529SOL    HW134049   4.533   1.199   3.240  0.0561 -2.4204  1.0627
 7529SOL    HW234050   4.503   1.332   3.310  0.6113 -0.4935 -2.8944
 7530SOL     OW34051   1.754   2.153   8.097 -0.0407  0.0530  0.4005
 7530SOL    HW134052   1.684   2.090   8.078 -1.4429  1.7683 -0.1880
 7530SOL    HW234053   1.813   2.096   8.145 -1.1896 -0.8312  0.7686
 7531SOL     OW34054   0.313   0.089   6.138 -0.1074  0.2588  0.0563
 7531SOL    HW134055   0.311   4.722   6.166  0.7941  0.1834 -0.0965
 7531SOL    HW234056   0.225   0.105   6.105  0.1935  0.4413 -0.6611
 7532SOL     OW34057   3.204   4.658   1.008  0.0407  0.4001 -0.2975
 7532SOL    HW134058   3.258   4.704   0.944  0.0036 -1.4548 -1.6451
 7532SOL    HW234059   3.256   4.578   1.018 -1.1259 -0.2509  0.5667
 7533SOL     OW34060   2.876   1.886   7.512 -0.5082  0.0159 -0.1487
 7533SOL    HW134061   2.884   1.837   7.430  2.4207  1.7412 -0.8812
 7533SOL    HW234062   2.957   1.937   7.507 -0.3553 -0.1787  0.2872
 7534SOL     OW34063   2.044   1.626  13.989 -0.4673  0.3133 -0.3029
 7534SOL    HW134064   2.119   1.590  13.942 -0.0681 -0.4558  0.9222
 7534SOL    HW234065   2.064   1.629  14.082  2.0387  3.0209 -0.9104
 7535SOL     OW34066   2.724   1.613  14.652 -0.0669 -0.2660  0.0585
 7535SOL    HW134067   2.774   1.629  14.731 -1.2838  1.6406  0.4435
 7535SOL    HW234068   2.659   1.684  14.649 -1.5151 -1.5619  0.7952
 7536SOL     OW34069   0.887   4.401   4.709  0.6682 -0.0670 -0.3995
 7536SOL    HW134070   0.852   4.449   4.634  1.2519  1.0946  0.0776
 7536SOL    HW234071   0.924   4.471   4.763  0.2444 -0.7754  0.8134
 7537SOL     OW34072   2.411   0.403   2.775  0.1894 -0.2166  0.1268
 7537SOL    HW134073   2.347   0.347   2.730 -0.4747 -0.3948  1.2999
 7537SOL    HW234074   2.383   0.486   2.737 -0.6128 -0.8024 -0.5482
 7538SOL     OW34075   3.225   3.465  14.580 -0.4804  0.4684  0.6282
 7538SOL    HW134076   3.320   3.471  14.591 -0.2969 -1.0389 -0.0983
 7538SOL    HW234077   3.211   3.370  14.571  1.2033  0.2575  0.1844
 7539SOL     OW34078   1.333   1.813   8.588 -0.3366 -0.1534  0.0859
 7539SOL    HW134079   1.406   1.858   8.630 -0.2105 -0.2447 -0.0337
 7539SOL    HW234080   1.385   1.758   8.529 -1.4955 -0.2529 -0.8288
 7540SOL     OW34081   0.321   2.278  11.067 -0.3090  0.3415 -0.2793
 7540SOL    HW134082   0.274   2.353  11.031 -1.8710 -0.8053 -0.6014
 7540SOL    HW234083   0.311   2.213  10.998  1.1982 -0.2803  0.0792
 7541SOL     OW34084   2.905   4.118   6.863  0.4247 -0.4295  0.3494
 7541SOL    HW134085   2.940   4.181   6.926  0.8017  0.6259 -0.9076
 7541SOL    HW234086   2.988   4.085   6.828  0.8938  1.8613 -0.6904
 7542SOL     OW34087   3.860   4.057   4.562 -0.2573 -0.3820 -0.0885
 7542SOL    HW134088   3.813   4.026   4.484 -0.7901  1.3268 -0.4519
 7542SOL    HW234089   3.943   4.082   4.520 -0.4814  0.3086 -0.1180
 7543SOL     OW34090   4.613   3.162  11.746 -0.5699  0.0695  0.0457
 7543SOL    HW134091   4.584   3.072  11.744 -0.6822  0.0907  0.5762
 7543SOL    HW234092   4.539   3.196  11.796 -0.6242  0.0880 -0.0487
 7544SOL     OW34093   1.669   1.266   8.997  0.6534 -0.1875  0.5341
 7544SOL    HW134094   1.644   1.346   8.951  3.3261  0.6161  0.4909
 7544SOL    HW234095   1.742   1.296   9.051 -0.1226 -0.8023  1.9539
 7545SOL     OW34096   0.238   1.304   3.511 -0.8579 -0.1418  0.8776
 7545SOL    HW134097   0.150   1.300   3.549 -0.8015 -4.0651  0.6336
 7545SOL    HW234098   0.217   1.383   3.461 -1.3787  0.1752  1.6039
 7546SOL     OW34099   3.749   3.577   0.583 -0.3641 -0.5201 -0.6950
 7546SOL    HW134100   3.772   3.647   0.522  0.1803 -2.0903 -2.3045
 7546SOL    HW234101   3.696   3.632   0.640  1.6254 -0.2233  0.8675
 7547SOL     OW34102   4.291   2.606   3.829  0.2758 -0.5606  0.4073
 7547SOL    HW134103   4.210   2.581   3.874 -0.8876 -0.5088 -1.6662
 7547SOL    HW234104   4.266   2.595   3.737 -0.2966  0.0817  0.4823
 7548SOL     OW34105   0.369   2.070   9.055  0.1955 -0.4823 -0.0257
 7548SOL    HW134106   0.404   2.010   8.990 -0.9231 -0.8289 -0.3051
 7548SOL    HW234107   0.395   2.028   9.137  0.8475  1.5813  0.8507
 7549SOL     OW34108   2.414   3.543   6.067  0.2807  0.2122  0.3916
 7549SOL    HW134109   2.325   3.580   6.062 -0.3615 -1.1946  1.2565
 7549SOL    HW234110   2.445   3.566   5.980 -0.7588  2.7112  0.6764
 7550SOL     OW34111   2.353   1.665  14.488  0.4383 -0.4279 -0.0125
 7550SOL    HW134112   2.329   1.739  14.432  3.9511  0.2586 -0.6283
 7550SOL    HW234113   2.266   1.628  14.501 -0.1727  1.5993  1.5566
 7551SOL     OW34114   2.699   1.918   7.820 -0.5329  0.4485 -0.3909
 7551SOL    HW134115   2.651   1.876   7.748 -0.2644 -2.3861  1.0628
 7551SOL    HW234116   2.645   1.891   7.894 -2.0516 -0.4607 -1.8237
 7552SOL     OW34117   2.568   2.851   4.851  0.6197 -0.0538 -0.0899
 7552SOL    HW134118   2.585   2.900   4.771  1.4225 -0.7410 -0.3367
 7552SOL    HW234119   2.560   2.922   4.916  2.8578  0.6835 -0.5976
 7553SOL     OW34120   2.915   0.858   1.060  0.8437 -0.1363 -0.7486
 7553SOL    HW134121   2.962   0.902   0.989 -0.0876 -0.5109 -1.5987
 7553SOL    HW234122   2.943   0.909   1.135 -0.6812  2.5380 -1.9785
 7554SOL     OW34123   2.234   2.670  14.885 -0.3969  0.3684 -0.3615
 7554SOL    HW134124   2.142   2.696  14.875 -0.4869  0.8466  1.7887
 7554SOL    HW234125   2.241   2.606  14.814 -0.9302 -1.8454  1.5895
 7555SOL     OW34126   2.780   2.457   7.462 -0.2988  0.2363  0.3642
 7555SOL    HW134127   2.821   2.379   7.499  3.9073  1.6079 -1.3479
 7555SOL    HW234128   2.847   2.518   7.493 -0.1835  0.9869 -1.3568
 7556SOL     OW34129   3.529   0.261   6.076 -1.2470  0.2086  0.0770
 7556SOL    HW134130   3.487   0.319   6.140  0.9864  1.9451 -0.0159
 7556SOL    HW234131   3.619   0.284   6.100 -0.7380 -1.5193 -0.1837
 7557SOL     OW34132   3.049   1.583   7.698  0.0371  0.2861 -0.5381
 7557SOL    HW134133   3.052   1.675   7.725 -2.1232  0.6351 -1.5136
 7557SOL    HW234134   3.010   1.547   7.778  1.4556  0.4838  0.2390
 7558SOL     OW34135   3.888   4.146  14.780 -0.2856 -0.2790 -0.5750
 7558SOL    HW134136   3.883   4.060  14.823 -0.1142 -0.4713 -0.9447
 7558SOL    HW234137   3.899   4.203  14.856 -0.3150  0.9418 -1.4872
 7559SOL     OW34138   1.377   2.011   3.031 -0.0242 -0.4959 -0.0349
 7559SOL    HW134139   1.462   1.972   3.052 -0.4365 -1.4373 -0.0900
 7559SOL    HW234140   1.317   1.940   3.054 -0.4232  0.0475  0.5557
 7560SOL     OW34141   4.462   0.191  16.542  0.0554 -0.5377  0.2322
 7560SOL    HW134142   4.518   0.138  16.598  1.9652  1.0491 -0.1734
 7560SOL    HW234143   4.528   0.222  16.480  0.2656 -2.6833 -0.6282
 7561SOL     OW34144   1.610   3.283  10.214  0.7559 -0.6810 -0.2880
 7561SOL    HW134145   1.542   3.350  10.204  0.9866 -0.0583  2.3879
 7561SOL    HW234146   1.577   3.226  10.144 -2.1150  2.8006 -1.7730
 7562SOL     OW34147   3.409   3.619   6.643  0.3667  0.2261 -0.2670
 7562SOL    HW134148   3.485   3.562   6.657  0.8684  0.9799  0.0592
 7562SOL    HW234149   3.423   3.684   6.711 -0.8558  0.5559 -0.3392
 7563SOL     OW34150   1.020   4.144   6.122  0.2806 -0.0879  0.2571
 7563SOL    HW134151   1.078   4.220   6.132  0.3395  0.0845 -1.4165
 7563SOL    HW234152   0.940   4.193   6.105 -0.0881 -0.6229  0.4649
 7564SOL     OW34153   3.613   0.991  15.999 -0.2868 -0.6296 -0.2187
 7564SOL    HW134154   3.594   0.897  16.007  0.2674 -0.6011  1.3908
 7564SOL    HW234155   3.529   1.033  16.017  0.1869  0.2941 -0.1704
 7565SOL     OW34156   1.567   1.576   6.785  0.2306 -0.3534  0.0534
 7565SOL    HW134157   1.613   1.651   6.822  0.9090 -0.5169 -0.4535
 7565SOL    HW234158   1.499   1.620   6.734  0.6949  2.1202  1.5453
 7566SOL     OW34159   0.468   2.488   7.793  0.0665 -0.0485 -0.4510
 7566SOL    HW134160   0.442   2.414   7.738  1.2195 -0.0393 -1.0011
 7566SOL    HW234161   0.524   2.437   7.852 -0.0033  1.4791  0.9510
 7567SOL     OW34162   2.513   2.968   5.573  0.1594  0.2705 -0.1531
 7567SOL    HW134163   2.559   2.925   5.501 -0.5446 -0.9237  0.1115
 7567SOL    HW234164   2.426   2.928   5.565  0.8541 -1.3492  0.2143
 7568SOL     OW34165   2.443   0.775   6.837  0.5326  0.1086  0.0835
 7568SOL    HW134166   2.455   0.726   6.918  0.8691  1.9805  1.1537
 7568SOL    HW234167   2.348   0.781   6.836  0.5771  0.9463  1.1919
 7569SOL     OW34168   2.735   3.950  15.481 -0.2845 -0.4034 -0.5380
 7569SOL    HW134169   2.820   3.959  15.437 -0.5401  0.8071 -0.8014
 7569SOL    HW234170   2.741   3.856  15.498  0.1385 -0.2280  0.2401
 7570SOL     OW34171   1.937   2.942   8.878  0.2323 -1.1004  0.1845
 7570SOL    HW134172   1.908   2.879   8.944  2.2967 -5.5301 -3.1229
 7570SOL    HW234173   1.859   2.972   8.832  1.1294  3.5208  1.6666
 7571SOL     OW34174   2.389   2.595   7.036 -0.1104 -0.1918 -0.3866
 7571SOL    HW134175   2.394   2.580   7.131 -0.0009 -0.6872 -0.4693
 7571SOL    HW234176   2.374   2.688   7.022 -0.8666 -0.3724 -0.8230
 7572SOL     OW34177   3.766   2.056  12.949 -0.6192 -0.0060  0.3414
 7572SOL    HW134178   3.859   2.046  12.967 -0.5504  0.4201  0.2226
 7572SOL    HW234179   3.723   2.027  13.030  0.4049  2.0625  1.6317
 7573SOL     OW34180   3.227   2.268   7.756 -0.1768  0.4850 -0.3269
 7573SOL    HW134181   3.198   2.180   7.778 -0.2724  0.9504  1.4483
 7573SOL    HW234182   3.299   2.253   7.695  0.5609  0.4345  0.5551
 7574SOL     OW34183   0.656   4.364   1.512  0.2245  0.0926 -0.5043
 7574SOL    HW134184   0.620   4.277   1.499  1.1691 -0.0794 -1.9038
 7574SOL    HW234185   0.743   4.350   1.475  0.7408 -0.7043  0.9778
 7575SOL     OW34186   0.341   2.989   7.696 -0.0681 -0.0828 -0.1786
 7575SOL    HW134187   0.392   2.909   7.683  0.2761  0.5363 -2.6234
 7575SOL    HW234188   0.270   2.972   7.758 -0.1191 -0.5651 -0.3661
 7576SOL     OW34189   0.382   4.174  15.494 -0.3280 -0.0880  0.4566
 7576SOL    HW134190   0.320   4.246  15.503 -0.5811 -0.0981 -1.2899
 7576SOL    HW234191   0.332   4.099  15.527  1.5702 -2.3547 -1.8912
 7577SOL     OW34192   4.256   4.036  17.081  0.1391 -0.9293 -0.0523
 7577SOL    HW134193   4.173   4.015  17.038 -0.9514  1.4790  0.8745
 7577SOL    HW234194   4.254   4.131  17.083 -1.5239 -0.9705  0.0727
 7578SOL     OW34195   2.494   4.369   5.579  0.4532 -0.3410  0.2814
 7578SOL    HW134196   2.426   4.390   5.515 -1.0525 -2.9686  1.0491
 7578SOL    HW234197   2.480   4.428   5.653 -2.2945 -0.2332 -0.3222
 7579SOL     OW34198   4.418   3.787  12.399 -0.2871  0.6920  0.0955
 7579SOL    HW134199   4.379   3.810  12.315  0.5343 -1.7929 -0.9623
 7579SOL    HW234200   4.344   3.814  12.453  0.5755  0.7232  1.2575
 7580SOL     OW34201   2.419   2.244  11.781  0.3410  0.1282  0.0879
 7580SOL    HW134202   2.349   2.297  11.820  0.9830  1.9128 -1.1642
 7580SOL    HW234203   2.498   2.296  11.796 -0.8234  1.3704  1.9854
 7581SOL     OW34204   0.177   4.229   2.523  0.1773  0.2271 -0.2685
 7581SOL    HW134205   0.109   4.164   2.541  0.9942 -0.1789  1.2746
 7581SOL    HW234206   0.123   4.291   2.474  0.8671  0.1371 -1.1494
 7582SOL     OW34207   0.811   3.877   5.214 -0.0872  0.0722 -0.0721
 7582SOL    HW134208   0.836   3.924   5.293 -0.2282 -1.1890  0.7195
 7582SOL    HW234209   0.786   3.794   5.253  2.2474 -0.9919 -0.8423
 7583SOL     OW34210   3.068   4.207  16.093  0.1467 -0.7880 -0.0626
 7583SOL    HW134211   3.044   4.142  16.159  2.2555 -1.4082  0.0833
 7583SOL    HW234212   2.985   4.254  16.079 -0.6562 -1.3163  2.9442
 7584SOL     OW34213   4.049   3.211   5.599 -0.5722  0.1805  0.0683
 7584SOL    HW134214   4.040   3.188   5.506  2.3760  3.5178 -1.0534
 7584SOL    HW234215   3.997   3.148   5.648 -0.9269  0.2251 -0.2406
 7585SOL     OW34216   1.007   4.413  14.368 -0.1097 -0.5348  0.2263
 7585SOL    HW134217   0.952   4.353  14.417  0.8651 -1.9082 -0.3661
 7585SOL    HW234218   0.992   4.498  14.410  3.4503  0.5209 -0.6145
 7586SOL     OW34219   1.920   2.573   6.498  0.3342 -0.6662  0.0352
 7586SOL    HW134220   1.921   2.653   6.550 -1.1966 -0.6954  0.1303
 7586SOL    HW234221   2.006   2.537   6.518  0.9055  0.9730  0.5657
 7587SOL     OW34222   1.053   3.984  15.550  0.2062 -0.4028 -0.7195
 7587SOL    HW134223   1.079   3.917  15.613  2.2360  2.3814  1.4039
 7587SOL    HW234224   0.978   3.947  15.504  0.9460  0.5320 -2.6790
 7588SOL     OW34225   2.106   1.274   7.107  0.4034  0.8007  0.4305
 7588SOL    HW134226   2.102   1.192   7.058  0.8651  1.7434 -1.1966
 7588SOL    HW234227   2.197   1.299   7.094 -0.3228  0.9263 -4.5340
 7589SOL     OW34228   4.308   1.789  11.179 -0.1836 -0.3288  0.6429
 7589SOL    HW134229   4.286   1.785  11.272  0.1759  3.2757  0.8907
 7589SOL    HW234230   4.391   1.740  11.183 -0.2336 -0.3450  1.5008
 7590SOL     OW34231   2.093   0.782  14.714  0.4186 -0.3567 -0.2119
 7590SOL    HW134232   2.124   0.706  14.664  1.7143 -0.2464  0.4488
 7590SOL    HW234233   2.102   0.851  14.647 -2.1959  1.1210  0.9576
 7591SOL     OW34234   0.517   1.669   9.271  1.3499  0.1378 -0.1578
 7591SOL    HW134235   0.581   1.649   9.203 -1.5120  0.1792 -2.8468
 7591SOL    HW234236   0.540   1.613   9.345 -0.6724  0.0873  0.4358
 7592SOL     OW34237   2.188   3.947   9.392  0.0789 -0.4899  0.3288
 7592SOL    HW134238   2.096   3.958   9.415 -0.1208 -1.5001  0.0175
 7592SOL    HW234239   2.188   3.926   9.298 -3.0140 -0.5288  0.3420
 7593SOL     OW34240   1.821   1.479   0.602 -0.6229  0.0206 -0.1333
 7593SOL    HW134241   1.749   1.528   0.562 -3.0675 -1.6654  2.1817
 7593SOL    HW234242   1.771   1.414   0.651  0.4567 -0.2464  0.6055
 7594SOL     OW34243   3.540   1.069   1.735 -0.2975 -0.2793 -0.0869
 7594SOL    HW134244   3.620   1.121   1.733 -1.6388  1.7572 -0.4307
 7594SOL    HW234245   3.546   1.041   1.826 -0.6969  3.1525  1.0093
 7595SOL     OW34246   0.606   3.491   4.990  0.1501  0.3273 -0.2379
 7595SOL    HW134247   0.535   3.528   5.043 -0.2215 -0.9468  0.1660
 7595SOL    HW234248   0.656   3.571   4.977  0.2288  0.2874 -0.1754
 7596SOL     OW34249   2.362   1.900   6.434 -0.3025  0.1108 -0.6938
 7596SOL    HW134250   2.328   1.975   6.482  0.5313  0.4323 -0.6082
 7596SOL    HW234251   2.401   1.849   6.505 -1.4096 -0.0468 -0.2038
 7597SOL     OW34252   1.618   2.149   4.124  0.7317  0.5538 -0.1828
 7597SOL    HW134253   1.670   2.189   4.193  2.4083  0.5867 -1.4536
 7597SOL    HW234254   1.681   2.129   4.055 -0.3894 -3.2708 -0.0887
 7598SOL     OW34255   1.939   2.831   5.769 -0.3875  0.0364  0.0632
 7598SOL    HW134256   1.906   2.805   5.855  0.4168  0.1155  0.3958
 7598SOL    HW234257   1.897   2.917   5.765 -0.3099  0.0329 -0.9625
 7599SOL     OW34258   3.794   0.120   8.586 -0.1865 -0.0507  0.0336
 7599SOL    HW134259   3.702   0.115   8.562 -0.5606  2.2533  1.0228
 7599SOL    HW234260   3.790   0.148   8.677  3.5757  0.1194  0.1722
 7600SOL     OW34261   0.815   3.216   8.898  0.9186 -0.4789  0.6875
 7600SOL    HW134262   0.788   3.129   8.928  1.4740 -1.3647 -1.3426
 7600SOL    HW234263   0.898   3.196   8.855  1.3273  1.0016  0.8070
 7601SOL     OW34264   1.729   0.821   9.817 -0.2408 -0.1761  0.2958
 7601SOL    HW134265   1.721   0.731   9.785 -3.8411 -0.6147  2.4319
 7601SOL    HW234266   1.684   0.825   9.901  0.8445  0.3421  0.8571
 7602SOL     OW34267   0.101   1.453   4.950  0.4126  0.1517  0.4667
 7602SOL    HW134268   0.023   1.483   4.903 -1.5119 -1.2494  2.7816
 7602SOL    HW234269   0.131   1.370   4.912 -0.0611  1.0628 -1.9037
 7603SOL     OW34270   0.251   4.535   6.121 -0.0491  0.4931 -0.6832
 7603SOL    HW134271   0.239   4.470   6.052 -2.9414 -1.8030  1.9759
 7603SOL    HW234272   0.251   4.476   6.197  1.7420  0.2704 -0.8500
 7604SOL     OW34273   3.950   3.777   1.791 -0.0053  0.0987  0.7307
 7604SOL    HW134274   3.975   3.869   1.786  0.8695 -0.2213 -0.8300
 7604SOL    HW234275   3.947   3.768   1.887  1.1456 -2.2751  0.5457
 7605SOL     OW34276   0.433   4.665   8.699 -0.1475 -0.9845 -0.5133
 7605SOL    HW134277   0.399   4.691   8.614  0.1274 -1.0119 -0.6307
 7605SOL    HW234278   0.474   4.580   8.682  1.5265 -0.5196  1.1663
 7606SOL     OW34279   0.627   2.609  11.564 -0.1972 -0.3040 -0.3871
 7606SOL    HW134280   0.673   2.692  11.561 -0.5468 -0.1227 -0.7647
 7606SOL    HW234281   0.537   2.638  11.582 -0.3986  0.1055 -2.1044
 7607SOL     OW34282   3.258   1.243  10.735 -0.2349 -0.2679 -0.1959
 7607SOL    HW134283   3.268   1.161  10.686 -1.1721 -0.2986 -0.3274
 7607SOL    HW234284   3.237   1.209  10.822  2.5351  1.3890  1.1427
 7608SOL     OW34285   4.703   0.043  17.001  0.2464 -0.4074 -0.1551
 7608SOL    HW134286   0.067   0.026  17.033 -0.1976  3.0732  2.8250
 7608SOL    HW234287   4.671   0.115  17.055 -1.8157 -1.3543 -0.0849
 7609SOL     OW34288   3.866   0.321   7.851  0.7546  0.3865  0.1726
 7609SOL    HW134289   3.869   0.345   7.944  1.1875  1.1045 -0.0327
 7609SOL    HW234290   3.847   0.227   7.855 -2.0160  0.9439  0.2634
 7610SOL     OW34291   4.444   1.486   3.230 -0.6505 -0.4534  0.0851
 7610SOL    HW134292   4.384   1.530   3.169 -0.3698  0.8473  0.7531
 7610SOL    HW234293   4.528   1.501   3.186  0.6423 -3.1737  1.6708
 7611SOL     OW34294   1.730   4.503   7.370  0.5189  0.1519  0.3591
 7611SOL    HW134295   1.750   4.413   7.344 -2.1918 -0.5360  0.5740
 7611SOL    HW234296   1.648   4.494   7.419 -2.2964 -1.2755 -4.6001
 7612SOL     OW34297   2.133   3.543   2.953 -0.0358 -0.2288  0.1177
 7612SOL    HW134298   2.137   3.453   2.985  1.0711  0.2176  1.2461
 7612SOL    HW234299   2.227   3.551   2.938 -0.2226  1.3368 -0.2249
 7613SOL     OW34300   1.518   1.887   4.243 -0.2088  0.3243 -0.2718
 7613SOL    HW134301   1.530   1.944   4.167  1.6115 -1.8424 -1.6110
 7613SOL    HW234302   1.578   1.925   4.308 -0.2001  0.2684 -0.2466
 7614SOL     OW34303   1.168   4.477   2.841  0.0714 -0.3905 -0.0606
 7614SOL    HW134304   1.238   4.541   2.853  0.4195 -0.5860 -1.1038
 7614SOL    HW234305   1.160   4.471   2.746  0.2907 -0.0218 -0.0986
 7615SOL     OW34306   0.605   1.476  15.643  0.0627  0.8974 -0.1937
 7615SOL    HW134307   0.514   1.495  15.619  0.7285 -0.2286 -3.6418
 7615SOL    HW234308   0.628   1.414  15.574 -0.7033  1.4253 -0.9257
 7616SOL     OW34309   4.072   3.742   3.408 -0.0310  0.2797  0.0011
 7616SOL    HW134310   4.123   3.695   3.473 -0.9468 -1.0994 -0.2780
 7616SOL    HW234311   4.116   3.720   3.325 -0.9226  0.0968 -0.4211
 7617SOL     OW34312   1.316   0.757   2.996 -0.2729 -0.3199 -0.4006
 7617SOL    HW134313   1.328   0.850   2.973 -0.9499 -0.4629 -1.3107
 7617SOL    HW234314   1.264   0.768   3.075 -2.9463 -1.6890 -1.9953
 7618SOL     OW34315   3.324   0.855  16.600 -0.0756  0.1402  0.3160
 7618SOL    HW134316   3.257   0.817  16.657 -0.3433 -0.3829 -0.3505
 7618SOL    HW234317   3.380   0.783  16.571 -0.3092 -0.2980  0.9568
 7619SOL     OW34318   0.134   0.670   7.041 -0.6481 -0.3790 -0.1991
 7619SOL    HW134319   0.128   0.731   6.968 -0.3645 -2.7824 -2.2515
 7619SOL    HW234320   0.174   0.598   6.993 -0.2093 -0.5631  0.4379
 7620SOL     OW34321   1.988   1.666   4.880 -0.9264 -0.0902  0.3097
 7620SOL    HW134322   1.920   1.649   4.946 -1.4314 -1.8550 -0.6664
 7620SOL    HW234323   2.021   1.753   4.900 -0.0752 -0.4452  0.4673
 7621SOL     OW34324   0.588   2.681   4.580 -0.1469  0.3457  0.2270
 7621SOL    HW134325   0.570   2.649   4.491  1.6907  2.6748 -0.9972
 7621SOL    HW234326   0.549   2.768   4.569  0.5701  0.6585  0.1864
 7622SOL     OW34327   3.974   1.657  13.834  0.5372  0.2129  0.4207
 7622SOL    HW134328   3.881   1.659  13.855  0.9867  0.4395  2.4143
 7622SOL    HW234329   3.971   1.628  13.743 -0.1165 -0.6301  0.7170
 7623SOL     OW34330   3.511   1.184   7.725 -0.1045 -0.3771  0.3360
 7623SOL    HW134331   3.446   1.251   7.744 -0.0616 -0.6657  1.5097
 7623SOL    HW234332   3.452   1.109   7.717 -1.2230  0.5785 -0.4056
 7624SOL     OW34333   4.343   4.105  17.686  0.3182 -0.3238 -0.3267
 7624SOL    HW134334   4.387   4.057   0.058 -1.9456 -3.1112 -0.8292
 7624SOL    HW234335   4.298   4.168   0.042 -2.3939 -0.7029 -2.1250
 7625SOL     OW34336   3.646   3.521  12.038 -0.5701 -0.0935  0.1009
 7625SOL    HW134337   3.623   3.607  12.002 -1.5233 -0.2606  0.3137
 7625SOL    HW234338   3.568   3.470  12.018 -1.1491 -0.1641  2.5317
 7626SOL     OW34339   0.274   1.606   2.797  0.7438  0.1829  0.1242
 7626SOL    HW134340   0.345   1.547   2.823  1.8321  0.2134 -2.7141
 7626SOL    HW234341   0.243   1.563   2.717 -1.6545  1.1861  0.5155
 7627SOL     OW34342   4.425   1.222   7.847 -0.5305  0.4316  0.7803
 7627SOL    HW134343   4.432   1.214   7.752  1.6639  2.3876  0.7820
 7627SOL    HW234344   4.513   1.258   7.861  0.1226 -1.6673  2.0737
 7628SOL     OW34345   1.190   0.272  11.022 -0.2745  0.1680 -0.1883
 7628SOL    HW134346   1.143   0.199  11.064 -1.7570  1.0116 -0.4118
 7628SOL    HW234347   1.125   0.341  11.021 -0.7925 -0.3209 -0.8235
 7629SOL     OW34348   2.208   1.385  10.347 -0.4086 -0.6662 -0.1886
 7629SOL    HW134349   2.196   1.445  10.274  0.3856 -0.5509 -0.2275
 7629SOL    HW234350   2.299   1.406  10.371 -0.7008  1.1700 -0.6980
 7630SOL     OW34351   0.325   0.661   5.818 -0.4778 -0.0011  0.3868
 7630SOL    HW134352   0.389   0.657   5.889 -0.5991  0.1015  0.5007
 7630SOL    HW234353   0.352   0.586   5.766  0.9205 -0.2875  1.5255
 7631SOL     OW34354   0.594   1.400   3.639 -0.5107 -0.3282 -0.0345
 7631SOL    HW134355   0.549   1.414   3.723 -0.7882 -0.1340 -0.2168
 7631SOL    HW234356   0.652   1.476   3.628 -3.0420  1.3411 -1.6699
 7632SOL     OW34357   1.019   2.004   3.899  0.0321  0.3096 -0.2819
 7632SOL    HW134358   1.098   2.005   3.846 -1.0170 -1.7466 -1.8990
 7632SOL    HW234359   0.953   1.963   3.843 -1.3709  0.4759  1.2379
 7633SOL     OW34360   1.012   3.047   5.823  0.1949  1.1841  0.0945
 7633SOL    HW134361   1.080   3.007   5.769 -0.6927  0.2606 -0.3352
 7633SOL    HW234362   0.931   3.016   5.783 -0.0403  2.3174 -0.3112
 7634SOL     OW34363   4.308   4.400   5.274  0.7937  0.6930  0.6188
 7634SOL    HW134364   4.305   4.316   5.229  0.5950  0.8496  0.3392
 7634SOL    HW234365   4.272   4.462   5.210 -1.4341 -1.6661 -0.4117
 7635SOL     OW34366   3.055   0.230   8.977 -0.0611  0.0584  0.0392
 7635SOL    HW134367   3.030   0.315   8.941  0.2722  0.5473  0.9516
 7635SOL    HW234368   3.099   0.264   9.055  2.2390 -1.1171 -0.7462
 7636SOL     OW34369   1.697   4.580   4.647  0.4261 -0.1695 -0.9050
 7636SOL    HW134370   1.692   4.489   4.676  0.4809  0.5142  1.2611
 7636SOL    HW234371   1.652   4.564   4.564 -3.0960  2.8728  0.4205
 7637SOL     OW34372   4.585   1.978   2.331  0.1989  0.6201 -0.1550
 7637SOL    HW134373   4.674   1.954   2.307  0.3324  0.4008  0.5483
 7637SOL    HW234374   4.590   2.066   2.368 -1.7261  1.4417 -1.8490
 7638SOL     OW34375   1.623   3.603  15.413  0.3163 -0.1943 -0.1439
 7638SOL    HW134376   1.560   3.531  15.418  1.0242 -0.7963  0.1236
 7638SOL    HW234377   1.597   3.668  15.478 -1.9699 -0.6530 -0.5993
 7639SOL     OW34378   1.730   2.213   0.227 -0.4639 -0.0618  0.6606
 7639SOL    HW134379   1.727   2.242   0.318 -0.0755 -0.3678  0.7708
 7639SOL    HW234380   1.820   2.230   0.201 -0.2683 -2.2156 -0.1276
 7640SOL     OW34381   1.874   2.750   6.036  0.0740 -0.6317  0.3391
 7640SOL    HW134382   1.945   2.758   6.099  1.1955 -0.6233 -0.9242
 7640SOL    HW234383   1.825   2.829   6.060 -1.7600 -0.2706 -4.4686
 7641SOL     OW34384   1.917   2.813   2.718 -0.0098 -0.2663 -0.5110
 7641SOL    HW134385   1.969   2.851   2.647 -0.6233 -0.0193 -0.8300
 7641SOL    HW234386   1.893   2.729   2.677 -0.9243  0.4546 -1.4581
 7642SOL     OW34387   2.342   0.712   9.758  0.5476  0.0735 -0.1801
 7642SOL    HW134388   2.410   0.715   9.690  1.1221  2.6791  0.4963
 7642SOL    HW234389   2.328   0.807   9.753 -1.6041 -0.1454  2.1123
 7643SOL     OW34390   4.387   2.492   7.974 -0.1340  0.1039  0.2023
 7643SOL    HW134391   4.412   2.511   8.065  2.2332  0.3454 -0.5005
 7643SOL    HW234392   4.332   2.568   7.954  0.8314  0.4452 -1.1774
 7644SOL     OW34393   1.610   2.399   5.301  0.2194 -0.0600 -0.0276
 7644SOL    HW134394   1.575   2.336   5.364 -4.1682  1.5778 -0.7991
 7644SOL    HW234395   1.694   2.413   5.344 -0.1191 -0.0599  0.6303
 7645SOL     OW34396   4.588   4.632   5.910 -0.7480  0.0825 -0.2001
 7645SOL    HW134397   4.556   4.542   5.906 -0.2579 -0.0215 -1.7655
 7645SOL    HW234398   4.572   4.655   6.002  1.9338  2.2195 -0.2521
 7646SOL     OW34399   2.612   1.736   9.419  0.0634  0.2508  0.0684
 7646SOL    HW134400   2.574   1.790   9.489  1.5578  1.4168 -0.0210
 7646SOL    HW234401   2.539   1.675   9.405  0.6159 -0.2866 -0.4607
 7647SOL     OW34402   0.845   4.562   5.935  0.2940 -0.4559  0.0802
 7647SOL    HW134403   0.830   4.614   5.856  4.1342  1.7168  0.7585
 7647SOL    HW234404   0.940   4.551   5.928  0.2823 -0.9075  0.5832
 7648SOL     OW34405   3.799   3.612   3.305 -0.0746  0.1281 -0.5429
 7648SOL    HW134406   3.850   3.693   3.313 -0.6066  0.2249  1.7289
 7648SOL    HW234407   3.859   3.559   3.252  0.0287 -0.4381  0.1406
 7649SOL     OW34408   2.291   0.092   8.646 -0.0293  0.1864  0.1640
 7649SOL    HW134409   2.221   0.157   8.645 -0.7047 -0.5862 -1.7285
 7649SOL    HW234410   2.317   0.102   8.555  1.3780 -2.9803  0.2188
 7650SOL     OW34411   0.701   4.131   4.078  0.1477  0.2591 -0.4604
 7650SOL    HW134412   0.665   4.145   4.166 -1.0959  2.0386 -1.2529
 7650SOL    HW234413   0.665   4.209   4.037  0.8691 -0.7086 -2.9404
 7651SOL     OW34414   0.832   4.559  15.208 -0.0062  0.0305  0.5060
 7651SOL    HW134415   0.758   4.498  15.217  1.7929 -1.8039  2.8394
 7651SOL    HW234416   0.888   4.505  15.264 -0.3573 -1.2856 -0.4175
 7652SOL     OW34417   0.333   4.228   7.415 -0.0655  0.4730 -0.3390
 7652SOL    HW134418   0.331   4.324   7.422  1.7819  0.4680  0.1292
 7652SOL    HW234419   0.347   4.207   7.507  1.3948  2.7952 -0.0187
 7653SOL     OW34420   4.174   2.944   6.463  0.3538  0.1175 -0.0793
 7653SOL    HW134421   4.090   2.919   6.503 -0.9640  2.6153 -1.3046
 7653SOL    HW234422   4.182   2.877   6.396 -0.3931  0.2950 -0.3404
 7654SOL     OW34423   3.591   2.476   8.987 -0.5092 -0.0588 -0.1396
 7654SOL    HW134424   3.537   2.536   9.037  0.6731 -1.3820  2.7258
 7654SOL    HW234425   3.575   2.515   8.901 -1.6846 -0.8402 -0.2693
 7655SOL     OW34426   0.506   3.825   3.585  0.4411 -0.1444  0.0546
 7655SOL    HW134427   0.531   3.755   3.525  1.1375  1.8568 -1.9628
 7655SOL    HW234428   0.589   3.830   3.633 -0.6828 -1.3631  2.1501
 7656SOL     OW34429   1.277   2.331   6.636 -0.6474 -0.6088  0.2813
 7656SOL    HW134430   1.267   2.398   6.569  2.4247 -1.1557 -0.7483
 7656SOL    HW234431   1.372   2.340   6.644 -0.6590  1.1505 -1.6250
 7657SOL     OW34432   4.342   2.151   3.463 -0.6205  0.3011 -0.0343
 7657SOL    HW134433   4.368   2.241   3.485  1.6258 -0.1941 -0.6459
 7657SOL    HW234434   4.389   2.111   3.536 -1.8056 -0.7597  0.1412
 7658SOL     OW34435   0.541   4.094   1.749  0.7939 -0.3030  0.1966
 7658SOL    HW134436   0.570   4.103   1.658  1.0954 -0.9635  0.2247
 7658SOL    HW234437   0.450   4.069   1.733  0.1430  1.2375  1.4134
 7659SOL     OW34438   4.314   3.225   7.138  0.0327  0.0150 -0.6234
 7659SOL    HW134439   4.302   3.155   7.074 -1.8057 -1.6132  1.5129
 7659SOL    HW234440   4.354   3.187   7.216 -2.9881  1.1779  1.4891
 7660SOL     OW34441   2.199   0.716   9.455  0.4333  0.3023 -0.3745
 7660SOL    HW134442   2.118   0.688   9.497  1.2392  1.4412  1.9065
 7660SOL    HW234443   2.231   0.790   9.507  0.4186  1.4304 -1.9673
 7661SOL     OW34444   2.129   1.517   3.269 -0.4816 -0.6382  0.2007
 7661SOL    HW134445   2.058   1.558   3.220 -0.1188 -0.4204 -0.1480
 7661SOL    HW234446   2.201   1.579   3.261  0.7241 -1.8834  1.2806
 7662SOL     OW34447   1.260   3.026   6.679 -0.2347  0.2894 -0.3124
 7662SOL    HW134448   1.224   3.115   6.670  2.5100  1.3279 -1.1730
 7662SOL    HW234449   1.295   2.995   6.596 -0.1984 -1.7269  0.4636
 7663SOL     OW34450   1.506   3.384   5.416  0.2977 -0.4348  0.3393
 7663SOL    HW134451   1.598   3.360   5.429  0.7115  0.3177 -1.3012
 7663SOL    HW234452   1.472   3.297   5.440  0.1012 -0.7894 -1.2587
 7664SOL     OW34453   0.383   3.752   8.120  0.1213 -0.2985  0.0197
 7664SOL    HW134454   0.324   3.749   8.044  1.3838  0.4979 -0.9905
 7664SOL    HW234455   0.466   3.766   8.075 -0.0436 -0.9280 -0.4860
 7665SOL     OW34456   2.444   0.362   9.180 -0.1814  0.5070 -0.1135
 7665SOL    HW134457   2.495   0.293   9.137 -0.3849  0.5665 -0.4582
 7665SOL    HW234458   2.365   0.309   9.189 -1.1776  1.6672 -1.9575
 7666SOL     OW34459   1.198   2.142   5.604  0.3074 -0.3485  0.7180
 7666SOL    HW134460   1.207   2.235   5.582  2.2596 -0.7268 -0.0213
 7666SOL    HW234461   1.262   2.105   5.543 -0.2469 -0.7926  0.4021
 7667SOL     OW34462   2.233   0.955   5.282 -0.5226 -0.4955  0.2423
 7667SOL    HW134463   2.168   1.024   5.268  0.4863 -0.0290 -2.1588
 7667SOL    HW234464   2.213   0.900   5.207 -3.4003 -0.4331  0.9609
 7668SOL     OW34465   1.150   2.732  14.904  0.0532 -0.0714  0.3377
 7668SOL    HW134466   1.171   2.662  14.842 -1.1850  0.0951 -0.2675
 7668SOL    HW234467   1.154   2.808  14.846  0.3217  0.1079  0.5886
 7669SOL     OW34468   1.465   0.359   3.920 -0.1212  0.2860 -0.3277
 7669SOL    HW134469   1.407   0.343   3.845 -0.2654 -0.0900 -0.1370
 7669SOL    HW234470   1.450   0.285   3.978  0.8000  0.9053  0.6988
 7670SOL     OW34471   0.202   1.406   2.611  0.1947  0.1360  0.1298
 7670SOL    HW134472   0.271   1.343   2.589 -0.3356 -0.2492 -0.4356
 7670SOL    HW234473   0.168   1.429   2.525 -1.0210 -0.8415  0.3438
 7671SOL     OW34474   2.992   2.208   6.233 -0.0177 -0.3655 -0.5317
 7671SOL    HW134475   2.944   2.168   6.161  2.3446 -0.6373 -1.9384
 7671SOL    HW234476   2.969   2.156   6.310  3.8929 -2.3538 -0.7166
 7672SOL     OW34477   4.224   2.084  16.402  0.2473  0.0569  0.4990
 7672SOL    HW134478   4.298   2.037  16.364  1.2302  0.3252  2.0630
 7672SOL    HW234479   4.174   2.011  16.438 -2.2444  0.2068 -2.6495
 7673SOL     OW34480   4.489   0.281   6.128 -0.3700 -1.3031 -0.4701
 7673SOL    HW134481   4.417   0.297   6.068 -0.0563  0.8025 -0.2768
 7673SOL    HW234482   4.443   0.234   6.198 -1.7824 -1.9235 -1.8312
 7674SOL     OW34483   0.559   4.698   7.610  0.1971  0.7101 -0.3334
 7674SOL    HW134484   0.621   4.699   7.683 -0.2798 -2.0780  0.1004
 7674SOL    HW234485   0.596   4.652   7.534 -2.3330 -0.9776 -0.5555
 7675SOL     OW34486   3.792   0.068   3.653 -0.2878  0.6315  0.2499
 7675SOL    HW134487   3.745   0.072   3.736 -2.1917 -2.8809 -0.6742
 7675SOL    HW234488   3.726   0.030   3.595  0.6495 -0.5143 -0.0797
 7676SOL     OW34489   2.695   4.368   3.242 -0.0486  0.3639 -0.5844
 7676SOL    HW134490   2.680   4.462   3.236  0.8256  0.5663  0.3664
 7676SOL    HW234491   2.686   4.338   3.151 -2.3356  2.2705 -0.9638
 7677SOL     OW34492   4.704   2.278   5.346 -0.3544  0.4903 -0.6548
 7677SOL    HW134493   4.677   2.224   5.271 -0.5393 -0.2145 -0.0788
 7677SOL    HW234494   0.059   2.316   5.307  1.5593 -1.2183  1.5929
 7678SOL     OW34495   3.812   3.251   1.398  0.1444  0.6265 -0.4179
 7678SOL    HW134496   3.837   3.243   1.306 -0.1985  1.5755 -0.6002
 7678SOL    HW234497   3.755   3.176   1.411  2.0380 -0.4195  1.8912
 7679SOL     OW34498   1.649   1.599   5.788 -0.1151  0.2506  0.3263
 7679SOL    HW134499   1.701   1.609   5.708 -1.8578 -3.4518 -1.2775
 7679SOL    HW234500   1.561   1.581   5.756  0.2604 -1.4610  0.2700
 7680SOL     OW34501   0.406   2.864   8.091  0.3359 -0.6872 -0.1411
 7680SOL    HW134502   0.352   2.787   8.071  0.0064  0.2263 -2.7564
 7680SOL    HW234503   0.472   2.836   8.154  0.9899 -0.6331 -0.7981
 7681SOL     OW34504   3.184   3.577  17.061  0.5230  0.2449  0.0808
 7681SOL    HW134505   3.112   3.597  17.121  0.5865  1.9409 -0.3926
 7681SOL    HW234506   3.262   3.617  17.099  0.9822  1.0985 -1.7430
 7682SOL     OW34507   2.805   4.489  13.121  0.2841  0.4258  0.3827
 7682SOL    HW134508   2.830   4.423  13.056 -1.6250 -0.4711  0.5557
 7682SOL    HW234509   2.807   4.428  13.195  0.2333 -0.7991 -0.6265
 7683SOL     OW34510   0.165   0.522  14.052 -0.3935  0.1247 -0.0858
 7683SOL    HW134511   0.152   0.564  13.966  0.2344  1.0215  0.2613
 7683SOL    HW234512   0.116   0.586  14.104 -0.7332  2.1432 -2.9047
 7684SOL     OW34513   1.795   0.200   9.076 -0.4708  0.1181 -0.4606
 7684SOL    HW134514   1.717   0.146   9.091 -0.6001  1.0647  2.2836
 7684SOL    HW234515   1.783   0.225   8.985  1.5018  1.0440 -0.4671
 7685SOL     OW34516   3.653   1.408   4.352 -0.2080  0.5675 -1.2088
 7685SOL    HW134517   3.664   1.495   4.314 -0.0901  1.3399  0.5911
 7685SOL    HW234518   3.564   1.382   4.329 -0.8028  1.8168 -0.3316
 7686SOL     OW34519   3.623   4.343   3.308  0.1297 -0.2809  0.6296
 7686SOL    HW134520   3.588   4.275   3.252 -0.2287  0.7457 -0.3996
 7686SOL    HW234521   3.568   4.336   3.386 -0.6356  0.8683  0.1888
 7687SOL     OW34522   1.713   2.123   2.997 -0.4212  0.6523 -0.6393
 7687SOL    HW134523   1.662   2.174   2.934 -1.6332  2.0140  1.4294
 7687SOL    HW234524   1.798   2.144   2.958  1.0996 -0.6235  2.0391
 7688SOL     OW34525   4.257   3.246  11.600 -0.2140 -0.6554  0.1655
 7688SOL    HW134526   4.341   3.261  11.557 -0.2211 -0.7220  0.1277
 7688SOL    HW234527   4.279   3.201  11.682  0.7361  0.7963  0.7088
 7689SOL     OW34528   0.426   2.354   6.164  0.1324 -0.3622  0.1096
 7689SOL    HW134529   0.400   2.298   6.237  1.9167 -0.6680  0.5047
 7689SOL    HW234530   0.340   2.378   6.128 -0.2910 -3.9631 -1.2409
 7690SOL     OW34531   0.618   3.747   0.996 -0.1431  0.1679 -0.0957
 7690SOL    HW134532   0.614   3.761   1.091  0.3484  0.7160 -0.1580
 7690SOL    HW234533   0.684   3.809   0.966 -1.9793  2.0496 -0.1465
 7691SOL     OW34534   1.721   2.363   4.847 -0.2358 -0.3275 -0.0122
 7691SOL    HW134535   1.789   2.318   4.798  0.9181 -1.0600  2.2481
 7691SOL    HW234536   1.704   2.442   4.795  0.2219  0.3967  0.9330
 7692SOL     OW34537   2.310   0.873   4.706 -0.0169 -0.3506 -0.8305
 7692SOL    HW134538   2.342   0.786   4.729 -1.2317 -0.3912  0.7794
 7692SOL    HW234539   2.363   0.924   4.767  1.8681 -2.0246 -1.0848
 7693SOL     OW34540   2.010   3.340   8.016  0.2418  0.0728  0.0300
 7693SOL    HW134541   2.098   3.378   8.019 -0.3943  1.6404 -1.1357
 7693SOL    HW234542   1.966   3.419   7.985 -0.6523 -0.9608 -1.3280
 7694SOL     OW34543   3.193   3.851  14.205  0.6687 -0.2397 -0.3657
 7694SOL    HW134544   3.198   3.758  14.229 -1.4364 -0.2494  0.0193
 7694SOL    HW234545   3.253   3.848  14.131 -0.7045 -1.1311 -1.4523
 7695SOL     OW34546   1.924   2.939  16.451  0.2934  0.0186 -0.8343
 7695SOL    HW134547   1.836   2.955  16.418 -0.1410  1.0152  0.8115
 7695SOL    HW234548   1.979   2.944  16.373 -0.3600  0.0519 -1.2882
 7696SOL     OW34549   1.187   0.733   8.066 -0.2395  0.0216  0.3820
 7696SOL    HW134550   1.190   0.781   8.148 -3.3207 -0.2523  0.6663
 7696SOL    HW234551   1.108   0.679   8.076  0.4727 -1.4361 -1.7803
 7697SOL     OW34552   3.978   1.056   4.124 -0.1759 -0.2733  0.0769
 7697SOL    HW134553   3.961   1.115   4.050 -2.6476 -1.8480 -0.6008
 7697SOL    HW234554   4.068   1.027   4.106  0.0529 -0.8779  2.3103
 7698SOL     OW34555   0.480   4.358   0.222  0.7490  0.3487  0.2256
 7698SOL    HW134556   0.461   4.301   0.296  1.2693  0.1018  0.1725
 7698SOL    HW234557   0.414   4.328   0.160  0.7297 -0.8804  0.8423
 7699SOL     OW34558   4.650   3.632   7.565  0.1079  0.1883  0.0978
 7699SOL    HW134559   4.664   3.601   7.655 -0.6023 -0.6725 -0.0860
 7699SOL    HW234560   4.576   3.691   7.577 -0.3119 -0.2920 -0.1570
 7700SOL     OW34561   4.438   1.653  16.203  0.5966  0.6066 -0.1731
 7700SOL    HW134562   4.502   1.627  16.270  1.8907  1.8439 -0.9372
 7700SOL    HW234563   4.486   1.672  16.122 -0.5206 -0.7079 -1.1496
 7701SOL     OW34564   2.041   0.911   4.210  0.4488 -0.1894  0.0355
 7701SOL    HW134565   2.076   0.833   4.253 -0.0020  0.2742  1.2319
 7701SOL    HW234566   1.978   0.953   4.268  1.1316 -0.0006  0.6372
 7702SOL     OW34567   0.355   2.625   0.426 -0.2115  0.3532 -0.4155
 7702SOL    HW134568   0.327   2.608   0.516 -1.9924  1.2428 -0.8093
 7702SOL    HW234569   0.447   2.641   0.448  0.2983 -0.4383 -2.0062
 7703SOL     OW34570   3.890   1.119   9.390 -0.1604 -0.2970 -0.1142
 7703SOL    HW134571   3.843   1.084   9.466  1.5734 -1.4183  0.4380
 7703SOL    HW234572   3.928   1.039   9.354  2.8284  1.1202 -0.1110
 7704SOL     OW34573   3.078   1.123   8.552  0.3943 -0.2504 -0.1849
 7704SOL    HW134574   3.118   1.046   8.511 -1.4671 -1.9973  1.2875
 7704SOL    HW234575   2.988   1.092   8.565  0.4554 -0.1146  0.5497
 7705SOL     OW34576   0.508   0.917   8.785 -0.2801  0.1030  0.1503
 7705SOL    HW134577   0.562   0.848   8.745 -1.3094 -0.2399 -0.6307
 7705SOL    HW234578   0.493   0.887   8.875  2.2202  0.7877  0.8048
 7706SOL     OW34579   3.364   0.165   1.121  0.6398  0.3352 -0.0215
 7706SOL    HW134580   3.401   0.251   1.100  0.3652  0.5752  0.4859
 7706SOL    HW234581   3.394   0.117   1.044 -1.4395  0.1262 -0.6929
 7707SOL     OW34582   0.991   0.122   7.020 -0.3875 -0.8261 -0.2328
 7707SOL    HW134583   1.042   0.194   7.056  1.8797 -1.7117 -1.6369
 7707SOL    HW234584   1.018   0.136   6.929  3.7594 -0.0249  1.1425
 7708SOL     OW34585   2.790   3.520  11.475 -0.3654  0.6653  0.1161
 7708SOL    HW134586   2.729   3.540  11.403  0.7337  1.5335 -0.5715
 7708SOL    HW234587   2.803   3.606  11.513  2.2464 -0.4639  1.7587
 7709SOL     OW34588   3.549   2.582   4.370  0.2075  0.4368 -0.4623
 7709SOL    HW134589   3.523   2.566   4.461  1.1187 -0.7175 -0.4019
 7709SOL    HW234590   3.485   2.650   4.349 -1.2188 -0.4791  0.8839
 7710SOL     OW34591   0.078   4.618   2.944  0.1774  0.3546 -0.3361
 7710SOL    HW134592   0.101   4.592   2.855  1.7534  0.9353 -0.1109
 7710SOL    HW234593   4.709   4.599   2.946 -0.1837  2.4212  2.8043
 7711SOL     OW34594   3.345   1.040   7.117  0.0101  0.4853  0.2166
 7711SOL    HW134595   3.326   1.000   7.202 -0.3407 -0.2713 -0.2126
 7711SOL    HW234596   3.290   1.114   7.141 -0.7533 -0.4730  1.4596
 7712SOL     OW34597   3.320   0.361   8.140 -0.4955  0.1134 -0.9682
 7712SOL    HW134598   3.381   0.334   8.208  1.4596  1.2967 -2.2197
 7712SOL    HW234599   3.285   0.277   8.110  2.4446 -1.5587  0.2830
 7713SOL     OW34600   1.254   0.023   1.194  0.0361  0.1172  0.6257
 7713SOL    HW134601   1.172   0.022   1.245 -0.1530  0.7428  0.3310
 7713SOL    HW234602   1.286   0.110   1.215 -0.5039  0.4579  0.0550
 7714SOL     OW34603   3.697   4.024   3.426  0.8865 -0.1477 -0.3393
 7714SOL    HW134604   3.725   3.941   3.464 -0.6336  0.1099  1.3465
 7714SOL    HW234605   3.733   4.083   3.493 -0.1601  0.4724 -0.3270
 7715SOL     OW34606   2.784   3.611   9.712  0.3932  0.2005  0.0625
 7715SOL    HW134607   2.702   3.660   9.702  0.7035  0.2933 -1.9967
 7715SOL    HW234608   2.818   3.650   9.792 -0.9040  1.3496  0.0554
 7716SOL     OW34609   3.452   0.470  11.991  0.5732  0.6443  0.0478
 7716SOL    HW134610   3.466   0.497  12.082  1.3436 -2.0793  0.7729
 7716SOL    HW234611   3.357   0.469  11.986  0.5830  1.1663 -0.1667
 7717SOL     OW34612   1.546   3.400  14.268  0.1689  0.8042 -0.3223
 7717SOL    HW134613   1.591   3.484  14.277  0.9759  0.3028  0.3900
 7717SOL    HW234614   1.468   3.410  14.323  1.3229  0.9085  1.2937
 7718SOL     OW34615   0.877   3.377   6.139  0.5390  0.2559  0.8283
 7718SOL    HW134616   0.781   3.381   6.136  0.5146  0.3685  1.6651
 7718SOL    HW234617   0.904   3.469   6.141  0.2992  0.3569 -1.0343
 7719SOL     OW34618   0.564   0.380   4.990  0.1690  0.1478 -0.0278
 7719SOL    HW134619   0.553   0.475   4.991  1.9423  0.3446  0.5403
 7719SOL    HW234620   0.612   0.371   5.072 -0.1953 -2.3440 -0.0692
 7720SOL     OW34621   0.927   2.445   6.720  0.0094 -0.4261  0.1793
 7720SOL    HW134622   0.851   2.448   6.777  0.3754  0.7814  0.5955
 7720SOL    HW234623   0.932   2.349   6.713  1.0559 -0.3169 -0.6278
 7721SOL     OW34624   4.603   2.883  12.921 -0.1201  0.0377 -0.9584
 7721SOL    HW134625   4.586   2.977  12.931  2.1011  0.6736 -3.4091
 7721SOL    HW234626   4.658   2.867  12.998 -0.5381 -1.9376 -1.0687
 7722SOL     OW34627   0.734   0.515  16.894  0.7415 -0.0239  0.2083
 7722SOL    HW134628   0.747   0.608  16.876  0.1257  0.2048  0.9400
 7722SOL    HW234629   0.763   0.471  16.814 -0.0657 -0.3415  0.0914
 7723SOL     OW34630   0.419   3.863   6.430  0.0374 -0.9085  0.4748
 7723SOL    HW134631   0.370   3.862   6.347 -2.0685  0.4897  1.7111
 7723SOL    HW234632   0.475   3.785   6.421  1.3191  0.0517  0.0045
 7724SOL     OW34633   3.779   2.028   9.912 -0.3867 -0.1231  0.5695
 7724SOL    HW134634   3.740   2.102   9.959 -0.4644 -0.2335  0.6796
 7724SOL    HW234635   3.739   1.950   9.951  0.1678 -0.6033  0.1741
 7725SOL     OW34636   2.724   1.199  17.327 -0.3279  0.1430  0.2861
 7725SOL    HW134637   2.790   1.136  17.298 -0.7363  0.5656 -1.6218
 7725SOL    HW234638   2.666   1.142  17.377  0.8280 -1.8312 -0.6187
 7726SOL     OW34639   4.630   1.678   2.241 -0.0104  0.1220  0.6921
 7726SOL    HW134640   4.720   1.644   2.250 -0.6642 -1.5643  0.8720
 7726SOL    HW234641   4.625   1.638   2.154  0.2401 -0.7719  1.0941
 7727SOL     OW34642   0.248   3.742  14.604  0.2177 -0.1724 -0.3445
 7727SOL    HW134643   0.158   3.713  14.623 -0.6527  1.1823 -2.3294
 7727SOL    HW234644   0.255   3.736  14.508  0.0042  1.3772 -0.4578
 7728SOL     OW34645   3.126   3.005   9.379 -0.1942 -0.4891  0.5582
 7728SOL    HW134646   3.104   3.081   9.325 -0.6437 -1.3086 -0.3957
 7728SOL    HW234647   3.211   3.042   9.403  0.0354 -0.3804 -0.4315
 7729SOL     OW34648   3.227   4.719  12.662 -0.1178  0.4741 -0.4361
 7729SOL    HW134649   3.184   0.073  12.697  0.9174  0.8783 -0.0743
 7729SOL    HW234650   3.151   4.661  12.659 -0.2801  0.7168 -1.1628
 7730SOL     OW34651   1.322   2.636  12.325  0.0299  0.3378 -0.0585
 7730SOL    HW134652   1.284   2.629  12.412 -1.7489 -4.4226 -1.2156
 7730SOL    HW234653   1.277   2.709  12.283 -0.8083  0.3597  0.9078
 7731SOL     OW34654   3.011   2.875   6.293 -0.3220  0.0454  0.0408
 7731SOL    HW134655   3.096   2.911   6.316 -0.5024  0.9357 -0.7263
 7731SOL    HW234656   2.958   2.950   6.268 -1.5281 -0.7311  0.2419
 7732SOL     OW34657   3.513   4.571   3.790  0.1979  0.4628 -0.1324
 7732SOL    HW134658   3.544   4.661   3.794 -1.5679  1.0666 -0.0651
 7732SOL    HW234659   3.418   4.584   3.785  0.3315  1.3788 -0.2173
 7733SOL     OW34660   1.140   3.224   8.413 -0.1784 -0.1046  0.6363
 7733SOL    HW134661   1.203   3.292   8.390  0.9187 -1.4790 -0.4456
 7733SOL    HW234662   1.112   3.201   8.324 -2.7429 -0.2819  1.4774
 7734SOL     OW34663   3.528   3.225   9.733  0.3438 -0.1474  0.6586
 7734SOL    HW134664   3.594   3.291   9.710  0.6063 -1.3576 -2.0441
 7734SOL    HW234665   3.463   3.247   9.667 -0.1783  2.2554  1.9836
 7735SOL     OW34666   1.402   1.965   5.109  0.2942  0.1067 -0.4596
 7735SOL    HW134667   1.485   1.967   5.157  0.8327  1.3944 -1.4398
 7735SOL    HW234668   1.421   1.903   5.039  1.7938 -1.0858  1.0013
 7736SOL     OW34669   3.469   4.070   3.256 -0.4350  0.4082  0.2711
 7736SOL    HW134670   3.412   3.993   3.256 -0.4477  0.4112 -0.2665
 7736SOL    HW234671   3.532   4.047   3.323 -0.6516  0.0423  0.3522
 7737SOL     OW34672   3.361   0.696   2.939  0.4244 -0.2147 -0.2089
 7737SOL    HW134673   3.292   0.761   2.952 -1.8353 -2.5856 -0.4565
 7737SOL    HW234674   3.438   0.753   2.934  1.0232 -1.0679 -0.6060
 7738SOL     OW34675   1.754   2.658   7.778 -0.2325  0.6017  0.5624
 7738SOL    HW134676   1.805   2.675   7.699  0.2213 -1.2314  0.4720
 7738SOL    HW234677   1.823   2.632   7.839 -1.3161 -1.7516  0.8005
 7739SOL     OW34678   4.179   0.567   9.680  0.4265 -0.4249 -0.2873
 7739SOL    HW134679   4.269   0.566   9.713 -0.9220  0.5492  3.3492
 7739SOL    HW234680   4.149   0.480   9.705  0.5040 -0.4886 -0.4132
 7740SOL     OW34681   1.815   3.991  13.673  0.2601 -0.1068  0.4568
 7740SOL    HW134682   1.886   4.044  13.709  2.4562 -1.5441 -1.8413
 7740SOL    HW234683   1.780   3.951  13.753  0.9023 -1.8351 -0.1418
 7741SOL     OW34684   4.211   4.379   3.634  0.2596  0.0965 -0.1323
 7741SOL    HW134685   4.161   4.461   3.635 -0.6348 -0.4664  1.4600
 7741SOL    HW234686   4.143   4.321   3.667  1.4255 -0.6996  0.8773
 7742SOL     OW34687   0.327   0.419   1.057  0.4224 -0.0115  0.5975
 7742SOL    HW134688   0.279   0.483   1.005 -0.6335 -1.7273 -0.5357
 7742SOL    HW234689   0.256   0.397   1.117 -0.5127 -2.1211 -1.2343
 7743SOL     OW34690   0.625   2.699   6.509  0.0256 -0.4867  0.4149
 7743SOL    HW134691   0.652   2.731   6.595 -1.6841  0.9743  0.4014
 7743SOL    HW234692   0.533   2.677   6.525 -0.5704  3.2430  2.1744
 7744SOL     OW34693   3.468   0.331   3.376 -0.4182  0.1045 -0.2656
 7744SOL    HW134694   3.513   0.380   3.444  0.4167 -0.9884 -0.0234
 7744SOL    HW234695   3.386   0.312   3.422  0.3710 -1.3992  0.5128
 7745SOL     OW34696   4.118   0.927   3.711  0.2711 -0.3136  0.2407
 7745SOL    HW134697   4.164   0.881   3.781  0.9413  2.4119  1.6202
 7745SOL    HW234698   4.181   0.987   3.671  0.1664  0.9585  2.0042
 7746SOL     OW34699   4.050   0.045   8.653  0.0844 -0.5657 -0.0429
 7746SOL    HW134700   3.958   0.057   8.628 -0.3138  0.4954  1.9188
 7746SOL    HW234701   4.076   0.137   8.649  0.7116 -0.8623 -2.7094
 7747SOL     OW34702   2.074   2.311   8.430  0.5034 -0.1799 -0.1162
 7747SOL    HW134703   2.128   2.390   8.423  1.0052 -0.5958 -0.9361
 7747SOL    HW234704   2.021   2.330   8.508  0.2326  1.1718 -0.6336
 7748SOL     OW34705   0.474   1.750   7.653 -0.2896  0.2222  0.3467
 7748SOL    HW134706   0.561   1.716   7.676 -0.1462 -0.2994 -0.9727
 7748SOL    HW234707   0.507   1.816   7.591  2.7422  0.0187  1.7309
 7749SOL     OW34708   0.403   2.145   4.559 -0.1005 -0.0804  0.0720
 7749SOL    HW134709   0.455   2.211   4.605 -0.7108 -0.2313  0.9861
 7749SOL    HW234710   0.351   2.205   4.507  0.4104  1.5050  1.4033
 7750SOL     OW34711   2.140   3.324   1.415  0.2393  0.0153  0.1759
 7750SOL    HW134712   2.149   3.392   1.482  1.3731 -1.0208  1.0855
 7750SOL    HW234713   2.191   3.367   1.346  0.5966 -3.2028 -1.5469
 7751SOL     OW34714   4.091   2.546   4.000  0.2817 -0.0291 -0.0184
 7751SOL    HW134715   4.101   2.521   4.092 -2.5177 -1.8040 -0.1974
 7751SOL    HW234716   4.073   2.461   3.959 -2.0118  0.2664  0.3376
 7752SOL     OW34717   3.713   1.444   5.758 -0.5702  0.1377 -0.6317
 7752SOL    HW134718   3.789   1.444   5.700  1.8826  1.0569  2.5329
 7752SOL    HW234719   3.742   1.523   5.806 -0.7399  0.9750 -1.9191
 7753SOL     OW34720   2.840   4.455   1.918  0.0868  0.7024 -0.2032
 7753SOL    HW134721   2.881   4.425   1.999  2.4119  1.6556 -1.0357
 7753SOL    HW234722   2.918   4.457   1.862 -0.5491  0.1292 -1.1126
 7754SOL     OW34723   0.104   2.603   1.975 -0.3004 -0.1783 -0.5521
 7754SOL    HW134724   0.103   2.602   2.071 -0.6249 -1.6406 -0.5737
 7754SOL    HW234725   0.172   2.544   1.944 -1.3452 -2.1637  0.9854
 7755SOL     OW34726   2.043   3.297  15.376  0.0621 -0.3128  0.4389
 7755SOL    HW134727   1.968   3.301  15.435 -1.2931 -1.2631 -1.2075
 7755SOL    HW234728   2.022   3.358  15.306 -2.4992 -1.1205  0.4939
 7756SOL     OW34729   3.748   3.925   2.684 -0.6371  0.4120  0.0562
 7756SOL    HW134730   3.710   3.842   2.715  1.1433 -0.9693 -1.4548
 7756SOL    HW234731   3.826   3.892   2.639  1.3841  1.9236  2.3981
 7757SOL     OW34732   3.761   2.999   6.496 -0.0045 -0.5494  0.1275
 7757SOL    HW134733   3.695   2.936   6.467 -2.4470  1.7396  0.7829
 7757SOL    HW234734   3.814   2.942   6.551 -0.5167 -0.3004  0.8733
 7758SOL     OW34735   0.280   0.631   2.025  0.2367 -0.3397 -0.0052
 7758SOL    HW134736   0.350   0.654   2.087  1.1845  1.5465 -1.7696
 7758SOL    HW234737   0.202   0.610   2.077 -0.2332  0.1781 -0.5040
 7759SOL     OW34738   4.477   0.540   7.596  0.3317 -0.6443  0.3104
 7759SOL    HW134739   4.457   0.466   7.654 -0.2544 -0.3653  0.4535
 7759SOL    HW234740   4.484   0.603   7.667 -0.6084 -1.2811  0.9687
 7760SOL     OW34741   1.810   0.506   7.620 -0.5907 -0.2246 -0.3090
 7760SOL    HW134742   1.883   0.501   7.558  0.3944 -0.0574  0.8412
 7760SOL    HW234743   1.811   0.414   7.647  0.4740  0.0531  0.6384
 7761SOL     OW34744   0.350   0.196  17.276  0.5085  0.0746 -0.4214
 7761SOL    HW134745   0.276   0.254  17.259  1.4552  1.1073 -1.0603
 7761SOL    HW234746   0.422   0.260  17.286 -1.0660  1.5360  1.6050
 7762SOL     OW34747   1.733   2.471   1.153  0.1921  0.3092 -0.5207
 7762SOL    HW134748   1.752   2.424   1.234 -1.9887  1.3359  0.5866
 7762SOL    HW234749   1.638   2.469   1.163  0.2952 -2.2313 -0.1534
 7763SOL     OW34750   1.701   0.789   3.631  0.2479 -0.1652  0.6315
 7763SOL    HW134751   1.648   0.716   3.662 -2.0738  0.6642 -1.4096
 7763SOL    HW234752   1.791   0.770   3.658  0.7734  0.5336 -0.5956
 7764SOL     OW34753   3.758   3.345  12.915  0.0929 -0.1188  0.0435
 7764SOL    HW134754   3.781   3.428  12.956  1.1106 -1.0279  1.3219
 7764SOL    HW234755   3.749   3.291  12.994 -2.9838  0.5260  0.1379
 7765SOL     OW34756   4.592   3.780  17.521  0.3225  0.3845 -0.3020
 7765SOL    HW134757   4.625   3.741  17.440 -0.5937  2.0739 -1.4757
 7765SOL    HW234758   4.558   3.860  17.483 -0.8781  0.1750  0.3285
 7766SOL     OW34759   1.118   4.221   9.919  0.2441 -0.1158 -0.5921
 7766SOL    HW134760   1.077   4.266   9.845  0.4847 -0.0500 -0.6845
 7766SOL    HW234761   1.161   4.149   9.874  0.5510 -0.9153  0.9760
 7767SOL     OW34762   2.202   3.465   6.312 -0.4058 -0.0739  0.0029
 7767SOL    HW134763   2.188   3.389   6.256 -0.8116 -0.7856  1.0681
 7767SOL    HW234764   2.172   3.525   6.244  2.3816  0.2339 -0.9518
 7768SOL     OW34765   0.250   1.527   3.779  0.4041 -1.0804  0.6317
 7768SOL    HW134766   0.288   1.544   3.693 -0.5921 -1.7002  0.0682
 7768SOL    HW234767   0.230   1.616   3.806  0.1502 -0.7479 -0.6605
 7769SOL     OW34768   2.260   4.218   9.224  0.3418 -0.3769  0.1447
 7769SOL    HW134769   2.321   4.258   9.162 -0.2671  1.5009  0.7547
 7769SOL    HW234770   2.306   4.231   9.307 -0.7360 -2.4971  1.0748
 7770SOL     OW34771   2.105   4.315  13.112 -0.0160  0.4350  0.3067
 7770SOL    HW134772   2.102   4.265  13.193 -0.0258 -1.0463 -0.6055
 7770SOL    HW234773   2.147   4.396  13.140  0.4351 -0.3185  1.7599
 7771SOL     OW34774   2.141   3.418   9.973  0.0647 -0.2705  0.4120
 7771SOL    HW134775   2.046   3.406   9.978 -0.1191 -0.0824 -2.4699
 7771SOL    HW234776   2.156   3.356   9.902  0.7196  0.1083  0.2224
 7772SOL     OW34777   0.151   0.414  17.072 -0.4915 -0.0063  0.2421
 7772SOL    HW134778   0.133   0.488  17.014 -0.2719  0.7711  1.1468
 7772SOL    HW234779   0.061   0.383  17.078  0.1830 -1.9722  0.0741
 7773SOL     OW34780   0.786   3.299   3.368  0.0426 -0.8393  0.2974
 7773SOL    HW134781   0.726   3.245   3.316  0.4567 -0.0303 -1.0113
 7773SOL    HW234782   0.746   3.289   3.455  1.6943  4.3747  1.6365
 7774SOL     OW34783   0.442   0.269   7.289 -0.4670  0.0818  0.5071
 7774SOL    HW134784   0.434   0.348   7.235  0.5769  0.1240  0.4103
 7774SOL    HW234785   0.527   0.230   7.267 -1.2238 -1.3142  0.0169
 7775SOL     OW34786   2.589   2.359   7.660 -0.3774 -0.3316 -0.1790
 7775SOL    HW134787   2.640   2.396   7.588 -1.9517  1.6687 -0.2437
 7775SOL    HW234788   2.564   2.272   7.631  0.0542  0.0874 -1.8194
 7776SOL     OW34789   4.556   1.913   3.318  0.0445  0.2370 -0.1604
 7776SOL    HW134790   4.636   1.960   3.344 -0.9309  0.0881  3.1787
 7776SOL    HW234791   4.495   1.986   3.328 -1.7282 -1.3861  0.9868
 7777SOL     OW34792   4.023   3.934   5.842  0.1005  0.3721 -0.2341
 7777SOL    HW134793   4.071   4.013   5.866 -0.9596  2.0676 -3.7317
 7777SOL    HW234794   3.934   3.963   5.862 -0.4781 -0.4462 -1.6404
 7778SOL     OW34795   2.384   2.963   6.473 -1.1049 -0.5411 -0.2450
 7778SOL    HW134796   2.434   2.962   6.555 -0.2016 -2.7419 -0.8346
 7778SOL    HW234797   2.444   3.009   6.415 -1.1614 -1.1468 -0.7829
 7779SOL     OW34798   0.237   2.601   3.282 -0.2703  0.5789  0.4337
 7779SOL    HW134799   0.192   2.522   3.252  0.2721  0.1064  0.8719
 7779SOL    HW234800   0.237   2.638   3.194 -0.0258  0.7933  0.5227
 7780SOL     OW34801   1.482   2.089   0.576 -0.2416  0.2128 -0.1274
 7780SOL    HW134802   1.539   2.013   0.591  0.0146  0.9249  2.5056
 7780SOL    HW234803   1.498   2.131   0.660  0.1274  1.7278 -0.9555
 7781SOL     OW34804   3.000   3.366   5.421  0.3412 -0.0945 -0.2653
 7781SOL    HW134805   3.001   3.275   5.391 -2.5128 -0.0008 -0.6306
 7781SOL    HW234806   2.923   3.398   5.374  0.1892 -0.3191 -0.1658
 7782SOL     OW34807   1.038   3.778   8.666 -0.4619  0.2820  0.5967
 7782SOL    HW134808   0.999   3.815   8.745  2.8179  1.9354  1.4759
 7782SOL    HW234809   0.969   3.714   8.647  0.5442 -0.6311  0.0288
 7783SOL     OW34810   3.993   2.504   2.099 -0.2200 -0.2872 -0.2712
 7783SOL    HW134811   4.006   2.417   2.135 -1.1545 -0.7546 -1.0427
 7783SOL    HW234812   4.078   2.531   2.065  0.5840 -0.7344  1.4414
 7784SOL     OW34813   3.740   2.636   1.740  0.3501 -0.4884  0.3666
 7784SOL    HW134814   3.709   2.552   1.707  1.3200 -0.0266 -1.7066
 7784SOL    HW234815   3.660   2.686   1.758  0.2548 -0.8299  0.8973
 7785SOL     OW34816   3.509   2.791   7.227  0.6867  0.4732  0.3759
 7785SOL    HW134817   3.563   2.860   7.264 -1.1045  1.7295  0.6580
 7785SOL    HW234818   3.491   2.836   7.145  1.0810 -0.6232 -0.3089
 7786SOL     OW34819   1.988   2.380   0.743  0.2184 -0.1416  0.6022
 7786SOL    HW134820   1.920   2.368   0.810 -0.9887 -0.8014 -0.7468
 7786SOL    HW234821   2.060   2.400   0.803  0.2253  1.7303 -0.0264
 7787SOL     OW34822   3.514   1.920   0.124  0.0926 -0.0805  0.9453
 7787SOL    HW134823   3.423   1.936   0.101 -0.0995  0.1445  1.8621
 7787SOL    HW234824   3.517   1.906   0.219 -2.0339  1.4886  1.2379
 7788SOL     OW34825   1.193   0.173  16.883 -0.7841  0.0185 -0.2248
 7788SOL    HW134826   1.188   0.268  16.888 -0.6653  0.0474 -0.6839
 7788SOL    HW234827   1.271   0.150  16.833 -0.5709 -1.1547  0.6483
 7789SOL     OW34828   0.831   1.182   2.505 -0.2199  0.4872  0.9534
 7789SOL    HW134829   0.783   1.130   2.441 -0.5456  1.1551  0.6495
 7789SOL    HW234830   0.914   1.198   2.458  0.4271 -2.2144  1.1623
 7790SOL     OW34831   3.486   1.222   6.593  0.5168 -0.3864 -0.6561
 7790SOL    HW134832   3.445   1.293   6.544  2.2707  0.2293 -1.2497
 7790SOL    HW234833   3.441   1.231   6.677  1.7209  1.0442 -0.1571
 7791SOL     OW34834   0.126   2.854  11.438  0.0566 -0.0711  0.3063
 7791SOL    HW134835   0.213   2.864  11.400  1.2064 -0.2039  2.8801
 7791SOL    HW234836   0.082   2.892  11.363 -0.4339 -0.4623  0.3967
 7792SOL     OW34837   1.236   1.312   5.073  0.4442 -0.0548  0.1502
 7792SOL    HW134838   1.319   1.288   5.033  0.8072  3.0334 -0.9077
 7792SOL    HW234839   1.182   1.234   5.057 -0.8324  0.4294  2.1176
 7793SOL     OW34840   0.668   0.683   5.873 -0.1123 -0.2470  0.3545
 7793SOL    HW134841   0.605   0.657   5.940 -1.0095  0.9595 -0.0339
 7793SOL    HW234842   0.743   0.705   5.929  0.4780  1.8860 -1.2675
 7794SOL     OW34843   0.647   2.374  11.793  0.0176 -0.1302  0.4078
 7794SOL    HW134844   0.734   2.343  11.768 -0.3067 -1.3027  0.7159
 7794SOL    HW234845   0.664   2.466  11.815 -0.3719  0.8281 -3.3021
 7795SOL     OW34846   3.525   2.875   4.484  0.1169 -0.1264  0.2192
 7795SOL    HW134847   3.565   2.871   4.397 -1.0213  0.3903 -0.3175
 7795SOL    HW234848   3.442   2.914   4.457  1.2766  1.9792 -0.3274
 7796SOL     OW34849   3.092   4.295   2.715  0.1124 -0.0051 -0.1524
 7796SOL    HW134850   3.145   4.322   2.640  0.1613  1.3372  0.3589
 7796SOL    HW234851   3.025   4.243   2.673  0.7184 -0.1507 -0.9368
 7797SOL     OW34852   2.450   1.743   6.649  0.2151  0.2743 -0.2867
 7797SOL    HW134853   2.529   1.797   6.658 -1.4969  2.3986  1.9219
 7797SOL    HW234854   2.477   1.669   6.595 -1.1246  0.2230 -0.8746
 7798SOL     OW34855   1.965   0.554   0.919 -1.0325 -0.0510  0.2213
 7798SOL    HW134856   1.936   0.488   0.856 -1.0649  0.4535 -0.2959
 7798SOL    HW234857   2.055   0.566   0.886 -1.3951 -1.3530 -1.2479
 7799SOL     OW34858   2.228   3.358   9.725 -0.5212  0.8343 -0.0628
 7799SOL    HW134859   2.306   3.414   9.729 -0.8577  1.1894  1.5928
 7799SOL    HW234860   2.267   3.271   9.723 -0.0641  1.0357 -0.0530
 7800SOL     OW34861   4.225   4.272   4.341 -0.3306 -0.1523 -0.2982
 7800SOL    HW134862   4.191   4.260   4.430 -0.9513 -2.8601 -0.9080
 7800SOL    HW234863   4.185   4.190   4.314 -1.7846 -0.3460  2.3673
 7801SOL     OW34864   0.148   4.688   4.645  0.4419 -0.0449 -0.2990
 7801SOL    HW134865   0.121   4.685   4.737 -0.8864  0.6446 -0.6610
 7801SOL    HW234866   0.196   4.605   4.637 -1.6330 -0.9091 -3.7865
 7802SOL     OW34867   1.209   1.445   0.191  0.0129  0.6894  0.4404
 7802SOL    HW134868   1.141   1.455   0.257 -0.7377 -1.7862  0.0347
 7802SOL    HW234869   1.284   1.411   0.240  1.1108  3.1010  0.4657
 7803SOL     OW34870   2.427   0.505  11.115  0.2272 -0.2823 -0.2613
 7803SOL    HW134871   2.422   0.508  11.211  1.6202  3.1795 -0.2727
 7803SOL    HW234872   2.464   0.417  11.107  2.1600  0.4140  0.7531
 7804SOL     OW34873   1.785   2.229   4.412 -0.2020 -0.0390 -0.1740
 7804SOL    HW134874   1.823   2.299   4.359  0.1949 -0.9799 -1.1593
 7804SOL    HW234875   1.824   2.232   4.499  2.2568  1.2746 -1.3083
 7805SOL     OW34876   3.482   4.403   4.548  0.3471  0.0367  0.8115
 7805SOL    HW134877   3.469   4.495   4.570 -1.6415 -0.2001  0.6476
 7805SOL    HW234878   3.563   4.387   4.596  0.3408 -0.0926  0.7786
 7806SOL     OW34879   0.963   4.575  13.447  0.0916  0.7192 -0.1412
 7806SOL    HW134880   1.033   4.559  13.384 -0.2514  1.1267 -0.6213
 7806SOL    HW234881   0.906   4.631  13.394  0.3879  0.2984 -0.8897
 7807SOL     OW34882   3.179   1.506   5.821  0.1497 -0.5104 -0.1184
 7807SOL    HW134883   3.132   1.448   5.762  0.4304 -0.8005 -0.0534
 7807SOL    HW234884   3.266   1.517   5.781  0.8569  0.3202  1.6330
 7808SOL     OW34885   3.242   4.634   4.888 -0.3228 -0.2510  0.2691
 7808SOL    HW134886   3.334   4.612   4.904 -0.6876 -0.9650  1.3987
 7808SOL    HW234887   3.193   4.553   4.903  0.2920 -1.2126 -2.9709
 7809SOL     OW34888   1.208   4.341  13.769  0.2410 -0.6241 -0.4256
 7809SOL    HW134889   1.216   4.436  13.761  0.6495 -0.5005  1.5297
 7809SOL    HW234890   1.223   4.311  13.679  1.2485  0.7792 -0.7322
 7810SOL     OW34891   3.519   0.048   0.310 -0.1969 -0.4700 -0.1746
 7810SOL    HW134892   3.582   0.083   0.247 -1.3199 -0.7101 -1.4302
 7810SOL    HW234893   3.451   0.116   0.308  0.0750 -0.2565 -2.4222
 7811SOL     OW34894   2.187   4.205  14.055  0.1937 -0.4158  0.2720
 7811SOL    HW134895   2.136   4.231  14.131 -0.2021  0.5528 -0.3253
 7811SOL    HW234896   2.170   4.288  14.010 -0.8732 -1.7382 -1.7761
 7812SOL     OW34897   4.071   0.378  14.216 -0.1769  0.0430  0.3762
 7812SOL    HW134898   4.097   0.426  14.295  0.8704  0.7383 -0.3983
 7812SOL    HW234899   4.051   0.434  14.142 -0.3904  0.1724  0.5322
 7813SOL     OW34900   0.343   2.518   1.911 -0.0028  0.2093 -0.7153
 7813SOL    HW134901   0.423   2.473   1.937  0.5966  1.2176 -0.8426
 7813SOL    HW234902   0.340   2.495   1.818 -1.2959  0.1977 -0.6682
 7814SOL     OW34903   4.552   1.615  11.095 -0.1541 -0.2296 -0.5095
 7814SOL    HW134904   4.584   1.537  11.049  1.4208 -0.4488  0.9644
 7814SOL    HW234905   4.564   1.687  11.033 -0.2389 -0.0173 -0.2768
 7815SOL     OW34906   1.262   3.249   7.263  0.5430  0.0433  0.5353
 7815SOL    HW134907   1.226   3.189   7.198  2.1911 -0.6507  0.2398
 7815SOL    HW234908   1.247   3.212   7.350 -0.4574  2.4132  1.3473
 7816SOL     OW34909   2.978   2.351   8.360  0.4846 -0.2576  0.0122
 7816SOL    HW134910   2.926   2.393   8.292 -1.0979 -1.6201  0.4052
 7816SOL    HW234911   2.911   2.324   8.423  1.0281 -1.5555  0.0209
 7817SOL     OW34912   0.253   1.980   6.874  0.2633  0.6097  0.3901
 7817SOL    HW134913   0.227   1.963   6.965  2.5754  0.4863  1.0204
 7817SOL    HW234914   0.163   1.990   6.841  1.2331 -1.2609 -2.8418
 7818SOL     OW34915   0.251   0.018   8.444 -0.0940  0.0398  0.4796
 7818SOL    HW134916   0.217   0.046   8.529 -0.8142  0.3912  0.0806
 7818SOL    HW234917   0.179   0.021   8.381 -0.1237  1.0377  0.5599
 7819SOL     OW34918   3.120   4.066   0.877 -0.0711  0.0068  0.6245
 7819SOL    HW134919   3.190   4.110   0.926 -0.4673  0.9452  0.3400
 7819SOL    HW234920   3.180   4.004   0.836 -0.5863 -0.2658  0.2906
 7820SOL     OW34921   0.275   0.473   5.426 -0.1119 -0.7713  0.0498
 7820SOL    HW134922   0.338   0.443   5.492  2.1814 -0.3945 -1.9585
 7820SOL    HW234923   0.302   0.432   5.344 -0.6915  0.0777 -0.5601
 7821SOL     OW34924   3.120   0.358  16.026 -0.7612  0.4093  0.1834
 7821SOL    HW134925   3.175   0.343  16.103 -0.8101 -1.6270 -0.1659
 7821SOL    HW234926   3.042   0.382  16.075  0.3919 -0.0114  2.2282
 7822SOL     OW34927   1.611   4.067  14.092 -0.8769 -0.3439  0.3748
 7822SOL    HW134928   1.621   4.160  14.109 -0.2417 -0.8908  2.9475
 7822SOL    HW234929   1.515   4.067  14.096 -0.9809 -0.8386 -1.8496
 7823SOL     OW34930   0.138   3.526   0.328  0.4347 -0.4511 -0.4154
 7823SOL    HW134931   0.057   3.526   0.276  1.4707  0.1806 -2.0189
 7823SOL    HW234932   0.126   3.450   0.384  2.6777 -0.3003  0.2737
 7824SOL     OW34933   1.596   1.841   9.089  0.0891 -0.0046 -0.1968
 7824SOL    HW134934   1.684   1.808   9.110  0.5398  0.6328 -1.0629
 7824SOL    HW234935   1.540   1.773   9.055 -1.4852  2.5387 -2.6473
 7825SOL     OW34936   3.817   1.869  14.357  0.9007 -0.2399 -0.4204
 7825SOL    HW134937   3.875   1.836  14.425 -1.0926 -0.6979  1.0423
 7825SOL    HW234938   3.756   1.797  14.339  0.7281  0.2847 -1.9199
 7826SOL     OW34939   1.577   3.510   9.507  0.0442  0.0618 -0.2108
 7826SOL    HW134940   1.613   3.483   9.591 -0.6551  2.7144  0.9741
 7826SOL    HW234941   1.499   3.455   9.510 -0.0324  0.1876  0.1030
 7827SOL     OW34942   1.085   4.517   2.535  0.0164 -0.0838 -0.1187
 7827SOL    HW134943   1.072   4.601   2.490 -1.5777 -0.3674 -0.1914
 7827SOL    HW234944   1.023   4.462   2.486  1.0611  1.2171 -2.9266
 7828SOL     OW34945   4.172   3.754   6.083 -0.0481 -0.0612  0.3151
 7828SOL    HW134946   4.123   3.823   6.039  2.0716  1.3556  0.1953
 7828SOL    HW234947   4.189   3.797   6.166  4.5649  0.6642 -1.0209
 7829SOL     OW34948   3.463   3.068   1.097 -0.5305 -0.4211  0.3869
 7829SOL    HW134949   3.518   2.990   1.101 -0.4246 -0.4306 -1.5455
 7829SOL    HW234950   3.383   3.038   1.053 -0.0316 -0.8386 -0.2370
 7830SOL     OW34951   0.749   2.222  16.773  0.0689  0.4606 -0.3320
 7830SOL    HW134952   0.781   2.288  16.834  1.1337 -0.7848  0.4430
 7830SOL    HW234953   0.711   2.282  16.708 -0.4743  0.4124 -0.0603
 7831SOL     OW34954   4.618   1.033  10.469  0.0735 -0.2261 -0.4810
 7831SOL    HW134955   4.578   1.118  10.453  1.0215  0.8029  2.7577
 7831SOL    HW234956   4.543   0.982  10.498  0.2687 -0.5785 -0.5848
 7832SOL     OW34957   3.814   3.105   6.942  0.4642 -0.2227  0.2555
 7832SOL    HW134958   3.748   3.151   6.889  0.3623 -0.6756 -0.0184
 7832SOL    HW234959   3.851   3.173   6.997  0.4833 -0.7131  0.8513
 7833SOL     OW34960   3.035   0.919   5.148 -0.0507  0.0888  0.1335
 7833SOL    HW134961   3.068   0.925   5.058  2.0694 -0.7342  0.8571
 7833SOL    HW234962   2.966   0.985   5.153 -0.6734 -0.5662  0.1610
 7834SOL     OW34963   2.560   0.987   4.796  0.4475 -0.7291 -0.1601
 7834SOL    HW134964   2.583   1.079   4.784  0.4075 -0.9859 -2.1079
 7834SOL    HW234965   2.585   0.972   4.887 -1.9362 -0.4891  0.5493
 7835SOL     OW34966   2.048   1.333  16.860  0.3306  0.1953  0.7357
 7835SOL    HW134967   2.065   1.351  16.952  1.0587  0.6733  0.5038
 7835SOL    HW234968   2.057   1.423  16.829  0.8364  0.2675  1.1064
 7836SOL     OW34969   1.272   0.773   2.377 -0.3042 -0.0927  0.1989
 7836SOL    HW134970   1.349   0.764   2.432  0.1432  1.7493 -0.1401
 7836SOL    HW234971   1.313   0.759   2.291  0.5294  0.4952  0.5117
 7837SOL     OW34972   3.873   3.656  15.692  0.0986  0.0554  0.2533
 7837SOL    HW134973   3.917   3.699  15.619 -1.4449  1.7178  0.2932
 7837SOL    HW234974   3.783   3.689  15.701  0.0647  0.6717 -2.3404
 7838SOL     OW34975   3.700   0.912  10.752  0.3543 -0.7879  0.4769
 7838SOL    HW134976   3.705   0.871  10.838  2.2468  0.1602  0.8079
 7838SOL    HW234977   3.784   0.889  10.711  0.7935 -0.8700  1.4382
 7839SOL     OW34978   3.819   2.048   7.184  0.1965 -0.0988 -0.0431
 7839SOL    HW134979   3.725   2.035   7.184  0.5028 -2.2520 -0.1153
 7839SOL    HW234980   3.821   2.097   7.102 -2.2137  0.6960  0.3959
 7840SOL     OW34981   0.827   0.447   6.055 -0.0998  0.2321  0.1128
 7840SOL    HW134982   0.877   0.479   5.980  0.9304 -2.3630 -0.2902
 7840SOL    HW234983   0.819   0.520   6.118  1.9364  0.5943 -0.0577
 7841SOL     OW34984   1.371   2.932   4.242 -0.3791 -0.3335  0.1191
 7841SOL    HW134985   1.305   3.002   4.245 -0.8891 -0.7858 -0.6471
 7841SOL    HW234986   1.345   2.880   4.167 -1.1267  1.3206 -0.7724
 7842SOL     OW34987   3.281   1.379   2.078 -0.4240 -0.2878 -0.1365
 7842SOL    HW134988   3.265   1.469   2.107 -2.0654 -0.1767 -1.3630
 7842SOL    HW234989   3.374   1.398   2.066 -0.7564  2.0348  0.9750
 7843SOL     OW34990   4.162   3.877   4.076  0.3219 -0.0939 -0.4105
 7843SOL    HW134991   4.239   3.821   4.069 -0.9180 -1.9097  0.5781
 7843SOL    HW234992   4.189   3.959   4.035 -0.4693  1.1731  1.5962
 7844SOL     OW34993   0.567   0.021   0.423  0.2202  0.4165  0.0345
 7844SOL    HW134994   0.593   4.696   0.346 -1.5669  0.2999 -0.4923
 7844SOL    HW234995   0.554   0.107   0.382 -1.5478  0.5833  0.9536
 7845SOL     OW34996   2.807   3.034   2.852  0.1172 -0.1601  0.4783
 7845SOL    HW134997   2.784   2.998   2.766 -0.7209 -1.4798  1.2674
 7845SOL    HW234998   2.725   3.079   2.872 -0.1897 -0.0467 -0.9984
 7846SOL     OW34999   0.740   4.656   3.368  0.2974 -0.2080 -0.4090
 7846SOL    HW135000   0.704   4.619   3.288 -0.1738  0.1462 -0.3609
 7846SOL    HW235001   0.775   4.578   3.410  2.1660  0.4439 -0.7898
 7847SOL     OW35002   0.843   3.144  12.695 -0.0426 -0.1768  0.0588
 7847SOL    HW135003   0.774   3.210  12.689  1.1516  1.3858  3.6465
 7847SOL    HW235004   0.800   3.061  12.715  1.3468 -1.4545 -2.1871
 7848SOL     OW35005   3.537   2.649  16.243  1.0056 -0.0566 -0.1776
 7848SOL    HW135006   3.534   2.566  16.195 -1.2316 -0.9515  1.5541
 7848SOL    HW235007   3.460   2.697  16.215  0.6527 -1.7163 -2.0766
 7849SOL     OW35008   2.077   1.528  12.964 -0.6756  0.2829 -0.0408
 7849SOL    HW135009   2.034   1.545  13.048 -1.5608  0.9702 -0.6261
 7849SOL    HW235010   2.146   1.594  12.967 -1.1816  0.8542 -1.0110
 7850SOL     OW35011   4.195   0.080   5.908 -0.9699 -0.1243 -0.4402
 7850SOL    HW135012   4.186   0.022   5.984 -2.1755  1.1569  0.4104
 7850SOL    HW235013   4.259   0.035   5.853 -2.9764 -0.8781 -2.1505
 7851SOL     OW35014   1.250   1.575  14.660  0.0845 -0.0457 -0.1242
 7851SOL    HW135015   1.229   1.533  14.743 -2.4091 -2.3086 -1.9067
 7851SOL    HW235016   1.256   1.507  14.594 -3.5928  1.1348 -1.6713
 7852SOL     OW35017   1.909   0.556   4.600 -0.2262  0.3193 -0.1574
 7852SOL    HW135018   2.000   0.529   4.590 -0.7125 -1.5506  0.3430
 7852SOL    HW235019   1.909   0.648   4.625 -1.1086  0.7215 -1.6849
 7853SOL     OW35020   0.875   1.455   9.274  0.5123  0.3856 -0.0699
 7853SOL    HW135021   0.892   1.389   9.341 -1.1329 -0.5441 -0.5649
 7853SOL    HW235022   0.795   1.419   9.236 -0.9107  0.9924  2.2914
 7854SOL     OW35023   1.779   4.270  12.031 -0.2677 -0.6851 -0.0960
 7854SOL    HW135024   1.862   4.281  11.985 -0.2108 -1.1168 -0.1002
 7854SOL    HW235025   1.723   4.337  11.991  0.6227  0.0210 -0.1441
 7855SOL     OW35026   1.139   4.579  12.757  0.4848  0.1032  0.1891
 7855SOL    HW135027   1.113   4.653  12.703  0.2587  0.8036  1.2486
 7855SOL    HW235028   1.139   4.505  12.696 -0.3614 -0.9016  1.3752
 7856SOL     OW35029   0.118   1.758   8.900 -0.1475 -0.0782 -0.0542
 7856SOL    HW135030   0.102   1.674   8.942  1.7984 -0.3176  0.1860
 7856SOL    HW235031   0.070   1.826   8.948 -0.5127 -1.8889  2.0804
 7857SOL     OW35032   0.863   0.321   4.682 -0.0642 -0.0377 -0.2030
 7857SOL    HW135033   0.783   0.312   4.734 -0.1969  1.4756 -0.1312
 7857SOL    HW235034   0.928   0.364   4.738 -0.1616  0.7677 -0.7122
 7858SOL     OW35035   0.475   0.669   6.308  0.2751 -0.3147  0.0774
 7858SOL    HW135036   0.409   0.703   6.369 -1.2836 -0.9293 -1.2865
 7858SOL    HW235037   0.543   0.735   6.316 -2.5113  2.6385 -0.6807
 7859SOL     OW35038   2.561   0.879   2.332  0.3458  0.1898  0.1647
 7859SOL    HW135039   2.601   0.966   2.339  2.1181 -0.8311  3.0090
 7859SOL    HW235040   2.472   0.903   2.357  0.7277  1.1220  0.6525
 7860SOL     OW35041   3.827   0.569  12.999 -0.2443 -0.3922  0.2122
 7860SOL    HW135042   3.921   0.550  12.989 -0.9519 -3.7888  0.2514
 7860SOL    HW235043   3.783   0.503  12.946 -0.4159 -0.0150 -0.1245
 7861SOL     OW35044   3.781   2.944   9.285 -0.0139  0.6604 -0.5282
 7861SOL    HW135045   3.709   2.887   9.258  1.9539 -3.1700  2.4006
 7861SOL    HW235046   3.747   3.033   9.271 -0.5993  0.3249 -1.1981
 7862SOL     OW35047   0.072   4.643   3.329  0.2484 -0.3795  0.1738
 7862SOL    HW135048   0.086   4.631   3.235 -1.5783 -0.5675 -0.0679
 7862SOL    HW235049   0.123   4.576   3.375  1.4121  0.4407  0.0710
 7863SOL     OW35050   1.587   1.551  13.405 -0.1338  0.3311  0.4217
 7863SOL    HW135051   1.556   1.511  13.324 -0.1932 -1.2461  1.2148
 7863SOL    HW235052   1.677   1.577  13.386 -0.5008  1.0837 -0.2746
 7864SOL     OW35053   0.619   4.045   6.176  0.2281  0.1273  0.5835
 7864SOL    HW135054   0.670   3.964   6.181 -0.4020 -0.3199 -0.2345
 7864SOL    HW235055   0.673   4.117   6.142  0.3887  0.9395  2.6083
 7865SOL     OW35056   0.435   3.578   2.531 -0.0878  0.0387 -0.2589
 7865SOL    HW135057   0.416   3.562   2.623  3.7410 -1.8458  0.1931
 7865SOL    HW235058   0.522   3.613   2.549  0.1586 -0.0780 -1.2331
 7866SOL     OW35059   3.362   3.587   7.084  0.9071 -0.2074 -0.4646
 7866SOL    HW135060   3.422   3.513   7.085  1.0916 -0.0545 -0.2507
 7866SOL    HW235061   3.431   3.652   7.096  0.4945  0.3373 -1.0033
 7867SOL     OW35062   3.329   0.547   3.184  0.1969 -0.2281 -0.2721
 7867SOL    HW135063   3.366   0.567   3.098 -0.0873 -3.7744 -1.2495
 7867SOL    HW235064   3.362   0.458   3.197 -2.9555 -1.1353  1.3681
 7868SOL     OW35065   4.142   3.593  16.931 -0.1702  0.0016 -0.1949
 7868SOL    HW135066   4.175   3.660  16.991 -1.7883  0.3869  0.2810
 7868SOL    HW235067   4.126   3.658  16.862 -2.1750  1.7715  1.9148
 7869SOL     OW35068   3.516   4.297   7.930  0.1164 -0.0875 -0.5006
 7869SOL    HW135069   3.432   4.334   7.957  0.4208  1.4414 -1.6737
 7869SOL    HW235070   3.510   4.203   7.945 -1.3096 -0.0005 -0.5456
 7870SOL     OW35071   3.908   4.211   8.724 -0.1900  0.6107 -0.1485
 7870SOL    HW135072   3.995   4.212   8.684 -0.7109 -0.2617 -1.3024
 7870SOL    HW235073   3.926   4.192   8.816 -4.2768 -0.9675  0.2951
 7871SOL     OW35074   1.616   4.531   9.997  0.2363 -0.1557 -0.2597
 7871SOL    HW135075   1.632   4.454   9.942 -1.6849  2.0784 -3.8954
 7871SOL    HW235076   1.701   4.575   9.996 -0.3036  0.9058  0.3881
 7872SOL     OW35077   1.644   1.047  10.528 -0.1077 -0.4235  0.5110
 7872SOL    HW135078   1.647   1.143  10.525 -0.3231 -0.4096  0.7288
 7872SOL    HW235079   1.718   1.042  10.588  2.5045  0.2600 -2.6288
 7873SOL     OW35080   0.758   1.623   6.315 -0.0466  0.4351  0.0001
 7873SOL    HW135081   0.741   1.671   6.396 -0.3901  1.6709 -0.8061
 7873SOL    HW235082   0.719   1.680   6.249  0.6940  0.8582 -0.0722
 7874SOL     OW35083   0.115   1.711   8.025  0.3651  0.1634 -0.6863
 7874SOL    HW135084   0.039   1.769   8.024  0.7731  0.6738 -1.6400
 7874SOL    HW235085   0.128   1.709   8.120 -1.6908 -2.1229 -0.4634
 7875SOL     OW35086   2.648   0.645   5.661 -0.0586  0.2517 -0.1346
 7875SOL    HW135087   2.707   0.625   5.734  1.5084 -2.0136 -2.0358
 7875SOL    HW235088   2.702   0.711   5.618 -0.9289  0.9925 -0.0902
 7876SOL     OW35089   1.420   0.324   6.836 -0.2964  0.4207  0.2204
 7876SOL    HW135090   1.502   0.275   6.830 -1.9252 -2.1028 -1.4863
 7876SOL    HW235091   1.376   0.297   6.756  1.5401  0.6125 -0.8628
 7877SOL     OW35092   1.365   0.746  14.327 -1.0445  0.0000  0.0390
 7877SOL    HW135093   1.412   0.821  14.290  0.3928 -1.1177 -0.4219
 7877SOL    HW235094   1.421   0.719  14.399  0.9328 -0.4477 -1.6535
 7878SOL     OW35095   0.067   4.247   5.202 -0.0896 -0.0470 -0.0857
 7878SOL    HW135096   4.704   4.251   5.239 -1.5306 -0.5086 -3.4094
 7878SOL    HW235097   0.105   4.332   5.223  2.1719 -0.7039 -1.5194
 7879SOL     OW35098   2.657   1.476   3.796 -0.3883  0.0777  0.4585
 7879SOL    HW135099   2.602   1.538   3.750 -0.1239  0.4825  0.6883
 7879SOL    HW235100   2.730   1.457   3.737 -0.5691 -1.1398  0.6214
 7880SOL     OW35101   2.269   3.298  16.534  0.7122  0.2479  0.5330
 7880SOL    HW135102   2.291   3.306  16.441  0.1049  1.4172  0.4886
 7880SOL    HW235103   2.272   3.204  16.549 -3.2687  0.2550  1.3489
 7881SOL     OW35104   0.703   4.175   1.953  0.4064 -0.4609  0.3631
 7881SOL    HW135105   0.678   4.121   1.878  1.8704  0.5873 -0.8967
 7881SOL    HW235106   0.687   4.266   1.927  0.8505 -0.2312  0.9085
 7882SOL     OW35107   1.967   2.424   9.982  0.3171  0.5358 -0.0864
 7882SOL    HW135108   1.876   2.400   9.964 -0.6510  2.2710  2.5999
 7882SOL    HW235109   1.958   2.461  10.070  0.1788 -2.1777  1.0274
 7883SOL     OW35110   1.492   0.307   8.044 -0.1324 -0.1889 -0.4410
 7883SOL    HW135111   1.463   0.305   8.135 -1.9609  1.8620 -0.9657
 7883SOL    HW235112   1.512   0.216   8.023  0.0078 -0.8039  2.4887
 7884SOL     OW35113   3.567   3.330   8.237 -0.6627  0.3136  0.0693
 7884SOL    HW135114   3.479   3.295   8.220 -0.3637  0.6902 -2.1837
 7884SOL    HW235115   3.578   3.321   8.332  1.5569 -1.8086 -0.4063
 7885SOL     OW35116   3.536   0.363   4.015 -0.7421 -0.2344  0.1056
 7885SOL    HW135117   3.472   0.371   3.944  1.1996  1.0583 -1.5027
 7885SOL    HW235118   3.481   0.346   4.091 -2.7468  0.3747 -1.1760
 7886SOL     OW35119   2.649   4.266  11.577 -0.0346  0.0046  0.0042
 7886SOL    HW135120   2.706   4.240  11.504 -0.0241 -1.5812  0.5610
 7886SOL    HW235121   2.694   4.215  11.645 -0.4313  0.3206  0.5009
 7887SOL     OW35122   3.065   1.677  15.825 -0.2810  0.4192  0.5640
 7887SOL    HW135123   3.102   1.645  15.743 -1.1258  1.5294 -0.2618
 7887SOL    HW235124   2.986   1.625  15.838 -0.1968  0.1740  0.0789
 7888SOL     OW35125   2.088   0.956   9.146  0.0330 -0.3177 -0.1643
 7888SOL    HW135126   2.049   1.002   9.220 -0.6865 -0.0054 -0.7329
 7888SOL    HW235127   2.044   0.871   9.143 -0.0142 -0.3381  1.2909
 7889SOL     OW35128   4.512   1.829   4.062  0.4884 -0.6363  0.7696
 7889SOL    HW135129   4.455   1.873   3.999 -1.9548 -2.2918  1.8105
 7889SOL    HW235130   4.595   1.861   4.027 -1.2944  2.6928 -0.4148
 7890SOL     OW35131   0.496   4.173   6.915  0.1124 -0.4820  0.0446
 7890SOL    HW135132   0.524   4.235   6.982 -1.8292  0.8712 -0.3930
 7890SOL    HW235133   0.405   4.160   6.942  0.2961  0.3099  1.0196
 7891SOL     OW35134   0.733   4.132   5.849  0.2302 -0.1723 -0.4879
 7891SOL    HW135135   0.752   4.189   5.923  2.4237 -0.3987 -0.8774
 7891SOL    HW235136   0.733   4.193   5.775 -1.6015  3.0290  2.1917
 7892SOL     OW35137   4.427   0.101   3.220 -0.0521  0.2178  0.5661
 7892SOL    HW135138   4.434   0.151   3.139 -0.2988  0.4859  0.7094
 7892SOL    HW235139   4.519   0.077   3.233 -0.8465 -2.5733  1.0467
 7893SOL     OW35140   0.838   3.045  10.222  0.0008 -0.5543  0.2068
 7893SOL    HW135141   0.793   3.119  10.262  1.8780  1.2742 -1.0991
 7893SOL    HW235142   0.766   3.017  10.165  1.6039 -0.4728 -1.8392
 7894SOL     OW35143   0.200   4.269   4.381  0.3479 -0.1586 -0.1803
 7894SOL    HW135144   0.169   4.199   4.438 -2.0481  3.1406  2.5363
 7894SOL    HW235145   0.167   4.232   4.299  1.5120  0.6679 -1.0346
 7895SOL     OW35146   3.249   3.219  16.843 -0.3173 -0.0042 -0.2165
 7895SOL    HW135147   3.167   3.258  16.871  0.5658  1.2347  0.6882
 7895SOL    HW235148   3.287   3.304  16.823  1.1928 -0.4116  0.9102
 7896SOL     OW35149   4.359   0.672   0.594  0.0468  0.3275  0.2339
 7896SOL    HW135150   4.333   0.605   0.530 -3.2436  2.8604 -1.0962
 7896SOL    HW235151   4.374   0.607   0.663 -0.6570  1.0891  1.0958
 7897SOL     OW35152   1.104   3.732   0.089  0.3349 -0.2526 -0.2587
 7897SOL    HW135153   1.077   3.739  17.696  2.2092  0.4575 -0.7374
 7897SOL    HW235154   1.021   3.758   0.130  0.3711 -0.3637 -0.1151
 7898SOL     OW35155   3.990   3.918   3.618  0.6197  0.6327  0.1786
 7898SOL    HW135156   3.904   3.878   3.625 -0.3557  2.6008 -0.5025
 7898SOL    HW235157   4.034   3.869   3.549 -0.8743 -0.9596  0.3665
 7899SOL     OW35158   1.607   4.606   8.276  0.0255 -0.4038 -0.2248
 7899SOL    HW135159   1.639   4.591   8.187 -1.2705 -0.6458 -0.6428
 7899SOL    HW235160   1.689   4.643   8.310 -1.5202  1.3568  1.5968
 7900SOL     OW35161   0.208   2.740  11.992 -0.0787 -0.4570  0.0304
 7900SOL    HW135162   0.243   2.790  11.918 -0.4542 -0.0286  0.1393
 7900SOL    HW235163   0.289   2.717  12.036  0.0359 -0.2372 -0.0617
 7901SOL     OW35164   4.698   4.402  16.634 -0.0932  0.4999  0.3564
 7901SOL    HW135165   4.660   4.479  16.593 -1.0804 -0.4579 -0.5254
 7901SOL    HW235166   4.696   4.329  16.572 -1.4076  0.2861  0.6569
 7902SOL     OW35167   2.458   1.081   5.345 -0.5408 -0.1177  0.1694
 7902SOL    HW135168   2.434   1.139   5.273  0.2738  0.7673  0.6052
 7902SOL    HW235169   2.384   1.023   5.332 -0.7823  0.1485  0.3591
 7903SOL     OW35170   1.483   3.691   5.110  0.3427  0.1596  0.0952
 7903SOL    HW135171   1.528   3.664   5.030  0.0140 -3.5559  1.1884
 7903SOL    HW235172   1.408   3.632   5.108  2.6142 -2.7799  2.2582
 7904SOL     OW35173   3.263   0.662   7.311 -0.6188 -0.3734  0.8863
 7904SOL    HW135174   3.281   0.751   7.281  0.4569 -0.8340  0.1546
 7904SOL    HW235175   3.243   0.620   7.228  2.6752 -0.8775  0.3328
 7905SOL     OW35176   3.603   4.613  14.168  0.4676  0.0184  0.4087
 7905SOL    HW135177   3.595   4.693  14.221 -2.0404  0.7048 -0.9728
 7905SOL    HW235178   3.695   4.618  14.141  0.1631  0.4744 -0.5453
 7906SOL     OW35179   2.354   4.118   6.494 -0.4492 -0.6580 -0.1864
 7906SOL    HW135180   2.375   4.197   6.444 -0.3658 -1.4584 -1.4257
 7906SOL    HW235181   2.430   4.060   6.489  1.0607  1.4812 -2.1009
 7907SOL     OW35182   3.810   0.054   8.867  0.0349 -0.3037  0.5346
 7907SOL    HW135183   3.886   0.077   8.920  0.0890 -1.1523  0.8193
 7907SOL    HW235184   3.805   4.683   8.864 -0.5182 -0.3358  2.5759
 7908SOL     OW35185   2.028   4.563   5.756 -0.4173 -0.0815  0.1834
 7908SOL    HW135186   2.026   4.470   5.735  3.2644 -0.4248  1.3114
 7908SOL    HW235187   1.937   4.590   5.760  0.2729  1.7302  3.1723
 7909SOL     OW35188   0.919   0.848  12.122  0.1652 -0.0593  0.2447
 7909SOL    HW135189   0.877   0.813  12.201  0.6954  1.8393  1.3744
 7909SOL    HW235190   0.989   0.902  12.158  0.1906 -0.8009  1.3073
 7910SOL     OW35191   4.278   2.510   4.870 -0.2486  0.1815 -0.7549
 7910SOL    HW135192   4.366   2.528   4.903 -0.0720  2.6627 -2.6063
 7910SOL    HW235193   4.272   2.573   4.798 -1.8556  1.1911  0.2619
 7911SOL     OW35194   4.324   3.069   6.684  0.0162 -0.0952 -0.2549
 7911SOL    HW135195   4.266   3.036   6.615 -1.6867  1.2707  0.5328
 7911SOL    HW235196   4.319   3.163   6.664  1.4531 -0.0192 -0.2853
 7912SOL     OW35197   0.304   1.128   7.140  0.6149 -0.0705 -0.4269
 7912SOL    HW135198   0.228   1.093   7.094  1.3018 -3.3036  0.8919
 7912SOL    HW235199   0.363   1.052   7.138  0.0697 -0.4901 -0.5625
 7913SOL     OW35200   0.412   3.997   4.823  0.0402  0.0345  0.2092
 7913SOL    HW135201   0.345   3.969   4.760 -0.9518  0.4483  1.0885
 7913SOL    HW235202   0.486   4.033   4.774  0.9634  1.2050  2.4594
 7914SOL     OW35203   2.149   2.052   0.268 -0.1224 -0.0910  0.3692
 7914SOL    HW135204   2.244   2.062   0.263 -0.0094 -1.0545  0.5376
 7914SOL    HW235205   2.142   1.971   0.320  0.0556 -0.1156  0.3550
 7915SOL     OW35206   0.846   2.426  10.970 -0.5447  0.5152  0.5801
 7915SOL    HW135207   0.935   2.421  11.007 -0.9151 -0.6533  1.3358
 7915SOL    HW235208   0.866   2.491  10.903 -0.0018 -1.4663 -1.1854
 7916SOL     OW35209   2.214   2.250   7.476 -0.4286 -0.2623 -0.4459
 7916SOL    HW135210   2.220   2.165   7.433 -1.3158 -0.3049 -0.4986
 7916SOL    HW235211   2.298   2.236   7.519 -1.1820 -2.0447  0.4870
 7917SOL     OW35212   1.500   2.558   4.365 -0.1289  0.9749 -0.1285
 7917SOL    HW135213   1.414   2.600   4.369 -0.8397 -0.5743  0.6215
 7917SOL    HW235214   1.474   2.467   4.353  1.5337  0.3945  0.6355
 7918SOL     OW35215   2.018   4.190   2.750 -0.0933  0.4018  0.6194
 7918SOL    HW135216   1.996   4.098   2.734  0.1065  0.3541  0.6124
 7918SOL    HW235217   2.057   4.192   2.837  1.2748  2.4352 -0.0570
 7919SOL     OW35218   1.512   4.551  11.493 -0.0078  0.1163  0.2086
 7919SOL    HW135219   1.567   4.519  11.422 -0.5628  1.3760 -0.7980
 7919SOL    HW235220   1.531   4.472  11.544 -0.8874 -0.4214 -0.2920
 7920SOL     OW35221   0.812   1.561   4.070 -0.0753 -0.5581  0.1842
 7920SOL    HW135222   0.828   1.545   3.977 -0.5620 -0.3289  0.0597
 7920SOL    HW235223   0.865   1.641   4.073 -1.2676  0.2642 -0.2469
 7921SOL     OW35224   1.227   0.763   3.255  0.3483  0.5607  0.1012
 7921SOL    HW135225   1.232   0.849   3.298  0.6392  1.0978 -1.0096
 7921SOL    HW235226   1.275   0.706   3.315  0.7020 -0.3496 -1.0416
 7922SOL     OW35227   4.199   0.365   9.435 -0.3263 -0.4868  0.1680
 7922SOL    HW135228   4.150   0.440   9.470 -2.1934 -1.4349 -0.3911
 7922SOL    HW235229   4.283   0.370   9.481  0.0746 -1.7276 -0.4138
 7923SOL     OW35230   1.122   0.426   5.070  0.0779 -0.3880  0.3825
 7923SOL    HW135231   1.104   0.431   4.976 -1.2502 -0.8408  0.6163
 7923SOL    HW235232   1.217   0.413   5.073  0.0101 -0.7295  0.9995
 7924SOL     OW35233   4.245   0.496  11.915  0.1765  0.2458 -0.4536
 7924SOL    HW135234   4.158   0.532  11.928  0.2307  0.4641 -0.7013
 7924SOL    HW235235   4.292   0.562  11.967  0.7806 -1.4432  1.1487
 7925SOL     OW35236   1.692   0.803   4.613  0.2824 -0.1061 -0.2158
 7925SOL    HW135237   1.707   0.880   4.668  1.2178 -0.7133  0.3987
 7925SOL    HW235238   1.630   0.840   4.551  1.1801  0.0042 -1.0594
 7926SOL     OW35239   0.458   2.364   3.622  0.4334 -0.2729 -0.3089
 7926SOL    HW135240   0.385   2.381   3.682  2.5333  2.4783  1.4360
 7926SOL    HW235241   0.406   2.328   3.550  3.5735 -1.7909 -1.8047
 7927SOL     OW35242   2.511   4.446   7.045 -0.8825 -0.3445 -0.5101
 7927SOL    HW135243   2.537   4.401   7.126 -1.8821  0.3212  0.1887
 7927SOL    HW235244   2.415   4.440   7.051 -0.7393 -1.0791  1.0244
 7928SOL     OW35245   0.638   0.159   8.278  0.0948  0.4991  0.1061
 7928SOL    HW135246   0.561   0.200   8.239 -1.0559 -0.9672  0.8628
 7928SOL    HW235247   0.644   0.073   8.236 -0.9200  0.0658  0.8348
 7929SOL     OW35248   3.869   2.630   5.410 -0.5312  0.9438 -0.1860
 7929SOL    HW135249   3.872   2.669   5.322 -0.0718 -2.6802 -1.7692
 7929SOL    HW235250   3.945   2.676   5.447 -0.5914 -0.5564  1.7930
 7930SOL     OW35251   3.318   3.960   7.932 -0.1748  0.0977 -0.2479
 7930SOL    HW135252   3.250   3.936   7.995 -1.3135  2.0947 -0.7448
 7930SOL    HW235253   3.272   4.001   7.860  0.7852 -0.5040 -1.2077
 7931SOL     OW35254   2.394   3.797  17.209 -0.0823 -0.9722 -0.2781
 7931SOL    HW135255   2.331   3.854  17.253  0.8652  0.0946 -0.3025
 7931SOL    HW235256   2.379   3.804  17.115  2.2466  2.7407 -0.3456
 7932SOL     OW35257   2.141   2.942   6.563  0.5402 -0.0740 -0.3261
 7932SOL    HW135258   2.225   2.960   6.520  0.9520 -0.2448  0.4180
 7932SOL    HW235259   2.173   2.919   6.650 -1.8856  0.6239  0.7202
 7933SOL     OW35260   0.505   1.829   3.392 -0.0218  0.0691 -0.6328
 7933SOL    HW135261   0.512   1.902   3.329  1.5463  1.8829  1.6577
 7933SOL    HW235262   0.443   1.860   3.458 -0.9647 -3.7791  0.2532
 7934SOL     OW35263   0.512   2.497   0.828 -1.0189 -0.1265  0.6422
 7934SOL    HW135264   0.535   2.577   0.782  0.7344 -1.5521 -0.9694
 7934SOL    HW235265   0.431   2.526   0.870 -1.7149  0.5842 -1.2360
 7935SOL     OW35266   1.583   3.244   8.621  0.6362  0.3889  0.0133
 7935SOL    HW135267   1.608   3.224   8.531  3.3504 -1.8475  1.2889
 7935SOL    HW235268   1.540   3.330   8.617  0.4552  0.3661  1.2821
 7936SOL     OW35269   4.457   4.550   4.786  0.4914 -0.6152 -0.4072
 7936SOL    HW135270   4.516   4.520   4.717  0.8865  0.0433 -0.3587
 7936SOL    HW235271   4.478   4.644   4.792 -2.3281  0.0499 -0.9959
 7937SOL     OW35272   3.444   2.172   1.987 -0.3348  0.1904  0.2214
 7937SOL    HW135273   3.520   2.208   1.942  0.0418 -1.2167 -0.2643
 7937SOL    HW235274   3.475   2.163   2.077 -1.1085 -1.6615  0.2836
 7938SOL     OW35275   2.522   3.277   7.777 -0.0328 -0.1352  0.1629
 7938SOL    HW135276   2.488   3.358   7.739  0.6432 -0.3793 -0.9519
 7938SOL    HW235277   2.609   3.299   7.811  0.6883  1.8797 -2.8990
 7939SOL     OW35278   1.597   0.592   4.834 -0.1453  0.3132  0.4605
 7939SOL    HW135279   1.599   0.681   4.801  1.6829  0.2789  0.4605
 7939SOL    HW235280   1.691   0.578   4.845  0.0216 -0.2962 -1.6330
 7940SOL     OW35281   0.723   3.460   5.881 -0.1159  0.1162  0.6835
 7940SOL    HW135282   0.670   3.398   5.931  0.1556  0.8389  1.8620
 7940SOL    HW235283   0.796   3.410   5.845  0.7693  0.8196  1.5023
 7941SOL     OW35284   1.851   1.628  14.702 -0.0888 -0.3222 -0.1148
 7941SOL    HW135285   1.896   1.563  14.648  2.9333  1.3530  0.3614
 7941SOL    HW235286   1.777   1.638  14.643 -0.7384  0.1884  0.7919
 7942SOL     OW35287   1.307   1.556   9.835 -0.1218 -0.2130  0.1122
 7942SOL    HW135288   1.295   1.471   9.877  0.9717  1.0274  2.9168
 7942SOL    HW235289   1.306   1.613   9.912  0.0714  0.0789 -0.0998
 7943SOL     OW35290   2.130   3.686   1.447  0.6021  0.2264 -0.0397
 7943SOL    HW135291   2.104   3.646   1.530  2.0823  0.9049  0.7445
 7943SOL    HW235292   2.130   3.780   1.463  1.3711  0.4818 -1.4993
 7944SOL     OW35293   0.007   3.879   1.915 -0.1171 -0.4525  0.4683
 7944SOL    HW135294   4.694   3.865   1.828 -0.8745 -0.8628  0.8555
 7944SOL    HW235295   0.010   3.791   1.952  1.6825 -0.8495 -0.6764
 7945SOL     OW35296   0.355   1.764  12.964  0.0246 -0.4083 -0.6441
 7945SOL    HW135297   0.380   1.851  12.931  0.0042  0.5745  1.9833
 7945SOL    HW235298   0.437   1.716  12.958 -0.4028 -1.3045  0.9329
 7946SOL     OW35299   4.212   3.909   5.321 -0.2095  0.6498  0.5224
 7946SOL    HW135300   4.150   3.978   5.342  1.1724  1.6586  1.2953
 7946SOL    HW235301   4.219   3.852   5.398  0.9027  0.0916  0.0069
 7947SOL     OW35302   4.241   3.803   6.346 -0.3081 -0.1488  0.4103
 7947SOL    HW135303   4.315   3.774   6.399  0.0563  0.7814  0.4107
 7947SOL    HW235304   4.178   3.739   6.379 -0.3455 -0.0585  0.5124
 7948SOL     OW35305   3.000   2.526  10.599 -0.0597  0.0874 -0.2446
 7948SOL    HW135306   3.084   2.498  10.564  0.0827 -1.2123  1.1437
 7948SOL    HW235307   2.962   2.569  10.522  0.1667  1.4570  0.4018
 7949SOL     OW35308   2.239   3.465   1.228 -0.5710  0.3358 -0.3992
 7949SOL    HW135309   2.272   3.531   1.288 -1.8173  1.2331 -0.7152
 7949SOL    HW235310   2.317   3.454   1.174  0.7170 -0.0572  1.5232
 7950SOL     OW35311   2.821   2.723   1.226  0.6120 -0.3585  0.1398
 7950SOL    HW135312   2.794   2.756   1.140 -0.0920 -0.6660  0.2404
 7950SOL    HW235313   2.842   2.807   1.266 -2.0900  1.7007 -2.7317
 7951SOL     OW35314   2.809   4.541   5.970  0.3440 -0.0550  0.4974
 7951SOL    HW135315   2.741   4.609   5.970  1.0899  0.6882  1.5783
 7951SOL    HW235316   2.822   4.529   6.065  1.4962  0.2964  0.3864
 7952SOL     OW35317   1.579   3.426  11.226  0.5888  0.0859  0.2101
 7952SOL    HW135318   1.535   3.492  11.172 -1.2488 -1.6002 -0.3401
 7952SOL    HW235319   1.601   3.366  11.155  0.7812 -0.0528  0.3889
 7953SOL     OW35320   1.681   2.835  15.409  0.2661  0.2230  0.1550
 7953SOL    HW135321   1.629   2.907  15.373 -0.6659  0.1894  1.4247
 7953SOL    HW235322   1.612   2.781  15.448 -0.5565 -0.1994 -1.8380
 7954SOL     OW35323   2.633   4.215  16.165  0.0472 -0.2220  0.3255
 7954SOL    HW135324   2.660   4.124  16.155 -0.3246 -0.5157  1.8590
 7954SOL    HW235325   2.688   4.253  16.097 -0.4911  0.6548  0.3692
 7955SOL     OW35326   0.887   1.366   8.977  0.2754  0.0904  0.8200
 7955SOL    HW135327   0.806   1.354   9.026  0.3064 -1.7838  0.4384
 7955SOL    HW235328   0.890   1.461   8.972  1.1338  0.0062 -0.3516
 7956SOL     OW35329   1.651   2.256   3.580 -0.2121 -0.6423  0.2761
 7956SOL    HW135330   1.674   2.339   3.622  0.0565 -1.3781  1.5574
 7956SOL    HW235331   1.586   2.288   3.517  0.2773 -1.1413 -0.4788
 7957SOL     OW35332   4.355   3.533  15.530 -0.1368 -0.3929  0.4816
 7957SOL    HW135333   4.294   3.464  15.556 -1.7619  0.8045 -0.1295
 7957SOL    HW235334   4.295   3.608  15.523  0.7171  0.1695 -0.8285
 7958SOL     OW35335   2.787   3.947   2.314  0.2286  0.3126 -0.1450
 7958SOL    HW135336   2.862   4.003   2.332  1.0280 -0.7877 -0.0343
 7958SOL    HW235337   2.732   4.014   2.273 -0.1681 -0.1577 -0.3803
 7959SOL     OW35338   1.683   4.038   9.197 -0.1017 -0.2959  0.5433
 7959SOL    HW135339   1.631   4.003   9.269  0.8606 -1.9713  0.4193
 7959SOL    HW235340   1.749   3.969   9.192  0.3270  0.0966  0.7178
 7960SOL     OW35341   1.659   2.053  17.166 -0.0143 -0.4810 -0.0640
 7960SOL    HW135342   1.575   2.030  17.126  1.3983 -2.9277 -1.6467
 7960SOL    HW235343   1.657   2.147  17.146  0.0411 -0.3570  0.5077
 7961SOL     OW35344   3.084   2.741   5.457  0.0395  0.7663 -0.3961
 7961SOL    HW135345   3.098   2.762   5.550  0.2947  2.0755 -0.7371
 7961SOL    HW235346   3.171   2.771   5.429  0.3164 -0.7447 -1.1485
 7962SOL     OW35347   3.472   0.113   1.490  0.2816 -0.5976  0.5435
 7962SOL    HW135348   3.508   0.144   1.573  2.7016  1.4494 -1.2733
 7962SOL    HW235349   3.465   0.018   1.505  0.7854 -0.6491  0.4767
 7963SOL     OW35350   4.438   0.015   9.694 -0.8923  0.0432 -0.3350
 7963SOL    HW135351   4.418   0.108   9.683 -2.7038 -0.2469  0.3733
 7963SOL    HW235352   4.389   4.702   9.620 -1.2115 -0.2133  0.0062
 7964SOL     OW35353   4.577   0.419   6.380 -0.1434  0.0740  0.4972
 7964SOL    HW135354   4.532   0.392   6.300  0.1384  0.5508  0.1797
 7964SOL    HW235355   4.641   0.351   6.405 -0.7483  0.0937  2.1007
 7965SOL     OW35356   3.339   0.941  12.788 -0.1013 -0.3086  0.3136
 7965SOL    HW135357   3.379   1.017  12.830  0.0753 -0.3186  0.1628
 7965SOL    HW235358   3.352   0.874  12.856 -0.6556 -0.4156  0.3159
 7966SOL     OW35359   3.697   0.409  13.576 -0.5682  0.2222 -0.4795
 7966SOL    HW135360   3.788   0.401  13.606 -1.9052  2.1698  4.0174
 7966SOL    HW235361   3.694   0.343  13.507  1.3180 -0.6684  0.2785
 7967SOL     OW35362   0.450   2.291   6.568  0.2334  0.1164 -0.1226
 7967SOL    HW135363   0.390   2.247   6.507 -2.8592  0.1583  2.9031
 7967SOL    HW235364   0.438   2.385   6.552  0.9621  0.6220  2.3530
 7968SOL     OW35365   0.702   3.500   5.429  0.6258 -0.0224 -0.3462
 7968SOL    HW135366   0.778   3.548   5.463  1.0096  1.0120 -2.7057
 7968SOL    HW235367   0.729   3.497   5.338  2.2505 -0.3463  0.1458
 7969SOL     OW35368   0.446   2.202  11.337 -0.0227  0.3351 -0.4478
 7969SOL    HW135369   0.362   2.205  11.381  0.0985 -0.1662 -0.1826
 7969SOL    HW235370   0.463   2.108  11.330 -0.5166  0.0788  2.0143
 7970SOL     OW35371   2.840   2.969   2.590  0.0372 -0.1670 -0.0985
 7970SOL    HW135372   2.862   2.886   2.550  0.5320 -0.5601  1.0031
 7970SOL    HW235373   2.870   3.037   2.530 -2.0184  0.6407 -0.2199
 7971SOL     OW35374   4.605   1.930  10.950  0.7813  0.4102 -0.2493
 7971SOL    HW135375   4.578   1.979  11.027  0.9995  0.7615 -0.3986
 7971SOL    HW235376   4.701   1.926  10.950  0.8937  3.1867  0.6515
 7972SOL     OW35377   1.885   4.120   5.371 -0.6874  0.4151  0.0538
 7972SOL    HW135378   1.825   4.150   5.439 -1.7186  0.9802 -1.1040
 7972SOL    HW235379   1.932   4.044   5.406  2.6829  1.8697 -1.3461
 7973SOL     OW35380   2.111   1.313   0.516  0.9575  0.3512 -0.0154
 7973SOL    HW135381   2.046   1.244   0.505 -0.8385  1.7763  1.5143
 7973SOL    HW235382   2.196   1.273   0.500 -0.2434 -2.2328  0.1187
 7974SOL     OW35383   0.560   3.248   2.070 -0.4311 -0.0170  0.7369
 7974SOL    HW135384   0.584   3.156   2.077  2.0385  0.4763 -1.4592
 7974SOL    HW235385   0.560   3.276   2.162  0.3324  0.8038  0.4825
 7975SOL     OW35386   1.217   1.334  17.642  0.5494 -0.3236  0.6673
 7975SOL    HW135387   1.287   1.370  17.587  1.5750  0.4183  2.4661
 7975SOL    HW235388   1.203   1.397   0.013  1.1874  0.0395  0.4773
 7976SOL     OW35389   0.935   3.563   5.303  0.9473  0.2722  0.5489
 7976SOL    HW135390   0.963   3.639   5.355 -2.1713  2.4921 -1.0178
 7976SOL    HW235391   0.990   3.570   5.225  0.6794 -0.1219  0.3252
 7977SOL     OW35392   3.224   2.518  10.452  0.5032 -0.3247  0.5593
 7977SOL    HW135393   3.304   2.518  10.504 -0.1274  1.3707  1.5260
 7977SOL    HW235394   3.244   2.534  10.359 -0.9324 -0.9469  0.1503
 7978SOL     OW35395   3.427   2.637   8.412 -0.4844 -0.7003 -0.5867
 7978SOL    HW135396   3.482   2.715   8.406 -1.6913  0.1780 -0.0805
 7978SOL    HW235397   3.377   2.659   8.490  1.5588 -1.3011  0.8777
 7979SOL     OW35398   1.859   0.285   7.978 -0.1209  0.2191 -0.4099
 7979SOL    HW135399   1.903   0.308   8.060 -0.4417 -2.0760  0.4154
 7979SOL    HW235400   1.810   0.365   7.958 -2.0993 -0.8445  0.0725
 7980SOL     OW35401   1.148   4.550   3.615  0.0549  0.0221 -0.3831
 7980SOL    HW135402   1.198   4.614   3.666 -0.7091  1.2853 -1.2026
 7980SOL    HW235403   1.108   4.499   3.685 -1.0598  0.1812 -0.9009
 7981SOL     OW35404   4.282   4.422  12.583  0.8883 -0.5927  0.6283
 7981SOL    HW135405   4.374   4.421  12.611  1.3716 -1.7941 -1.0465
 7981SOL    HW235406   4.276   4.514  12.556  3.5695 -1.0838 -1.6556
 7982SOL     OW35407   3.652   3.277   4.444 -0.0594  0.5441 -0.3950
 7982SOL    HW135408   3.728   3.330   4.421  0.6212  0.2283  1.1342
 7982SOL    HW235409   3.691   3.191   4.455 -0.2796  0.4531 -0.3317
 7983SOL     OW35410   2.812   2.661   6.311 -0.0094  0.4328 -0.2705
 7983SOL    HW135411   2.890   2.715   6.318  1.0130 -1.0964  0.0614
 7983SOL    HW235412   2.856   2.579   6.289 -1.1612 -0.8342  2.1103
 7984SOL     OW35413   0.966   2.540  10.770 -0.1384 -0.2303  0.2443
 7984SOL    HW135414   0.960   2.590  10.688 -1.7059 -1.6618 -0.5066
 7984SOL    HW235415   1.058   2.557  10.791  0.5255 -0.0843 -2.8165
 7985SOL     OW35416   2.253   1.851  11.624  0.0466  0.2654  0.2413
 7985SOL    HW135417   2.280   1.904  11.699  0.2290 -0.1532  0.4735
 7985SOL    HW235418   2.332   1.801  11.603 -0.1426  0.6037 -1.2667
 7986SOL     OW35419   1.000   3.634   6.237 -0.0842  0.2357  0.1338
 7986SOL    HW135420   0.985   3.631   6.143 -0.2248 -1.7001  0.2098
 7986SOL    HW235421   1.013   3.726   6.258 -3.9492  0.8767 -0.2547
 7987SOL     OW35422   2.401   3.032   7.653  0.3087  0.3350  0.0841
 7987SOL    HW135423   2.311   3.061   7.638  0.4751  1.1643  0.6897
 7987SOL    HW235424   2.448   3.112   7.675 -0.1039  0.2994  1.0792
 7988SOL     OW35425   2.582   4.655  15.943  0.0566 -0.4971  0.5630
 7988SOL    HW135426   2.629   0.003  15.986 -0.1823  0.6570 -1.1005
 7988SOL    HW235427   2.655   4.613  15.897 -2.6102 -3.1931 -1.1149
 7989SOL     OW35428   4.472   4.315   3.931 -0.1986 -0.6676 -0.1548
 7989SOL    HW135429   4.443   4.358   4.012 -2.5022 -2.3624 -0.0836
 7989SOL    HW235430   4.544   4.374   3.907  1.9625 -1.7255  3.7015
 7990SOL     OW35431   4.458   2.816   7.309 -0.2156  0.3160 -0.2213
 7990SOL    HW135432   4.427   2.739   7.263 -1.8158 -0.5935  2.3777
 7990SOL    HW235433   4.539   2.846   7.268  0.2793 -0.2304  0.3417
 7991SOL     OW35434   3.617   3.248   8.495  0.0773 -0.0891 -0.7928
 7991SOL    HW135435   3.648   3.334   8.523 -0.3084 -0.8639  1.9850
 7991SOL    HW235436   3.694   3.195   8.512  0.2326  0.4995  0.3506
 7992SOL     OW35437   3.192   3.493  13.684 -0.4108 -0.1164 -0.3770
 7992SOL    HW135438   3.144   3.410  13.674 -1.4001  0.2812  1.0669
 7992SOL    HW235439   3.240   3.507  13.602  1.1221  0.9903  0.7270
 7993SOL     OW35440   2.593   3.879  16.395 -0.2104 -0.3908 -0.4139
 7993SOL    HW135441   2.613   3.847  16.307  1.4329  0.3791 -0.3282
 7993SOL    HW235442   2.676   3.912  16.431 -1.9063  2.0383  1.2353
 7994SOL     OW35443   2.908   2.050   8.430  0.7616 -0.5763  0.2178
 7994SOL    HW135444   2.975   2.052   8.499 -0.7305  1.2845  1.6495
 7994SOL    HW235445   2.859   2.131   8.449  0.3151 -1.4750  3.0246
 7995SOL     OW35446   2.236   1.595  15.149 -0.1446  0.3229  0.1029
 7995SOL    HW135447   2.236   1.593  15.245  0.1667  2.0125  0.1505
 7995SOL    HW235448   2.272   1.683  15.133  1.5199 -0.4705 -0.5839
 7996SOL     OW35449   1.372   1.323   7.568  0.0707  0.8396  0.1650
 7996SOL    HW135450   1.375   1.233   7.536 -0.1484  0.7595  0.3685
 7996SOL    HW235451   1.293   1.354   7.523 -1.9769 -0.8105  2.6389
 7997SOL     OW35452   2.741   0.335   5.811 -0.4628 -0.1093 -0.1318
 7997SOL    HW135453   2.759   0.289   5.730  4.1004  0.6702  0.4557
 7997SOL    HW235454   2.685   0.408   5.783  0.6237  0.9540  0.4484
 7998SOL     OW35455   4.686   1.475   6.568 -0.0832 -0.5507 -0.0458
 7998SOL    HW135456   4.724   1.521   6.643 -0.6839  2.9163 -1.8216
 7998SOL    HW235457   4.656   1.393   6.606 -0.5811 -1.1446 -1.7651
 7999SOL     OW35458   3.466   4.069   8.535  0.0743 -0.1760  0.7615
 7999SOL    HW135459   3.556   4.076   8.565  0.5708 -0.1247 -0.7281
 7999SOL    HW235460   3.427   4.151   8.566  1.7564  0.9436 -0.0990
 8000SOL     OW35461   4.347   4.633   5.779 -0.0147 -0.4701  0.0096
 8000SOL    HW135462   4.425   4.650   5.833  0.4158 -2.2302 -0.0623
 8000SOL    HW235463   4.385   4.552   5.745  4.0447  1.2971  0.2990
 8001SOL     OW35464   0.340   2.988   9.268  0.4534  0.0405 -0.4314
 8001SOL    HW135465   0.268   2.933   9.239  1.3692 -0.1622 -2.3435
 8001SOL    HW235466   0.416   2.932   9.252  0.4480  0.5038 -2.1048
 8002SOL     OW35467   0.770   3.644   8.645  0.1392 -0.2502 -0.1727
 8002SOL    HW135468   0.682   3.681   8.658 -0.9802 -3.0672  0.3308
 8002SOL    HW235469   0.764   3.565   8.699 -0.5307 -1.4478 -1.9821
 8003SOL     OW35470   4.534   1.467   7.653 -0.3188 -0.0259 -0.6828
 8003SOL    HW135471   4.621   1.504   7.670 -0.2367 -0.7789  0.5398
 8003SOL    HW235472   4.510   1.505   7.569 -2.4228 -1.3138 -0.6590
 8004SOL     OW35473   1.992   2.050   7.508  0.1772  0.0612  0.5796
 8004SOL    HW135474   2.014   1.962   7.538 -1.8132 -0.4700  0.4762
 8004SOL    HW235475   1.914   2.034   7.455 -0.9440 -1.1453  2.6193
 8005SOL     OW35476   0.414   1.775   6.753  0.3956  0.3514 -0.0370
 8005SOL    HW135477   0.375   1.846   6.804  0.4048 -0.2959  0.8737
 8005SOL    HW235478   0.353   1.752   6.683  0.6240  1.0688 -0.4731
 8006SOL     OW35479   3.593   3.566  12.596 -0.1702  0.2977 -0.4248
 8006SOL    HW135480   3.656   3.494  12.599  0.4075  0.8793  1.3554
 8006SOL    HW235481   3.635   3.613  12.668 -0.0996 -0.4341  0.0138
 8007SOL     OW35482   4.300   0.385  15.438 -0.0785 -0.3261 -0.3327
 8007SOL    HW135483   4.315   0.367  15.346 -1.7131 -1.8413 -0.3172
 8007SOL    HW235484   4.204   0.395  15.436  0.1940  2.0139 -1.4703
 8008SOL     OW35485   3.920   3.526  17.106  0.3986  0.0818 -0.4248
 8008SOL    HW135486   3.984   3.568  17.048  1.7885  0.1812  1.2008
 8008SOL    HW235487   3.942   3.561  17.192  1.0157  0.8411 -0.8902
 8009SOL     OW35488   3.262   4.203   6.206 -0.3518 -0.2547  0.2899
 8009SOL    HW135489   3.192   4.153   6.249 -1.6679 -0.1185 -1.6750
 8009SOL    HW235490   3.226   4.214   6.118 -3.1218  2.9432  1.8096
 8010SOL     OW35491   1.926   2.210   7.276 -0.2509  0.0691  0.6274
 8010SOL    HW135492   1.971   2.163   7.206  0.3106 -0.3047  1.2390
 8010SOL    HW235493   1.991   2.195   7.345  1.6432  1.5242 -0.8375
 8011SOL     OW35494   0.511   1.945   9.257  0.4324 -0.6230  0.6358
 8011SOL    HW135495   0.602   1.958   9.284  1.5154 -2.7862 -2.0117
 8011SOL    HW235496   0.508   1.850   9.247  0.2354 -0.7227  1.6324
 8012SOL     OW35497   0.406   0.223   7.739  0.0461  0.0084  0.6306
 8012SOL    HW135498   0.479   0.267   7.697 -0.7762  1.1379  0.3694
 8012SOL    HW235499   0.435   0.134   7.722 -1.4080 -0.3488  0.0292
 8013SOL     OW35500   1.069   1.013   9.929 -0.4543  0.2799 -0.0572
 8013SOL    HW135501   1.158   1.045   9.944 -0.2140 -0.6158  0.3786
 8013SOL    HW235502   1.014   1.091   9.941 -0.6485 -0.2624  2.5549
 8014SOL     OW35503   0.516   2.948  11.626  0.3239  0.2837  0.1339
 8014SOL    HW135504   0.483   2.858  11.631  0.6446  0.2225  1.0680
 8014SOL    HW235505   0.578   2.948  11.698 -1.8283  0.7016  1.9956
 8015SOL     OW35506   2.028   2.483  12.457 -0.3650  0.2618 -0.0687
 8015SOL    HW135507   1.996   2.493  12.367 -0.2243  2.5864  0.1389
 8015SOL    HW235508   2.121   2.493  12.439 -0.7321  0.8797 -1.6383
 8016SOL     OW35509   4.572   2.477   5.153 -0.0756 -0.2112 -0.5694
 8016SOL    HW135510   4.585   2.385   5.177 -0.0311 -0.0262  0.1281
 8016SOL    HW235511   4.544   2.512   5.238 -1.3457 -0.5833 -0.8256
 8017SOL     OW35512   4.316   2.117  16.999 -0.4380 -0.1041  0.3521
 8017SOL    HW135513   4.290   2.151  17.085  0.1684 -2.6292  1.5227
 8017SOL    HW235514   4.379   2.182  16.968 -3.2613  0.6688 -3.7909
 8018SOL     OW35515   0.482   1.048   7.403 -0.4742  0.3981 -0.4726
 8018SOL    HW135516   0.458   0.992   7.329  2.1324  0.2814 -1.2214
 8018SOL    HW235517   0.571   1.068   7.376  0.3788  1.3215  3.0605
 8019SOL     OW35518   2.343   0.733   7.872  0.1562  0.2841  0.3041
 8019SOL    HW135519   2.258   0.743   7.829  1.0309 -0.6643 -1.6177
 8019SOL    HW235520   2.323   0.753   7.964  0.8371 -2.3758  1.0169
 8020SOL     OW35521   1.266   0.071   6.857 -0.4473 -0.8792  0.4398
 8020SOL    HW135522   1.362   0.078   6.858 -0.5037 -0.5826  3.8051
 8020SOL    HW235523   1.253   0.128   6.781 -0.6427 -0.4397  0.8025
 8021SOL     OW35524   3.575   1.855   5.292  0.5927  0.6150  0.4426
 8021SOL    HW135525   3.532   1.854   5.377  1.5739  1.9151  0.9586
 8021SOL    HW235526   3.550   1.941   5.259  0.2889  0.1560 -0.5148
 8022SOL     OW35527   2.230   3.428   6.575 -0.1769  0.2466  0.0977
 8022SOL    HW135528   2.215   3.451   6.484 -0.6652 -0.2539  0.0538
 8022SOL    HW235529   2.187   3.342   6.577  1.0699 -0.3425  2.1075
 8023SOL     OW35530   0.182   1.769   2.026  0.1594 -0.5050  0.1192
 8023SOL    HW135531   0.092   1.772   1.994 -0.1318  0.7698  1.0148
 8023SOL    HW235532   0.182   1.696   2.087  2.3290  0.1891  0.9433
 8024SOL     OW35533   4.381   0.943   9.145  0.2785 -0.4164 -0.4253
 8024SOL    HW135534   4.292   0.954   9.112  0.2586  2.4412  0.5381
 8024SOL    HW235535   4.372   0.902   9.231 -0.5086  0.7160  0.0293
 8025SOL     OW35536   4.072   0.120  11.971  0.1310  0.1850  0.0882
 8025SOL    HW135537   3.992   0.092  12.015  0.0289 -2.0063 -1.5447
 8025SOL    HW235538   4.046   0.180  11.901  1.1116 -1.5842 -1.7879
 8026SOL     OW35539   1.425   3.628   6.038  0.3949 -0.0993 -0.2108
 8026SOL    HW135540   1.490   3.629   5.968  0.3005 -1.6481 -0.3129
 8026SOL    HW235541   1.435   3.536   6.060 -0.2856  0.6250  3.0485
 8027SOL     OW35542   1.715   1.565   8.210  0.2508  0.2523  0.0373
 8027SOL    HW135543   1.685   1.582   8.121  2.2086  0.9272 -0.4826
 8027SOL    HW235544   1.767   1.486   8.194 -0.0920  0.2789 -1.2117
 8028SOL     OW35545   1.161   4.244  14.173 -0.1584 -0.0512  0.0908
 8028SOL    HW135546   1.104   4.279  14.104 -1.4344 -2.2766  0.0205
 8028SOL    HW235547   1.129   4.296  14.247 -2.9151  1.8804 -2.4632
 8029SOL     OW35548   2.363   4.509   6.118  0.5592  0.3238 -0.0428
 8029SOL    HW135549   2.307   4.584   6.100 -0.1380  0.4990  2.7877
 8029SOL    HW235550   2.402   4.492   6.033  2.5416  0.1969  0.8731
 8030SOL     OW35551   1.071   2.263   4.691 -0.9193  0.0028  0.2049
 8030SOL    HW135552   1.141   2.289   4.751  1.3156  0.1808 -2.5007
 8030SOL    HW235553   1.024   2.202   4.748  1.6077 -0.5653  1.6824
 8031SOL     OW35554   2.573   0.866   7.506  0.2633  0.1596  0.5601
 8031SOL    HW135555   2.527   0.919   7.571 -0.0904 -1.0419  1.2829
 8031SOL    HW235556   2.509   0.795   7.502  1.9040 -1.2834  0.0871
 8032SOL     OW35557   0.168   2.346  13.215  0.0209  0.1514  0.2049
 8032SOL    HW135558   0.199   2.418  13.270 -0.1194 -0.0460  0.5420
 8032SOL    HW235559   0.149   2.398  13.137  0.1214 -0.1451 -0.0177
 8033SOL     OW35560   0.695   1.603   7.744 -0.6319  0.6375  0.2983
 8033SOL    HW135561   0.647   1.542   7.800  0.2882 -0.3494 -0.0086
 8033SOL    HW235562   0.696   1.554   7.662 -1.1070 -0.6762  1.0812
 8034SOL     OW35563   4.202   2.800   4.265 -0.6833  0.6231 -0.3936
 8034SOL    HW135564   4.138   2.761   4.325  1.4544 -1.4117  0.5541
 8034SOL    HW235565   4.159   2.884   4.247 -0.0003  0.3748 -3.1616
 8035SOL     OW35566   3.540   0.912   9.868  0.1180  0.1637 -0.5719
 8035SOL    HW135567   3.456   0.957   9.877  1.3613  2.2383  0.7661
 8035SOL    HW235568   3.586   0.938   9.948 -0.7225 -0.7354  0.2038
 8036SOL     OW35569   1.686   2.514   4.128  0.1369 -0.0871 -0.6023
 8036SOL    HW135570   1.669   2.608   4.127 -1.2181 -0.3263 -0.6914
 8036SOL    HW235571   1.595   2.485   4.121  0.7082 -2.3500  1.3375
 8037SOL     OW35572   3.181   0.411   1.478  0.2247 -0.1783  0.0182
 8037SOL    HW135573   3.190   0.468   1.402  2.2423 -0.6406 -0.0699
 8037SOL    HW235574   3.217   0.325   1.454  0.7496  0.1973 -0.5119
 8038SOL     OW35575   1.949   1.386   4.616 -0.2516 -0.0184 -0.8334
 8038SOL    HW135576   2.041   1.401   4.593 -0.0913 -0.9412 -0.8189
 8038SOL    HW235577   1.958   1.369   4.710 -1.2844 -0.4231 -0.8116
 8039SOL     OW35578   2.662   1.238  10.267  0.3936  0.1915 -0.8064
 8039SOL    HW135579   2.607   1.161  10.255 -0.0738  0.7265 -2.0977
 8039SOL    HW235580   2.739   1.194  10.304  1.5056  0.5821 -2.6540
 8040SOL     OW35581   3.517   1.436   1.781  0.7185 -0.1959 -0.8840
 8040SOL    HW135582   3.601   1.443   1.735  0.1038 -0.2655 -2.0221
 8040SOL    HW235583   3.550   1.425   1.869 -1.3712 -0.6784 -0.1555
 8041SOL     OW35584   1.984   2.396   9.273 -0.4914  0.1147 -0.0558
 8041SOL    HW135585   2.017   2.414   9.185  1.2837  1.6366  0.8990
 8041SOL    HW235586   1.974   2.486   9.304 -0.2811 -0.1108  0.6827
 8042SOL     OW35587   1.459   3.159   7.509 -0.1702  0.0316  0.1433
 8042SOL    HW135588   1.420   3.220   7.571 -1.4168  0.1707 -0.7743
 8042SOL    HW235589   1.476   3.087   7.569 -0.1064  1.2517  1.5856
 8043SOL     OW35590   3.224   4.356   9.509 -0.0223 -0.0822  0.1769
 8043SOL    HW135591   3.208   4.296   9.437 -3.2071  0.3393  0.5306
 8043SOL    HW235592   3.219   4.442   9.466 -2.0247  1.2250  3.0167
 8044SOL     OW35593   4.351   0.762   9.340  0.5783  0.2743  0.0301
 8044SOL    HW135594   4.372   0.689   9.282 -0.9430 -1.7405  2.0330
 8044SOL    HW235595   4.344   0.719   9.425  1.0889 -1.0795 -0.6256
 8045SOL     OW35596   1.337   2.978   6.425  0.4258  0.4663 -0.0564
 8045SOL    HW135597   1.327   3.073   6.418 -2.4217  0.2442  0.9364
 8045SOL    HW235598   1.419   2.969   6.376 -0.1317 -1.1243 -0.6696
 8046SOL     OW35599   3.740   1.975   4.936  0.4756 -0.2138  0.6396
 8046SOL    HW135600   3.770   2.063   4.913  0.9551 -0.4925  0.1822
 8046SOL    HW235601   3.735   1.932   4.851 -1.0721  1.6943 -0.2063
 8047SOL     OW35602   1.486   2.258   4.710  0.0402  0.5540  0.0167
 8047SOL    HW135603   1.548   2.297   4.772  1.9102 -0.4712 -1.2175
 8047SOL    HW235604   1.401   2.253   4.755 -1.1714 -0.9277 -2.3956
 8048SOL     OW35605   1.576   4.397   6.762 -0.4101 -0.3450 -0.0821
 8048SOL    HW135606   1.649   4.336   6.767  2.5496  3.2348  0.5092
 8048SOL    HW235607   1.528   4.379   6.681 -3.1679  0.6416  1.3070
 8049SOL     OW35608   1.932   0.282  10.567  0.1034 -0.0522  0.4065
 8049SOL    HW135609   1.912   0.297  10.475 -3.1898  0.1189  1.1201
 8049SOL    HW235610   1.865   0.336  10.610 -0.7518  0.7771 -2.0152
 8050SOL     OW35611   1.338   2.231   7.733 -0.0432  0.4100  0.2411
 8050SOL    HW135612   1.382   2.149   7.711 -1.4691 -0.5189  0.8026
 8050SOL    HW235613   1.333   2.276   7.649  1.0443  2.0167  1.0458
 8051SOL     OW35614   1.905   0.281   2.445  0.0384  0.0254 -0.1047
 8051SOL    HW135615   1.912   0.376   2.434  1.3512 -0.0699 -0.0588
 8051SOL    HW235616   1.811   0.272   2.462 -0.1584  1.3382 -0.4819
 8052SOL     OW35617   0.245   3.774   7.903  0.4094  0.5815  0.2896
 8052SOL    HW135618   0.261   3.810   7.816  0.5839 -2.7438 -1.0563
 8052SOL    HW235619   0.172   3.715   7.882  1.6895 -1.1613  0.6862
 8053SOL     OW35620   3.780   1.669   3.884 -0.4317 -0.0230  0.0251
 8053SOL    HW135621   3.702   1.724   3.881 -0.8385 -0.6110 -0.1679
 8053SOL    HW235622   3.754   1.606   3.817 -0.0490 -1.5446  1.3014
 8054SOL     OW35623   4.003   2.967  11.921  0.3303 -0.7836  0.1009
 8054SOL    HW135624   4.061   2.893  11.904  1.3422 -0.1416  0.6961
 8054SOL    HW235625   4.051   2.996  11.999 -0.5234  1.6960 -0.2935
 8055SOL     OW35626   0.217   0.621   5.168 -0.2569  0.0210 -0.1500
 8055SOL    HW135627   0.269   0.636   5.247  0.9784 -1.9251 -0.5825
 8055SOL    HW235628   0.140   0.579   5.207  0.5388 -1.0211  0.3229
 8056SOL     OW35629   1.061   4.114   8.802  0.1187 -0.1756 -0.2810
 8056SOL    HW135630   1.094   4.134   8.714  0.0901  1.2623  0.0321
 8056SOL    HW235631   1.105   4.031   8.820  2.9231  1.3683 -0.0482
 8057SOL     OW35632   3.630   2.445   5.147 -0.4350 -0.1129  0.0019
 8057SOL    HW135633   3.622   2.538   5.170  3.0221 -0.0867  1.0741
 8057SOL    HW235634   3.540   2.429   5.119 -0.2559 -3.9523  1.7497
 8058SOL     OW35635   0.486   1.083  11.902 -0.0811 -0.1298 -0.2624
 8058SOL    HW135636   0.506   1.152  11.838 -0.1183  0.8529  0.7827
 8058SOL    HW235637   0.577   1.057  11.910  0.4244  1.7447  0.1114
 8059SOL     OW35638   1.778   3.508  13.234 -0.1549  0.8919  0.2703
 8059SOL    HW135639   1.695   3.487  13.190 -1.1183  0.8188  2.1389
 8059SOL    HW235640   1.826   3.553  13.164  0.1512 -0.3034 -0.2897
 8060SOL     OW35641   3.609   4.361   1.148  0.7927  0.0343  0.1097
 8060SOL    HW135642   3.564   4.391   1.227 -0.0626  0.1316 -0.4237
 8060SOL    HW235643   3.695   4.404   1.153  0.0117  1.5930  0.0551
 8061SOL     OW35644   4.079   3.706   6.752 -0.1399  0.6335  0.2627
 8061SOL    HW135645   4.015   3.639   6.776  0.1588  0.0394 -0.5856
 8061SOL    HW235646   4.096   3.747   6.837  1.2589  0.1377  0.2353
 8062SOL     OW35647   1.960   2.750   2.983 -0.4104 -0.2733  0.7459
 8062SOL    HW135648   1.902   2.760   2.907 -1.1873 -1.0147  1.2350
 8062SOL    HW235649   2.025   2.687   2.951 -0.3318 -0.7044  1.7383
 8063SOL     OW35650   0.925   3.157   7.090 -0.0669 -0.1200  0.6973
 8063SOL    HW135651   0.915   3.247   7.123 -0.5009  0.5534 -1.3132
 8063SOL    HW235652   1.020   3.154   7.077 -0.0778  1.0499  0.3509
 8064SOL     OW35653   4.566   1.473   2.447  0.4293 -0.0873  0.1650
 8064SOL    HW135654   4.537   1.555   2.407  1.3038 -0.4517 -1.2232
 8064SOL    HW235655   4.662   1.470   2.445  0.4735  0.7561  0.8610
 8065SOL     OW35656   3.780   3.508   5.673 -0.2097  0.7275  0.1517
 8065SOL    HW135657   3.828   3.589   5.690  2.3337 -0.9478  1.0723
 8065SOL    HW235658   3.708   3.542   5.619 -0.8560 -3.2030 -1.5025
 8066SOL     OW35659   2.663   0.002   0.967 -0.6257 -0.8026 -0.0789
 8066SOL    HW135660   2.735   4.663   0.957  0.0156  0.0143 -0.6720
 8066SOL    HW235661   2.612   4.723   0.886 -0.9733 -2.0489  0.1915
 8067SOL     OW35662   3.860   2.755   7.174  0.0821  0.1458 -0.2679
 8067SOL    HW135663   3.943   2.712   7.195  0.4799 -0.2790 -2.6843
 8067SOL    HW235664   3.856   2.828   7.236  3.0118  1.3234 -1.4562
 8068SOL     OW35665   0.597   4.446   7.194  0.2426  0.1250  0.6458
 8068SOL    HW135666   0.653   4.448   7.272  2.8258  2.5455 -1.3051
 8068SOL    HW235667   0.656   4.443   7.119 -0.7692 -1.2775 -0.1099
 8069SOL     OW35668   2.394   2.251   4.357  0.3669  0.1367  0.0344
 8069SOL    HW135669   2.404   2.156   4.369 -0.5648 -0.0673 -0.8004
 8069SOL    HW235670   2.484   2.273   4.379  0.0614  1.2799  0.1268
 8070SOL     OW35671   0.533   4.381  10.318  0.2530 -0.3411 -0.0539
 8070SOL    HW135672   0.485   4.324  10.258  0.8035 -0.5709 -0.2732
 8070SOL    HW235673   0.514   4.329  10.396 -0.5659  1.0136  0.6592
 8071SOL     OW35674   0.809   2.395  16.956  0.1469  0.7898 -0.7264
 8071SOL    HW135675   0.805   2.490  16.943  0.3738  1.0299  0.9618
 8071SOL    HW235676   0.878   2.387  17.022 -0.9961  1.1406  0.5280
 8072SOL     OW35677   2.877   4.187   2.582 -0.7067 -0.0756  0.1246
 8072SOL    HW135678   2.787   4.218   2.571 -1.4518 -1.4964  2.0940
 8072SOL    HW235679   2.897   4.147   2.497 -0.8596 -0.1130  0.1071
 8073SOL     OW35680   3.941   3.706   2.065 -0.3815 -0.1645  0.1447
 8073SOL    HW135681   4.002   3.634   2.077  0.5212  0.6532  0.4149
 8073SOL    HW235682   3.859   3.667   2.096 -2.1698  0.6968 -3.4408
 8074SOL     OW35683   2.570   2.944   6.811  0.5498 -0.5463  0.3743
 8074SOL    HW135684   2.598   2.883   6.742  1.0704  1.7870 -1.4609
 8074SOL    HW235685   2.649   2.971   6.858  0.4579  2.6302 -1.2921
 8075SOL     OW35686   2.788   0.841   6.940  0.6701 -0.3906  0.0419
 8075SOL    HW135687   2.782   0.772   7.006  1.5635  0.8130  1.3880
 8075SOL    HW235688   2.882   0.861   6.938  0.6634 -0.8275 -3.6065
 8076SOL     OW35689   4.332   1.293   6.578 -0.0544  0.7982  0.0375
 8076SOL    HW135690   4.272   1.286   6.653  0.3714 -0.8600  0.2260
 8076SOL    HW235691   4.415   1.292   6.626  0.4670  2.4189 -0.8304
 8077SOL     OW35692   0.448   0.646   5.002  0.1764  0.2844 -0.8230
 8077SOL    HW135693   0.389   0.610   5.068 -1.3986 -1.5426 -3.2627
 8077SOL    HW235694   0.468   0.726   5.049 -4.0460  1.2038 -0.5644
 8078SOL     OW35695   2.028   0.382   8.249  0.2223 -0.0316  0.2298
 8078SOL    HW135696   1.939   0.417   8.256 -0.3463 -1.4438  0.0900
 8078SOL    HW235697   2.088   0.453   8.271 -0.6917  1.3063 -1.5262
 8079SOL     OW35698   2.865   1.976  12.648 -0.1594  0.1767 -0.2562
 8079SOL    HW135699   2.883   2.068  12.666 -0.5571  0.2369 -0.1849
 8079SOL    HW235700   2.905   1.963  12.561  0.4258 -0.1870  0.0692
 8080SOL     OW35701   2.958   1.121   9.565 -0.3497 -0.3272 -0.3745
 8080SOL    HW135702   2.887   1.127   9.629  0.5634 -1.2203  0.7288
 8080SOL    HW235703   2.909   1.090   9.489  1.5342  0.0141 -1.7067
 8081SOL     OW35704   1.526   4.099   5.004 -0.5179 -0.0252 -0.5484
 8081SOL    HW135705   1.566   4.176   5.042  0.9744 -1.9559  1.7734
 8081SOL    HW235706   1.487   4.136   4.925 -0.8919  2.0646  0.6295
 8082SOL     OW35707   3.955   4.316  12.370 -0.8613  0.0022  0.1354
 8082SOL    HW135708   3.975   4.409  12.354 -0.9610 -0.1308 -0.7857
 8082SOL    HW235709   3.899   4.294  12.295  0.0627 -1.0134 -0.2484
 8083SOL     OW35710   3.334   4.047   5.290 -1.0291  0.2458 -0.0792
 8083SOL    HW135711   3.347   4.141   5.300 -0.0478  0.1233 -0.2377
 8083SOL    HW235712   3.377   4.028   5.373  0.3342  0.9356 -0.6266
 8084SOL     OW35713   3.827   4.339   6.415 -0.3339 -0.3659  0.7948
 8084SOL    HW135714   3.793   4.425   6.436  0.6643  0.2637 -0.1634
 8084SOL    HW235715   3.871   4.361   6.333  0.4759 -1.7026  0.8575
 8085SOL     OW35716   3.465   4.419   1.358  0.2886 -0.4966 -0.0802
 8085SOL    HW135717   3.387   4.464   1.327  0.4129 -0.3400 -0.1657
 8085SOL    HW235718   3.448   4.438   1.451 -1.5028 -0.4113 -0.4231
 8086SOL     OW35719   0.044   2.799   7.653 -0.4200 -0.2344  0.0874
 8086SOL    HW135720   4.676   2.818   7.669 -0.1127  2.2826 -1.2308
 8086SOL    HW235721   0.060   2.754   7.736 -2.2786 -0.1593  0.4909
 8087SOL     OW35722   3.121   3.973   2.889 -0.3399  0.3588 -0.1959
 8087SOL    HW135723   3.153   3.942   2.973 -1.5465  0.4917  0.2989
 8087SOL    HW235724   3.195   3.951   2.832 -0.0866  1.3086 -0.2501
 8088SOL     OW35725   4.345   1.788  11.450  0.3031 -0.1522 -0.0700
 8088SOL    HW135726   4.427   1.835  11.456  1.0852 -1.3368 -1.6438
 8088SOL    HW235727   4.378   1.700  11.433  2.5635  0.8073 -0.6325
 8089SOL     OW35728   0.077   2.022   9.002 -0.0065  0.0654 -0.3418
 8089SOL    HW135729   0.030   2.103   9.021  1.7883  0.9372  0.3716
 8089SOL    HW235730   0.169   2.049   9.005 -0.5812  2.1209 -1.5063
 8090SOL     OW35731   0.600   2.396   4.311 -0.3286  0.3462 -0.1932
 8090SOL    HW135732   0.650   2.321   4.278 -0.6061 -0.7138  1.8230
 8090SOL    HW235733   0.654   2.421   4.385 -1.2910  1.5804  0.1012
 8091SOL     OW35734   2.042   0.560   5.843 -0.0153  0.3400  0.5333
 8091SOL    HW135735   1.949   0.557   5.821 -0.0029  3.2134  0.0804
 8091SOL    HW235736   2.061   0.651   5.865  1.4383  0.7324 -2.4134
 8092SOL     OW35737   2.559   3.097   4.709 -0.6110 -0.4567  0.0606
 8092SOL    HW135738   2.584   3.063   4.623 -1.4921  0.6643 -0.6454
 8092SOL    HW235739   2.624   3.165   4.731 -2.7844  1.3050  1.0190
 8093SOL     OW35740   1.852   2.001   9.456  0.4488  0.0700 -0.4837
 8093SOL    HW135741   1.930   2.027   9.408  0.8410  0.4350  0.3473
 8093SOL    HW235742   1.787   2.026   9.390 -1.0669 -0.3945  0.8330
 8094SOL     OW35743   4.190   4.483   4.746 -0.1379 -0.2630 -0.4742
 8094SOL    HW135744   4.276   4.498   4.786  1.1698 -1.7855 -2.7298
 8094SOL    HW235745   4.217   4.427   4.673  2.3951 -0.5152  0.6405
 8095SOL     OW35746   2.320   1.609  14.800  0.1396 -0.2982  0.1543
 8095SOL    HW135747   2.248   1.667  14.778 -1.5694 -3.1559 -1.8568
 8095SOL    HW235748   2.294   1.517  14.790  2.0317 -0.8833  0.4773
 8096SOL     OW35749   2.879   4.057  14.087 -0.0448  0.1181  0.6091
 8096SOL    HW135750   2.932   4.136  14.101  0.4288  0.0817 -1.0371
 8096SOL    HW235751   2.897   4.007  14.167 -1.8750  0.2059  1.0668
 8097SOL     OW35752   4.450   4.690   3.721  0.4889 -0.3236 -0.3282
 8097SOL    HW135753   4.402   0.019   3.658  0.4337  1.0318  0.8626
 8097SOL    HW235754   4.373   4.674   3.775 -0.4268 -1.4709 -1.9700
 8098SOL     OW35755   3.650   3.432   6.935  0.4385 -0.2412  0.2594
 8098SOL    HW135756   3.633   3.341   6.910 -0.2366 -0.1651  0.4515
 8098SOL    HW235757   3.620   3.432   7.026  2.8177  0.2802  1.0565
 8099SOL     OW35758   0.389   1.689   2.314  0.0635  0.4478  0.2093
 8099SOL    HW135759   0.422   1.609   2.355 -0.2050 -0.5261 -1.4767
 8099SOL    HW235760   0.298   1.668   2.292  0.3144 -1.1226  0.6407
 8100SOL     OW35761   2.872   2.154  11.824 -0.0637  0.2916 -0.1580
 8100SOL    HW135762   2.886   2.122  11.913  1.2459 -0.3009 -0.5717
 8100SOL    HW235763   2.802   2.092  11.804  1.4788 -1.9660  1.4196
 8101SOL     OW35764   0.468   2.225   8.187 -0.4521 -0.6044 -0.0655
 8101SOL    HW135765   0.505   2.154   8.239 -0.1248 -0.9667 -0.7977
 8101SOL    HW235766   0.428   2.279   8.256  0.1966 -0.6686  0.3564
 8102SOL     OW35767   3.924   1.975   6.351  0.4330  0.3228 -0.1172
 8102SOL    HW135768   4.004   2.023   6.370  1.2241 -1.1761  0.3223
 8102SOL    HW235769   3.947   1.882   6.347 -0.0107  0.2269 -0.4509
 8103SOL     OW35770   2.918   0.551   5.206  0.2107 -0.0624  0.4524
 8103SOL    HW135771   2.946   0.596   5.286  1.4481 -0.7017  0.3748
 8103SOL    HW235772   2.978   0.584   5.139  0.0006 -0.8268 -0.1041
 8104SOL     OW35773   1.994   4.655   8.022  0.1557  0.5449 -0.4387
 8104SOL    HW135774   1.999   4.691   8.111  0.0708  1.5514 -0.8439
 8104SOL    HW235775   2.026   4.567   8.042  2.3202  1.1941 -1.0542
 8105SOL     OW35776   0.196   1.427   8.009  0.5258  0.4662  0.3897
 8105SOL    HW135777   0.172   1.516   8.034  0.2806  1.1126 -2.2067
 8105SOL    HW235778   0.235   1.444   7.924 -0.3571 -0.1106 -0.1282
 8106SOL     OW35779   3.193   2.351   8.707 -0.6012  0.0697  0.6087
 8106SOL    HW135780   3.184   2.353   8.802  0.3038  1.3256  0.6607
 8106SOL    HW235781   3.132   2.279   8.688 -2.6237  1.8718  0.3552
 8107SOL     OW35782   3.158   0.289   4.388 -0.7345 -0.4254 -0.2868
 8107SOL    HW135783   3.187   0.284   4.479 -1.5143  1.4985  0.0791
 8107SOL    HW235784   3.068   0.322   4.400 -0.4115  0.1255  0.6683
 8108SOL     OW35785   1.143   0.327   8.868  0.7315 -0.1636  0.1193
 8108SOL    HW135786   1.064   0.343   8.919  0.1256 -1.4223 -0.4142
 8108SOL    HW235787   1.117   0.242   8.832  1.2583  0.4823 -1.7821
 8109SOL     OW35788   0.795   4.399  17.563 -0.5095  0.1673 -0.3682
 8109SOL    HW135789   0.735   4.325  17.570  0.1939 -0.2757  0.9213
 8109SOL    HW235790   0.859   4.357  17.505  0.5314 -0.2199  1.0567
 8110SOL     OW35791   0.522   0.405   8.605 -0.0070  0.2601  0.0515
 8110SOL    HW135792   0.473   0.482   8.635 -0.1491 -0.4342  1.5724
 8110SOL    HW235793   0.479   0.338   8.658 -0.7627 -0.8506 -1.9604
 8111SOL     OW35794   3.163   1.031   1.573 -0.3871  0.3566 -0.7237
 8111SOL    HW135795   3.247   1.074   1.559 -0.7885  2.0313  2.1381
 8111SOL    HW235796   3.172   0.985   1.656 -1.7222 -1.0690 -1.3749
 8112SOL     OW35797   4.017   2.729   8.489  0.3049  0.1862 -0.6232
 8112SOL    HW135798   3.994   2.636   8.488  2.6124 -0.3628 -1.0498
 8112SOL    HW235799   4.064   2.724   8.572 -1.2028  1.4445  0.3080
 8113SOL     OW35800   1.212   2.248   8.501 -0.3974 -0.3813  0.1784
 8113SOL    HW135801   1.203   2.332   8.547 -2.1653 -0.2514 -0.3956
 8113SOL    HW235802   1.303   2.253   8.472  0.1374 -0.4266  1.8706
 8114SOL     OW35803   0.535   4.555   4.522  0.3934 -0.0830  0.2369
 8114SOL    HW135804   0.495   4.589   4.442  0.3857 -0.5468  0.0431
 8114SOL    HW235805   0.533   4.630   4.582  3.3915  0.5682 -0.4817
 8115SOL     OW35806   2.438   4.463  16.059  0.2670 -0.4264  0.0372
 8115SOL    HW135807   2.362   4.514  16.033  1.3234 -0.5213 -3.2121
 8115SOL    HW235808   2.507   4.521  16.026  1.7679 -2.4061 -0.3443
 8116SOL     OW35809   3.348   3.088   7.684  0.3754 -0.9909 -0.3450
 8116SOL    HW135810   3.293   3.062   7.757 -0.8141 -1.2234 -1.3324
 8116SOL    HW235811   3.379   3.006   7.647 -0.7069 -1.2977 -0.5692
 8117SOL     OW35812   4.165   3.904  12.474 -0.2196  0.1298 -1.1177
 8117SOL    HW135813   4.105   3.909  12.400  0.0933  1.5993 -1.2795
 8117SOL    HW235814   4.169   3.996  12.502 -0.4557  0.2945 -1.6302
 8118SOL     OW35815   1.460   3.110   6.922 -0.0548 -0.0590 -0.1355
 8118SOL    HW135816   1.440   3.077   6.835  0.5290  0.8630 -0.6152
 8118SOL    HW235817   1.482   3.022   6.953 -2.1110 -0.3036  0.6093
 8119SOL     OW35818   0.853   4.172   7.110 -0.3288 -0.4300 -0.0158
 8119SOL    HW135819   0.828   4.257   7.073 -1.2536 -1.0625 -0.8608
 8119SOL    HW235820   0.812   4.165   7.196 -0.4158  1.2872  0.0892
 8120SOL     OW35821   0.910   4.403   3.321  0.0883  0.2778 -0.0698
 8120SOL    HW135822   0.877   4.378   3.234  3.6121  1.1501 -1.6488
 8120SOL    HW235823   0.963   4.326   3.340  0.0497 -0.1633 -1.7216
 8121SOL     OW35824   0.301   4.492  12.802  0.5866 -0.7496 -0.1706
 8121SOL    HW135825   0.344   4.503  12.717  0.4727  3.1604  0.3104
 8121SOL    HW235826   0.211   4.475  12.774  0.4139 -1.1839  0.6474
 8122SOL     OW35827   2.863   4.458   1.307 -0.3102  0.1131 -0.1641
 8122SOL    HW135828   2.908   4.381   1.341  2.0212  0.2342 -2.9761
 8122SOL    HW235829   2.774   4.429   1.327  0.1236 -1.6456 -0.7695
 8123SOL     OW35830   3.404   3.408   1.041 -0.2087  0.1565 -0.4565
 8123SOL    HW135831   3.445   3.353   0.975 -1.3237 -2.9780  1.4754
 8123SOL    HW235832   3.365   3.343   1.099  1.1071  0.4854  0.7799
 8124SOL     OW35833   0.062   0.695   3.915 -0.2098  0.5468 -0.4220
 8124SOL    HW135834   0.149   0.724   3.887  0.0420  0.1328 -0.0646
 8124SOL    HW235835   0.012   0.714   3.836 -0.4067 -1.2916 -0.7377
 8125SOL     OW35836   3.753   3.950   5.998  0.1265  0.7047 -0.4158
 8125SOL    HW135837   3.797   3.936   6.081 -3.2585 -0.3134  1.2009
 8125SOL    HW235838   3.669   3.989   6.021 -0.3285  0.5983 -1.8530
 8126SOL     OW35839   0.889   0.123   2.132 -0.3895  0.4298 -0.7458
 8126SOL    HW135840   0.810   0.089   2.173  0.5471  1.4470  1.9188
 8126SOL    HW235841   0.877   0.111   2.038 -1.5084 -0.1750 -0.5138
 8127SOL     OW35842   3.702   2.604   7.970 -0.0655  0.2551 -0.5181
 8127SOL    HW135843   3.654   2.687   7.972 -2.2224 -1.0604  1.4138
 8127SOL    HW235844   3.782   2.640   8.009 -0.0138  1.0515 -1.3407
 8128SOL     OW35845   3.566   0.148   3.214  0.2680 -0.0910 -0.1987
 8128SOL    HW135846   3.547   0.216   3.279  2.2058 -0.1309  0.4134
 8128SOL    HW235847   3.482   0.104   3.201  0.3511 -0.3797  0.2761
 8129SOL     OW35848   1.049   1.965  13.956  0.1404  0.3097 -0.2960
 8129SOL    HW135849   0.966   1.928  13.927 -0.2329  0.8501  0.0818
 8129SOL    HW235850   1.053   1.930  14.045  1.2816  0.7106 -0.1884
 8130SOL     OW35851   0.203   3.947   4.101  0.1178  0.0559 -0.0686
 8130SOL    HW135852   0.239   3.906   4.023  0.6401  0.8342 -0.2353
 8130SOL    HW235853   0.251   3.891   4.161 -0.8862 -2.1494 -1.3411
 8131SOL     OW35854   3.422   1.181  10.318  0.3402 -0.3885 -0.0360
 8131SOL    HW135855   3.379   1.101  10.347  4.1525 -1.7550  1.9437
 8131SOL    HW235856   3.353   1.242  10.293  0.2466 -0.1209  0.8560
 8132SOL     OW35857   0.986   0.139   5.116  0.0617 -0.4761  0.5124
 8132SOL    HW135858   1.031   0.219   5.146 -1.8661  0.5475  0.6620
 8132SOL    HW235859   1.031   0.147   5.032 -1.7632 -0.5708 -0.4703
 8133SOL     OW35860   3.790   4.559   1.233  0.2680  0.1519 -0.2119
 8133SOL    HW135861   3.873   4.555   1.184 -0.2072  0.7751 -1.0669
 8133SOL    HW235862   3.819   4.551   1.324 -0.2272 -1.4963 -0.1899
 8134SOL     OW35863   3.753   1.172  10.859 -0.0756 -0.2835 -0.4377
 8134SOL    HW135864   3.836   1.165  10.907  0.4760  1.7466 -1.0890
 8134SOL    HW235865   3.751   1.086  10.817  0.6447 -1.5076  2.0771
 8135SOL     OW35866   4.462   4.243   2.809 -0.2808 -0.5435  0.5760
 8135SOL    HW135867   4.496   4.309   2.749 -0.2401 -1.1066 -0.0149
 8135SOL    HW235868   4.381   4.224   2.761 -1.0377  0.7351  1.3275
 8136SOL     OW35869   0.094   1.401  13.516 -0.6788 -0.3915 -0.1818
 8136SOL    HW135870   0.129   1.459  13.449  0.0312  0.5371  0.9929
 8136SOL    HW235871   0.092   1.317  13.470 -1.7453  0.6798 -2.1046
 8137SOL     OW35872   4.307   0.634   4.648 -0.2549  0.1238  0.0560
 8137SOL    HW135873   4.321   0.723   4.616  0.7130 -1.0759 -2.8323
 8137SOL    HW235874   4.217   0.610   4.625 -1.1065  0.7789  2.6962
 8138SOL     OW35875   3.192   2.918   8.388 -0.0050 -0.8294 -0.2214
 8138SOL    HW135876   3.111   2.909   8.438 -0.2337 -1.0392 -0.6282
 8138SOL    HW235877   3.261   2.909   8.454  1.1958 -0.8240 -1.4683
 8139SOL     OW35878   4.425   1.739   3.475 -0.2318 -0.0877  0.6352
 8139SOL    HW135879   4.401   1.693   3.395  0.2760 -0.1909  0.5421
 8139SOL    HW235880   4.470   1.811   3.431  2.2476 -1.9413  0.1895
 8140SOL     OW35881   3.046   0.931   0.840 -0.1863  0.3364  0.5760
 8140SOL    HW135882   3.138   0.951   0.853 -0.6380  1.9028  1.3620
 8140SOL    HW235883   3.031   0.965   0.752 -1.8429  0.4501  0.8857
 8141SOL     OW35884   4.048   0.120   9.001 -0.0612  0.8600 -0.1055
 8141SOL    HW135885   4.108   0.047   8.987  0.1098  1.0563 -0.3852
 8141SOL    HW235886   4.067   0.145   9.092  1.5105  0.0625 -0.2092
 8142SOL     OW35887   4.320   0.372  15.147  0.1604 -0.3224  0.1519
 8142SOL    HW135888   4.232   0.409  15.142  0.2143 -0.2019  0.0794
 8142SOL    HW235889   4.339   0.336  15.060  1.4995  1.1993 -0.2059
 8143SOL     OW35890   4.682   2.543   1.183 -0.7497 -0.0107 -0.0811
 8143SOL    HW135891   0.012   2.545   1.104  2.9849  1.0521  2.5280
 8143SOL    HW235892   4.677   2.635   1.208 -0.7211 -0.3170  1.0745
 8144SOL     OW35893   1.464   2.425   1.155 -1.1396 -0.3911  0.0573
 8144SOL    HW135894   1.459   2.369   1.078 -1.8702  1.4991 -1.2697
 8144SOL    HW235895   1.370   2.430   1.170 -1.0751 -1.3187  0.7595
 8145SOL     OW35896   2.899   0.385   8.105  0.7960 -0.1070  0.0090
 8145SOL    HW135897   2.878   0.326   8.177 -1.2818  0.2031 -0.3201
 8145SOL    HW235898   2.871   0.331   8.031  0.7234  0.4032 -0.3366
 8146SOL     OW35899   1.752   3.078   3.776 -0.5605  0.6953 -0.3139
 8146SOL    HW135900   1.696   3.145   3.737  0.0569  0.7489 -1.1138
 8146SOL    HW235901   1.688   3.018   3.815  0.8757 -0.6753 -0.0451
 8147SOL     OW35902   1.591   1.563   3.665  0.3131 -0.6633  0.3758
 8147SOL    HW135903   1.663   1.576   3.604  0.2185 -0.6454  0.2672
 8147SOL    HW235904   1.554   1.478   3.641 -0.4193 -0.5612  1.1468
 8148SOL     OW35905   3.012   4.107   8.605 -0.5492  0.3644 -0.1461
 8148SOL    HW135906   3.083   4.044   8.612 -1.4834 -0.3526  2.5351
 8148SOL    HW235907   3.015   4.153   8.689 -0.0228  1.9641 -1.0392
 8149SOL     OW35908   4.476   2.267   9.630  0.1022 -0.3915  0.0364
 8149SOL    HW135909   4.558   2.287   9.584  0.5715  0.0788  1.0902
 8149SOL    HW235910   4.485   2.326   9.704  0.9967  0.9949 -1.1691
 8150SOL     OW35911   2.893   1.681   2.646  0.2363 -0.5051  0.0451
 8150SOL    HW135912   2.850   1.713   2.725 -1.8914 -0.5181 -1.1319
 8150SOL    HW235913   2.859   1.744   2.583 -1.1012 -1.5221 -0.2516
 8151SOL     OW35914   4.239   1.843   6.001  0.0969 -0.9814  0.0644
 8151SOL    HW135915   4.287   1.798   5.932 -0.6819 -1.2079 -0.3334
 8151SOL    HW235916   4.152   1.804   5.995  0.4206 -1.4652 -1.3069
 8152SOL     OW35917   2.120   3.686  17.623 -0.5396  0.3563 -0.3120
 8152SOL    HW135918   2.039   3.732  17.601 -0.4686  0.8103  0.3971
 8152SOL    HW235919   2.096   3.654   0.010  3.2980  0.6231  0.8525
 8153SOL     OW35920   3.379   3.808   8.817 -0.1139 -0.3031  0.0365
 8153SOL    HW135921   3.472   3.815   8.795 -0.1008 -1.4796 -0.2480
 8153SOL    HW235922   3.369   3.713   8.824 -3.3328 -0.0111 -0.9362
 8154SOL     OW35923   4.319   2.468   5.389  0.5755 -0.3569 -0.5622
 8154SOL    HW135924   4.347   2.391   5.437 -2.9617 -1.1198  0.2684
 8154SOL    HW235925   4.230   2.480   5.423  0.8613  0.0284  0.0457
 8155SOL     OW35926   3.952   3.026   3.246  0.5131  0.0887  0.2148
 8155SOL    HW135927   3.892   3.089   3.286 -0.0356 -1.0618  1.2104
 8155SOL    HW235928   4.011   3.002   3.317 -0.5552 -1.7343  0.4814
 8156SOL     OW35929   2.114   2.055   8.316 -0.4165 -0.2818  0.0107
 8156SOL    HW135930   2.060   2.056   8.395 -0.2868 -1.7625  0.1236
 8156SOL    HW235931   2.125   2.147   8.292 -2.1764 -0.5742 -1.9725
 8157SOL     OW35932   0.738   3.581   2.560  0.2641 -0.0400  0.4487
 8157SOL    HW135933   0.778   3.653   2.608 -1.2343  0.3808  1.0786
 8157SOL    HW235934   0.784   3.504   2.594  0.2551 -0.9566 -1.6313
 8158SOL     OW35935   2.174   1.219   0.808 -0.2728 -0.0812 -0.4407
 8158SOL    HW135936   2.197   1.144   0.752 -1.9056 -1.2633  0.4923
 8158SOL    HW235937   2.198   1.191   0.896 -1.4521 -1.1461 -0.4615
 8159SOL     OW35938   4.498   3.937   1.164 -0.1581 -0.4437 -0.1287
 8159SOL    HW135939   4.529   3.997   1.097 -1.9515  0.0875 -0.4824
 8159SOL    HW235940   4.426   3.978   1.211  1.5580  0.5715  1.6300
 8160SOL     OW35941   3.266   3.123   6.125 -0.3142  0.0349 -0.3224
 8160SOL    HW135942   3.340   3.183   6.117  1.2096 -1.7712  0.2990
 8160SOL    HW235943   3.195   3.173   6.085 -1.2986  0.0195  1.4295
 8161SOL     OW35944   4.512   3.506  17.581  0.1291 -0.3669  0.1129
 8161SOL    HW135945   4.565   3.510  17.502  2.3186 -2.4464  1.4795
 8161SOL    HW235946   4.512   3.600  17.599  0.9050 -0.0186 -1.7571
 8162SOL     OW35947   3.781   0.300   4.749 -0.2313  0.8257  0.5553
 8162SOL    HW135948   3.857   0.257   4.708 -2.1016 -0.9194 -1.0792
 8162SOL    HW235949   3.820   0.306   4.836  1.8130  1.0337 -0.3686
 8163SOL     OW35950   1.576   0.016   3.873  0.3252  0.0122  0.1698
 8163SOL    HW135951   1.498   4.685   3.881 -0.4747  1.0465 -0.4918
 8163SOL    HW235952   1.596   0.035   3.964 -1.2581 -0.5671  0.6384
 8164SOL     OW35953   1.990   0.696   8.077  0.8658  0.4739  0.2766
 8164SOL    HW135954   1.974   0.619   8.022 -1.4578  0.0135  1.5764
 8164SOL    HW235955   2.003   0.654   8.162  0.1232  1.0564  0.6801
 8165SOL     OW35956   3.949   2.318  10.203 -0.0548  0.0539  0.1549
 8165SOL    HW135957   3.862   2.304  10.164  0.1841  0.2219 -0.4428
 8165SOL    HW235958   3.929   2.397  10.252  2.2751  1.6544 -1.4938
 8166SOL     OW35959   0.747   1.467   5.922  0.2900  0.1522  0.0924
 8166SOL    HW135960   0.689   1.526   5.970  1.7216  0.7481  1.0825
 8166SOL    HW235961   0.706   1.381   5.936 -1.3852  0.8136 -0.6404
 8167SOL     OW35962   2.474   2.460   3.033  0.4476 -0.0597  0.0036
 8167SOL    HW135963   2.434   2.395   3.090 -1.8549  1.2388 -0.1356
 8167SOL    HW235964   2.410   2.457   2.961 -0.5931 -1.6701  1.0091
 8168SOL     OW35965   0.225   3.842  15.468  0.0347  0.3971  0.4955
 8168SOL    HW135966   0.200   3.869  15.557 -0.0848  0.3024  0.4891
 8168SOL    HW235967   0.213   3.749  15.483 -1.3043  0.2806 -1.3651
 8169SOL     OW35968   2.502   1.490   3.314 -0.3904 -0.4444 -0.4876
 8169SOL    HW135969   2.462   1.449   3.391 -0.6058  1.3535  0.3470
 8169SOL    HW235970   2.456   1.573   3.327 -0.0441 -0.3199 -0.0574
 8170SOL     OW35971   1.683   2.741  10.171 -0.0553  0.3627  0.6120
 8170SOL    HW135972   1.761   2.686  10.163  0.8586  1.7096  0.1815
 8170SOL    HW235973   1.625   2.687  10.224 -0.8890 -0.8699 -1.5564
 8171SOL     OW35974   3.347   4.006   3.974  0.0788 -0.2209 -0.3290
 8171SOL    HW135975   3.305   4.089   3.994 -1.3851 -0.5287 -2.0551
 8171SOL    HW235976   3.414   3.998   4.042 -2.2630 -0.0712  1.9791
 8172SOL     OW35977   1.710   4.337   9.855 -0.3246  0.2797 -0.0465
 8172SOL    HW135978   1.657   4.292   9.789 -0.5881  0.7033 -0.1271
 8172SOL    HW235979   1.760   4.263   9.889  2.3918  1.2914 -1.8575
 8173SOL     OW35980   3.428   3.015   9.335  0.7931  0.1425  0.3513
 8173SOL    HW135981   3.374   3.046   9.263  1.1806 -0.4790 -0.2111
 8173SOL    HW235982   3.477   2.945   9.291 -1.5423 -0.9761 -0.4599
 8174SOL     OW35983   0.493   2.973   4.241  0.1878  0.1857 -0.7008
 8174SOL    HW135984   0.514   2.925   4.161  0.8521  1.2666 -1.1697
 8174SOL    HW235985   0.422   3.035   4.226  1.5490  2.0510  0.5422
 8175SOL     OW35986   2.070   0.653   5.228  0.6148 -0.1956  0.2028
 8175SOL    HW135987   1.997   0.660   5.289  1.5467  1.5546  1.1250
 8175SOL    HW235988   2.138   0.644   5.295  0.3176  0.8728  0.6404
 8176SOL     OW35989   0.445   1.476  17.310  1.0170 -0.0741 -0.0923
 8176SOL    HW135990   0.464   1.551  17.368  0.5576  0.0773 -0.1438
 8176SOL    HW235991   0.526   1.470  17.260  0.7413 -0.2710 -0.5079
 8177SOL     OW35992   3.324   3.817   2.188  0.0501 -0.1060  0.3765
 8177SOL    HW135993   3.272   3.856   2.258 -1.0519 -3.8974  1.6446
 8177SOL    HW235994   3.362   3.890   2.139  0.2582 -2.3847 -2.8416
 8178SOL     OW35995   0.091   0.218   3.358  0.0554  0.4679  0.2672
 8178SOL    HW135996   0.101   0.124   3.370 -0.7282  0.6068  1.9992
 8178SOL    HW235997   0.071   0.221   3.265  0.0020 -2.3882  0.1912
 8179SOL     OW35998   2.667   2.836   6.567 -0.1640  0.2420 -0.4200
 8179SOL    HW135999   2.728   2.909   6.569  0.7968 -0.5560 -0.2748
 8179SOL    HW236000   2.639   2.840   6.476  0.9334 -2.0136 -0.8591
 8180SOL     OW36001   1.928   3.184   1.349  0.0106  0.0919  0.0568
 8180SOL    HW136002   2.000   3.245   1.366 -0.7626  0.7625  0.9404
 8180SOL    HW236003   1.873   3.251   1.308 -0.4362 -1.7535 -2.3121
 8181SOL     OW36004   1.083   3.674   4.216  0.0120  0.1449  0.2028
 8181SOL    HW136005   1.027   3.621   4.273  0.6598  0.4324  1.1230
 8181SOL    HW236006   1.169   3.632   4.219 -0.9609 -1.8857 -0.7748
 8182SOL     OW36007   2.401   0.070   8.363 -0.1864 -0.2220  0.3727
 8182SOL    HW136008   2.466   0.138   8.344  0.3663 -0.7147  0.4854
 8182SOL    HW236009   2.334   0.101   8.302 -0.5933 -0.0449  0.9085
 8183SOL     OW36010   2.109   3.609   3.700 -0.3670  0.2248  0.0266
 8183SOL    HW136011   2.075   3.566   3.779  3.4904 -0.5281  1.3144
 8183SOL    HW236012   2.062   3.553   3.638 -1.1294  2.3573 -1.3173
 8184SOL     OW36013   4.667   3.976   4.006 -0.2352 -0.2091  0.5899
 8184SOL    HW136014   0.032   4.000   4.031  1.2624 -1.4424 -3.5907
 8184SOL    HW236015   4.668   3.889   4.046  2.2698 -0.6896 -0.5420
 8185SOL     OW36016   3.321   1.689   4.210 -0.3911  0.1392  0.6165
 8185SOL    HW136017   3.307   1.615   4.150 -0.6862  0.9646 -0.3239
 8185SOL    HW236018   3.237   1.689   4.255 -1.5074 -0.0666 -1.4466
 8186SOL     OW36019   0.869   2.197  10.822  1.1439 -0.5089  0.1346
 8186SOL    HW136020   0.855   2.269  10.882  0.1034  0.5037 -1.3241
 8186SOL    HW236021   0.786   2.149  10.821  0.2627  1.0450 -0.5301
 8187SOL     OW36022   4.173   0.135   7.006  0.6594  0.4318  0.1042
 8187SOL    HW136023   4.095   0.086   6.981 -0.1718  0.9065  1.7671
 8187SOL    HW236024   4.159   0.204   6.941 -2.5849 -0.3353  0.0083
 8188SOL     OW36025   1.197   2.444   7.806 -0.2899 -0.0300  0.0534
 8188SOL    HW136026   1.109   2.433   7.769 -0.5928 -1.8226  1.3255
 8188SOL    HW236027   1.240   2.358   7.799  1.0571  0.6513 -0.0710
 8189SOL     OW36028   0.822   0.876   9.950  0.6806 -0.0395 -0.1370
 8189SOL    HW136029   0.854   0.790   9.924 -1.3204 -0.3274 -1.5835
 8189SOL    HW236030   0.896   0.930   9.922 -0.3075  1.2237 -0.3230
 8190SOL     OW36031   1.117   0.474   3.944 -0.4423 -0.2953  0.0754
 8190SOL    HW136032   1.180   0.450   4.012 -2.3736  1.6141  2.5777
 8190SOL    HW236033   1.171   0.532   3.890 -0.9528  0.2840  0.1793
 8191SOL     OW36034   2.839   1.766   6.768 -0.7130 -0.1259 -0.2825
 8191SOL    HW136035   2.781   1.801   6.700 -2.5787  0.8430  1.8047
 8191SOL    HW236036   2.909   1.828   6.786 -1.7792  1.1009 -0.3510
 8192SOL     OW36037   3.043   3.104   8.886  0.6205 -0.0793 -0.1666
 8192SOL    HW136038   2.957   3.089   8.925  0.6558 -0.7799 -0.3573
 8192SOL    HW236039   3.026   3.070   8.798  1.5774  0.9786 -0.7576
 8193SOL     OW36040   1.902   1.211   7.286  0.6076 -0.2643 -0.1874
 8193SOL    HW136041   1.952   1.140   7.325  2.7432  0.0857 -2.2648
 8193SOL    HW236042   1.968   1.256   7.233  1.1984  0.7293  1.3729
 8194SOL     OW36043   0.007   4.133   7.078 -0.5366 -0.0066  0.0981
 8194SOL    HW136044   0.038   4.102   7.162 -0.3186  0.2605  0.1174
 8194SOL    HW236045   0.079   4.109   7.019 -1.5420 -1.6727 -0.4444
 8195SOL     OW36046   1.381   2.020   9.376  0.1178  0.2349 -0.1367
 8195SOL    HW136047   1.295   2.039   9.340 -0.3604 -0.1638  0.8016
 8195SOL    HW236048   1.388   2.095   9.434 -2.0287 -1.2521  2.0488
 8196SOL     OW36049   0.215   3.499  17.664 -0.2284  0.3028  0.2129
 8196SOL    HW136050   0.213   3.408  17.693 -1.9012  0.4765  0.6654
 8196SOL    HW236051   0.123   3.527  17.656 -0.7239 -1.9111 -1.6356
 8197SOL     OW36052   0.111   3.184  11.063  0.6271 -0.1609 -0.1881
 8197SOL    HW136053   0.113   3.172  10.969 -1.3127  2.4428 -0.5555
 8197SOL    HW236054   0.203   3.212  11.072  0.8829 -1.3682  0.9900
 8198SOL     OW36055   4.674   2.980   5.199  0.2900 -0.1214  0.0617
 8198SOL    HW136056   4.633   3.062   5.172  0.1274 -0.6388 -1.2206
 8198SOL    HW236057   0.005   2.971   5.122 -0.4264  2.0266 -0.6862
 8199SOL     OW36058   4.644   2.221   4.202 -0.0842 -0.6524 -0.5116
 8199SOL    HW136059   4.635   2.175   4.119 -1.2839 -0.6662 -0.3795
 8199SOL    HW236060   4.701   2.167   4.255 -0.0614  3.8122  4.0381
 8200SOL     OW36061   2.302   0.759   8.136  0.0680  0.2442  0.0288
 8200SOL    HW136062   2.224   0.722   8.177 -0.5260  2.8322  1.2406
 8200SOL    HW236063   2.314   0.840   8.185  0.5020  0.2289 -0.0531
 8201SOL     OW36064   3.187   1.016  17.096  0.2958 -0.3992  0.1624
 8201SOL    HW136065   3.267   1.025  17.148  1.0478 -3.8294 -0.4040
 8201SOL    HW236066   3.210   1.055  17.011 -0.5572 -1.3601 -0.5077
 8202SOL     OW36067   2.403   1.287  13.750 -0.3347  0.1401  0.0203
 8202SOL    HW136068   2.481   1.306  13.698 -0.3320  2.3117  0.7962
 8202SOL    HW236069   2.431   1.213  13.804 -0.3186  1.0961  1.3303
 8203SOL     OW36070   2.442   1.050   6.723 -0.3629  0.1305 -0.0121
 8203SOL    HW136071   2.347   1.053   6.718 -0.3269  2.4116  0.6632
 8203SOL    HW236072   2.443   0.954   6.725  0.9753  0.1029 -1.7075
 8204SOL     OW36073   1.196   2.508   3.641 -0.3244 -0.6276  0.5755
 8204SOL    HW136074   1.152   2.464   3.714  1.2555  1.4428  2.7771
 8204SOL    HW236075   1.136   2.582   3.635  0.1777 -0.2123  0.7083
 8205SOL     OW36076   0.400   2.512   2.946  0.0883 -0.4988  0.5864
 8205SOL    HW136077   0.490   2.485   2.964  0.6486 -0.5671 -2.3224
 8205SOL    HW236078   0.356   2.429   2.962 -0.2850 -0.2661  0.7611
 8206SOL     OW36079   3.311   4.035   6.992 -0.1321  0.6094 -0.1533
 8206SOL    HW136080   3.265   4.116   6.970  0.1466  0.0746 -2.6944
 8206SOL    HW236081   3.240   3.978   7.021  0.0578 -0.7511 -2.3927
 8207SOL     OW36082   3.115   3.650   7.864 -0.2306 -0.1984  0.5915
 8207SOL    HW136083   3.120   3.594   7.942  2.1086  0.1776  0.6920
 8207SOL    HW236084   3.184   3.615   7.808  0.0298  2.8910 -0.9854
 8208SOL     OW36085   1.945   0.758   1.794 -0.0347 -0.0471  0.6827
 8208SOL    HW136086   2.031   0.783   1.827 -0.0240 -1.8899  2.1115
 8208SOL    HW236087   1.892   0.834   1.817  0.3790  0.5529 -0.3673
 8209SOL     OW36088   2.606   3.634   5.496  0.1602  0.3286 -0.2160
 8209SOL    HW136089   2.630   3.714   5.543  0.1247  1.3675 -1.9701
 8209SOL    HW236090   2.693   3.595   5.491  0.5092  1.0392  0.3229
 8210SOL     OW36091   0.646   2.534   7.352  0.2091 -0.9143  0.5084
 8210SOL    HW136092   0.681   2.614   7.392  0.1680  1.7500 -4.7837
 8210SOL    HW236093   0.626   2.555   7.261  4.1202 -0.6386 -0.2928
 8211SOL     OW36094   2.506   2.021   2.794 -0.4143  0.5544  0.1323
 8211SOL    HW136095   2.526   2.042   2.885 -1.8061 -0.2033  0.6143
 8211SOL    HW236096   2.426   2.074   2.792 -0.2621  0.7850  0.2504
 8212SOL     OW36097   1.553   2.125   6.107  0.0919 -0.2290 -0.0331
 8212SOL    HW136098   1.536   2.210   6.149 -0.7634  0.0944 -1.0447
 8212SOL    HW236099   1.475   2.114   6.053  0.8235  0.8885 -1.3347
 8213SOL     OW36100   4.502   0.295   4.529  0.2829  0.1814  0.3863
 8213SOL    HW136101   4.576   0.255   4.574  0.0935 -0.1623  0.4005
 8213SOL    HW236102   4.503   0.373   4.584 -0.2640 -0.3808  1.1954
 8214SOL     OW36103   2.935   3.849   5.607  0.7741  0.3001 -0.9705
 8214SOL    HW136104   3.004   3.812   5.550  1.0854 -0.2357 -0.2552
 8214SOL    HW236105   2.955   3.942   5.600  1.7197  0.2505  1.0836
 8215SOL     OW36106   2.912   4.448   6.666 -0.2314 -0.0829  0.2730
 8215SOL    HW136107   2.845   4.469   6.730  0.5288 -0.8616  1.3138
 8215SOL    HW236108   2.990   4.487   6.705  2.1321 -1.5220 -2.9831
 8216SOL     OW36109   4.686   1.738  11.784  0.0612 -0.0733  0.7578
 8216SOL    HW136110   4.657   1.674  11.719 -3.3153 -1.5446  3.7539
 8216SOL    HW236111   0.052   1.753  11.757 -0.2253  0.5577  0.1380
 8217SOL     OW36112   1.122   2.168  10.756  0.1781 -0.2602  0.3692
 8217SOL    HW136113   1.030   2.167  10.782  0.2519 -1.4866  0.5990
 8217SOL    HW236114   1.164   2.188  10.840 -1.0049  0.2109  0.8533
 8218SOL     OW36115   0.339   0.716   6.551  0.4084  0.3965 -0.4269
 8218SOL    HW136116   0.350   0.622   6.564  1.3726  0.5187 -0.3436
 8218SOL    HW236117   0.246   0.735   6.552  0.3240 -0.0159 -0.2962
 8219SOL     OW36118   2.356   1.727   4.992 -0.5621 -0.5742 -0.6370
 8219SOL    HW136119   2.429   1.785   4.970 -0.3948 -0.8501 -0.8073
 8219SOL    HW236120   2.353   1.741   5.087  1.6873  0.4327 -0.7067
 8220SOL     OW36121   2.390   0.159   9.904 -0.3874  0.7880  0.4468
 8220SOL    HW136122   2.434   0.183   9.822 -1.1480  0.2974 -0.0984
 8220SOL    HW236123   2.301   0.135   9.880  0.4234  0.1651 -1.9544
 8221SOL     OW36124   0.247   3.317  14.450  0.6613 -0.0629 -0.3074
 8221SOL    HW136125   0.193   3.238  14.450 -2.1426  1.8346 -0.3926
 8221SOL    HW236126   0.189   3.380  14.408 -0.0580 -1.6315 -1.6724
 8222SOL     OW36127   0.622   1.063   9.095  0.0700 -0.4982 -0.0559
 8222SOL    HW136128   0.707   1.094   9.127 -2.1776  3.7433  1.6420
 8222SOL    HW236129   0.595   1.004   9.165 -1.1254  1.6072  1.2386
 8223SOL     OW36130   4.554   3.288   4.138  0.0803  0.0124  0.0826
 8223SOL    HW136131   4.531   3.363   4.083  0.8556  0.2557  0.0914
 8223SOL    HW236132   4.469   3.278   4.182  0.4568 -3.3113  0.0532
 8224SOL     OW36133   2.720   1.899  13.779  0.0902  0.1741 -0.2166
 8224SOL    HW136134   2.729   1.969  13.714 -2.1101 -0.3188 -1.0556
 8224SOL    HW236135   2.701   1.957  13.853  0.9008 -0.9342  0.8517
 8225SOL     OW36136   4.075   2.205   6.154 -0.5165  0.3742  0.3029
 8225SOL    HW136137   4.165   2.194   6.125 -0.4640  0.9457  0.2514
 8225SOL    HW236138   4.100   2.181   6.243  0.3376  1.8261  0.4668
 8226SOL     OW36139   3.100   0.723   6.067 -0.5501  0.0890 -0.0722
 8226SOL    HW136140   3.159   0.736   6.141 -1.8368 -0.2167  0.9875
 8226SOL    HW236141   3.029   0.777   6.101 -0.3804 -0.4884  1.1752
 8227SOL     OW36142   2.205   1.446  13.276 -0.2786 -0.1078  0.0833
 8227SOL    HW136143   2.123   1.476  13.237  0.0526  1.9029  0.9235
 8227SOL    HW236144   2.268   1.489  13.218 -0.7283  0.4443  0.0018
 8228SOL     OW36145   4.230   3.850   1.709 -0.1123 -0.0992 -0.4618
 8228SOL    HW136146   4.164   3.788   1.738 -0.1364 -0.0396 -0.3882
 8228SOL    HW236147   4.314   3.816   1.741  1.1364  2.5049 -0.9594
 8229SOL     OW36148   1.624   3.727  10.516 -0.7850  0.3088  0.0796
 8229SOL    HW136149   1.694   3.663  10.527 -1.4606 -0.5533 -0.6424
 8229SOL    HW236150   1.671   3.809  10.500 -0.8859  0.3212 -0.1469
 8230SOL     OW36151   1.611   3.740   8.339 -0.3045  0.4877 -0.5915
 8230SOL    HW136152   1.620   3.704   8.427 -1.2146  0.7114 -0.4164
 8230SOL    HW236153   1.588   3.832   8.347 -0.6692  0.1142  2.6076
 8231SOL     OW36154   3.411   1.211   0.712 -0.3544 -0.3405  0.3400
 8231SOL    HW136155   3.479   1.204   0.644 -1.5814 -0.7678 -0.8291
 8231SOL    HW236156   3.331   1.212   0.660  1.2138  0.0549 -2.0676
 8232SOL     OW36157   1.921   3.153   8.184 -0.1586  0.0210  0.2486
 8232SOL    HW136158   2.014   3.144   8.204 -0.2402  2.4471  1.7327
 8232SOL    HW236159   1.931   3.212   8.109  0.6052 -1.3837 -0.7586
 8233SOL     OW36160   0.317   2.417   4.193  0.5175 -0.1779 -0.3887
 8233SOL    HW136161   0.385   2.355   4.166 -0.5447 -1.9256  0.9411
 8233SOL    HW236162   0.327   2.474   4.117  1.1152 -0.8162 -0.7907
 8234SOL     OW36163   0.858   2.933   3.534  0.3856 -0.5974 -0.7517
 8234SOL    HW136164   0.817   3.020   3.539 -0.1989 -0.6884 -3.4869
 8234SOL    HW236165   0.813   2.888   3.605  0.0422  1.8058  0.5494
 8235SOL     OW36166   4.533   4.477   5.660 -0.6311 -0.1829  0.2895
 8235SOL    HW136167   4.502   4.404   5.606 -1.4881 -0.7217  1.4875
 8235SOL    HW236168   4.595   4.531   5.612 -0.2976 -0.7890  0.0399
 8236SOL     OW36169   2.296   2.938   5.186 -0.2737 -0.1315 -0.1793
 8236SOL    HW136170   2.332   3.025   5.205 -1.1320  0.1621  0.1232
 8236SOL    HW236171   2.335   2.872   5.243  2.5068 -0.0956 -2.0190
 8237SOL     OW36172   0.347   1.754   5.881  0.4636 -0.1661  0.0022
 8237SOL    HW136173   0.278   1.773   5.817 -0.0636  1.7816  1.1302
 8237SOL    HW236174   0.370   1.668   5.847 -0.0053  0.2986 -1.4972
 8238SOL     OW36175   4.129   2.663   6.347  0.1243 -0.0356  0.3318
 8238SOL    HW136176   4.200   2.618   6.302 -0.4832 -0.9396  0.2755
 8238SOL    HW236177   4.058   2.655   6.283  2.0468  1.4829 -1.9558
 8239SOL     OW36178   3.789   3.953   0.864  0.3038  0.0290 -0.2126
 8239SOL    HW136179   3.762   4.036   0.904 -1.1874  0.5553 -2.3061
 8239SOL    HW236180   3.831   3.911   0.939 -1.3505  1.3827  1.4985
 8240SOL     OW36181   1.544   3.931   7.498  0.5287 -0.5266 -0.4531
 8240SOL    HW136182   1.626   3.921   7.450  0.3288 -0.3983 -0.8289
 8240SOL    HW236183   1.490   3.863   7.456  0.2417 -0.5452 -0.0586
 8241SOL     OW36184   1.721   3.560  14.054 -0.5760 -0.1719 -0.2032
 8241SOL    HW136185   1.734   3.631  14.117  0.2417 -0.4964 -0.0057
 8241SOL    HW236186   1.662   3.502  14.102 -0.2903  0.8651  1.4099
 8242SOL     OW36187   1.725   0.309   5.306 -0.0016 -0.2487  0.1537
 8242SOL    HW136188   1.751   0.266   5.388  0.6747 -4.0496 -2.0556
 8242SOL    HW236189   1.722   0.242   5.237 -0.8840 -0.0625  0.0117
 8243SOL     OW36190   3.937   1.206   8.442 -0.9283 -0.5224  0.3059
 8243SOL    HW136191   3.868   1.177   8.501 -3.0996  1.9688 -1.0040
 8243SOL    HW236192   3.958   1.124   8.396 -0.3043  0.1674 -0.6268
 8244SOL     OW36193   4.426   3.185   4.574  0.1370  0.3216 -0.1673
 8244SOL    HW136194   4.510   3.164   4.532 -0.4624 -1.3252 -0.5437
 8244SOL    HW236195   4.375   3.107   4.553  0.2521  0.5612 -1.3145
 8245SOL     OW36196   0.236   1.982   7.149  0.9197 -0.2329  0.5289
 8245SOL    HW136197   0.256   1.950   7.237  1.7442 -1.7002 -0.1856
 8245SOL    HW236198   0.222   2.071   7.180  1.5950  0.1710 -0.3463
 8246SOL     OW36199   1.626   2.923   7.661  0.1455 -0.2558  0.3163
 8246SOL    HW136200   1.678   2.973   7.724 -0.0397 -0.3169  0.5170
 8246SOL    HW236201   1.549   2.898   7.712 -2.0038 -1.7396 -3.6304
 8247SOL     OW36202   0.330   4.635   6.403 -0.3006  0.0840 -0.1727
 8247SOL    HW136203   0.361   4.569   6.341 -0.8805 -1.3394  1.0640
 8247SOL    HW236204   0.237   4.613   6.402  0.5169 -3.3791  0.2040
 8248SOL     OW36205   4.408   2.768  15.703 -0.3216  0.3517  0.2279
 8248SOL    HW136206   4.340   2.831  15.729 -0.4318  0.8527 -1.2259
 8248SOL    HW236207   4.423   2.788  15.610 -1.5876  2.4259  0.4778
 8249SOL     OW36208   1.605   2.620   3.079  0.1421 -0.0836  0.2545
 8249SOL    HW136209   1.677   2.681   3.093  0.2240  0.5507 -2.7626
 8249SOL    HW236210   1.645   2.565   3.011  0.3605  2.0330 -1.3546
 8250SOL     OW36211   4.554   2.721  17.010  0.2527 -0.3840 -0.2750
 8250SOL    HW136212   4.548   2.672  16.928 -1.1615  2.2267 -1.7383
 8250SOL    HW236213   4.630   2.686  17.057  0.6913  1.0501  0.0909
 8251SOL     OW36214   3.688   3.729   6.264  0.3466  1.1987  0.4912
 8251SOL    HW136215   3.727   3.813   6.284  0.2256  0.6914  2.8655
 8251SOL    HW236216   3.620   3.723   6.331  0.4739 -0.0105  0.5124
 8252SOL     OW36217   1.367   4.236  13.981 -0.0322 -0.1882  0.0938
 8252SOL    HW136218   1.320   4.214  14.061  1.7565 -1.0560  0.9084
 8252SOL    HW236219   1.295   4.270  13.928 -0.7068 -3.0654 -0.7994
 8253SOL     OW36220   3.204   4.701  11.961  0.5705  0.1938  0.1312
 8253SOL    HW136221   3.201   0.030  12.040  0.0028  0.3355  0.0097
 8253SOL    HW236222   3.241   0.041  11.900  1.2890 -1.6466 -1.3932
 8254SOL     OW36223   3.029   3.392   0.435  0.3425 -0.1123 -0.1046
 8254SOL    HW136224   2.964   3.352   0.492 -0.9303 -0.5002 -1.8083
 8254SOL    HW236225   2.973   3.429   0.366  0.8745  3.0717  1.1380
 8255SOL     OW36226   0.478   3.461   8.154 -0.5773 -0.0859 -0.2382
 8255SOL    HW136227   0.421   3.407   8.100 -0.2954 -0.2934 -0.3307
 8255SOL    HW236228   0.433   3.545   8.156 -1.0365 -0.3537  0.6526
 8256SOL     OW36229   3.199   4.082   8.904  0.4612 -0.0075  0.4543
 8256SOL    HW136230   3.229   3.999   8.869 -0.4300 -0.5861  1.0531
 8256SOL    HW236231   3.280   4.132   8.907  1.2216 -1.1252 -1.8175
 8257SOL     OW36232   2.886   3.899   3.294  0.0112 -0.2665 -0.1491
 8257SOL    HW136233   2.911   3.953   3.218  1.0042  0.3887  0.6398
 8257SOL    HW236234   2.877   3.970   3.357  0.6657 -1.0301  0.8001
 8258SOL     OW36235   3.109   2.523  17.069 -0.6717  0.6299 -0.0571
 8258SOL    HW136236   3.126   2.570  16.988 -0.8267 -0.7826 -0.9123
 8258SOL    HW236237   3.013   2.518  17.070 -0.6984  1.1655 -0.0355
 8259SOL     OW36238   0.472   3.657   4.672  0.0294 -0.8090  0.0323
 8259SOL    HW136239   0.482   3.648   4.767 -4.8043 -0.9367  0.5153
 8259SOL    HW236240   0.555   3.700   4.651 -0.5431 -0.9832 -2.5356
 8260SOL     OW36241   1.694   0.947  12.048  0.0053 -0.2039 -0.0057
 8260SOL    HW136242   1.686   0.946  12.144  2.4731 -1.6703  0.1826
 8260SOL    HW236243   1.778   0.991  12.031 -0.5601  0.5140 -0.9456
 8261SOL     OW36244   2.488   0.928  16.555 -0.0397  0.2086  0.0567
 8261SOL    HW136245   2.476   0.961  16.644  0.4344 -0.2391  0.2832
 8261SOL    HW236246   2.497   1.015  16.516  1.6635  0.3421  0.7489
 8262SOL     OW36247   0.603   4.396   5.364 -0.3945  0.1496  0.4649
 8262SOL    HW136248   0.674   4.356   5.314 -0.2560  1.1945 -0.1591
 8262SOL    HW236249   0.554   4.315   5.380 -0.6204  0.1757 -0.1187
 8263SOL     OW36250   3.052   2.108   6.476  0.5810 -0.1205 -0.0487
 8263SOL    HW136251   3.142   2.086   6.454  0.2145 -1.2446 -0.4343
 8263SOL    HW236252   3.082   2.172   6.540 -1.5552 -1.1026  1.9228
 8264SOL     OW36253   3.234   0.045   9.254  0.0391 -0.5059  0.0230
 8264SOL    HW136254   3.175   0.022   9.325  0.6796 -0.8878  0.4308
 8264SOL    HW236255   3.294   4.695   9.248 -1.3537 -1.5968 -0.3355
 8265SOL     OW36256   4.062   3.966   7.219  0.2932 -0.2105  0.4892
 8265SOL    HW136257   3.977   4.006   7.235  0.5043  0.4917 -0.1696
 8265SOL    HW236258   4.114   4.046   7.210  1.6026 -1.2033 -0.8224
 8266SOL     OW36259   1.518   3.209   6.253  0.9625 -0.0030  0.1854
 8266SOL    HW136260   1.550   3.184   6.340 -0.6362  0.1817  0.8385
 8266SOL    HW236261   1.599   3.202   6.203  0.0159  1.6019 -1.5522
 8267SOL     OW36262   3.512   3.230   7.885 -0.5754 -0.5202  0.3217
 8267SOL    HW136263   3.450   3.185   7.828 -2.1373  0.9351  0.8353
 8267SOL    HW236264   3.507   3.163   7.954 -0.9201 -0.7763  0.0469
 8268SOL     OW36265   0.457   1.923  13.509  0.1709 -0.4246  0.0625
 8268SOL    HW136266   0.392   1.993  13.507  1.4355  0.7403 -0.1346
 8268SOL    HW236267   0.469   1.906  13.416 -2.1098 -1.8053  0.0186
 8269SOL     OW36268   2.694   4.229   8.260  0.0544  0.8734  0.0040
 8269SOL    HW136269   2.621   4.269   8.213 -0.2003 -0.0220 -0.3694
 8269SOL    HW236270   2.662   4.240   8.350  0.6167  4.0056 -0.1856
 8270SOL     OW36271   2.339   2.068   8.905  0.1258 -0.4473 -0.0608
 8270SOL    HW136272   2.356   2.157   8.935  0.6135 -0.5867  0.0835
 8270SOL    HW236273   2.404   2.014   8.951  1.2794  1.6895  0.8449
 8271SOL     OW36274   2.243   4.346   6.861  0.1103  0.1475  0.2341
 8271SOL    HW136275   2.249   4.414   6.795  1.5910 -0.8791 -0.7119
 8271SOL    HW236276   2.283   4.269   6.820  1.7878  0.9443  0.3516
 8272SOL     OW36277   3.237   3.188  14.563  0.2259 -0.4073 -0.3282
 8272SOL    HW136278   3.183   3.174  14.641 -0.5773  0.4213 -0.7311
 8272SOL    HW236279   3.224   3.101  14.523 -1.4670  0.5814 -1.9281
 8273SOL     OW36280   2.004   3.582   8.226  0.0385 -0.5261 -0.5848
 8273SOL    HW136281   1.917   3.543   8.233 -0.6121  0.8975 -0.7324
 8273SOL    HW236282   2.057   3.510   8.260 -0.0104 -0.3925 -0.2318
 8274SOL     OW36283   1.381   1.616   9.065  0.2406  0.5800 -0.5958
 8274SOL    HW136284   1.405   1.559   8.992  2.0092  0.2983  0.2106
 8274SOL    HW236285   1.334   1.556   9.123  0.4553 -0.0942 -1.1244
 8275SOL     OW36286   2.163   3.538   4.290 -0.2294  0.4156 -0.1832
 8275SOL    HW136287   2.242   3.591   4.280  0.9143 -1.5490 -1.4619
 8275SOL    HW236288   2.116   3.602   4.343  0.9466  1.3482 -0.2633
 8276SOL     OW36289   2.736   1.224   8.078  0.4615 -0.0310 -0.0061
 8276SOL    HW136290   2.721   1.307   8.122  1.0617  0.1172 -0.0768
 8276SOL    HW236291   2.668   1.221   8.010 -1.6145  2.3058  2.0021
 8277SOL     OW36292   4.372   3.357   9.158 -0.4512 -0.4670 -0.2641
 8277SOL    HW136293   4.455   3.372   9.113  0.6880  1.0471  2.3622
 8277SOL    HW236294   4.328   3.306   9.089 -0.7798 -0.0690 -0.3452
 8278SOL     OW36295   4.276   3.775   2.274 -0.0173  0.2062 -0.5807
 8278SOL    HW136296   4.309   3.855   2.313 -1.1546  0.8283 -0.8765
 8278SOL    HW236297   4.297   3.783   2.181 -2.1794 -1.7969 -1.2651
 8279SOL     OW36298   0.539   2.784  14.281 -0.2787 -0.6072  0.3317
 8279SOL    HW136299   0.530   2.846  14.209 -0.5813  1.0281  1.7774
 8279SOL    HW236300   0.579   2.714  14.229 -0.6218  0.1436 -0.9403
 8280SOL     OW36301   1.946   1.662   4.621 -0.1563 -0.4054 -0.1230
 8280SOL    HW136302   1.973   1.673   4.712  1.3460  1.8327 -0.8375
 8280SOL    HW236303   1.935   1.568   4.611 -2.1808 -0.1053 -0.6586
 8281SOL     OW36304   0.528   3.227   2.466 -0.5482 -0.0521  0.0775
 8281SOL    HW136305   0.536   3.306   2.414 -0.6349 -1.1569 -1.5981
 8281SOL    HW236306   0.439   3.199   2.446 -0.6503 -2.1215  3.3413
 8282SOL     OW36307   4.108   0.253   3.946  0.1472 -0.5842 -0.2783
 8282SOL    HW136308   4.195   0.281   3.977  0.5413 -0.2500 -1.6925
 8282SOL    HW236309   4.064   0.262   4.030  1.2315 -1.9794  0.4512
 8283SOL     OW36310   4.128   0.197   6.709  0.3254  0.1652  0.0264
 8283SOL    HW136311   4.074   0.275   6.716 -0.5302 -0.6198  2.2911
 8283SOL    HW236312   4.210   0.246   6.705  1.2189 -1.2895  0.2715
 8284SOL     OW36313   4.694   0.144   7.553  0.0360 -0.7840  0.1238
 8284SOL    HW136314   4.678   0.061   7.598 -0.1360 -1.1735 -0.6485
 8284SOL    HW236315   4.712   0.132   7.459  0.4114  0.8761 -0.0235
 8285SOL     OW36316   3.113   3.852  10.087  0.1284 -0.1790 -0.7705
 8285SOL    HW136317   3.115   3.931  10.033  0.3152 -1.0502 -2.0378
 8285SOL    HW236318   3.055   3.800  10.033  0.6745 -0.4079 -1.1370
 8286SOL     OW36319   4.176   3.049   4.575  0.4786  1.2564 -0.3662
 8286SOL    HW136320   4.156   3.118   4.638  0.6645 -0.8423  1.9973
 8286SOL    HW236321   4.086   3.034   4.546  0.9878 -0.1603 -1.2348
 8287SOL     OW36322   0.044   1.883   5.884 -0.3630  0.3238 -0.1525
 8287SOL    HW136323   0.012   1.808   5.834 -0.8642  0.2063  0.3482
 8287SOL    HW236324   4.691   1.939   5.877 -0.1557  0.6474  0.1618
 8288SOL     OW36325   4.348   4.197   2.108  0.7013 -0.2758 -0.3060
 8288SOL    HW136326   4.433   4.233   2.132 -0.5739  3.2719 -1.0887
 8288SOL    HW236327   4.346   4.203   2.012 -0.9471  1.1366 -0.1993
 8289SOL     OW36328   0.360   3.815   0.934  0.1020 -0.1811 -0.2711
 8289SOL    HW136329   0.310   3.736   0.951  0.0390 -0.2911 -0.9871
 8289SOL    HW236330   0.446   3.781   0.959  0.0243  1.3412  2.1541
 8290SOL     OW36331   1.345   0.881  10.221 -0.0979 -0.3392 -0.7040
 8290SOL    HW136332   1.395   0.801  10.238 -0.4778 -0.1350  1.3681
 8290SOL    HW236333   1.272   0.825  10.193  0.4037 -0.4021 -1.8744
 8291SOL     OW36334   4.426   2.265   4.706  0.6848 -0.3601 -0.0488
 8291SOL    HW136335   4.486   2.195   4.681  2.7429  1.3652  0.0543
 8291SOL    HW236336   4.453   2.279   4.797  0.4760 -2.4731  0.3338
 8292SOL     OW36337   4.673   4.301   1.165 -0.0730  0.4193 -0.0632
 8292SOL    HW136338   0.030   4.284   1.117  0.2547  0.6678  0.3963
 8292SOL    HW236339   4.646   4.385   1.127 -1.7057 -0.2559 -0.3690
 8293SOL     OW36340   2.139   2.212   3.203 -0.6715  0.6865 -0.3329
 8293SOL    HW136341   2.078   2.285   3.199 -0.1476  1.1228 -0.3724
 8293SOL    HW236342   2.117   2.165   3.122  0.0036 -1.5256  0.7594
 8294SOL     OW36343   3.491   2.511   7.221 -0.2701 -0.6894  0.2745
 8294SOL    HW136344   3.480   2.527   7.127 -0.3781  0.3614  0.4645
 8294SOL    HW236345   3.496   2.601   7.254 -0.3848 -1.3857  2.1781
 8295SOL     OW36346   2.270   2.996  16.642  0.1732  0.0294 -0.2736
 8295SOL    HW136347   2.365   3.005  16.651  0.5206 -1.9694 -1.8707
 8295SOL    HW236348   2.251   2.906  16.669 -0.8744  0.2863 -0.1615
 8296SOL     OW36349   0.559   1.109   2.332  0.0617 -0.5490 -0.0696
 8296SOL    HW136350   0.548   1.014   2.332  3.1556 -0.8798  1.1905
 8296SOL    HW236351   0.541   1.123   2.239  0.4388  1.9677  0.2363
 8297SOL     OW36352   4.254   2.505   1.456 -0.0277 -0.6715  0.2186
 8297SOL    HW136353   4.296   2.484   1.373  1.0470  0.5204  0.4704
 8297SOL    HW236354   4.306   2.581   1.481 -3.0787  1.8802 -1.0690
 8298SOL     OW36355   2.315   4.598   4.820  0.8074 -0.2654 -0.4095
 8298SOL    HW136356   2.351   4.687   4.815  0.4122  0.0055  1.5151
 8298SOL    HW236357   2.293   4.590   4.913 -0.2114  2.5081 -0.4067
 8299SOL     OW36358   2.519   1.659   9.877  0.4254 -0.1195  0.3827
 8299SOL    HW136359   2.550   1.718   9.809  1.5297  0.6046  1.5227
 8299SOL    HW236360   2.442   1.623   9.833  0.3678  0.0575  0.3429
 8300SOL     OW36361   0.157   2.659   2.411  0.3128  0.0535 -0.0865
 8300SOL    HW136362   0.062   2.671   2.404  0.0967 -1.1158  0.8418
 8300SOL    HW236363   0.169   2.590   2.476  1.8821  0.9681  0.5742
 8301SOL     OW36364   2.461   1.639   1.874 -0.2335 -0.0327  0.0771
 8301SOL    HW136365   2.418   1.588   1.805  2.4156  1.3013 -2.5572
 8301SOL    HW236366   2.540   1.678   1.836 -0.6791 -0.4707 -1.2760
 8302SOL     OW36367   3.433   3.167   1.555 -0.5696  0.2552  0.1894
 8302SOL    HW136368   3.402   3.229   1.621 -2.5378 -0.1782 -0.3109
 8302SOL    HW236369   3.348   3.126   1.536 -0.1631  0.4979 -2.1707
 8303SOL     OW36370   2.538   3.862   4.839  0.2005  0.3580  0.1221
 8303SOL    HW136371   2.554   3.905   4.755  1.3680  0.4329  0.3817
 8303SOL    HW236372   2.476   3.797   4.806 -1.7213  1.7319  0.9856
 8304SOL     OW36373   4.379   2.386   2.098 -0.4050  0.2531 -0.1075
 8304SOL    HW136374   4.356   2.473   2.131 -0.5248 -0.6234  2.0974
 8304SOL    HW236375   4.341   2.325   2.162 -0.2364  0.1409 -0.1162
 8305SOL     OW36376   2.681   2.638  11.828  0.3424 -0.4324  0.2475
 8305SOL    HW136377   2.641   2.631  11.915 -2.3415  2.2682 -0.7785
 8305SOL    HW236378   2.616   2.595  11.774 -1.6966 -0.1490  2.4729
 8306SOL     OW36379   0.646   2.679   0.511  0.1367  0.5070  0.2499
 8306SOL    HW136380   0.645   2.716   0.599  0.6659  0.2708  0.3555
 8306SOL    HW236381   0.687   2.593   0.520 -1.3527 -0.6026 -3.7874
 8307SOL     OW36382   1.414   3.146   4.483 -0.7719  0.4577 -0.7051
 8307SOL    HW136383   1.420   3.083   4.554  0.8723  1.3320 -0.0755
 8307SOL    HW236384   1.337   3.124   4.430  0.3785 -2.8712 -0.9906
 8308SOL     OW36385   0.125   4.474   1.885 -0.2404  0.0911  0.0072
 8308SOL    HW136386   0.071   4.537   1.836 -0.1373 -0.3400 -0.6587
 8308SOL    HW236387   0.137   4.406   1.820  0.0421  2.1770 -2.1212
 8309SOL     OW36388   2.058   1.301   4.884  0.1259  0.2164  0.0547
 8309SOL    HW136389   2.099   1.221   4.919  0.1479 -0.0523 -0.5977
 8309SOL    HW236390   2.118   1.372   4.906 -1.7325  1.9874 -0.6321
 8310SOL     OW36391   3.496   1.912  13.121 -0.3969 -0.3218  0.1317
 8310SOL    HW136392   3.453   1.998  13.127 -0.8950 -0.4698 -1.3068
 8310SOL    HW236393   3.451   1.873  13.046  0.2937  0.1646 -0.5318
 8311SOL     OW36394   2.231   4.416   3.649 -0.5138  0.0807 -0.9717
 8311SOL    HW136395   2.298   4.417   3.717  0.6267  0.3695 -2.0824
 8311SOL    HW236396   2.295   4.449   3.585 -0.3788 -0.6569 -1.2183
 8312SOL     OW36397   1.248   3.660   3.123  0.3026  0.2127  0.5240
 8312SOL    HW136398   1.331   3.708   3.119  0.8008 -0.7267 -0.4461
 8312SOL    HW236399   1.227   3.642   3.032 -0.6034 -0.4198  0.8600
 8313SOL     OW36400   0.699   0.382   9.563  0.0946  0.3699 -0.1690
 8313SOL    HW136401   0.716   0.416   9.476  2.0463 -0.8245 -0.2287
 8313SOL    HW236402   0.616   0.336   9.553  0.5880 -0.5399 -0.0216
 8314SOL     OW36403   0.112   3.329   2.723 -0.0998 -0.6298 -0.1923
 8314SOL    HW136404   0.143   3.409   2.681  0.9823 -0.5482  0.7799
 8314SOL    HW236405   0.065   3.365   2.798  0.9179  0.9765 -0.3312
 8315SOL     OW36406   4.500   4.525   7.860 -0.3844 -0.6582  0.1389
 8315SOL    HW136407   4.509   4.430   7.868  2.4055 -0.5634 -2.0898
 8315SOL    HW236408   4.461   4.538   7.947  0.0807 -1.2957  0.4440
 8316SOL     OW36409   1.083   3.062  17.240 -0.2004 -0.6351 -0.5615
 8316SOL    HW136410   1.028   3.048  17.317 -1.4018  1.4564 -1.0390
 8316SOL    HW236411   1.036   3.128  17.189 -0.0485 -0.1393 -0.0547
 8317SOL     OW36412   1.465   3.481   8.577  0.0941 -0.2566 -0.2780
 8317SOL    HW136413   1.384   3.520   8.546  0.0863  0.7700  1.0622
 8317SOL    HW236414   1.490   3.540   8.648  1.3744 -1.5977  0.3891
 8318SOL     OW36415   1.820   2.413   7.083 -0.6841 -0.1761  0.0780
 8318SOL    HW136416   1.877   2.366   7.144 -1.9750 -1.9647 -0.0670
 8318SOL    HW236417   1.803   2.340   7.023  1.1006 -1.0869  0.6795
 8319SOL     OW36418   0.674   2.005  13.034  0.0231 -0.2833 -0.1261
 8319SOL    HW136419   0.761   1.997  13.072  0.3573  0.2140 -0.7802
 8319SOL    HW236420   0.688   1.952  12.955 -0.8516  0.6573 -0.9233
 8320SOL     OW36421   0.933   2.738   5.506  0.0968  0.3010  0.2347
 8320SOL    HW136422   0.902   2.660   5.553 -0.1391  0.1808 -0.1192
 8320SOL    HW236423   0.849   2.766   5.471 -0.0167 -0.5578 -0.1821
 8321SOL     OW36424   1.084   2.250   6.029 -0.0061  0.1298 -0.2156
 8321SOL    HW136425   1.050   2.337   6.005 -1.1778 -0.4792 -0.7628
 8321SOL    HW236426   1.024   2.189   5.986  0.6782 -1.1438  0.6283
 8322SOL     OW36427   4.469   0.411  16.263 -0.5438 -0.8183 -0.2167
 8322SOL    HW136428   4.560   0.437  16.277 -0.2104 -3.0102  1.6314
 8322SOL    HW236429   4.479   0.316  16.266  3.1856 -0.4139  0.2017
 8323SOL     OW36430   2.090   3.771   3.306  0.3494 -0.1516 -0.5057
 8323SOL    HW136431   2.038   3.789   3.227  0.8180 -0.4508 -0.8811
 8323SOL    HW236432   2.176   3.796   3.274 -0.3804  3.2566  0.1998
 8324SOL     OW36433   1.069   1.616   9.160  0.3435 -0.6732  0.1566
 8324SOL    HW136434   0.995   1.570   9.199 -1.9937  1.5381 -1.6209
 8324SOL    HW236435   1.135   1.551   9.184  1.9533  1.6050  2.0561
 8325SOL     OW36436   0.342   3.450   6.368 -0.1859  0.2134  0.0330
 8325SOL    HW136437   0.289   3.376   6.339 -3.2388  1.8078  1.5721
 8325SOL    HW236438   0.304   3.524   6.321  2.6186  1.1941 -0.6754
 8326SOL     OW36439   3.827   2.953   4.105  0.2526 -0.0805 -0.0694
 8326SOL    HW136440   3.781   2.963   4.022  1.6720  0.7018 -0.7697
 8326SOL    HW236441   3.911   2.928   4.064 -1.1951 -0.3746 -2.8728
 8327SOL     OW36442   0.769   3.705  17.063  0.6944  0.3215 -0.5231
 8327SOL    HW136443   0.805   3.770  17.002  1.3506 -0.0664 -0.5458
 8327SOL    HW236444   0.818   3.624  17.057 -0.9894 -0.7148 -0.2677
 8328SOL     OW36445   4.473   1.269  16.261 -0.0593  0.8304 -0.0319
 8328SOL    HW136446   4.404   1.241  16.201  1.4803 -2.2423 -0.3242
 8328SOL    HW236447   4.414   1.302  16.328  0.9805  0.8148  0.8916
 8329SOL     OW36448   2.077   0.420   3.897 -0.2703 -0.2497  0.1023
 8329SOL    HW136449   2.056   0.494   3.955 -0.0918  0.2348 -0.4535
 8329SOL    HW236450   2.171   0.413   3.913 -0.1731  2.0907  0.6067
 8330SOL     OW36451   2.891   3.613   1.613  0.3770 -0.0497  1.1159
 8330SOL    HW136452   2.873   3.589   1.522  1.0339  1.9312  0.4526
 8330SOL    HW236453   2.982   3.586   1.618 -0.4104 -2.6001  1.9155
 8331SOL     OW36454   3.349   3.899   0.950 -0.9917 -0.2351  0.3048
 8331SOL    HW136455   3.357   3.814   0.907  1.7812  0.5327 -0.7386
 8331SOL    HW236456   3.360   3.880   1.043  1.5360 -0.4062 -0.0311
 8332SOL     OW36457   4.527   2.882   6.659 -0.1861  0.4746  0.0052
 8332SOL    HW136458   4.482   2.966   6.657 -1.1178 -0.0484 -1.1435
 8332SOL    HW236459   4.571   2.894   6.574  0.5040 -2.1678  0.0020
 8333SOL     OW36460   3.299   2.429  13.583 -0.3340 -0.1604 -0.1186
 8333SOL    HW136461   3.300   2.360  13.650 -0.3658 -0.9938 -0.9692
 8333SOL    HW236462   3.351   2.499  13.622  0.2374 -0.1912 -0.8317
 8334SOL     OW36463   0.090   2.375   8.356  0.3514 -0.5005 -0.3639
 8334SOL    HW136464   0.001   2.341   8.365  0.5243 -1.0759 -0.8051
 8334SOL    HW236465   0.137   2.292   8.357 -0.7691 -1.1232  1.0828
 8335SOL     OW36466   3.925   0.962   8.265 -0.0792 -0.1676 -0.3381
 8335SOL    HW136467   3.892   0.936   8.179  1.7419  0.0039 -1.0863
 8335SOL    HW236468   4.013   0.924   8.260 -0.3928 -0.8376 -0.7790
 8336SOL     OW36469   3.365   0.400   3.793 -1.2482  0.1520  1.0023
 8336SOL    HW136470   3.387   0.453   3.716  2.3470 -1.7136  0.7648
 8336SOL    HW236471   3.270   0.402   3.781 -1.1014  1.0182 -0.0928
 8337SOL     OW36472   3.766   0.604   8.990  0.1989 -0.0659  0.5802
 8337SOL    HW136473   3.838   0.542   8.988  2.3515  2.5179 -1.1330
 8337SOL    HW236474   3.691   0.551   8.960 -1.8096  2.5271  1.0041
 8338SOL     OW36475   0.081   0.628  16.916 -0.1855 -0.7179 -0.0662
 8338SOL    HW136476   0.137   0.676  16.855  0.6164 -1.1759  0.3103
 8338SOL    HW236477   0.011   0.692  16.925  1.2770  0.6106  1.5134
 8339SOL     OW36478   0.018   4.091   0.377 -0.0285  0.0235 -0.1356
 8339SOL    HW136479   4.663   4.102   0.429 -0.3784  0.5966 -0.7900
 8339SOL    HW236480   0.086   4.137   0.427  0.0481  0.0307 -0.2469
 8340SOL     OW36481   3.198   1.895  16.904  0.2224  0.4511 -0.7476
 8340SOL    HW136482   3.214   1.859  16.991 -2.4736 -1.2355 -0.9455
 8340SOL    HW236483   3.168   1.812  16.869 -1.1391 -0.0314  1.5484
 8341SOL     OW36484   1.386   1.117   7.325  0.1677 -0.0315 -0.1105
 8341SOL    HW136485   1.480   1.106   7.342  0.3885 -0.6406 -1.7474
 8341SOL    HW236486   1.380   1.159   7.239  0.2360 -0.6205 -0.4001
 8342SOL     OW36487   2.258   0.151   2.329 -0.2761  0.5955 -0.4263
 8342SOL    HW136488   2.346   0.118   2.311  0.0804  1.5302 -0.4176
 8342SOL    HW236489   2.250   0.235   2.283  0.2729  1.1865  0.5526
 8343SOL     OW36490   3.921   4.613   9.229 -0.4351  0.3825  0.0790
 8343SOL    HW136491   3.985   4.551   9.196 -0.0431  0.3456  0.8967
 8343SOL    HW236492   3.965   4.695   9.207  1.8147 -0.5440  1.1820
 8344SOL     OW36493   0.473   4.426   2.127  0.5739 -0.0573 -0.0625
 8344SOL    HW136494   0.468   4.368   2.203 -2.8442 -1.2252 -1.1869
 8344SOL    HW236495   0.380   4.437   2.109  0.5033 -0.9998 -0.2724
 8345SOL     OW36496   0.325   1.588   9.562  0.1743  0.0682  0.2124
 8345SOL    HW136497   0.328   1.532   9.640 -1.4042  0.9304  0.8991
 8345SOL    HW236498   0.414   1.572   9.529 -0.4150 -0.4312 -1.1438
 8346SOL     OW36499   2.756   0.274   9.789 -0.3519 -0.1994  0.2049
 8346SOL    HW136500   2.682   0.244   9.737 -0.5033 -2.1924  1.5980
 8346SOL    HW236501   2.832   0.261   9.732 -2.0867 -0.2636 -2.0558
 8347SOL     OW36502   1.540   0.925   4.849 -0.0858  0.2043 -0.7191
 8347SOL    HW136503   1.467   0.984   4.830 -0.6784  0.8584  3.4251
 8347SOL    HW236504   1.614   0.985   4.845  0.0931 -0.0731 -1.4945
 8348SOL     OW36505   2.495   2.127   1.324 -0.2469 -0.1909 -0.6423
 8348SOL    HW136506   2.547   2.097   1.249  2.2972  0.8733  0.6637
 8348SOL    HW236507   2.409   2.104   1.289 -0.0608 -1.4484 -0.2947
 8349SOL     OW36508   2.795   4.169   5.294 -0.1241  0.3725  0.3672
 8349SOL    HW136509   2.758   4.257   5.304 -3.0754 -0.9446  1.0057
 8349SOL    HW236510   2.868   4.179   5.233 -1.9533  2.8469 -1.4307
 8350SOL     OW36511   2.512   2.136   7.514  0.5049 -0.5811 -0.0959
 8350SOL    HW136512   2.545   2.050   7.487  0.8946 -0.4307 -0.0981
 8350SOL    HW236513   2.562   2.183   7.447  1.2484 -1.6619 -0.2995
 8351SOL     OW36514   2.664   4.292   1.109  0.8025  0.4248 -0.1631
 8351SOL    HW136515   2.586   4.308   1.056  1.1887  1.6752 -0.3669
 8351SOL    HW236516   2.639   4.336   1.190  1.5101  1.4187 -0.4841
 8352SOL     OW36517   3.332   0.604   7.043  0.7132  0.6289 -0.2754
 8352SOL    HW136518   3.369   0.527   7.085 -1.9877  0.2321  1.4069
 8352SOL    HW236519   3.392   0.674   7.068  0.8812  1.1940 -2.3007
 8353SOL     OW36520   1.856   1.549   4.219 -0.0295 -0.5561  0.0684
 8353SOL    HW136521   1.760   1.553   4.212 -0.1455  0.2868  2.0259
 8353SOL    HW236522   1.877   1.611   4.149 -1.3700 -0.8343 -0.5844
 8354SOL     OW36523   3.828   1.076   4.943 -0.0555  0.0025  0.1592
 8354SOL    HW136524   3.789   1.030   5.018 -1.7261 -1.4613 -1.6230
 8354SOL    HW236525   3.750   1.093   4.890  1.3005  1.9612 -1.2221
 8355SOL     OW36526   2.355   3.982   5.727 -0.0809 -0.0898  1.3532
 8355SOL    HW136527   2.335   3.889   5.725 -0.2717 -0.0272  0.2563
 8355SOL    HW236528   2.272   4.016   5.693  0.9684 -0.9787 -2.1442
 8356SOL     OW36529   0.691   3.276   2.851  0.2538  0.6604 -0.0242
 8356SOL    HW136530   0.597   3.271   2.831  0.5989 -1.8224 -0.9812
 8356SOL    HW236531   0.699   3.253   2.943 -2.0344  0.0513  0.0286
 8357SOL     OW36532   1.499   1.302   3.615  0.1405  0.3575 -0.3074
 8357SOL    HW136533   1.407   1.300   3.589  0.1707  2.9333 -0.6341
 8357SOL    HW236534   1.503   1.228   3.675 -2.2759  0.1936 -0.3561
 8358SOL     OW36535   3.877   3.342   3.147  0.0393  0.0154 -0.6624
 8358SOL    HW136536   3.894   3.380   3.060 -1.3481  0.5033 -0.7209
 8358SOL    HW236537   3.964   3.307   3.167 -0.8694 -0.9664  1.4827
 8359SOL     OW36538   3.089   0.938   3.672 -0.0159 -1.0829 -0.1498
 8359SOL    HW136539   3.172   0.954   3.716 -1.2598 -0.8327  2.0891
 8359SOL    HW236540   3.072   1.022   3.629 -0.5201 -1.6169 -0.9990
 8360SOL     OW36541   4.498   2.203   0.716 -0.2703 -0.6739 -0.1533
 8360SOL    HW136542   4.487   2.146   0.640 -1.1098 -0.0799 -0.4786
 8360SOL    HW236543   4.552   2.153   0.778 -1.3123  1.6719  2.6383
 8361SOL     OW36544   2.069   0.739   9.933 -0.4008 -0.1184  0.2733
 8361SOL    HW136545   2.129   0.701   9.869 -2.5014  0.0211 -1.8001
 8361SOL    HW236546   1.999   0.673   9.927 -1.5468  1.2252 -1.1572
 8362SOL     OW36547   1.613   2.954   4.383 -0.4687 -0.6074 -0.2188
 8362SOL    HW136548   1.556   2.891   4.338 -0.6335 -0.0710 -0.7703
 8362SOL    HW236549   1.547   3.018   4.411 -0.8758 -1.0280 -0.2042
 8363SOL     OW36550   1.788   1.865   3.789  0.2301  0.4013  0.3351
 8363SOL    HW136551   1.700   1.830   3.795  0.8600 -0.6941  3.0958
 8363SOL    HW236552   1.785   1.906   3.703  0.5372 -1.4933 -0.5719
 8364SOL     OW36553   0.782   1.747   7.981  0.1914  0.0690  0.2346
 8364SOL    HW136554   0.752   1.693   8.055  3.0930 -1.9387 -0.0566
 8364SOL    HW236555   0.756   1.693   7.906 -0.5083 -3.1089  2.7530
 8365SOL     OW36556   2.652   0.457   7.502  0.5468 -0.4220  0.2543
 8365SOL    HW136557   2.702   0.531   7.537  0.4950 -0.6327  0.7760
 8365SOL    HW236558   2.583   0.455   7.568  1.0410 -0.9286  0.7591
 8366SOL     OW36559   2.424   3.261   2.276 -0.3757  0.6476 -0.2511
 8366SOL    HW136560   2.350   3.275   2.218 -0.0206 -1.0327 -1.1056
 8366SOL    HW236561   2.475   3.337   2.248 -1.9714  1.3908 -1.1626
 8367SOL     OW36562   0.787   1.333  12.872  0.4066 -0.5353 -0.1948
 8367SOL    HW136563   0.704   1.351  12.829  1.2570  1.8792 -0.8466
 8367SOL    HW236564   0.775   1.328  12.967  2.5114  1.8388  0.2246
 8368SOL     OW36565   1.145   1.151   3.151 -0.0562  0.2494 -0.3999
 8368SOL    HW136566   1.099   1.073   3.120  0.9820  0.1413 -1.6676
 8368SOL    HW236567   1.119   1.164   3.242 -1.8331 -0.2426 -0.8421
 8369SOL     OW36568   1.722   3.831   7.712 -0.4048 -0.3159  0.4479
 8369SOL    HW136569   1.662   3.839   7.638 -0.9502 -0.3981  0.8840
 8369SOL    HW236570   1.760   3.744   7.698 -1.3136 -0.5090 -0.8171
 8370SOL     OW36571   4.015   0.395  13.043 -0.6525  0.1623  0.0955
 8370SOL    HW136572   4.065   0.418  13.122 -0.5465  0.0243  0.0688
 8370SOL    HW236573   4.081   0.361  12.983 -0.6513 -0.1209  0.2553
 8371SOL     OW36574   0.936   1.498   3.367  0.0088  0.1026 -0.2135
 8371SOL    HW136575   0.962   1.590   3.367 -1.0884  0.3975  1.8708
 8371SOL    HW236576   0.840   1.504   3.362 -0.0861 -1.3334 -0.1863
 8372SOL     OW36577   3.891   2.244   2.029 -0.4381  0.2451 -0.3644
 8372SOL    HW136578   3.806   2.233   1.987  0.3797 -3.1481 -1.1214
 8372SOL    HW236579   3.909   2.334   2.000 -0.8747  0.1396 -0.9535
 8373SOL     OW36580   2.192   1.384  12.778  0.3595 -0.8050  0.2315
 8373SOL    HW136581   2.142   1.446  12.832  0.3747  0.0578 -0.7373
 8373SOL    HW236582   2.165   1.297  12.805 -2.1870 -0.4929 -1.2579
 8374SOL     OW36583   3.829   1.587   2.645 -0.0402  0.0781 -0.8020
 8374SOL    HW136584   3.747   1.637   2.636  0.1728  0.6182  0.2830
 8374SOL    HW236585   3.862   1.594   2.556 -0.2273 -2.2222 -1.0584
 8375SOL     OW36586   4.166   2.131   6.402 -0.1980 -0.0790  0.1507
 8375SOL    HW136587   4.153   2.122   6.496  0.6359  2.2883  0.4778
 8375SOL    HW236588   4.205   2.044   6.391  0.7913  0.4914 -0.8405
 8376SOL     OW36589   0.022   4.157   7.541 -0.1609  0.1045 -0.4803
 8376SOL    HW136590   0.061   4.202   7.616  2.0238  1.4492 -2.4160
 8376SOL    HW236591   0.001   4.071   7.576 -1.6853  1.3311  1.6255
 8377SOL     OW36592   3.492   4.128   9.787  0.5503  0.5029  0.1532
 8377SOL    HW136593   3.539   4.083   9.857 -3.4227 -0.2567  2.3149
 8377SOL    HW236594   3.550   4.203   9.771  0.8158  0.4142  0.6985
 8378SOL     OW36595   3.869   3.092   5.767  0.4926 -0.3174  0.1531
 8378SOL    HW136596   3.850   3.021   5.828 -1.6698  0.9527  0.9691
 8378SOL    HW236597   3.842   3.157   5.832 -1.5952 -0.2566 -0.7486
 8379SOL     OW36598   0.035   4.208  15.155 -0.1201  0.4400 -1.1424
 8379SOL    HW136599   0.113   4.181  15.107 -0.6859 -0.0108 -1.8141
 8379SOL    HW236600   0.032   4.140  15.222 -1.4836  1.5661 -0.0601
 8380SOL     OW36601   1.230   1.838   4.846 -0.4794  0.0545 -0.5868
 8380SOL    HW136602   1.158   1.825   4.784  0.1404  0.3525 -1.3753
 8380SOL    HW236603   1.190   1.866   4.928  1.6213 -1.6716  1.0085
 8381SOL     OW36604   1.593   0.482   9.230  0.1194  0.4021 -0.2686
 8381SOL    HW136605   1.645   0.473   9.310 -0.8470 -0.7958  0.2365
 8381SOL    HW236606   1.659   0.458   9.165 -0.8040 -2.3392 -0.1864
 8382SOL     OW36607   0.752   0.104   3.906  0.8635 -0.6010 -0.1476
 8382SOL    HW136608   0.812   0.177   3.924 -0.8155  0.6361  0.4155
 8382SOL    HW236609   0.772   0.091   3.813  0.7084 -0.7969 -0.1528
 8383SOL     OW36610   1.202   0.312   6.388  0.0003 -0.1407  0.0236
 8383SOL    HW136611   1.148   0.327   6.311  0.4265 -0.5376 -0.3534
 8383SOL    HW236612   1.283   0.360   6.369  0.0039  0.0163  0.4261
 8384SOL     OW36613   3.721   3.146   4.967  0.6643  0.2807  0.4784
 8384SOL    HW136614   3.728   3.064   4.918 -2.0903  0.7835 -0.7621
 8384SOL    HW236615   3.798   3.142   5.023  0.3419  1.9577  1.0467
 8385SOL     OW36616   2.020   0.931  16.153 -0.0245  0.1152 -0.1387
 8385SOL    HW136617   2.083   1.002  16.164  2.0440 -1.7091 -0.3186
 8385SOL    HW236618   1.968   0.957  16.077  2.7698  0.4181 -1.9558
 8386SOL     OW36619   3.631   0.042  14.824 -0.0503 -0.2542  0.0548
 8386SOL    HW136620   3.597   4.677  14.832  0.5252 -0.4345  0.4887
 8386SOL    HW236621   3.572   0.081  14.760  0.8536 -1.2577 -1.3792
 8387SOL     OW36622   1.262   1.277  14.570  0.1130 -0.4879 -0.0006
 8387SOL    HW136623   1.291   1.214  14.635  1.2155  0.2713  0.2414
 8387SOL    HW236624   1.238   1.212  14.504 -0.0574 -0.5992  0.1701
 8388SOL     OW36625   1.646   1.181   9.494  0.0579 -0.2934  0.0482
 8388SOL    HW136626   1.664   1.158   9.585  0.4325  0.0351  0.0537
 8388SOL    HW236627   1.657   1.097   9.449  2.2487 -1.5367  2.9237
 8389SOL     OW36628   3.535   1.058   2.247 -0.1949  0.0556  0.1583
 8389SOL    HW136629   3.506   1.023   2.331  0.7858 -0.2156  0.3836
 8389SOL    HW236630   3.625   1.083   2.266  0.0260 -0.2507 -0.4846
 8390SOL     OW36631   2.661   1.498   5.463 -0.8991  0.1675 -0.3149
 8390SOL    HW136632   2.707   1.427   5.419 -1.0588  0.6863 -1.3247
 8390SOL    HW236633   2.666   1.477   5.556 -3.8694  0.5642 -0.0731
 8391SOL     OW36634   4.135   0.566   3.837  0.3645  0.2749 -0.2489
 8391SOL    HW136635   4.180   0.498   3.787  0.0147 -1.5269  1.8804
 8391SOL    HW236636   4.198   0.570   3.908  1.6085 -1.6150 -1.2445
 8392SOL     OW36637   3.159   1.810   6.575 -0.0660  0.3579  0.8103
 8392SOL    HW136638   3.120   1.879   6.521  0.1831 -0.8608 -0.9238
 8392SOL    HW236639   3.125   1.837   6.660 -0.5577  0.1453  0.6828
 8393SOL     OW36640   2.020   4.484  14.505  0.0862 -0.5573  0.7883
 8393SOL    HW136641   2.090   4.443  14.453  0.5602 -0.4149  1.3126
 8393SOL    HW236642   1.950   4.477  14.441 -0.2329  5.4942  0.5040
 8394SOL     OW36643   0.264   4.664   7.748 -0.0370 -0.4382  0.8476
 8394SOL    HW136644   0.267   0.026   7.707  0.2822 -0.5926  0.5459
 8394SOL    HW236645   0.173   4.649   7.723  0.3696 -1.6830  0.1702
 8395SOL     OW36646   3.588   0.045   9.478  0.0983  0.1012  0.1476
 8395SOL    HW136647   3.550   4.683   9.495  1.2465 -0.1132  1.7068
 8395SOL    HW236648   3.639   0.056   9.559 -1.0952  0.3237  0.8573
 8396SOL     OW36649   0.801   0.503   4.118  0.0135  0.9466 -0.3846
 8396SOL    HW136650   0.709   0.498   4.146 -0.1395 -0.4238 -1.1144
 8396SOL    HW236651   0.819   0.597   4.116 -0.9522  1.1737  1.6180
 8397SOL     OW36652   3.010   0.116  12.792  0.1620  0.4187  0.7205
 8397SOL    HW136653   2.941   0.176  12.762 -0.5555  0.8847  3.3133
 8397SOL    HW236654   2.956   0.042  12.819 -0.9261  1.3801  1.1895
 8398SOL     OW36655   0.935   2.388   1.376  0.5117  0.0397  0.2015
 8398SOL    HW136656   0.966   2.302   1.346 -0.0005  0.2033 -0.8164
 8398SOL    HW236657   0.971   2.402   1.463  1.1423 -1.5234  0.1935
 8399SOL     OW36658   4.504   1.820   8.930 -0.1726  0.1248 -0.3771
 8399SOL    HW136659   4.516   1.741   8.878 -2.0697  0.9018 -1.9783
 8399SOL    HW236660   4.409   1.822   8.936 -0.1904 -2.5768 -0.0457
 8400SOL     OW36661   4.436   3.332  14.436  0.5058  0.2895 -0.4456
 8400SOL    HW136662   4.463   3.245  14.464 -0.8553 -0.0553 -0.2318
 8400SOL    HW236663   4.375   3.370  14.500  0.0995  0.4585 -0.9351
 8401SOL     OW36664   4.694   2.291  14.980  0.1428  0.1610  0.1314
 8401SOL    HW136665   4.679   2.372  14.931 -1.0118  1.0592  2.0108
 8401SOL    HW236666   0.035   2.328  15.039 -0.1724 -0.8059  1.0969
 8402SOL     OW36667   0.404   0.024   2.153  0.2074  0.6202 -0.4497
 8402SOL    HW136668   0.460   0.071   2.091  0.5233  0.1525 -0.5104
 8402SOL    HW236669   0.467   4.680   2.175 -1.3024 -0.7675 -0.4460
 8403SOL     OW36670   2.809   1.991   6.416 -0.1318  0.2577  0.4408
 8403SOL    HW136671   2.876   2.055   6.437  1.4380 -0.4662 -2.3382
 8403SOL    HW236672   2.743   2.038   6.364 -0.2516 -2.9640 -2.3453
 8404SOL     OW36673   0.693   2.843  17.537 -0.2203  0.0036 -0.5391
 8404SOL    HW136674   0.635   2.823  17.464  0.1062 -1.6917 -0.3544
 8404SOL    HW236675   0.678   2.765  17.591  1.4950  0.0382 -0.0108
 8405SOL     OW36676   3.189   4.192   5.932 -1.0652 -0.4584 -0.5469
 8405SOL    HW136677   3.186   4.267   5.872  2.2105  0.1418  0.0386
 8405SOL    HW236678   3.234   4.121   5.886  2.0586  0.6963  0.7506
 8406SOL     OW36679   2.847   1.170   2.579  0.0965  0.0075 -0.1258
 8406SOL    HW136680   2.808   1.182   2.492  2.1140  2.8243 -0.6099
 8406SOL    HW236681   2.794   1.095   2.605 -0.3343 -0.0116 -1.0540
 8407SOL     OW36682   3.295   3.006   2.483  0.2389  0.1479  0.0776
 8407SOL    HW136683   3.230   2.950   2.441  0.8357 -0.1840 -0.4025
 8407SOL    HW236684   3.231   3.077   2.496  0.2406  0.1589  0.0261
 8408SOL     OW36685   2.394   3.671  14.397 -0.2257  0.1633 -0.2052
 8408SOL    HW136686   2.467   3.691  14.457 -0.3984 -1.4470  0.5493
 8408SOL    HW236687   2.423   3.679  14.307  1.6882 -1.6983  0.2218
 8409SOL     OW36688   2.003   0.439   3.096 -0.7523  0.1940  0.4999
 8409SOL    HW136689   2.036   0.528   3.083 -1.5143  0.5962  1.3135
 8409SOL    HW236690   2.018   0.405   3.008  1.4525  1.0517  0.5432
 8410SOL     OW36691   2.888   0.319   4.590  0.1736  0.5310 -0.0582
 8410SOL    HW136692   2.929   0.359   4.667  1.1634  0.2013 -0.4206
 8410SOL    HW236693   2.863   0.232   4.622  0.9649  0.2497 -0.1978
 8411SOL     OW36694   0.865   2.721  15.538 -0.5499  1.1364  0.0692
 8411SOL    HW136695   0.802   2.738  15.468 -0.5069 -2.0397 -0.7234
 8411SOL    HW236696   0.944   2.697  15.490  0.8655  1.7514  2.1090
 8412SOL     OW36697   2.579   2.211  12.479 -0.0745  0.0216 -0.2963
 8412SOL    HW136698   2.585   2.118  12.497  0.4543  0.2703  0.7709
 8412SOL    HW236699   2.650   2.229  12.418  1.0831 -2.0907  0.4568
 8413SOL     OW36700   0.833   0.962  16.426  0.0715  0.5757  0.2498
 8413SOL    HW136701   0.860   0.996  16.511  2.1305 -1.4256  0.3947
 8413SOL    HW236702   0.794   1.040  16.386  1.4045  0.0772 -2.0431
 8414SOL     OW36703   4.511   3.010   3.447  0.6057  0.5079  0.1007
 8414SOL    HW136704   4.520   2.965   3.531 -0.7856  1.8815  0.9768
 8414SOL    HW236705   4.461   2.946   3.396  0.1839  0.5312  0.4876
 8415SOL     OW36706   2.267   3.270   6.821 -0.4262 -0.3132 -0.1580
 8415SOL    HW136707   2.212   3.226   6.756 -0.2411  1.5070 -1.5487
 8415SOL    HW236708   2.204   3.324   6.870  1.6349  0.6704  1.4058
 8416SOL     OW36709   2.381   0.446   7.195 -0.0069 -0.2032 -0.5016
 8416SOL    HW136710   2.418   0.526   7.157  0.2475 -0.0387  0.1076
 8416SOL    HW236711   2.361   0.473   7.285 -2.4204 -0.4127 -0.9601
 8417SOL     OW36712   2.254   3.421  15.503 -0.1975 -0.6326  0.9146
 8417SOL    HW136713   2.194   3.363  15.456  1.3066 -1.1502 -0.3720
 8417SOL    HW236714   2.237   3.509  15.468  1.6093 -0.8934 -0.6351
 8418SOL     OW36715   4.380   2.378   2.401 -0.1026  0.5203  0.5644
 8418SOL    HW136716   4.349   2.466   2.381 -2.3784 -0.1334  1.1672
 8418SOL    HW236717   4.391   2.374   2.496 -0.7209 -0.8328  0.5909
 8419SOL     OW36718   2.325   2.982   6.007  0.3192  0.8264  0.2493
 8419SOL    HW136719   2.411   2.947   6.031 -0.9543 -2.5607 -0.1265
 8419SOL    HW236720   2.337   3.077   6.005  0.9189  0.7388 -0.3027
 8420SOL     OW36721   2.965   4.315   2.956  0.5837  0.1825  0.1851
 8420SOL    HW136722   3.028   4.371   3.001  2.7616 -0.3517 -2.2007
 8420SOL    HW236723   3.005   4.322   2.870  0.5083  1.5744  0.2600
 8421SOL     OW36724   3.512   4.620   6.798 -0.2607  0.2589  0.3325
 8421SOL    HW136725   3.472   4.611   6.712 -0.4494  1.6276  0.2734
 8421SOL    HW236726   3.584   4.557   6.804  0.6026  1.1339 -0.9254
 8422SOL     OW36727   4.124   4.251   2.233 -0.0373  0.0727  0.1591
 8422SOL    HW136728   4.069   4.311   2.183 -0.6986 -1.3179 -0.8007
 8422SOL    HW236729   4.199   4.232   2.176 -0.6359 -2.3120  0.1751
 8423SOL     OW36730   1.823   3.108   0.983  0.2967 -0.3452  0.0493
 8423SOL    HW136731   1.878   3.083   0.908 -0.6368  0.7463 -0.9972
 8423SOL    HW236732   1.872   3.064   1.053  2.3864 -0.0943 -1.2420
 8424SOL     OW36733   0.180   1.275   7.542 -0.4235  0.5889 -0.2673
 8424SOL    HW136734   0.129   1.243   7.468 -0.7707 -1.0384  0.6909
 8424SOL    HW236735   0.158   1.369   7.541 -1.6198  0.3284  1.1752
 8425SOL     OW36736   4.256   1.994   7.413 -0.0466 -0.1352 -0.2538
 8425SOL    HW136737   4.324   1.926   7.421  0.9234  0.6408 -1.9791
 8425SOL    HW236738   4.227   1.989   7.504  0.1461 -2.4771 -0.3146
 8426SOL     OW36739   1.948   2.463   1.894  0.1072  0.2031 -0.2462
 8426SOL    HW136740   1.947   2.367   1.896  1.7791  0.2362  2.6459
 8426SOL    HW236741   1.952   2.481   1.988 -1.7183  1.8226 -0.4848
 8427SOL     OW36742   0.584   3.719   7.239 -0.8131  0.0694  0.0712
 8427SOL    HW136743   0.501   3.695   7.279  0.4018  0.8704  3.1160
 8427SOL    HW236744   0.559   3.811   7.227  0.6263  0.7791  2.4312
 8428SOL     OW36745   3.312   0.034   2.956 -0.3627 -0.1819  0.3061
 8428SOL    HW136746   3.398   0.046   2.916 -0.8157 -0.5030 -0.7448
 8428SOL    HW236747   3.251   0.036   2.882  0.0875  1.3462 -0.0129
 8429SOL     OW36748   3.473   2.317   8.415  0.2339 -0.9240 -0.0521
 8429SOL    HW136749   3.440   2.348   8.499 -0.4276  0.0766 -0.6716
 8429SOL    HW236750   3.543   2.259   8.444  1.0337 -0.7661 -1.6512
 8430SOL     OW36751   1.036   4.069  13.663  0.5834  0.3134 -0.2385
 8430SOL    HW136752   1.049   4.162  13.643 -0.8487  1.1746  2.7983
 8430SOL    HW236753   0.953   4.050  13.619  1.2938 -0.3451 -1.2777
 8431SOL     OW36754   3.602   0.206   4.541  0.4609 -0.6022 -0.1001
 8431SOL    HW136755   3.641   0.237   4.459 -1.9377  2.8951  0.0768
 8431SOL    HW236756   3.654   0.255   4.606 -1.7080 -1.0675  1.9778
 8432SOL     OW36757   1.190   2.085   2.841 -0.7511  0.6793  0.5886
 8432SOL    HW136758   1.147   2.122   2.918 -1.3780 -0.0062  0.5643
 8432SOL    HW236759   1.272   2.056   2.882  0.0702  0.9194 -0.8487
 8433SOL     OW36760   0.865   0.565  15.893  0.1026  0.8496 -0.0920
 8433SOL    HW136761   0.952   0.524  15.899  1.1396  2.7574 -1.9878
 8433SOL    HW236762   0.830   0.534  15.809  0.3596 -1.2304  0.5802
 8434SOL     OW36763   1.362   0.268  10.648  0.2163  0.0780  0.1686
 8434SOL    HW136764   1.392   0.190  10.695  2.8756  0.9690 -0.0799
 8434SOL    HW236765   1.321   0.315  10.721  1.7966  0.9103  0.5184
 8435SOL     OW36766   4.432   4.319  10.271  0.1209  0.6891 -0.0495
 8435SOL    HW136767   4.439   4.409  10.301 -1.5160  1.0182 -0.6415
 8435SOL    HW236768   4.504   4.277  10.318 -0.1449  2.0268  1.5637
 8436SOL     OW36769   2.576   4.415  14.473  1.0611  0.2426  0.0179
 8436SOL    HW136770   2.544   4.504  14.486  0.5788  0.5195 -3.0423
 8436SOL    HW236771   2.493   4.375  14.447  1.1779 -0.5707  0.9003
 8437SOL     OW36772   1.369   4.166   4.773 -0.0504  0.1997 -0.0656
 8437SOL    HW136773   1.375   4.071   4.764 -0.0671  0.0366  1.5952
 8437SOL    HW236774   1.274   4.180   4.767  0.0939  1.5853  0.9046
 8438SOL     OW36775   4.215   3.958  16.373 -0.6803 -0.0350  0.7204
 8438SOL    HW136776   4.254   4.017  16.438  0.4036 -0.1708  0.1986
 8438SOL    HW236777   4.175   4.028  16.321 -0.7801 -0.4042  0.3008
 8439SOL     OW36778   1.303   3.305   7.679 -0.2090 -0.2841  0.2039
 8439SOL    HW136779   1.295   3.292   7.774 -0.1895 -0.1158  0.2285
 8439SOL    HW236780   1.361   3.381   7.668  0.2745 -0.6766  0.0369
 8440SOL     OW36781   1.954   4.324   6.947 -0.5540 -0.1182  0.0766
 8440SOL    HW136782   2.035   4.361   6.914  0.1751  0.7576  2.8714
 8440SOL    HW236783   1.909   4.271   6.881  0.9172  0.5801 -1.4722
 8441SOL     OW36784   3.209   0.394  13.521  0.3609 -0.2672 -0.4493
 8441SOL    HW136785   3.261   0.460  13.566 -2.6461  1.4326  0.5175
 8441SOL    HW236786   3.250   0.396  13.435  0.9195  0.9383 -0.1495
 8442SOL     OW36787   3.639   2.621   2.440 -0.3520  0.1042 -0.4751
 8442SOL    HW136788   3.626   2.638   2.346  0.0509  1.2768 -0.3094
 8442SOL    HW236789   3.545   2.624   2.457 -0.8164 -2.0184 -2.6118
 8443SOL     OW36790   2.828   2.455   5.979  0.7530  0.2178  0.0201
 8443SOL    HW136791   2.752   2.470   6.036  2.8690  1.0453  2.6440
 8443SOL    HW236792   2.783   2.396   5.918  0.7357  1.1306 -0.8450
 8444SOL     OW36793   2.530   0.196   9.645 -0.2136  0.3342 -0.4071
 8444SOL    HW136794   2.540   0.101   9.645 -1.5106  0.2050  1.7616
 8444SOL    HW236795   2.557   0.215   9.555  1.3301 -0.3427 -0.0786
 8445SOL     OW36796   0.665   1.658  12.530 -0.2040 -0.0641 -0.2115
 8445SOL    HW136797   0.633   1.741  12.564  0.1173  1.3281 -3.3119
 8445SOL    HW236798   0.623   1.602  12.596 -0.4383 -2.4437 -2.3723
 8446SOL     OW36799   4.045   2.093   3.560 -0.2136  0.3919  0.2732
 8446SOL    HW136800   4.077   2.003   3.569 -0.0169  0.4484  0.1392
 8446SOL    HW236801   3.974   2.102   3.623 -1.9517 -2.1501 -1.3236
 8447SOL     OW36802   4.107   3.431  14.223 -0.9092  0.3834 -0.2933
 8447SOL    HW136803   4.176   3.474  14.172 -0.7398  1.1160  0.5408
 8447SOL    HW236804   4.156   3.359  14.263 -0.4541  0.8710  0.0364
 8448SOL     OW36805   0.779   1.739  11.862  0.0654  0.4731 -0.0654
 8448SOL    HW136806   0.847   1.788  11.818 -1.8567  1.2258 -2.1738
 8448SOL    HW236807   0.729   1.808  11.906  0.4760  1.2431 -0.8240
 8449SOL     OW36808   1.865   3.820   6.184  0.0919  0.3823  0.1496
 8449SOL    HW136809   1.780   3.856   6.161 -0.9364 -1.6638  0.7604
 8449SOL    HW236810   1.909   3.872   6.116 -1.7940 -0.3032 -1.5995
 8450SOL     OW36811   1.739   2.942   8.153  0.5491  0.0008  0.0084
 8450SOL    HW136812   1.750   2.899   8.238  1.2711  1.8364  0.8381
 8450SOL    HW236813   1.787   3.025   8.159  1.5062 -0.4063 -2.2150
 8451SOL     OW36814   4.222   1.996   3.283 -0.4157 -0.4641 -0.3290
 8451SOL    HW136815   4.262   2.035   3.361  1.1066  1.2032 -1.9586
 8451SOL    HW236816   4.223   2.080   3.237 -0.0448  0.9493  2.2297
 8452SOL     OW36817   0.027   3.905  11.312  0.0851  0.0320  0.4535
 8452SOL    HW136818   4.724   3.910  11.403 -0.1830  2.0644  0.2517
 8452SOL    HW236819   0.079   3.986  11.308 -0.6087  0.5825  2.9907
 8453SOL     OW36820   3.000   1.274   7.701 -0.1939  0.4490  0.3238
 8453SOL    HW136821   2.941   1.335   7.657  2.2534  2.2800 -0.4031
 8453SOL    HW236822   2.939   1.203   7.721 -0.1156  0.3624  0.2515
 8454SOL     OW36823   1.026   1.742   3.414 -0.4353  0.4938  0.2872
 8454SOL    HW136824   1.063   1.830   3.402  1.4618 -0.3500  0.0295
 8454SOL    HW236825   0.977   1.758   3.495  0.9073 -0.9362  1.3647
 8455SOL     OW36826   4.230   4.087  12.197 -0.4058 -0.4705  0.1838
 8455SOL    HW136827   4.137   4.107  12.206 -0.4815 -1.1172  0.8850
 8455SOL    HW236828   4.241   3.992  12.197  0.1727 -0.4049 -0.3856
 8456SOL     OW36829   1.815   2.384   5.091  0.0126 -0.1507 -0.0493
 8456SOL    HW136830   1.787   2.381   4.999  1.1839  1.1549 -0.4513
 8456SOL    HW236831   1.733   2.399   5.136 -0.2708  2.3915 -1.3973
 8457SOL     OW36832   3.193   3.854   0.682  0.6524 -0.4810 -0.0517
 8457SOL    HW136833   3.122   3.808   0.638  0.4338  0.6043 -0.8243
 8457SOL    HW236834   3.239   3.780   0.722  0.5759 -0.0664  0.8100
 8458SOL     OW36835   3.049   1.617   5.046  0.2604  0.4784 -0.0408
 8458SOL    HW136836   3.049   1.702   5.091 -3.2292  1.4277 -1.8614
 8458SOL    HW236837   3.117   1.638   4.982 -2.1843  0.8483 -2.5031
 8459SOL     OW36838   0.755   4.085   0.448 -0.7438 -0.2237 -0.3868
 8459SOL    HW136839   0.750   3.999   0.492  1.9950 -1.9198 -3.3941
 8459SOL    HW236840   0.664   4.104   0.426 -0.4898  1.0901 -0.2930
 8460SOL     OW36841   0.004   1.215   2.458  0.0473  0.0379  0.0392
 8460SOL    HW136842   4.704   1.252   2.543 -0.9545  0.0470 -0.2450
 8460SOL    HW236843   0.047   1.295   2.428  0.1197  0.1617  0.4713
 8461SOL     OW36844   3.440   4.585   6.534  0.4220 -0.1626  0.0732
 8461SOL    HW136845   3.435   4.513   6.471  1.4672  0.4105 -0.6703
 8461SOL    HW236846   3.411   4.663   6.486 -0.2670 -0.5751 -0.1848
 8462SOL     OW36847   2.862   2.666   3.650 -0.0575  0.6854 -0.4014
 8462SOL    HW136848   2.810   2.604   3.701  2.0865 -0.6408  0.1929
 8462SOL    HW236849   2.818   2.750   3.652 -1.2340  0.0931 -1.7133
 8463SOL     OW36850   3.546   2.318   2.224 -0.0349 -0.0925  0.0571
 8463SOL    HW136851   3.468   2.301   2.277 -0.0162 -1.3760 -0.3405
 8463SOL    HW236852   3.508   2.389   2.172  1.1445 -0.7390 -1.6882
 8464SOL     OW36853   3.503   3.563   4.870  0.6560 -0.4204 -0.1790
 8464SOL    HW136854   3.572   3.630   4.877 -0.4111  0.8127 -1.7166
 8464SOL    HW236855   3.461   3.580   4.955 -0.5479 -1.8842 -0.5010
 8465SOL     OW36856   3.393   0.918   8.821  0.1959  0.8767  0.0570
 8465SOL    HW136857   3.420   1.009   8.817  0.8186  0.5693 -2.7285
 8465SOL    HW236858   3.471   0.870   8.793  1.5427  1.6883  2.4951
 8466SOL     OW36859   4.294   0.380   6.580  0.0757 -0.5490 -0.0375
 8466SOL    HW136860   4.293   0.463   6.532  3.7215 -0.1649  0.5368
 8466SOL    HW236861   4.291   0.417   6.668 -1.9700  0.0583 -0.3470
 8467SOL     OW36862   2.659   1.901  12.233  0.4280  0.2012 -0.2404
 8467SOL    HW136863   2.748   1.888  12.266  0.5467  1.5795 -0.0148
 8467SOL    HW236864   2.614   1.831  12.279  2.3658 -1.1263 -0.3632
 8468SOL     OW36865   3.846   4.419  10.038 -0.4718  0.0051 -0.2525
 8468SOL    HW136866   3.915   4.400  10.103 -2.1215 -0.1974  1.4297
 8468SOL    HW236867   3.872   4.508  10.015 -0.8036 -0.2735 -1.6898
 8469SOL     OW36868   3.564   0.864   0.919  0.2202 -0.4214  0.1317
 8469SOL    HW136869   3.646   0.815   0.916  0.8299  0.7090 -1.8589
 8469SOL    HW236870   3.592   0.950   0.887  2.9434 -1.6546 -0.8561
 8470SOL     OW36871   2.447   1.535  12.830 -0.2564  0.2118 -0.0333
 8470SOL    HW136872   2.378   1.522  12.764 -0.5842  1.0765  0.1338
 8470SOL    HW236873   2.506   1.602  12.795 -0.6182  0.0868 -0.8933
 8471SOL     OW36874   1.372   3.149  16.371 -0.0890 -0.1606 -0.1350
 8471SOL    HW136875   1.363   3.139  16.276  2.6865  4.3322 -0.8046
 8471SOL    HW236876   1.282   3.154  16.404 -0.2877 -1.4872 -0.4539
 8472SOL     OW36877   1.880   2.796   8.570  0.1529  0.0144 -0.2766
 8472SOL    HW136878   1.970   2.772   8.592  0.5858  1.6619 -0.2741
 8472SOL    HW236879   1.829   2.735   8.624  0.4445  0.0482  0.0302
 8473SOL     OW36880   1.383   0.187   4.706  0.0370 -0.1757 -0.2365
 8473SOL    HW136881   1.345   0.273   4.718 -0.7262 -0.3079 -1.7111
 8473SOL    HW236882   1.471   0.213   4.735 -0.1856  0.6649 -0.3368
 8474SOL     OW36883   0.035   3.175  16.570 -0.7686 -0.4788 -0.2450
 8474SOL    HW136884   0.024   3.174  16.475 -2.0183 -2.3043 -0.0706
 8474SOL    HW236885   0.129   3.172  16.586 -0.6099 -0.2072 -1.1425
 8475SOL     OW36886   2.019   4.133  15.488  0.2204 -0.3534  0.3838
 8475SOL    HW136887   2.009   4.045  15.525  2.4559 -0.6534  0.2841
 8475SOL    HW236888   2.076   4.116  15.414  2.5192 -1.5885  2.4377
 8476SOL     OW36889   2.599   0.607   2.177  0.1802 -0.0639 -0.1482
 8476SOL    HW136890   2.546   0.537   2.140 -1.5426  1.3861 -0.4561
 8476SOL    HW236891   2.562   0.598   2.264  1.2310  1.2909  0.4346
 8477SOL     OW36892   2.270   4.057   6.743  0.1850 -0.1203  0.1494
 8477SOL    HW136893   2.212   3.982   6.730 -0.2597  0.4415 -1.1237
 8477SOL    HW236894   2.285   4.078   6.651  1.0716  0.3043  0.3896
 8478SOL     OW36895   0.627   1.686   9.688 -0.0102  0.6058 -0.4408
 8478SOL    HW136896   0.571   1.700   9.765 -0.7689 -1.8909 -0.5356
 8478SOL    HW236897   0.627   1.769   9.640  0.9992  0.8013 -0.1024
 8479SOL     OW36898   3.933   3.834   1.073 -0.2749 -0.3800  0.5105
 8479SOL    HW136899   3.923   3.739   1.076 -1.1458 -0.3830 -1.7622
 8479SOL    HW236900   4.027   3.849   1.067  0.0741 -1.7899  2.8545
 8480SOL     OW36901   4.698   3.105   4.767  0.2460  0.0055  0.1137
 8480SOL    HW136902   4.632   3.040   4.742  0.2891 -0.3399  0.8764
 8480SOL    HW236903   0.006   3.112   4.678 -0.9561 -1.1267 -0.3991
 8481SOL     OW36904   2.982   3.220  13.546  0.4765  0.9963  0.2967
 8481SOL    HW136905   2.941   3.278  13.610  0.1594 -2.4572  3.2092
 8481SOL    HW236906   3.047   3.173  13.598  0.8220  2.4368  1.1948
 8482SOL     OW36907   0.818   4.436  10.791  0.3290 -0.3094  0.0156
 8482SOL    HW136908   0.780   4.449  10.704  0.3345  2.3310  0.4002
 8482SOL    HW236909   0.828   4.524  10.829  1.1470  0.2104 -1.4158
 8483SOL     OW36910   2.689   4.461   6.855 -0.5122 -0.0415 -0.2457
 8483SOL    HW136911   2.640   4.543   6.849 -0.6092  0.0800  2.1207
 8483SOL    HW236912   2.636   4.428   6.928 -0.2800 -2.9457 -1.4221
 8484SOL     OW36913   1.076   2.457   8.627  0.8086 -0.2697  0.5368
 8484SOL    HW136914   1.004   2.482   8.685  0.8293  1.1319 -0.0217
 8484SOL    HW236915   1.049   2.513   8.553 -2.0937 -1.7119  0.5147
 8485SOL     OW36916   1.718   3.938  11.829  0.0820  0.1105  0.0081
 8485SOL    HW136917   1.634   3.976  11.857  0.8481 -0.1038  2.6420
 8485SOL    HW236918   1.692   3.849  11.853  4.1136 -1.0595 -0.0415
 8486SOL     OW36919   0.701   2.075   2.564 -0.4379 -0.2169  0.5870
 8486SOL    HW136920   0.650   2.002   2.528 -0.4147 -0.7887  1.7193
 8486SOL    HW236921   0.659   2.150   2.522 -1.6361 -0.7435  0.8499
 8487SOL     OW36922   3.100   4.621   4.306  0.0183 -0.1675  0.4603
 8487SOL    HW136923   3.071   4.568   4.380 -1.8749 -0.0801 -0.2194
 8487SOL    HW236924   3.166   4.663   4.361 -0.4541 -1.4332  1.9904
 8488SOL     OW36925   2.449   4.511   5.860  0.0096  0.4902  0.9146
 8488SOL    HW136926   2.505   4.568   5.807 -0.8394 -1.3159 -1.8932
 8488SOL    HW236927   2.375   4.570   5.876 -0.6272 -0.3431  1.0186
 8489SOL     OW36928   3.081   4.005   7.280 -0.0110 -0.3872 -0.2656
 8489SOL    HW136929   3.062   3.977   7.190 -1.2563 -0.2023 -0.0569
 8489SOL    HW236930   3.007   4.064   7.296  1.0572  1.1129 -0.8710
 8490SOL     OW36931   1.465   0.419   3.304 -0.2890  0.6711  0.8054
 8490SOL    HW136932   1.558   0.399   3.318 -0.1940  1.3891  1.2170
 8490SOL    HW236933   1.460   0.394   3.212 -0.0654 -0.2193  1.0348
 8491SOL     OW36934   4.551   0.411  15.806 -0.9036 -0.2210 -0.4729
 8491SOL    HW136935   4.621   0.366  15.759 -0.2575  1.4712 -1.1108
 8491SOL    HW236936   4.521   0.461  15.730 -0.6384 -0.5680 -0.8050
 8492SOL     OW36937   0.413   3.042   8.791  0.1647 -0.3971 -0.4119
 8492SOL    HW136938   0.321   3.037   8.818  1.0194 -0.1423  2.5790
 8492SOL    HW236939   0.423   3.008   8.702 -1.7048 -1.6289 -0.1512
 8493SOL     OW36940   3.168   1.982  15.793  0.6433 -0.6547 -0.3670
 8493SOL    HW136941   3.103   1.912  15.806 -0.4921  1.0137  2.8789
 8493SOL    HW236942   3.135   2.046  15.856  1.9625 -2.0678  1.7749
 8494SOL     OW36943   1.372   1.551   5.721  0.1490  0.2247 -0.2762
 8494SOL    HW136944   1.368   1.507   5.636 -2.0838  0.0292 -0.0661
 8494SOL    HW236945   1.288   1.525   5.759  1.0571 -3.1193 -0.5106
 8495SOL     OW36946   1.231   0.741   8.755 -0.4611  0.1446  0.0361
 8495SOL    HW136947   1.248   0.812   8.817 -1.7846 -0.5822  1.2093
 8495SOL    HW236948   1.285   0.667   8.780 -0.3869  0.6372  1.3496
 8496SOL     OW36949   4.081   4.526   4.376 -0.5300  0.1500 -0.0460
 8496SOL    HW136950   4.131   4.452   4.343 -0.7984  1.4407 -3.3280
 8496SOL    HW236951   4.077   4.589   4.304 -1.0698  1.6882  1.3347
 8497SOL     OW36952   2.053   2.748  11.221 -0.1543 -0.0727 -0.3700
 8497SOL    HW136953   2.120   2.736  11.155 -0.6493  1.2321 -1.1107
 8497SOL    HW236954   2.003   2.811  11.169  0.8243  2.0468  1.2617
 8498SOL     OW36955   4.578   3.519   0.910 -0.2457 -0.4811  0.0930
 8498SOL    HW136956   4.592   3.612   0.890 -1.0155 -0.3108  0.3456
 8498SOL    HW236957   4.613   3.467   0.838  0.9262 -1.5677  1.4351
 8499SOL     OW36958   0.667   1.701   5.077 -0.3165  0.1879  0.6000
 8499SOL    HW136959   0.608   1.651   5.021 -1.3154  1.2671  0.6844
 8499SOL    HW236960   0.753   1.668   5.050 -0.8136  0.4838 -1.2959
 8500SOL     OW36961   0.453   2.610  14.949 -0.0991 -0.2701 -0.0011
 8500SOL    HW136962   0.497   2.625  15.032 -1.5489  0.0280  0.7061
 8500SOL    HW236963   0.469   2.515  14.952  1.6300 -0.0145 -0.9500
 8501SOL     OW36964   4.478   3.949   0.177  0.8740 -0.2789 -0.0615
 8501SOL    HW136965   4.419   3.973   0.248 -0.1024  0.9476 -1.3104
 8501SOL    HW236966   4.564   3.962   0.218  0.4764  2.6407 -0.1886
 8502SOL     OW36967   0.818   2.884   3.267  0.0513  0.4701  0.5182
 8502SOL    HW136968   0.760   2.809   3.282  0.2271  0.4916  1.3282
 8502SOL    HW236969   0.858   2.886   3.354  0.8625  1.9268  0.1135
 8503SOL     OW36970   1.510   3.545   8.184  0.0873  0.1029 -0.4340
 8503SOL    HW136971   1.596   3.511   8.211  0.6084 -0.5513 -2.9279
 8503SOL    HW236972   1.509   3.618   8.246  1.1209 -0.1681 -0.0914
 8504SOL     OW36973   2.380   1.181   7.102  0.7557 -0.0684 -0.3111
 8504SOL    HW136974   2.387   1.229   7.020  0.9546  1.8797  0.8436
 8504SOL    HW236975   2.452   1.118   7.092  0.6762 -0.4363  1.3916
 8505SOL     OW36976   2.054   1.391  15.033  0.4251  0.0935 -0.4751
 8505SOL    HW136977   2.108   1.447  15.089 -1.3706  1.6803 -0.3425
 8505SOL    HW236978   1.984   1.453  15.013  1.2543  1.2408  0.1634
 8506SOL     OW36979   1.291   4.585   0.845 -0.1534 -0.4553 -0.0074
 8506SOL    HW136980   1.377   4.616   0.816 -0.8558  0.9511 -0.6194
 8506SOL    HW236981   1.242   4.657   0.804  0.8787  0.5790  0.5796
 8507SOL     OW36982   4.440   1.119  10.812  0.1552  0.4207 -0.6807
 8507SOL    HW136983   4.492   1.105  10.891 -0.8395  2.8237  0.4034
 8507SOL    HW236984   4.434   1.214  10.798 -1.0269  0.4140 -0.1463
 8508SOL     OW36985   4.645   0.021   5.150  0.2085  0.0193  0.0314
 8508SOL    HW136986   4.630   4.657   5.116 -0.0733  1.1560 -2.8077
 8508SOL    HW236987   4.666   0.008   5.243  0.3633 -0.4061 -0.0655
 8509SOL     OW36988   3.944   1.168  16.408  0.4830  0.6768 -0.2832
 8509SOL    HW136989   3.990   1.201  16.332  1.9639  0.9133  0.7204
 8509SOL    HW236990   3.869   1.125  16.367 -0.2620  1.5413  0.1599
 8510SOL     OW36991   4.011   2.507   7.461 -0.4357  0.2899 -0.0944
 8510SOL    HW136992   3.986   2.424   7.420 -0.8737  0.5141 -0.2791
 8510SOL    HW236993   3.925   2.537   7.488 -0.4634  1.8043 -1.9048
 8511SOL     OW36994   0.038   0.091   7.249  0.0562 -0.7956  0.1663
 8511SOL    HW136995   0.114   0.035   7.262  0.5118 -0.9259 -3.2020
 8511SOL    HW236996   0.007   0.080   7.159  1.3041 -3.5018  0.0530
 8512SOL     OW36997   3.322   4.646  10.252 -0.3351 -0.0782  0.4147
 8512SOL    HW136998   3.411   4.659  10.221 -1.0541 -0.5460 -1.8655
 8512SOL    HW236999   3.272   4.709  10.200 -0.5213 -1.5168 -1.1367
 8513SOL     OW37000   2.811   2.178   9.097 -0.0984  0.0532 -0.3056
 8513SOL    HW137001   2.761   2.097   9.106 -1.3030  0.9212  0.8878
 8513SOL    HW237002   2.739   2.241   9.106  0.3174  0.4838  0.0007
 8514SOL     OW37003   3.634   4.100   1.732  0.6670 -0.0837 -0.3172
 8514SOL    HW137004   3.716   4.092   1.683  1.5816  3.8541  0.5961
 8514SOL    HW237005   3.677   4.106   1.818  0.7777  1.6662 -0.5046
 8515SOL     OW37006   0.105   2.546   5.023 -0.1609  0.0140 -0.8639
 8515SOL    HW137007   0.152   2.468   4.993  0.6711 -0.2114  0.9815
 8515SOL    HW237008   0.023   2.513   5.058  0.7258  1.8340  2.9315
 8516SOL     OW37009   4.571   4.655   6.172 -0.0076  0.3249  0.5562
 8516SOL    HW137010   4.489   4.668   6.219  0.2863 -2.1674  1.7886
 8516SOL    HW237011   4.581   4.568   6.211  3.5182  0.5334  0.1217
 8517SOL     OW37012   3.652   1.075  11.698 -0.6650  0.0661  1.1404
 8517SOL    HW137013   3.729   1.040  11.742 -0.1217 -1.1360 -0.8074
 8517SOL    HW237014   3.666   1.064  11.604 -0.5589 -1.6733  1.3774
 8518SOL     OW37015   3.936   3.434   0.104  0.1430  0.3288  0.4739
 8518SOL    HW137016   4.003   3.500   0.081 -1.6899  1.6549 -1.0191
 8518SOL    HW237017   3.901   3.418   0.017 -2.2762  0.6212  1.4126
 8519SOL     OW37018   2.100   2.446   7.844 -0.0647  0.0650  0.4506
 8519SOL    HW137019   2.037   2.458   7.915  0.4990  3.1990  0.4470
 8519SOL    HW237020   2.062   2.371   7.799 -2.4256  1.9450 -0.7171
 8520SOL     OW37021   3.955   2.663   3.477 -0.7087 -0.3429 -0.1972
 8520SOL    HW137022   3.893   2.610   3.428 -1.8864 -0.1514  1.0635
 8520SOL    HW237023   3.914   2.748   3.460 -1.4969 -0.5221  0.8232
 8521SOL     OW37024   1.313   4.389   4.570  0.2698  0.1276  0.1064
 8521SOL    HW137025   1.336   4.339   4.648  0.5411  3.4232  2.1562
 8521SOL    HW237026   1.359   4.345   4.498  1.1623 -1.6190  1.7553
 8522SOL     OW37027   0.103   3.610   3.750  0.1257 -0.3772 -0.2328
 8522SOL    HW137028   0.091   3.684   3.690  1.5684 -2.0800 -2.6398
 8522SOL    HW237029   0.032   3.548   3.733 -0.1693 -0.2207  0.4430
 8523SOL     OW37030   2.173   1.682   2.021  0.6689 -0.6350  1.1041
 8523SOL    HW137031   2.237   1.729   1.968 -0.4456  1.2806  1.4569
 8523SOL    HW237032   2.158   1.608   1.962 -1.4473 -0.2289  1.1303
 8524SOL     OW37033   3.969   1.940   3.008 -0.3627  0.4992  0.3433
 8524SOL    HW137034   4.030   1.890   2.953  2.1809  2.6826  1.1816
 8524SOL    HW237035   3.894   1.943   2.949  0.2625  3.1137 -0.2905
 8525SOL     OW37036   1.753   0.543   5.754 -0.9782  0.1040 -0.3092
 8525SOL    HW137037   1.715   0.606   5.693 -0.4442 -0.5228 -1.3088
 8525SOL    HW237038   1.724   0.464   5.709  1.6788 -1.7181  1.2094
 8526SOL     OW37039   3.451   1.691   1.817  0.0166  0.5919  0.3867
 8526SOL    HW137040   3.362   1.659   1.802  0.9165  0.0289 -3.8300
 8526SOL    HW237041   3.497   1.607   1.811  0.4623  1.0867 -3.2908
 8527SOL     OW37042   2.628   0.317   2.619 -0.0926 -0.4911 -0.2001
 8527SOL    HW137043   2.581   0.294   2.699  1.3898 -0.5945  0.6377
 8527SOL    HW237044   2.551   0.323   2.562 -2.0079  0.6970  2.4857
 8528SOL     OW37045   1.585   2.503   9.114  0.2471 -0.5696 -1.0320
 8528SOL    HW137046   1.602   2.462   9.199 -0.1868 -0.3060 -0.8153
 8528SOL    HW237047   1.593   2.429   9.054  2.9451 -0.4851 -0.7708
 8529SOL     OW37048   0.929   1.701   2.390 -0.1982  0.3349  0.1576
 8529SOL    HW137049   0.852   1.710   2.333 -1.2455  0.8809  1.6437
 8529SOL    HW237050   0.936   1.791   2.421  0.0200  0.6141 -0.7106
 8530SOL     OW37051   1.757   2.381   8.405 -0.2893  0.9265 -0.6066
 8530SOL    HW137052   1.841   2.384   8.450 -1.0652 -2.3919  1.1044
 8530SOL    HW237053   1.757   2.287   8.386 -1.3494  0.8371 -0.1766
 8531SOL     OW37054   3.346   4.068   2.072 -0.3344  0.1656  0.1899
 8531SOL    HW137055   3.436   4.067   2.106 -0.1793  2.2670 -0.1663
 8531SOL    HW237056   3.367   4.132   2.004  2.1350 -1.2844 -0.4432
 8532SOL     OW37057   4.037   2.002  10.058  0.0690 -0.3791  0.1884
 8532SOL    HW137058   4.061   1.969   9.971  0.8215  0.6644  0.0051
 8532SOL    HW237059   3.978   1.935  10.091  1.4420 -2.8650 -2.3779
 8533SOL     OW37060   1.380   4.468   6.288  0.7309  0.3742  0.0486
 8533SOL    HW137061   1.334   4.552   6.286  0.4510  0.2036 -0.5300
 8533SOL    HW237062   1.463   4.492   6.246  1.3413 -1.4365  0.1925
 8534SOL     OW37063   0.113   3.343   4.414 -0.2053 -0.1274 -0.1627
 8534SOL    HW137064   0.092   3.253   4.439 -2.0433  0.7445  1.3880
 8534SOL    HW237065   0.199   3.357   4.455 -0.7255 -1.4440  1.3754
 8535SOL     OW37066   0.927   4.000  16.075 -0.2349 -0.0796  0.0926
 8535SOL    HW137067   0.857   4.013  16.012  1.5705  1.4597 -1.5991
 8535SOL    HW237068   0.951   4.092  16.070  1.1378 -0.3662  1.2399
 8536SOL     OW37069   0.849   4.696  10.457  0.3881 -0.4510  0.0939
 8536SOL    HW137070   0.895   4.670  10.377  2.0634 -0.9054  1.2186
 8536SOL    HW237071   0.868   0.062  10.479  0.7663 -0.7053  0.8223
 8537SOL     OW37072   0.274   3.439   4.883 -0.1187 -0.8950 -0.2271
 8537SOL    HW137073   0.299   3.360   4.834 -1.1231 -1.3245 -0.0602
 8537SOL    HW237074   0.249   3.510   4.825 -0.7426  0.6879  1.9797
 8538SOL     OW37075   0.859   2.445   2.607  0.5126 -0.1581  0.6432
 8538SOL    HW137076   0.936   2.388   2.616  0.3634  0.1434  4.1720
 8538SOL    HW237077   0.787   2.383   2.600 -0.3394  0.9387 -0.2888
 8539SOL     OW37078   4.558   2.042   5.875 -0.0210  0.4538 -0.1504
 8539SOL    HW137079   4.473   2.048   5.831 -0.6660 -1.1617  0.8796
 8539SOL    HW237080   4.558   2.121   5.928  0.3239 -0.3453  1.0269
 8540SOL     OW37081   3.195   4.255  10.157  0.1408 -0.5260  0.5681
 8540SOL    HW137082   3.182   4.181  10.097  0.9791 -1.2738  1.3078
 8540SOL    HW237083   3.286   4.249  10.187  0.2336 -2.0099 -0.0164
 8541SOL     OW37084   0.185   1.167   0.452 -0.3989 -0.4323 -0.5942
 8541SOL    HW137085   0.123   1.220   0.502  0.9154  2.0144 -1.5480
 8541SOL    HW237086   0.142   1.170   0.366  0.8737  0.5035 -1.2041
 8542SOL     OW37087   1.775   3.021   7.860  0.3440 -0.2449  0.1280
 8542SOL    HW137088   1.753   2.982   7.944 -1.7464 -0.2198 -0.4072
 8542SOL    HW237089   1.870   3.008   7.855  0.5227  0.4135  1.6808
 8543SOL     OW37090   4.511   0.829   6.754  0.1274 -0.2678  0.7131
 8543SOL    HW137091   4.514   0.757   6.691  0.7809 -1.5684  2.2350
 8543SOL    HW237092   4.433   0.800   6.801  1.1436 -2.1605  1.2189
 8544SOL     OW37093   2.682   0.450   6.626 -0.9171 -0.1020  0.3296
 8544SOL    HW137094   2.775   0.462   6.645 -1.1957 -0.5575  1.9983
 8544SOL    HW237095   2.658   0.542   6.638  5.0060  1.6381 -0.8718
 8545SOL     OW37096   2.706   3.993  17.678 -0.1575  0.2792  0.1379
 8545SOL    HW137097   2.683   4.046  17.602 -3.4509 -1.3052  0.0248
 8545SOL    HW237098   2.660   3.913  17.652 -2.5349  2.1703 -1.5654
 8546SOL     OW37099   1.834   0.562   1.183  0.4489  0.2535  0.1523
 8546SOL    HW137100   1.888   0.550   1.105  2.4814  0.6320  1.4686
 8546SOL    HW237101   1.889   0.598   1.253  2.3180  0.8668 -1.6357
 8547SOL     OW37102   4.037   3.770   3.017  0.1501 -0.3234 -0.2856
 8547SOL    HW137103   4.076   3.706   3.077 -0.4664 -0.9850 -0.5980
 8547SOL    HW237104   4.115   3.820   2.992 -1.1286  2.2292  0.9778
 8548SOL     OW37105   4.719   2.185  13.317 -0.0849 -0.0397  0.0792
 8548SOL    HW137106   0.067   2.238  13.283  1.6427 -1.9899  0.7272
 8548SOL    HW237107   4.661   2.255  13.348 -2.6523 -1.6817 -1.0399
 8549SOL     OW37108   0.910   2.918   6.112  0.2107  0.3671 -0.4025
 8549SOL    HW137109   0.928   2.999   6.161  0.9560 -0.5378  0.8153
 8549SOL    HW237110   0.870   2.862   6.178  0.8326 -1.3951 -1.5233
 8550SOL     OW37111   2.541   1.687  14.931  0.1435  0.5850  0.0612
 8550SOL    HW137112   2.487   1.664  14.856 -0.4210  0.2010  0.5922
 8550SOL    HW237113   2.483   1.657  15.000  0.1349 -1.6047 -0.9086
 8551SOL     OW37114   2.311   0.806  17.123 -0.1146  0.0052 -0.0029
 8551SOL    HW137115   2.405   0.816  17.105  0.3437 -0.0426  2.3956
 8551SOL    HW237116   2.292   0.746  17.051 -2.1656  0.7297 -0.0646
 8552SOL     OW37117   4.303   0.388   6.854 -0.1270 -0.1757  0.5149
 8552SOL    HW137118   4.372   0.366   6.917  0.3658 -1.3744 -0.4627
 8552SOL    HW237119   4.243   0.418   6.923 -0.8751  0.3217 -0.3493
 8553SOL     OW37120   3.719   3.265   6.547 -0.2296 -0.4387 -0.1255
 8553SOL    HW137121   3.731   3.170   6.543 -2.9925 -0.9011  2.5746
 8553SOL    HW237122   3.807   3.302   6.546 -0.3745  0.0005  2.1504
 8554SOL     OW37123   4.084   2.494   9.054 -0.2366 -0.0977 -0.0232
 8554SOL    HW137124   4.146   2.422   9.061  0.3891  0.5039  0.6120
 8554SOL    HW237125   4.027   2.484   9.131 -1.5590  1.3389 -0.8046
 8555SOL     OW37126   2.607   1.869   9.689  0.3976 -0.0830 -0.3028
 8555SOL    HW137127   2.534   1.930   9.678 -0.8382 -1.5206 -0.0013
 8555SOL    HW237128   2.683   1.923   9.713  0.0651  0.7910 -1.2039
 8556SOL     OW37129   0.550   3.470  11.992  0.1122  0.2425 -0.1514
 8556SOL    HW137130   0.535   3.376  11.994 -1.7776  0.4970 -1.6668
 8556SOL    HW237131   0.495   3.491  11.916  1.5248  0.6185 -1.0708
 8557SOL     OW37132   1.393   0.345  13.619  0.2066  0.3911  0.2006
 8557SOL    HW137133   1.438   0.308  13.543 -0.3607 -2.2594  1.1380
 8557SOL    HW237134   1.324   0.395  13.576  0.0437  0.1316  0.1629
 8558SOL     OW37135   4.023   4.026  16.942 -0.3223 -0.2984  0.3343
 8558SOL    HW137136   4.023   3.947  16.887 -1.1428  0.7817 -1.2031
 8558SOL    HW237137   3.948   4.076  16.912 -0.4643 -0.6515  0.0933
 8559SOL     OW37138   4.096   3.258   8.130  0.0306 -0.2620 -0.1755
 8559SOL    HW137139   4.075   3.350   8.145  0.8964  0.0893 -1.1193
 8559SOL    HW237140   4.019   3.222   8.085 -0.3560 -0.7210  0.8654
 8560SOL     OW37141   3.577   1.088   3.483  0.0659 -0.1083 -0.3694
 8560SOL    HW137142   3.491   1.130   3.476 -0.0386 -0.0010  1.4254
 8560SOL    HW237143   3.592   1.035   3.405  3.5981 -1.4737  1.2205
 8561SOL     OW37144   3.863   4.020   1.268 -0.1321  0.2580 -0.2559
 8561SOL    HW137145   3.912   3.959   1.322  0.3629 -1.0465 -2.1755
 8561SOL    HW237146   3.848   3.964   1.192 -0.3715  0.7503 -0.5672
 8562SOL     OW37147   0.060   4.682   4.892 -0.4848  0.4324  0.1253
 8562SOL    HW137148   0.004   0.012   4.948 -1.0589  0.3953 -0.4171
 8562SOL    HW237149   0.132   4.677   4.955 -1.4300  1.9935  1.3180
 8563SOL     OW37150   3.506   1.704   3.453 -0.1760  0.5924  0.5133
 8563SOL    HW137151   3.570   1.633   3.453 -1.0721 -0.2134  0.3945
 8563SOL    HW237152   3.476   1.698   3.362 -2.0868  0.4496  1.1434
 8564SOL     OW37153   3.800   3.525   7.371 -0.2279 -0.6279  0.3191
 8564SOL    HW137154   3.879   3.474   7.351  1.4313  2.3635 -0.6622
 8564SOL    HW237155   3.829   3.607   7.330 -2.3090  0.5830  1.2789
 8565SOL     OW37156   1.484   2.723  10.832  0.3656 -0.4297  0.3740
 8565SOL    HW137157   1.531   2.805  10.847  0.7711 -0.3641 -1.2236
 8565SOL    HW237158   1.555   2.661  10.848  1.0314  0.4149  0.7209
 8566SOL     OW37159   0.635   1.961   5.072  0.4982 -0.7795  0.1867
 8566SOL    HW137160   0.701   1.986   5.138  0.6444 -0.8357  0.0631
 8566SOL    HW237161   0.660   1.870   5.057 -0.7032 -1.1658  0.5830
 8567SOL     OW37162   1.791   1.815  10.130  0.3219  0.8038  0.2512
 8567SOL    HW137163   1.761   1.744  10.188 -0.7841  1.0161 -0.0584
 8567SOL    HW237164   1.857   1.779  10.070 -0.0002 -0.1015  0.4375
 8568SOL     OW37165   4.511   1.577   2.802  0.3049 -0.0608 -0.1531
 8568SOL    HW137166   4.481   1.559   2.712 -2.7835  1.3037  0.5882
 8568SOL    HW237167   4.587   1.632   2.785 -0.9352  2.0559  1.2605
 8569SOL     OW37168   2.209   3.891   9.947  0.3896 -0.3111 -0.0849
 8569SOL    HW137169   2.304   3.874   9.947  0.5212  0.4434  1.9555
 8569SOL    HW237170   2.189   3.913   9.856 -0.5916 -0.8331  0.0036
 8570SOL     OW37171   1.987   2.756   2.338 -0.1867 -0.2460 -0.6798
 8570SOL    HW137172   1.950   2.717   2.259  0.6265 -0.7637 -0.7943
 8570SOL    HW237173   1.906   2.790   2.377 -0.1546 -0.8858 -0.0480
 8571SOL     OW37174   1.283   2.296   4.877 -0.2364  0.1208  0.5113
 8571SOL    HW137175   1.268   2.234   4.948 -0.8989  0.8487  1.0135
 8571SOL    HW237176   1.253   2.376   4.920  2.2570  1.4060 -0.1555
 8572SOL     OW37177   4.345   4.110  15.209 -0.5492 -0.0899 -0.0253
 8572SOL    HW137178   4.417   4.134  15.151 -0.7275  0.9181  0.1610
 8572SOL    HW237179   4.380   4.051  15.276 -0.4308 -0.5328 -0.4738
 8573SOL     OW37180   2.218   4.647   5.925 -0.1330  0.5038  0.1952
 8573SOL    HW137181   2.138   4.613   5.884  0.7649  0.2563 -1.3268
 8573SOL    HW237182   2.206   0.016   5.908 -0.7695  0.4936  0.5778
 8574SOL     OW37183   0.064   3.258  10.050 -0.3798 -0.1274  0.3026
 8574SOL    HW137184   4.694   3.254  10.032 -0.2464  2.3634 -0.8538
 8574SOL    HW237185   0.085   3.345  10.018 -0.1513  0.3058  1.6522
 8575SOL     OW37186   3.627   0.563  14.183 -0.4052 -0.0715  0.1580
 8575SOL    HW137187   3.676   0.580  14.103 -2.5015 -1.8096 -1.4798
 8575SOL    HW237188   3.699   0.525  14.235 -0.8622 -1.3291 -0.1257
 8576SOL     OW37189   1.204   2.018   3.703  0.5347  0.2875 -0.0186
 8576SOL    HW137190   1.299   2.034   3.697  0.1197  2.2305 -1.1986
 8576SOL    HW237191   1.170   2.077   3.636  1.0160  1.4378  0.7539
 8577SOL     OW37192   0.763   3.870   2.222  0.5206 -0.1478  0.1608
 8577SOL    HW137193   0.829   3.927   2.262  1.5294 -0.6185 -0.8479
 8577SOL    HW237194   0.690   3.929   2.204  1.8089  1.4622  0.2056
 8578SOL     OW37195   1.861   4.436   8.935  0.4233 -0.7754  0.0436
 8578SOL    HW137196   1.917   4.485   8.994 -1.6788  1.3082  0.2817
 8578SOL    HW237197   1.824   4.371   8.995  0.4075 -0.0371  0.8304
 8579SOL     OW37198   0.350   0.623   8.707  0.1670  0.0179  0.1015
 8579SOL    HW137199   0.274   0.679   8.691 -0.1942 -0.6665 -0.5848
 8579SOL    HW237200   0.314   0.578   8.783  2.7848  1.7326  2.3820
 8580SOL     OW37201   1.404   0.118  12.725  0.0072 -0.0777  0.2741
 8580SOL    HW137202   1.479   0.175  12.742 -0.1924  0.4252 -0.5444
 8580SOL    HW237203   1.419   0.066  12.646 -4.2406 -0.9818  0.0305
 8581SOL     OW37204   1.306   3.662   7.087  0.0739 -0.4619 -0.7727
 8581SOL    HW137205   1.240   3.693   7.025 -1.3753 -2.3724 -0.2014
 8581SOL    HW237206   1.252   3.621   7.154  0.5961  0.6159  0.2981
 8582SOL     OW37207   1.027   3.116   3.767  0.0290 -0.0857  0.3262
 8582SOL    HW137208   1.123   3.115   3.765  0.0581 -1.8082  1.4963
 8582SOL    HW237209   1.003   3.030   3.803 -0.7461 -0.5987 -1.4143
 8583SOL     OW37210   3.324   3.401   5.566  0.4687  0.5032 -0.3223
 8583SOL    HW137211   3.358   3.318   5.599 -2.2512  0.1704  1.6289
 8583SOL    HW237212   3.242   3.423   5.611 -0.2996 -1.3432 -0.8130
 8584SOL     OW37213   2.397   3.550   2.849 -0.2224  0.5713  0.4777
 8584SOL    HW137214   2.410   3.550   2.754 -0.9347  4.8270  0.3769
 8584SOL    HW237215   2.484   3.572   2.883 -0.4507 -0.4213  1.6751
 8585SOL     OW37216   4.457   4.476   6.882 -0.4154  0.3707  0.0209
 8585SOL    HW137217   4.415   4.562   6.879 -3.4306 -1.1124 -0.7372
 8585SOL    HW237218   4.388   4.419   6.914 -1.1379  0.9579 -0.4808
 8586SOL     OW37219   1.690   2.457   2.888 -0.4649  0.0867 -0.7383
 8586SOL    HW137220   1.735   2.476   2.806  0.5659 -0.5371 -0.3100
 8586SOL    HW237221   1.647   2.375   2.863  0.0660 -0.6382  0.7408
 8587SOL     OW37222   0.708   1.013   7.069 -0.0699 -0.2833  0.0578
 8587SOL    HW137223   0.617   1.023   7.097  0.1547 -1.5905  1.2352
 8587SOL    HW237224   0.686   0.961   6.991  2.7842 -0.8128 -0.3866
 8588SOL     OW37225   2.803   1.648  14.907  0.3961 -0.4030 -0.3488
 8588SOL    HW137226   2.823   1.574  14.964 -0.0115 -1.4631 -1.5599
 8588SOL    HW237227   2.708   1.662  14.911  0.1790 -2.4978  1.5653
 8589SOL     OW37228   2.735   2.964   4.520 -0.4918  0.0284 -0.5582
 8589SOL    HW137229   2.680   2.998   4.450  0.0732 -1.3518 -1.6637
 8589SOL    HW237230   2.750   2.874   4.491 -1.8916 -0.8887  1.4950
 8590SOL     OW37231   0.584   3.216   5.938 -0.2366 -0.5692 -0.4181
 8590SOL    HW137232   0.632   3.134   5.927  1.0323  0.0357  0.6058
 8590SOL    HW237233   0.512   3.205   5.877 -1.0047 -0.2536  0.4304
 8591SOL     OW37234   0.624   3.441   1.893 -0.7452 -0.9056  0.1845
 8591SOL    HW137235   0.582   3.385   1.958  0.8088 -1.8469  0.3869
 8591SOL    HW237236   0.681   3.372   1.858  0.5296 -0.4204  1.3505
 8592SOL     OW37237   0.765   1.156   3.440  0.4524 -0.1312 -0.5390
 8592SOL    HW137238   0.684   1.150   3.389 -1.1607  0.2904  1.9860
 8592SOL    HW237239   0.748   1.095   3.511 -0.4332  0.5804 -0.1419
 8593SOL     OW37240   0.785   0.662   4.501 -0.1106 -0.4722 -0.7526
 8593SOL    HW137241   0.719   0.667   4.432  0.5146 -0.2670 -1.3293
 8593SOL    HW237242   0.732   0.673   4.580  0.9640 -1.5288  0.1090
 8594SOL     OW37243   3.688   3.322   0.509  0.8707 -0.1873  0.3389
 8594SOL    HW137244   3.749   3.310   0.436  0.0539 -2.9856  0.0881
 8594SOL    HW237245   3.692   3.417   0.514  0.3213 -0.1096 -0.6331
 8595SOL     OW37246   0.430   4.017   0.065 -0.2685 -0.1531  0.0772
 8595SOL    HW137247   0.482   3.941   0.091  0.2289 -0.1728 -0.9663
 8595SOL    HW237248   0.494   4.070   0.017 -1.2981  0.4079 -0.6626
 8596SOL     OW37249   3.210   2.136   6.922  0.1647 -0.3097  0.2260
 8596SOL    HW137250   3.276   2.071   6.895  0.3813 -0.2221  0.5460
 8596SOL    HW237251   3.254   2.187   6.990 -2.4386  1.3201  0.6694
 8597SOL     OW37252   2.862   4.372   4.908 -0.9073 -0.1460  0.1103
 8597SOL    HW137253   2.808   4.319   4.850 -1.9129  0.3151  0.6295
 8597SOL    HW237254   2.790   4.426   4.939 -0.7189 -1.7449  3.3735
 8598SOL     OW37255   3.928   3.961  16.454 -0.1564  0.1361  0.0707
 8598SOL    HW137256   3.933   4.056  16.460  2.2356  0.0068 -0.1211
 8598SOL    HW237257   4.008   3.945  16.406 -0.8948 -1.8071 -0.5073
 8599SOL     OW37258   2.670   3.798   2.534 -0.0084  0.0137 -0.1814
 8599SOL    HW137259   2.700   3.825   2.447 -1.1382 -0.2782 -0.6733
 8599SOL    HW237260   2.749   3.765   2.575  0.7129  2.4275  0.3508
 8600SOL     OW37261   3.190   0.678  11.686 -0.2502 -0.1007  0.3810
 8600SOL    HW137262   3.206   0.634  11.770  0.3518 -3.5281 -1.5291
 8600SOL    HW237263   3.282   0.676  11.658 -0.1363 -0.7331  0.7923
 8601SOL     OW37264   3.503   2.166  11.807  0.5525  0.1867 -0.1408
 8601SOL    HW137265   3.451   2.195  11.881  1.6882  0.8247  0.4020
 8601SOL    HW237266   3.595   2.177  11.832  0.1574  0.2030  1.2833
 8602SOL     OW37267   3.478   4.031   6.027  0.1682  0.2509  0.0260
 8602SOL    HW137268   3.409   3.977   6.065  1.0283 -2.3941 -2.1879
 8602SOL    HW237269   3.447   4.035   5.937 -1.6223 -0.5210  0.6239
 8603SOL     OW37270   1.459   0.666   6.193 -0.0500  0.1525 -0.4752
 8603SOL    HW137271   1.454   0.572   6.208  0.0454  0.0485 -1.0781
 8603SOL    HW237272   1.518   0.659   6.118  2.3854  0.6989  1.3889
 8604SOL     OW37273   3.501   3.692  11.697 -0.0126 -0.9442 -0.7368
 8604SOL    HW137274   3.458   3.760  11.749  0.4417 -0.9040 -0.4077
 8604SOL    HW237275   3.573   3.746  11.665 -0.9438 -0.4304 -1.9308
 8605SOL     OW37276   4.327   4.499   1.295  0.6523 -0.0735 -0.2743
 8605SOL    HW137277   4.296   4.525   1.382 -0.5918 -0.9486 -0.4584
 8605SOL    HW237278   4.401   4.559   1.298  1.8054 -1.5213 -0.3156
 8606SOL     OW37279   4.598   0.875   8.552 -0.3979 -0.5200  0.1429
 8606SOL    HW137280   4.557   0.795   8.519 -0.2192 -0.4784 -0.1768
 8606SOL    HW237281   4.569   0.942   8.489  1.1304 -0.1500 -0.1619
 8607SOL     OW37282   1.011   1.401   5.178 -0.6507 -0.5350 -0.5363
 8607SOL    HW137283   0.968   1.483   5.152 -1.0952 -0.8910 -0.9163
 8607SOL    HW237284   1.080   1.402   5.111  0.8917 -0.2772  1.0502
 8608SOL     OW37285   1.302   3.649   4.616  0.1022 -0.2414 -0.0463
 8608SOL    HW137286   1.311   3.557   4.641  1.7127  0.2376  1.1545
 8608SOL    HW237287   1.365   3.660   4.544 -0.0727 -2.2414 -0.5115
 8609SOL     OW37288   2.544   1.013   2.960  0.3956 -0.0247  0.6662
 8609SOL    HW137289   2.589   0.931   2.981 -0.3726 -0.3664  0.9670
 8609SOL    HW237290   2.450   0.997   2.968 -0.0942  1.1961 -2.3182
 8610SOL     OW37291   0.900   3.013   2.330 -1.1822 -0.2178 -0.6948
 8610SOL    HW137292   0.918   2.993   2.422 -3.0024 -0.7856 -0.4737
 8610SOL    HW237293   0.880   3.105   2.342 -0.5986  0.0211 -1.5163
 8611SOL     OW37294   0.558   3.683   6.733 -0.3047  0.3966 -0.7059
 8611SOL    HW137295   0.528   3.745   6.799  1.1046  0.1018  0.2212
 8611SOL    HW237296   0.618   3.745   6.694 -0.9185  0.5476 -1.4181
 8612SOL     OW37297   4.503   3.069   1.142 -0.2313  0.1299 -0.6076
 8612SOL    HW137298   4.418   3.046   1.178  0.9837 -0.9297  1.5446
 8612SOL    HW237299   4.515   3.155   1.182  0.4843 -1.3022  2.2335
 8613SOL     OW37300   4.704   3.200  12.714 -0.2898 -0.6238 -0.1673
 8613SOL    HW137301   4.697   3.277  12.771 -0.1249 -1.6728  1.2692
 8613SOL    HW237302   4.612   3.176  12.707 -0.3556 -0.7750  1.2278
 8614SOL     OW37303   2.587   2.685   1.372 -0.8044  0.6461  0.2249
 8614SOL    HW137304   2.670   2.660   1.332 -2.0977 -3.3368  0.0404
 8614SOL    HW237305   2.571   2.610   1.430  0.2157  1.5296  1.6464
 8615SOL     OW37306   2.087   4.110   3.338  0.1064 -0.3250 -0.0124
 8615SOL    HW137307   2.118   4.037   3.391  3.1567 -0.5030 -2.0203
 8615SOL    HW237308   2.046   4.068   3.262 -2.0130 -0.0973  1.0075
 8616SOL     OW37309   2.213   3.863   7.887 -0.4884 -0.5776 -0.0571
 8616SOL    HW137310   2.276   3.931   7.910 -1.1753 -0.0571  0.2749
 8616SOL    HW237311   2.126   3.899   7.903 -1.3305 -1.2835 -2.9351
 8617SOL     OW37312   3.154   4.344   0.819 -0.2466  0.0986  1.0533
 8617SOL    HW137313   3.097   4.363   0.893 -2.3057  0.5886 -0.6641
 8617SOL    HW237314   3.188   4.256   0.834  1.6655  0.7205  0.4843
 8618SOL     OW37315   2.227   2.044  12.257 -0.4763 -0.1417  0.1373
 8618SOL    HW137316   2.202   1.994  12.334  2.0242 -0.4291  0.7563
 8618SOL    HW237317   2.163   2.023  12.188  0.4836 -0.6547 -0.5957
 8619SOL     OW37318   4.151   4.007  15.579 -0.4019  0.0669 -0.5354
 8619SOL    HW137319   4.225   3.991  15.638 -1.0956 -2.4680 -0.3437
 8619SOL    HW237320   4.131   3.919  15.547 -0.4879  0.8446 -2.6187
 8620SOL     OW37321   0.515   3.903   7.554 -0.4797 -0.2166 -0.0041
 8620SOL    HW137322   0.585   3.968   7.552  0.4317 -1.1850  0.6549
 8620SOL    HW237323   0.529   3.866   7.467  0.9126  0.9526 -0.2921
 8621SOL     OW37324   1.116   4.327   0.798 -0.0326 -0.2563 -0.2291
 8621SOL    HW137325   1.036   4.276   0.786 -0.3407  0.1407  0.1188
 8621SOL    HW237326   1.143   4.343   0.707  0.4046  0.7460  0.0750
 8622SOL     OW37327   1.957   3.130   2.775  0.0625  0.9818  0.4302
 8622SOL    HW137328   1.986   3.051   2.729 -0.5411  0.8947  0.1976
 8622SOL    HW237329   2.042   3.173   2.782  0.1190  0.7001  1.5649
 8623SOL     OW37330   4.083   4.463   5.783 -0.1404 -0.2347 -0.2842
 8623SOL    HW137331   4.137   4.505   5.850 -1.7437 -0.7105  1.2904
 8623SOL    HW237332   4.150   4.449   5.716  2.0942 -1.0786  2.1430
 8624SOL     OW37333   2.738   0.483   2.395  0.4858 -0.2168 -0.5178
 8624SOL    HW137334   2.711   0.431   2.319  1.6796 -1.7760  0.1379
 8624SOL    HW237335   2.704   0.442   2.474 -1.6435  0.9298 -0.8408
 8625SOL     OW37336   0.922   2.280  16.102  0.2137 -0.0996  0.4664
 8625SOL    HW137337   0.914   2.189  16.071 -0.9087  0.0582  0.3005
 8625SOL    HW237338   0.842   2.319  16.068  1.1701  1.1102 -0.3907
 8626SOL     OW37339   3.318   1.885   7.432 -0.0130  1.0265 -0.0336
 8626SOL    HW137340   3.290   1.796   7.408 -0.1990  0.9806  0.3627
 8626SOL    HW237341   3.374   1.865   7.506 -2.9834 -2.8512  1.1581
 8627SOL     OW37342   3.373   1.097  16.074 -0.0823  0.1360  0.3747
 8627SOL    HW137343   3.379   1.192  16.061  2.1198  0.0686  0.8411
 8627SOL    HW237344   3.278   1.084  16.076  0.1734 -2.0223 -0.7848
 8628SOL     OW37345   2.442   2.017  14.512  0.0828  0.4957  0.1907
 8628SOL    HW137346   2.368   2.039  14.570  1.2584  1.1078  1.4524
 8628SOL    HW237347   2.453   2.097  14.461 -1.0240 -0.1792 -1.0981
 8629SOL     OW37348   4.090   0.142   7.744 -0.3621 -0.2312  0.2023
 8629SOL    HW137349   4.115   0.081   7.814 -0.0092  1.1233  1.2453
 8629SOL    HW237350   4.105   0.231   7.776  0.5317 -0.3717  0.1808
 8630SOL     OW37351   0.488   1.516   8.575  0.6620  0.1376  0.1971
 8630SOL    HW137352   0.545   1.447   8.541 -0.4545  0.0505 -1.4898
 8630SOL    HW237353   0.444   1.462   8.642  0.7871  1.3310  1.2344
 8631SOL     OW37354   1.374   3.758   5.697 -0.0523  0.5107  0.2725
 8631SOL    HW137355   1.342   3.689   5.640 -0.0269  1.6768 -1.1621
 8631SOL    HW237356   1.352   3.834   5.643  0.7167 -0.2882 -1.1855
 8632SOL     OW37357   2.169   2.412   4.804  0.6228 -0.3623  0.0212
 8632SOL    HW137358   2.211   2.422   4.719 -0.0903 -1.1874 -0.4253
 8632SOL    HW237359   2.159   2.502   4.836 -3.3776 -0.4952 -0.8854
 8633SOL     OW37360   3.861   4.512   8.924  0.0343  0.0214  0.3145
 8633SOL    HW137361   3.947   4.473   8.908 -0.8798 -0.5712 -2.9642
 8633SOL    HW237362   3.831   4.464   9.001 -0.5977  1.5122  1.0018
 8634SOL     OW37363   4.503   4.030  17.229 -0.1393  0.4253  0.2565
 8634SOL    HW137364   4.478   4.017  17.321  1.1629  0.1945  0.5823
 8634SOL    HW237365   4.425   4.005  17.179 -0.3337  1.3611  0.1027
 8635SOL     OW37366   4.309   0.241   9.204  0.3093 -0.1615 -0.2584
 8635SOL    HW137367   4.242   0.239   9.272  0.1230  1.6465 -0.3898
 8635SOL    HW237368   4.370   0.180   9.247 -0.4491 -1.0144 -0.3887
 8636SOL     OW37369   2.438   2.334   8.594 -0.9453  0.1888 -0.3895
 8636SOL    HW137370   2.422   2.391   8.670  1.7232 -0.5355  0.6982
 8636SOL    HW237371   2.363   2.349   8.537  0.3710 -0.9272 -2.4090
 8637SOL     OW37372   0.503   2.434   5.872  0.5416 -1.1602  0.6456
 8637SOL    HW137373   0.562   2.439   5.948  0.8911 -1.8965  0.4250
 8637SOL    HW237374   0.460   2.349   5.874  0.3334 -1.0871 -0.7079
 8638SOL     OW37375   1.067   2.089  14.589 -0.2297  0.0667 -0.6589
 8638SOL    HW137376   0.988   2.091  14.536  0.1149 -0.1968 -1.1917
 8638SOL    HW237377   1.070   1.999  14.621  2.2965  0.9464  1.5721
 8639SOL     OW37378   1.540   2.956   7.303 -0.4658 -0.0416 -0.3028
 8639SOL    HW137379   1.480   2.886   7.328 -0.3312  0.3156  1.0151
 8639SOL    HW237380   1.517   3.022   7.369  0.6312  1.8321 -1.7862
 8640SOL     OW37381   2.539   0.581   5.935 -0.1088  0.2433  0.0146
 8640SOL    HW137382   2.522   0.567   6.028  0.4981  1.4292  0.3099
 8640SOL    HW237383   2.449   0.574   5.901  0.3084  0.2919 -1.1035
 8641SOL     OW37384   0.354   4.493  17.122 -0.2850  0.2550 -0.1957
 8641SOL    HW137385   0.439   4.452  17.138 -0.5757  0.1134  0.9794
 8641SOL    HW237386   0.316   4.500  17.209 -2.1515 -0.5232 -0.9507
 8642SOL     OW37387   1.635   0.245   7.672  0.0745  0.1243  0.6264
 8642SOL    HW137388   1.655   0.167   7.723 -0.4686 -0.6142 -0.3022
 8642SOL    HW237389   1.540   0.257   7.671 -0.1402 -1.6177  0.1538
 8643SOL     OW37390   1.536   2.956   4.978  0.4774  0.2033 -0.0398
 8643SOL    HW137391   1.588   2.903   4.917 -0.7429  0.5010 -1.3369
 8643SOL    HW237392   1.526   3.038   4.929  0.7619  0.8196  0.9402
 8644SOL     OW37393   0.833   0.832   6.696  0.6920 -0.4146 -0.1212
 8644SOL    HW137394   0.852   0.769   6.766  2.0917 -0.3771 -0.4559
 8644SOL    HW237395   0.758   0.879   6.731  1.6867 -0.6026  2.2613
 8645SOL     OW37396   3.527   0.068   7.966  0.8114  0.5347  0.3314
 8645SOL    HW137397   3.434   0.087   7.980  1.0174  0.4064  1.7804
 8645SOL    HW237398   3.550   0.144   7.911 -1.3893 -0.6934 -2.2776
 8646SOL     OW37399   0.109   0.466   5.755  0.0484  0.4182  0.9827
 8646SOL    HW137400   0.203   0.448   5.763 -0.0818 -1.9360 -2.8896
 8646SOL    HW237401   0.073   0.395   5.809  0.8673 -0.5978  0.2138
 8647SOL     OW37402   3.241   1.739  13.466  0.2359  0.0771  0.2028
 8647SOL    HW137403   3.200   1.756  13.551  0.3959 -0.5563  0.4058
 8647SOL    HW237404   3.331   1.749  13.498  0.8006 -0.6140 -1.1807
 8648SOL     OW37405   0.283   3.412   7.454  0.1256  0.2530 -0.2494
 8648SOL    HW137406   0.188   3.408   7.470  0.3963 -1.2343  0.9313
 8648SOL    HW237407   0.300   3.394   7.546 -1.0356 -1.0253 -0.2741
 8649SOL     OW37408   1.754   3.917   0.766  0.3425  0.6182 -0.5173
 8649SOL    HW137409   1.768   3.989   0.704 -3.8337  0.9092 -1.1395
 8649SOL    HW237410   1.846   3.902   0.786 -0.6721 -0.7592  3.2555
 8650SOL     OW37411   3.615   0.859   1.595 -0.3802  0.3290 -0.5780
 8650SOL    HW137412   3.523   0.880   1.579 -0.9390 -0.5863  1.4775
 8650SOL    HW237413   3.634   0.934   1.651  0.1325 -0.6953  0.6425
 8651SOL     OW37414   1.266   3.439  13.101 -0.3004  0.6297 -0.0284
 8651SOL    HW137415   1.218   3.458  13.020  0.6941  0.2423 -0.7084
 8651SOL    HW237416   1.239   3.502  13.167 -2.1603 -0.6571  0.4568
 8652SOL     OW37417   2.466   2.811  14.991 -0.9185 -0.1663 -0.4466
 8652SOL    HW137418   2.412   2.882  15.025  0.1528 -1.2091  3.4793
 8652SOL    HW237419   2.404   2.755  14.945  0.3661 -0.9518 -1.2255
 8653SOL     OW37420   4.512   2.461   3.078  0.0744  0.2668 -0.2076
 8653SOL    HW137421   4.536   2.480   2.987 -1.3286  1.3717 -0.3456
 8653SOL    HW237422   4.417   2.462   3.075 -0.0664 -2.4985  3.9041
 8654SOL     OW37423   2.175   1.989  14.977 -0.1286  0.3601  0.0412
 8654SOL    HW137424   2.117   2.065  14.974  0.1023  0.5532  0.6079
 8654SOL    HW237425   2.117   1.926  15.022 -0.7605  0.5797 -0.4649
 8655SOL     OW37426   1.351   1.315   1.372 -0.4062 -0.3709  0.2438
 8655SOL    HW137427   1.354   1.369   1.451 -0.7162  0.8219 -0.5503
 8655SOL    HW237428   1.440   1.281   1.383 -0.1247 -0.5718 -2.5769
 8656SOL     OW37429   4.271   0.824   8.688 -0.0374 -0.0285 -0.1393
 8656SOL    HW137430   4.292   0.737   8.722  1.1778  1.2882  2.5015
 8656SOL    HW237431   4.330   0.819   8.613 -1.8360  0.4038 -1.5811
 8657SOL     OW37432   4.146   1.917   4.507 -0.0185 -0.4255  0.2353
 8657SOL    HW137433   4.234   1.936   4.475 -0.2826 -1.3992 -1.0545
 8657SOL    HW237434   4.149   1.822   4.501  1.7363 -0.3408 -0.2368
 8658SOL     OW37435   0.717   1.769  13.403 -0.4238 -0.1284 -0.4689
 8658SOL    HW137436   0.732   1.759  13.309  0.7741 -1.3381 -0.1649
 8658SOL    HW237437   0.688   1.860  13.398  3.3588  1.1158 -0.0964
 8659SOL     OW37438   0.199   3.830   8.301  0.2140 -0.6855 -0.0045
 8659SOL    HW137439   0.261   3.816   8.229  1.3381 -2.1161  1.2342
 8659SOL    HW237440   0.248   3.791   8.373  0.3289  0.9727  0.8083
 8660SOL     OW37441   1.220   0.313   7.066  0.2713 -0.0848 -0.0670
 8660SOL    HW137442   1.281   0.258   7.115  0.4718 -0.9616 -1.3090
 8660SOL    HW237443   1.279   0.373   7.021  1.3426 -0.5225  0.7586
 8661SOL     OW37444   2.423   1.696   5.926 -0.6410 -0.4329  0.4234
 8661SOL    HW137445   2.518   1.698   5.910 -0.6900  1.7641  0.3661
 8661SOL    HW237446   2.423   1.735   6.014 -1.9221 -1.7474  1.0039
 8662SOL     OW37447   4.120   4.275  13.280 -0.2380 -0.3304 -0.3941
 8662SOL    HW137448   4.161   4.296  13.364 -1.6119  0.3561  0.1010
 8662SOL    HW237449   4.192   4.291  13.219  0.0719  1.6157  0.4634
 8663SOL     OW37450   3.529   3.792   5.368  0.6837 -0.0669  0.2676
 8663SOL    HW137451   3.493   3.860   5.425  0.3078 -1.4715  1.6987
 8663SOL    HW237452   3.552   3.736   5.442 -1.7180 -0.2348  0.8789
 8664SOL     OW37453   2.723   0.658  11.028  0.0266  0.3420  0.0750
 8664SOL    HW137454   2.630   0.673  11.012  0.0408  2.8293  2.2868
 8664SOL    HW237455   2.734   0.564  11.014  0.0252  0.4105 -0.3885
 8665SOL     OW37456   3.770   0.205  17.588  0.2478 -0.0208 -0.1687
 8665SOL    HW137457   3.717   0.159  17.523 -0.2307  0.2954  0.0039
 8665SOL    HW237458   3.859   0.206  17.552 -0.2771  0.5825 -1.4304
 8666SOL     OW37459   1.308   1.927   6.440  0.6481  0.1156  0.5093
 8666SOL    HW137460   1.362   1.944   6.517  1.1024  2.4269 -0.3376
 8666SOL    HW237461   1.222   1.949   6.476  2.2564  1.1822  3.7026
 8667SOL     OW37462   2.107   2.646   0.579 -0.0153  0.0717 -0.2648
 8667SOL    HW137463   2.086   2.557   0.551  2.8783 -0.9631  0.8106
 8667SOL    HW237464   2.039   2.652   0.646 -1.4850  1.1388 -1.8491
 8668SOL     OW37465   3.025   0.286   2.687  0.3840 -0.0387 -0.4134
 8668SOL    HW137466   3.091   0.354   2.676  1.1254 -0.9457 -1.4948
 8668SOL    HW237467   2.994   0.281   2.596  1.1461  1.2338 -0.7363
 8669SOL     OW37468   1.743   3.970   6.841  0.2452 -0.3986 -0.0215
 8669SOL    HW137469   1.744   3.927   6.926  0.4167 -0.7058 -0.1805
 8669SOL    HW237470   1.744   3.892   6.785  1.3235  1.7399 -2.9974
 8670SOL     OW37471   1.978   1.271   9.630 -0.1514 -0.4825  0.7597
 8670SOL    HW137472   1.893   1.262   9.587  0.0314 -0.9139  0.4893
 8670SOL    HW237473   1.968   1.192   9.683 -0.3257 -2.3425 -2.0615
 8671SOL     OW37474   1.220   3.285   7.976 -0.3071  0.4697 -0.1432
 8671SOL    HW137475   1.213   3.366   8.027  0.0618 -0.4264  1.3239
 8671SOL    HW237476   1.129   3.284   7.947  0.2456 -1.6365 -1.7842
 8672SOL     OW37477   1.524   0.839   4.129  0.0640  0.2720  0.0330
 8672SOL    HW137478   1.567   0.924   4.133  0.0192  0.3342 -0.6898
 8672SOL    HW237479   1.491   0.834   4.039  0.9762 -3.0566 -0.1357
 8673SOL     OW37480   3.654   0.254   8.793 -0.5085  0.2764 -0.4380
 8673SOL    HW137481   3.703   0.199   8.853 -1.1815 -0.3404 -0.4540
 8673SOL    HW237482   3.591   0.298   8.850  0.0018  2.2726 -1.4197
 8674SOL     OW37483   0.625   1.227   4.445 -0.3269  0.0979 -0.1030
 8674SOL    HW137484   0.598   1.254   4.357  0.7325 -1.0900 -0.7941
 8674SOL    HW237485   0.642   1.314   4.481  0.0577  0.4397 -1.1109
 8675SOL     OW37486   1.562   0.153  13.470  0.2994  0.6093  0.7013
 8675SOL    HW137487   1.616   0.118  13.541 -0.8657 -0.1966  1.2006
 8675SOL    HW237488   1.595   0.108  13.393  0.5278  1.4193  0.3336
 8676SOL     OW37489   3.072   0.121   2.203 -0.0208 -0.2038  0.2026
 8676SOL    HW137490   3.005   0.082   2.147  1.0369 -1.9976  0.1894
 8676SOL    HW237491   3.145   0.075   2.162 -0.3354  0.3596 -0.9846
 8677SOL     OW37492   0.643   0.891  13.118 -0.1650  0.2540 -0.0469
 8677SOL    HW137493   0.583   0.835  13.069 -0.1565  1.1603 -1.1001
 8677SOL    HW237494   0.586   0.929  13.184  0.9751  1.5389  0.2201
 8678SOL     OW37495   1.404   2.271   3.237  0.4326 -0.1173 -0.3166
 8678SOL    HW137496   1.484   2.218   3.235  0.2328 -0.3787 -1.8708
 8678SOL    HW237497   1.398   2.298   3.145  0.0666  3.1805  0.6831
 8679SOL     OW37498   4.293   4.613   9.467 -0.4935 -0.0592 -0.0193
 8679SOL    HW137499   4.221   4.670   9.494 -0.2661 -0.8105  2.1775
 8679SOL    HW237500   4.346   4.681   9.427 -0.1532  0.2386  0.9286
 8680SOL     OW37501   1.602   0.569   5.331 -0.3689 -0.1911  0.0030
 8680SOL    HW137502   1.633   0.488   5.290  0.7218  0.1522  0.1353
 8680SOL    HW237503   1.544   0.597   5.260 -0.1303 -1.7705 -0.8351
 8681SOL     OW37504   1.689   2.732   1.956 -0.5000 -0.1025  0.2208
 8681SOL    HW137505   1.663   2.645   1.927  1.0054 -0.9414  1.4133
 8681SOL    HW237506   1.659   2.779   1.878  0.6998  0.4939  0.1202
 8682SOL     OW37507   1.715   2.365   9.953 -0.0314  0.4734  0.4398
 8682SOL    HW137508   1.730   2.273   9.932 -1.7431  0.7065 -1.7371
 8682SOL    HW237509   1.621   2.380   9.961 -0.2823 -1.3661  1.0103
 8683SOL     OW37510   2.435   2.117   3.700 -0.9266  0.1004  0.0299
 8683SOL    HW137511   2.502   2.060   3.736 -1.6855 -0.0545  1.2072
 8683SOL    HW237512   2.443   2.096   3.607  0.3861  1.4772 -0.1693
 8684SOL     OW37513   0.731   0.763  16.741 -0.3648 -0.7301  0.0337
 8684SOL    HW137514   0.648   0.737  16.702 -0.3838  2.5902 -2.1231
 8684SOL    HW237515   0.722   0.858  16.752  1.6681 -0.4914 -0.4157
 8685SOL     OW37516   2.297   3.925   3.255  0.2022  0.6543  0.4932
 8685SOL    HW137517   2.320   4.014   3.227  1.0981  0.7374  1.4808
 8685SOL    HW237518   2.385   3.896   3.281 -0.6591 -3.3383 -1.2091
 8686SOL     OW37519   0.457   0.908   3.448  0.5588  0.2515  0.2380
 8686SOL    HW137520   0.541   0.941   3.481  0.4248  0.3091  0.5218
 8686SOL    HW237521   0.484   0.820   3.423  1.0656  0.7432 -0.9412
 8687SOL     OW37522   3.265   0.989  13.071 -0.0567 -0.3687  0.2796
 8687SOL    HW137523   3.220   1.072  13.056  0.9012  0.1633  0.2847
 8687SOL    HW237524   3.218   0.921  13.024 -1.1176  0.3873  0.2565
 8688SOL     OW37525   3.224   2.337   3.502  0.5598 -0.4102  0.2661
 8688SOL    HW137526   3.247   2.347   3.594  0.5730 -0.8909  0.3178
 8688SOL    HW237527   3.197   2.425   3.478 -3.3902 -1.6297  0.1233
 8689SOL     OW37528   2.112   2.202   8.738  0.4738 -0.0359 -0.5971
 8689SOL    HW137529   2.139   2.236   8.823  0.1136 -0.9633 -0.1126
 8689SOL    HW237530   2.191   2.159   8.705  0.4842  0.6927 -1.5157
 8690SOL     OW37531   2.395   0.740  11.970 -0.1036  0.3328 -0.2799
 8690SOL    HW137532   2.313   0.730  12.020 -0.1763  0.1455 -0.4357
 8690SOL    HW237533   2.433   0.822  12.003 -1.0639  1.0914 -1.0530
 8691SOL     OW37534   3.840   3.294   2.646  0.1781 -0.2345 -0.1947
 8691SOL    HW137535   3.867   3.238   2.718 -1.7833 -1.9758 -0.8096
 8691SOL    HW237536   3.744   3.294   2.648  0.1694  0.8122 -0.5448
 8692SOL     OW37537   4.717   1.578  14.813 -0.1301 -0.1654  0.6805
 8692SOL    HW137538   4.704   1.521  14.738 -0.0921 -0.8000  1.1581
 8692SOL    HW237539   0.063   1.636  14.783  1.3215 -1.3718  1.7041
 8693SOL     OW37540   1.161   2.053   0.355  0.1039  0.5102  0.0063
 8693SOL    HW137541   1.216   2.131   0.356 -0.2577  0.7408  2.8526
 8693SOL    HW237542   1.132   2.063   0.265  0.9695  3.3363  0.0488
 8694SOL     OW37543   1.769   4.480   2.046  0.6281 -0.5469  0.0932
 8694SOL    HW137544   1.820   4.445   1.972 -0.6011  1.5441 -1.7582
 8694SOL    HW237545   1.736   4.564   2.015  2.8468  0.8473  1.5351
 8695SOL     OW37546   0.299   0.957   5.760 -0.1746 -0.1221 -0.2106
 8695SOL    HW137547   0.297   0.863   5.779  2.3765 -0.3288 -1.0557
 8695SOL    HW237548   0.338   0.958   5.673 -1.6671 -2.3401 -0.9053
 8696SOL     OW37549   2.522   0.992  10.277 -0.3606  0.2273  0.0359
 8696SOL    HW137550   2.438   1.005  10.321 -0.8737 -1.0662 -0.5886
 8696SOL    HW237551   2.555   0.906  10.303 -0.3333 -0.3776 -1.9885
 8697SOL     OW37552   0.245   1.146   7.946 -0.2416 -0.4073  0.5092
 8697SOL    HW137553   0.299   1.183   7.875 -1.4470  0.9985  0.3368
 8697SOL    HW237554   0.318   1.102   7.990 -0.2418  0.5443  1.4708
 8698SOL     OW37555   4.428   1.042  14.176 -0.2269 -0.1723  0.2645
 8698SOL    HW137556   4.383   1.020  14.258  1.0251 -2.2023  0.3971
 8698SOL    HW237557   4.513   1.076  14.206 -0.3475 -0.4713  0.9476
 8699SOL     OW37558   2.487   0.019   2.832  0.4994 -0.3576 -0.0426
 8699SOL    HW137559   2.559   0.070   2.796  2.5885 -1.8552  2.0515
 8699SOL    HW237560   2.470   4.690   2.755  0.9734  1.2855 -1.2956
 8700SOL     OW37561   0.091   4.501  16.847 -0.1385 -0.6431  0.2674
 8700SOL    HW137562   0.143   4.560  16.793 -0.1023 -0.1885  0.7963
 8700SOL    HW237563   0.044   4.451  16.780  0.2597  1.1317 -1.3288
 8701SOL     OW37564   2.158   4.354   8.847 -0.2985  0.1309  0.3733
 8701SOL    HW137565   2.156   4.288   8.916  0.5288  0.8816  1.1125
 8701SOL    HW237566   2.252   4.349   8.829 -0.5865 -2.0035 -0.6167
 8702SOL     OW37567   0.264   4.443   4.588  0.5532 -0.2453 -0.4392
 8702SOL    HW137568   0.358   4.452   4.577  0.6150 -2.0212 -1.2349
 8702SOL    HW237569   0.239   4.381   4.521 -0.1140 -0.4609  0.0051
 8703SOL     OW37570   4.357   4.448   4.175 -0.2364 -0.1993  0.0250
 8703SOL    HW137571   4.446   4.437   4.207  1.6225  0.2581 -5.0748
 8703SOL    HW237572   4.313   4.377   4.222 -1.4814 -0.0471 -0.9136
 8704SOL     OW37573   4.383   0.050  15.924  0.1760  0.2658  0.5007
 8704SOL    HW137574   4.397   4.715  15.850  0.2613  1.5691 -0.5219
 8704SOL    HW237575   4.358   0.126  15.871  1.4331  0.1758 -0.2365
 8705SOL     OW37576   1.926   3.656   1.269 -0.1702  0.3260 -0.0436
 8705SOL    HW137577   1.944   3.746   1.242 -1.1173  0.8631  1.1157
 8705SOL    HW237578   1.994   3.632   1.333 -2.4857  0.1967  2.3546
 8706SOL     OW37579   3.265   2.835   4.355  0.5160 -0.5639 -0.4274
 8706SOL    HW137580   3.198   2.768   4.338  1.8092 -2.0537  0.3303
 8706SOL    HW237581   3.249   2.884   4.275  1.3427 -0.7489 -0.7051
 8707SOL     OW37582   3.174   3.484   5.043 -0.5053  0.4159 -0.0692
 8707SOL    HW137583   3.230   3.508   5.116 -2.1344  1.1071  0.9569
 8707SOL    HW237584   3.110   3.554   5.054  0.0582  0.8433  0.4801
 8708SOL     OW37585   4.326   2.222   7.711  0.6437  0.0917 -0.0128
 8708SOL    HW137586   4.421   2.216   7.702  0.5248 -1.9305  0.1586
 8708SOL    HW237587   4.308   2.128   7.716 -0.8520  0.3062 -1.3637
 8709SOL     OW37588   3.512   4.044   9.458  0.5742 -0.8497 -0.2595
 8709SOL    HW137589   3.595   4.054   9.504  0.0258  2.2621  0.0696
 8709SOL    HW237590   3.458   4.047   9.538  2.9050  0.7700  1.2496
 8710SOL     OW37591   4.098   3.197   6.011  0.4586 -0.3617  0.7800
 8710SOL    HW137592   4.086   3.289   5.987 -1.8319 -0.5376  1.3006
 8710SOL    HW237593   4.167   3.173   5.949 -0.0551 -0.4425  0.2390
 8711SOL     OW37594   0.468   3.311  15.082  0.6420 -0.1453 -0.5033
 8711SOL    HW137595   0.480   3.239  15.020 -4.4534 -1.0551 -0.4586
 8711SOL    HW237596   0.402   3.363  15.035 -0.1789 -1.1332 -0.4596
 8712SOL     OW37597   3.590   4.437  14.399 -0.0678 -0.4829 -0.3922
 8712SOL    HW137598   3.566   4.396  14.316 -0.8525  0.7682 -0.7796
 8712SOL    HW237599   3.686   4.437  14.398 -0.0668 -1.3707  0.1204
 8713SOL     OW37600   0.526   2.084   3.320  1.0439 -0.2741 -0.2228
 8713SOL    HW137601   0.563   2.156   3.371  1.4310 -0.4241 -0.2871
 8713SOL    HW237602   0.536   2.116   3.231  0.4695  2.3171  0.6591
 8714SOL     OW37603   0.270   3.989   1.494 -0.1857 -0.5766  0.7926
 8714SOL    HW137604   0.239   3.990   1.584  0.9056 -0.8514  1.1725
 8714SOL    HW237605   0.316   3.905   1.497  0.9673 -0.0433 -1.7267
 8715SOL     OW37606   0.305   1.892   7.397  0.5244 -0.3836  0.0853
 8715SOL    HW137607   0.239   1.857   7.457  2.3577 -0.8864  1.8133
 8715SOL    HW237608   0.375   1.910   7.460  0.6229  1.4604 -0.5476
 8716SOL     OW37609   2.002   3.058   7.427 -0.0852  0.1676 -0.1289
 8716SOL    HW137610   1.953   3.103   7.359 -0.1945  0.5492  0.2029
 8716SOL    HW237611   2.051   2.994   7.375  0.2511 -0.6052  1.1177
 8717SOL     OW37612   3.274   2.031   0.087  0.6047  0.4307 -0.0361
 8717SOL    HW137613   3.214   2.024   0.161 -0.7119  2.4382 -0.8992
 8717SOL    HW237614   3.224   2.070   0.015 -0.8867  0.7175  1.1682
 8718SOL     OW37615   2.754   2.679   2.859  0.3173  0.3228  0.3157
 8718SOL    HW137616   2.701   2.607   2.893 -0.4762  0.8887  0.2673
 8718SOL    HW237617   2.681   2.723   2.815  0.3000  1.3748  1.4006
 8719SOL     OW37618   1.637   1.011   8.074 -0.1189  0.2383  0.0663
 8719SOL    HW137619   1.587   0.979   7.999 -1.3849 -0.3658  1.1687
 8719SOL    HW237620   1.686   1.084   8.036  1.6950 -0.2014  1.5542
 8720SOL     OW37621   3.808   1.350   3.016  0.1288  0.1568  0.6920
 8720SOL    HW137622   3.814   1.435   3.058  5.1534  0.3563 -0.3858
 8720SOL    HW237623   3.727   1.320   3.057  0.4073  0.4896  1.4815
 8721SOL     OW37624   2.297   1.459   9.221  0.1848 -0.6517  0.1092
 8721SOL    HW137625   2.207   1.427   9.233 -0.9449  1.4204 -2.8888
 8721SOL    HW237626   2.329   1.406   9.148  2.5117 -2.1785  2.2215
 8722SOL     OW37627   1.750   1.888   8.251 -0.1578 -0.3027 -0.4752
 8722SOL    HW137628   1.830   1.837   8.238  0.6222  0.9301 -0.4520
 8722SOL    HW237629   1.678   1.832   8.222  0.6296 -2.0334  0.8582
 8723SOL     OW37630   3.635   4.006  11.258 -0.1326  0.0177  0.1910
 8723SOL    HW137631   3.698   4.075  11.278 -1.9777  2.0098 -0.7988
 8723SOL    HW237632   3.634   3.951  11.336 -2.6719  1.2936  1.0757
 8724SOL     OW37633   4.078   3.443   7.312 -0.1503  0.2283  0.1068
 8724SOL    HW137634   4.101   3.482   7.228 -1.1190 -1.4478 -0.9324
 8724SOL    HW237635   4.164   3.418   7.346  0.4777 -1.3843 -2.6963
 8725SOL     OW37636   3.629   0.644   2.342 -0.1823 -0.3006  0.0212
 8725SOL    HW137637   3.705   0.585   2.340  0.3892  0.3733  2.5788
 8725SOL    HW237638   3.629   0.678   2.431  0.2716 -1.4756  0.4601
 8726SOL     OW37639   3.488   3.442   1.457  0.8533 -0.8806 -0.4337
 8726SOL    HW137640   3.519   3.363   1.413  1.5981 -0.6003 -0.4164
 8726SOL    HW237641   3.434   3.396   1.521 -1.7149  3.5417  0.5862
 8727SOL     OW37642   4.665   3.142   1.604  0.2084  0.2955  0.7413
 8727SOL    HW137643   4.649   3.160   1.696 -0.9508 -1.7387  0.9307
 8727SOL    HW237644   4.663   3.047   1.606 -1.4021  0.2989 -0.7015
 8728SOL     OW37645   1.295   2.880   3.668 -0.5771  0.8089 -0.1908
 8728SOL    HW137646   1.222   2.873   3.729  0.0491 -3.4978  0.0407
 8728SOL    HW237647   1.340   2.957   3.703  1.0402 -0.1760 -0.1252
 8729SOL     OW37648   2.077   4.237   9.554  0.2250  0.1145  0.3948
 8729SOL    HW137649   2.017   4.175   9.513 -1.6813  1.9812  0.3593
 8729SOL    HW237650   2.158   4.214   9.507 -0.4195  1.8694 -1.6062
 8730SOL     OW37651   3.681   3.411   7.992  0.1894 -0.1416  0.6289
 8730SOL    HW137652   3.639   3.392   8.077  0.1242  2.5954  1.2422
 8730SOL    HW237653   3.603   3.384   7.944  0.4388 -1.4419  0.9573
 8731SOL     OW37654   4.711   2.606   6.921 -0.3772  0.2069 -0.1168
 8731SOL    HW137655   4.663   2.541   6.869 -3.2614  2.4265 -0.2453
 8731SOL    HW237656   4.642   2.668   6.945 -2.1721 -1.2208 -1.5405
 8732SOL     OW37657   0.095   2.110   8.273  0.2633 -0.1252 -0.0614
 8732SOL    HW137658   0.016   2.146   8.313  1.9284  2.1725  1.1423
 8732SOL    HW237659   0.078   2.022   8.308 -0.0856  0.5617  1.4827
 8733SOL     OW37660   0.500   3.255   6.756 -0.6679 -0.0646 -0.2987
 8733SOL    HW137661   0.556   3.245   6.679  1.7445  0.1439  1.4227
 8733SOL    HW237662   0.479   3.169   6.790  0.7938 -1.2357 -2.3517
 8734SOL     OW37663   3.908   1.381   9.431  0.4633 -0.2240  0.5068
 8734SOL    HW137664   4.002   1.388   9.416 -0.0093 -0.7857 -2.6503
 8734SOL    HW237665   3.907   1.286   9.416  1.6803 -0.0431 -0.7288
 8735SOL     OW37666   0.176   0.378   6.336  0.1528 -0.1808 -0.0390
 8735SOL    HW137667   0.206   0.396   6.425  3.1015  0.6215 -1.1650
 8735SOL    HW237668   0.096   0.331   6.356  0.4545  0.2720  2.2068
 8736SOL     OW37669   4.087   3.024   4.877 -0.0572 -0.0646 -0.0090
 8736SOL    HW137670   4.173   2.988   4.855 -0.3877 -0.4135 -0.7378
 8736SOL    HW237671   4.113   3.073   4.954  3.1083  0.1697 -1.2274
 8737SOL     OW37672   4.706   1.774   2.727  0.6886  0.5349  0.0903
 8737SOL    HW137673   0.056   1.744   2.779 -0.4567  0.1953  1.5219
 8737SOL    HW237674   0.020   1.802   2.644  1.4218  1.1365  0.6301
 8738SOL     OW37675   4.044   1.953   4.786  0.1855  0.1265  0.6188
 8738SOL    HW137676   3.972   2.012   4.810 -0.8424 -0.4912 -0.9684
 8738SOL    HW237677   4.027   1.922   4.697 -0.1024  2.7983 -0.2742
 8739SOL     OW37678   1.272   2.192  15.870 -0.2294  0.0222 -0.1200
 8739SOL    HW137679   1.194   2.171  15.818  0.7529 -1.7592 -0.8833
 8739SOL    HW237680   1.313   2.108  15.891  0.9303  1.0114  1.5382
 8740SOL     OW37681   1.152   4.606   1.567  0.4844 -0.0939 -0.1017
 8740SOL    HW137682   1.057   4.607   1.556  0.6260  3.0116 -1.1347
 8740SOL    HW237683   1.164   4.687   1.617 -1.4091  1.2470 -1.7986
 8741SOL     OW37684   4.565   2.392   7.282 -0.2092  0.5753 -0.1261
 8741SOL    HW137685   4.618   2.387   7.362 -1.0837  0.5569  0.4556
 8741SOL    HW237686   4.530   2.304   7.273 -2.4008  1.1619  2.4390
 8742SOL     OW37687   1.643   1.841   7.111  0.0247  0.2092  0.5333
 8742SOL    HW137688   1.676   1.855   7.022  1.1080 -1.2277  0.7102
 8742SOL    HW237689   1.563   1.798   7.081  0.1216 -0.9113  1.9405
 8743SOL     OW37690   1.942   3.688   5.323 -0.6151 -0.4276  0.5063
 8743SOL    HW137691   1.955   3.759   5.259  1.9745  0.3525  1.8983
 8743SOL    HW237692   1.885   3.636   5.266 -1.1724  1.1637 -0.3991
 8744SOL     OW37693   3.167   3.018   9.982 -0.0218  0.1412  0.8105
 8744SOL    HW137694   3.201   3.088  10.038  1.1769  1.8167 -2.0206
 8744SOL    HW237695   3.189   3.059   9.898  0.9289  0.3089  1.1414
 8745SOL     OW37696   4.052   2.336   2.442 -0.4582  0.8096  0.1037
 8745SOL    HW137697   4.129   2.392   2.434  0.2498 -0.0914  0.4790
 8745SOL    HW237698   3.974   2.388   2.459 -0.8280  0.3440 -0.1563
 8746SOL     OW37699   1.289   0.804   5.336  0.1229  1.0161 -0.3245
 8746SOL    HW137700   1.377   0.821   5.301  1.1638  0.3516  1.9630
 8746SOL    HW237701   1.304   0.724   5.386  0.2647  0.3903 -1.3643
 8747SOL     OW37702   2.823   2.589  16.353  0.3669  0.6455 -0.3351
 8747SOL    HW137703   2.798   2.667  16.403  1.1216  1.1476 -0.7487
 8747SOL    HW237704   2.906   2.569  16.396  0.7710  1.3500 -0.7895
 8748SOL     OW37705   3.683   1.830   4.729 -0.3766 -0.4408 -0.3064
 8748SOL    HW137706   3.654   1.759   4.785 -3.7847 -1.3220 -3.1277
 8748SOL    HW237707   3.623   1.833   4.654  0.7265 -0.3114 -1.1978
 8749SOL     OW37708   0.713   0.437   6.628 -0.3919 -0.5297  0.6389
 8749SOL    HW137709   0.698   0.532   6.621  1.2454 -0.3270 -0.0064
 8749SOL    HW237710   0.800   0.422   6.593 -0.4240  0.7930 -0.0357
 8750SOL     OW37711   1.171   0.005   4.432 -0.0363  0.0849  0.7870
 8750SOL    HW137712   1.155   0.095   4.461  1.5486  1.1084 -1.5368
 8750SOL    HW237713   1.261   0.010   4.399 -0.2257  1.2349  0.4600
 8751SOL     OW37714   1.458   1.323   3.198 -0.4463 -0.3822  0.4460
 8751SOL    HW137715   1.441   1.397   3.257  0.9931  0.3216 -0.0165
 8751SOL    HW237716   1.384   1.350   3.144  0.2991  1.3119  0.2486
 8752SOL     OW37717   3.100   3.526   4.180  0.2350  0.2246  0.5240
 8752SOL    HW137718   3.007   3.513   4.163  0.8352 -1.5799 -1.3297
 8752SOL    HW237719   3.120   3.599   4.122  0.3538 -0.2329 -0.0109
 8753SOL     OW37720   1.147   4.382   5.002 -0.3699  0.4908  0.3225
 8753SOL    HW137721   1.170   4.474   5.015 -2.0264  1.0650 -0.8297
 8753SOL    HW237722   1.193   4.343   5.077 -0.4929  1.3522  0.8461
 8754SOL     OW37723   2.923   0.462  16.174 -0.9224 -0.0088  0.1919
 8754SOL    HW137724   2.862   0.506  16.115 -0.4335  2.1036  1.2789
 8754SOL    HW237725   2.882   0.487  16.257  1.9957 -3.0453  2.5633
 8755SOL     OW37726   0.785   2.549  10.273 -0.7677 -0.1327 -0.1715
 8755SOL    HW137727   0.694   2.519  10.264 -0.9612  0.4534 -0.1530
 8755SOL    HW237728   0.813   2.575  10.186 -0.7290  0.2775 -0.0341
 8756SOL     OW37729   3.376   3.440  16.520  0.4802  0.0781  0.3033
 8756SOL    HW137730   3.376   3.471  16.611 -0.5511 -0.2405  0.4114
 8756SOL    HW237731   3.385   3.514  16.460 -0.8850 -1.6176 -2.0108
 8757SOL     OW37732   2.735   0.656   1.184 -0.0191  0.3324 -0.0508
 8757SOL    HW137733   2.796   0.717   1.143  0.2015 -0.6380 -1.1596
 8757SOL    HW237734   2.784   0.574   1.194 -1.8854 -0.7289  0.5926
 8758SOL     OW37735   2.289   3.186  14.703 -0.3367 -0.0604  0.2754
 8758SOL    HW137736   2.344   3.224  14.771 -1.0811  0.1867  0.7366
 8758SOL    HW237737   2.253   3.261  14.656 -3.4781 -1.0909  1.0281
 8759SOL     OW37738   2.239   4.494   6.602 -0.4950  0.3952 -0.0835
 8759SOL    HW137739   2.193   4.577   6.591 -3.7313 -1.6305 -1.7054
 8759SOL    HW237740   2.325   4.514   6.566 -0.0483 -0.2691  0.6127
 8760SOL     OW37741   3.276   1.893   1.326 -0.0872  0.6378  0.7057
 8760SOL    HW137742   3.291   1.869   1.418 -0.8225 -2.2328  0.0693
 8760SOL    HW237743   3.349   1.854   1.278  0.7571  1.7843  1.0706
 8761SOL     OW37744   4.237   3.338   7.695  0.1715  0.5707  0.4083
 8761SOL    HW137745   4.267   3.393   7.768  0.2811 -0.0209  0.8073
 8761SOL    HW237746   4.294   3.373   7.625  1.0983 -0.4957  0.6252
 8762SOL     OW37747   2.158   3.467   2.222  0.0578  0.0181  0.0854
 8762SOL    HW137748   2.180   3.397   2.161  1.1514  0.7672 -0.3826
 8762SOL    HW237749   2.152   3.417   2.303 -1.6117 -0.4952 -0.3445
 8763SOL     OW37750   4.329   1.962   3.922  0.3860  0.4795 -0.1143
 8763SOL    HW137751   4.311   2.038   3.866 -0.2815  0.3029 -0.1412
 8763SOL    HW237752   4.247   1.915   3.907  1.3634 -1.1945 -0.3147
 8764SOL     OW37753   3.112   1.218   2.653  0.0261  0.0990 -0.2727
 8764SOL    HW137754   3.153   1.225   2.567 -0.4923 -1.5947 -0.6490
 8764SOL    HW237755   3.020   1.204   2.633  0.2112 -0.2962 -0.8447
 8765SOL     OW37756   4.274   0.367   3.653  0.0050  0.0725 -0.4223
 8765SOL    HW137757   4.302   0.286   3.697 -0.4188 -0.0694 -0.4168
 8765SOL    HW237758   4.244   0.337   3.568 -0.5393  0.1649 -0.2587
 8766SOL     OW37759   1.574   0.896   7.815 -0.1001 -0.0284 -0.0083
 8766SOL    HW137760   1.515   0.945   7.758 -0.3801  0.2377  0.5065
 8766SOL    HW237761   1.548   0.808   7.789 -0.2136  0.3505 -1.1640
 8767SOL     OW37762   3.038   4.094   4.832 -0.0920  0.0463 -0.5370
 8767SOL    HW137763   3.060   4.053   4.915  0.4937 -0.6583 -1.0475
 8767SOL    HW237764   2.942   4.101   4.830  0.0843  3.1292  1.0344
 8768SOL     OW37765   0.048   2.065   2.547 -0.4542  0.2584 -0.3851
 8768SOL    HW137766   4.711   2.134   2.523 -0.6717 -0.1563 -1.0056
 8768SOL    HW237767   0.036   1.999   2.479 -1.0816 -2.2429  2.1026
 8769SOL     OW37768   2.027   2.474   3.488 -0.1301  0.1322 -0.0249
 8769SOL    HW137769   2.052   2.448   3.577 -0.7800  0.1127  0.1546
 8769SOL    HW237770   2.033   2.393   3.438 -1.3917  0.2543 -0.3731
 8770SOL     OW37771   2.291   0.153   9.247  0.4029 -0.3642  0.2924
 8770SOL    HW137772   2.245   0.168   9.330  0.8189  1.2242  0.2467
 8770SOL    HW237773   2.220   0.116   9.195  0.2168  0.5161 -0.0815
 8771SOL     OW37774   2.431   0.988   0.941 -0.4847  0.1772 -0.7076
 8771SOL    HW137775   2.518   0.991   0.900 -0.5943 -1.1160 -1.0542
 8771SOL    HW237776   2.426   0.893   0.956  1.8306  0.4772  2.0011
 8772SOL     OW37777   4.540   2.875   8.973  0.4374  0.5380  0.2647
 8772SOL    HW137778   4.517   2.903   9.061  0.0539  3.3569 -0.7461
 8772SOL    HW237779   4.529   2.963   8.936 -0.7058  0.2471 -0.0794
 8773SOL     OW37780   2.260   3.916  16.985  0.3637 -0.1800  0.0614
 8773SOL    HW137781   2.193   3.982  16.968 -0.0600 -0.3869  0.9518
 8773SOL    HW237782   2.198   3.847  17.012 -0.4930  0.5228 -0.0940
 8774SOL     OW37783   2.802   4.357  13.780  0.8278 -0.1178  0.1651
 8774SOL    HW137784   2.790   4.377  13.873  0.9817 -1.0132  0.3774
 8774SOL    HW237785   2.834   4.267  13.785  0.0048 -0.3481  1.2826
 8775SOL     OW37786   2.212   0.999   7.334 -0.0205  0.2459  0.6794
 8775SOL    HW137787   2.197   1.039   7.249  1.7864 -2.1569 -0.7739
 8775SOL    HW237788   2.125   0.964   7.355 -0.5629  0.1113 -1.7476
 8776SOL     OW37789   1.906   2.677   8.284  0.1660 -0.4882  0.5129
 8776SOL    HW137790   1.913   2.755   8.340  1.0672 -0.9791  1.0884
 8776SOL    HW237791   1.946   2.619   8.349  1.7788  0.1577  0.1160
 8777SOL     OW37792   3.731   0.600   8.005 -0.0083  0.1997  0.2358
 8777SOL    HW137793   3.669   0.625   8.072  1.1705 -0.1059  1.4467
 8777SOL    HW237794   3.796   0.545   8.050  0.0374 -0.4384 -0.5981
 8778SOL     OW37795   4.707   3.929   7.681  0.1363 -0.5909 -0.2076
 8778SOL    HW137796   0.072   3.896   7.689  0.4837  0.8983  2.0436
 8778SOL    HW237797   4.661   3.907   7.762  1.9721 -1.5554  0.5868
 8779SOL     OW37798   0.759   0.264   8.647  0.1913  0.6738 -0.3309
 8779SOL    HW137799   0.679   0.266   8.595  0.3897  3.5389 -0.5305
 8779SOL    HW237800   0.770   0.354   8.678 -0.4551  1.7068 -3.1448
 8780SOL     OW37801   1.584   3.342   4.423  0.1846 -0.2573 -0.2291
 8780SOL    HW137802   1.650   3.296   4.372  0.5077  0.8272 -0.7818
 8780SOL    HW237803   1.523   3.275   4.455  0.1478 -0.1730 -0.1255
 8781SOL     OW37804   0.624   1.366   6.322 -0.0232  0.1883 -0.2990
 8781SOL    HW137805   0.583   1.384   6.406 -0.2712  0.9715 -0.5843
 8781SOL    HW237806   0.683   1.441   6.322  0.2202 -0.0053  0.6390
 8782SOL     OW37807   0.621   3.791  14.941 -0.1474  0.3552 -0.2645
 8782SOL    HW137808   0.551   3.756  14.996  0.1107 -1.5113 -1.0894
 8782SOL    HW237809   0.613   3.729  14.869  0.8991 -0.7807  0.5787
 8783SOL     OW37810   4.681   3.853   6.287 -0.0979  0.0650  0.0040
 8783SOL    HW137811   4.679   3.918   6.358 -2.1038  1.3904 -1.2852
 8783SOL    HW237812   4.637   3.779   6.331  0.6908  0.6707  1.8224
 8784SOL     OW37813   0.142   2.409  10.885  0.0975  0.3536  0.6551
 8784SOL    HW137814   0.157   2.492  10.840 -1.0672 -0.6217 -1.5193
 8784SOL    HW237815   0.049   2.393  10.875  0.3401 -2.0759  2.3614
 8785SOL     OW37816   2.103   3.962   9.706  0.2195  0.5180  0.5491
 8785SOL    HW137817   2.073   3.886   9.656  0.2230  0.1724  1.0605
 8785SOL    HW237818   2.064   4.033   9.655 -1.2364  0.1084  1.0871
 8786SOL     OW37819   1.167   2.587   8.395  0.4322 -0.4295  0.2738
 8786SOL    HW137820   1.239   2.607   8.336 -1.6451  1.8008 -1.4966
 8786SOL    HW237821   1.110   2.538   8.335 -0.2742 -1.9712  2.1966
 8787SOL     OW37822   4.538   2.802  14.468 -0.3523  0.2848  0.2712
 8787SOL    HW137823   4.543   2.896  14.450 -0.4226  0.5444  1.5690
 8787SOL    HW237824   4.491   2.762  14.395  0.3367  3.4333 -1.8996
 8788SOL     OW37825   3.963   2.564  10.389 -0.0411  0.2389 -0.3022
 8788SOL    HW137826   3.873   2.553  10.357  0.3535 -0.8890 -1.0304
 8788SOL    HW237827   3.949   2.647  10.433 -2.8193 -0.2354 -0.2714
 8789SOL     OW37828   2.461   0.680   2.935 -0.0841  0.0194  0.2144
 8789SOL    HW137829   2.399   0.698   3.005  0.8561 -0.3168  1.1506
 8789SOL    HW237830   2.507   0.602   2.969  0.0040  1.2404  2.8970
 8790SOL     OW37831   3.885   3.990   3.127 -0.0417 -0.4025 -0.5997
 8790SOL    HW137832   3.934   3.925   3.078  1.0123  1.3806 -1.9353
 8790SOL    HW237833   3.943   3.994   3.203  2.0868  2.5671 -2.3468
 8791SOL     OW37834   3.258   1.314   8.718  0.0020 -0.2629 -0.0634
 8791SOL    HW137835   3.217   1.262   8.649  0.7760  0.5064 -1.0844
 8791SOL    HW237836   3.176   1.338   8.761  0.3922  1.9841 -0.5749
 8792SOL     OW37837   3.721   0.158   5.417  0.5967 -0.3578 -0.0086
 8792SOL    HW137838   3.637   0.181   5.378 -0.9644 -0.2314  3.3956
 8792SOL    HW237839   3.777   0.235   5.428  2.3200 -1.6092 -0.1232
 8793SOL     OW37840   2.643   0.819  11.848 -0.2893 -0.1837  0.4701
 8793SOL    HW137841   2.549   0.804  11.856 -0.1531 -0.2717  1.7899
 8793SOL    HW237842   2.657   0.895  11.904  0.0786  0.7510 -0.8804
 8794SOL     OW37843   1.068   0.614   4.484 -0.4394 -0.0980  0.1575
 8794SOL    HW137844   0.983   0.656   4.495 -1.1155 -0.8884 -1.9094
 8794SOL    HW237845   1.065   0.578   4.395 -0.4582  1.7589 -0.5833
 8795SOL     OW37846   3.803   4.073   5.050 -0.1339  0.1941 -0.6303
 8795SOL    HW137847   3.892   4.069   5.017 -0.2296 -0.5147 -0.7948
 8795SOL    HW237848   3.753   4.048   4.972 -1.3580  0.1262  0.1743
 8796SOL     OW37849   0.693   4.623   8.413 -0.4998 -0.8021 -0.0416
 8796SOL    HW137850   0.637   4.564   8.362  0.0805 -0.6759 -0.8199
 8796SOL    HW237851   0.653   4.707   8.393  0.7647 -0.2313 -0.1738
 8797SOL     OW37852   2.677   1.974   1.798  0.6073 -0.7229  0.0278
 8797SOL    HW137853   2.769   1.968   1.770  0.6708 -0.6933  0.2313
 8797SOL    HW237854   2.686   1.988   1.892  3.4341  1.4371 -0.5441
 8798SOL     OW37855   1.413   2.147  15.149  0.1295 -0.1387  0.1759
 8798SOL    HW137856   1.471   2.072  15.164  1.3623  0.8492  0.3546
 8798SOL    HW237857   1.335   2.117  15.104 -0.7988  3.0566 -0.3689
 8799SOL     OW37858   3.952   1.084  11.072  0.3544 -0.3683  0.1707
 8799SOL    HW137859   4.024   1.053  11.019  0.7054  1.1101 -0.2225
 8799SOL    HW237860   3.999   1.110  11.152 -0.0595  1.1692 -0.0878
 8800SOL     OW37861   2.307   3.482  14.601  0.5385 -0.2950  0.0124
 8800SOL    HW137862   2.360   3.542  14.653 -1.4864 -0.4085  2.1861
 8800SOL    HW237863   2.296   3.529  14.518 -0.7959 -2.6183 -1.1092
 8801SOL     OW37864   3.007   4.549  12.915  0.2574  0.2955 -0.0050
 8801SOL    HW137865   3.051   4.464  12.916  0.4200  0.4018  1.2786
 8801SOL    HW237866   2.956   4.541  12.834 -0.6874  2.6033  0.3563
 8802SOL     OW37867   1.385   1.388   5.508 -0.6505 -0.5613 -0.3472
 8802SOL    HW137868   1.395   1.314   5.567 -2.2216 -0.5146 -0.0241
 8802SOL    HW237869   1.439   1.353   5.438 -1.6546  0.7169 -1.7813
 8803SOL     OW37870   2.955   4.026   9.002 -0.8199  0.4759 -0.1043
 8803SOL    HW137871   3.048   4.050   8.999 -0.2800 -1.8028 -1.4210
 8803SOL    HW237872   2.935   4.077   8.924  3.2752  1.0308 -0.7704
 8804SOL     OW37873   0.767   1.929  12.421 -0.0645 -0.1414  0.3441
 8804SOL    HW137874   0.714   2.000  12.383  1.7379  1.7662  1.4062
 8804SOL    HW237875   0.732   1.908  12.507 -0.3818  0.0565  0.2632
 8805SOL     OW37876   2.434   3.850   5.128  0.1949 -0.0258  0.4890
 8805SOL    HW137877   2.481   3.886   5.203  1.5843 -1.6384  0.3861
 8805SOL    HW237878   2.503   3.807   5.078 -0.6698 -1.2219  0.3254
 8806SOL     OW37879   3.738   3.660  15.382 -0.0886 -0.3505  0.8089
 8806SOL    HW137880   3.820   3.684  15.425  0.7013 -2.3009  0.4151
 8806SOL    HW237881   3.764   3.615  15.301 -0.2682  1.3539 -0.1840
 8807SOL     OW37882   0.943   1.360   7.726  0.1332 -0.1240  0.0850
 8807SOL    HW137883   0.979   1.400   7.805 -0.5309 -1.1684  0.9227
 8807SOL    HW237884   0.965   1.426   7.660 -2.4502  0.7126  0.0735
 8808SOL     OW37885   1.729   2.388  10.358  0.0390  0.1235 -0.1911
 8808SOL    HW137886   1.818   2.398  10.322  0.6871  0.2268  1.4460
 8808SOL    HW237887   1.696   2.311  10.312  0.1441  0.8829 -1.5436
 8809SOL     OW37888   3.353   4.165   7.342 -0.4091  0.6445  0.1878
 8809SOL    HW137889   3.276   4.111   7.324  0.5110 -0.1518 -1.3276
 8809SOL    HW237890   3.318   4.222   7.410  1.0503 -0.1423  1.5987
 8810SOL     OW37891   2.796   3.375   6.023 -0.4082 -0.1594 -0.4779
 8810SOL    HW137892   2.717   3.333   6.055 -0.5875  0.1075 -0.5690
 8810SOL    HW237893   2.767   3.466   6.032  3.8717  1.2512 -0.8137
 8811SOL     OW37894   1.942   3.123   0.331  0.0016 -0.0012  0.1723
 8811SOL    HW137895   1.914   3.047   0.281  0.0527 -0.8608  1.4557
 8811SOL    HW237896   2.037   3.111   0.336  0.0080 -0.1646 -0.3924
 8812SOL     OW37897   0.705   1.211   8.116  0.0722 -0.1521 -0.4503
 8812SOL    HW137898   0.615   1.235   8.098 -0.3813 -0.8250  0.8689
 8812SOL    HW237899   0.691   1.146   8.185  0.8746  1.5596  1.3243
 8813SOL     OW37900   2.803   3.864   6.020  0.6117  0.2254 -0.5637
 8813SOL    HW137901   2.747   3.900   6.088  1.2334  0.4477 -0.1675
 8813SOL    HW237902   2.861   3.933   5.989 -0.6208  1.1640 -0.7639
 8814SOL     OW37903   3.518   2.088  14.678 -0.1674  0.6324 -0.3452
 8814SOL    HW137904   3.537   2.130  14.595 -0.7265  2.5641  0.5057
 8814SOL    HW237905   3.596   2.103  14.732  0.0132  1.3664 -0.8185
 8815SOL     OW37906   3.347   4.722   9.660 -0.0023 -0.0290  0.2084
 8815SOL    HW137907   3.371   4.696   9.749  1.0929 -1.2023 -0.4247
 8815SOL    HW237908   3.388   0.084   9.653 -0.1747 -0.1630 -2.4848
 8816SOL     OW37909   0.396   0.873   7.191 -0.2876  0.0209  0.1280
 8816SOL    HW137910   0.305   0.851   7.210 -0.9023  1.8533 -0.6889
 8816SOL    HW237911   0.440   0.792   7.215  1.1499  0.9251  0.5517
 8817SOL     OW37912   3.986   1.190  15.810  0.2835 -0.0050  0.0691
 8817SOL    HW137913   3.970   1.129  15.882  1.8258  0.7853  1.0925
 8817SOL    HW237914   4.070   1.152  15.782  0.9049  0.9131  0.6787
 8818SOL     OW37915   2.681   2.553   4.599 -0.2501  0.1714  0.2943
 8818SOL    HW137916   2.619   2.618   4.567  0.6606 -0.0142 -1.8558
 8818SOL    HW237917   2.766   2.564   4.557  0.3906 -2.5920  0.8906
 8819SOL     OW37918   1.352   2.803   7.401  0.0156  0.0282 -0.4032
 8819SOL    HW137919   1.384   2.767   7.484  1.5713  1.1833 -0.5080
 8819SOL    HW237920   1.258   2.803   7.418  0.1062  1.6598  0.0429
 8820SOL     OW37921   3.024   2.734   5.999 -0.0860  0.2834 -0.1014
 8820SOL    HW137922   3.041   2.828   6.008 -2.3972  0.5710  1.4204
 8820SOL    HW237923   3.018   2.704   6.089 -4.9585  0.9660 -0.1710
 8821SOL     OW37924   1.886   3.930   1.137 -0.1846 -0.3004  0.1541
 8821SOL    HW137925   1.806   3.980   1.155  1.8609  2.3314  1.9485
 8821SOL    HW237926   1.955   3.979   1.183 -2.0927  1.5278  1.0943
 8822SOL     OW37927   2.852   2.597   8.835 -0.3590  0.0775 -0.2801
 8822SOL    HW137928   2.900   2.536   8.891 -0.9055 -1.4349 -1.4496
 8822SOL    HW237929   2.900   2.580   8.754  0.2724 -2.6818  0.6797
 8823SOL     OW37930   0.572   0.298   6.944  0.2360  0.3868 -0.6780
 8823SOL    HW137931   0.594   0.206   6.962 -0.0066  0.7913  1.6293
 8823SOL    HW237932   0.540   0.276   6.857  0.3845 -4.2371  0.4108
 8824SOL     OW37933   0.361   3.016   7.376  0.2517  0.7909 -0.0391
 8824SOL    HW137934   0.418   3.011   7.453  0.7477 -2.1596 -0.5941
 8824SOL    HW237935   0.422   3.023   7.302  0.7255 -0.9715  0.1819
 8825SOL     OW37936   1.988   2.245   0.171  0.5419  0.1969  0.2939
 8825SOL    HW137937   2.052   2.184   0.207 -0.6155 -1.1423  0.0552
 8825SOL    HW237938   2.030   2.330   0.186 -1.9963  1.1431  2.1480
 8826SOL     OW37939   4.599   2.689   2.358 -0.4377  0.0807  0.0086
 8826SOL    HW137940   4.542   2.722   2.427  1.0754 -0.2259  1.3948
 8826SOL    HW237941   4.551   2.734   2.287  1.4865  2.1145  0.0131
 8827SOL     OW37942   2.117   1.162   0.203  0.0475 -0.2626  0.0487
 8827SOL    HW137943   2.061   1.087   0.184  0.5956 -1.0272  1.5118
 8827SOL    HW237944   2.091   1.223   0.133  0.9201  1.1599  0.9532
 8828SOL     OW37945   0.800   1.236   5.181  0.4544  0.1855  0.2483
 8828SOL    HW137946   0.889   1.273   5.176 -0.4030  2.0860 -0.9061
 8828SOL    HW237947   0.750   1.291   5.242 -2.1698 -0.0330 -1.7216
 8829SOL     OW37948   1.089   3.378  16.277 -0.4723 -0.1022  0.2555
 8829SOL    HW137949   1.105   3.348  16.188  1.5722 -0.4120  0.7211
 8829SOL    HW237950   1.067   3.471  16.277 -2.3026 -0.5255 -2.2966
 8830SOL     OW37951   2.830   0.315   5.128 -0.2967  0.3155 -0.0758
 8830SOL    HW137952   2.794   0.354   5.048 -0.9809  0.2394  0.1982
 8830SOL    HW237953   2.865   0.402   5.151  0.1989  0.1924 -0.3452
 8831SOL     OW37954   1.916   3.175  10.615  0.1096  0.6427 -0.3420
 8831SOL    HW137955   1.891   3.176  10.708  1.6438  0.4985  0.0669
 8831SOL    HW237956   1.847   3.227  10.573  1.4328  0.6727 -2.4410
 8832SOL     OW37957   2.456   1.490   5.255  0.1325  0.3058 -0.6760
 8832SOL    HW137958   2.536   1.519   5.299 -1.4570 -0.0749  2.4426
 8832SOL    HW237959   2.407   1.572   5.258 -0.1562  0.1500 -1.2666
 8833SOL     OW37960   4.435   3.282   1.553  0.1977  0.0605 -0.3101
 8833SOL    HW137961   4.391   3.218   1.497 -1.0090  1.5185 -1.0188
 8833SOL    HW237962   4.514   3.236   1.581  0.6536  0.1158 -1.4874
 8834SOL     OW37963   2.888   2.280  12.691 -0.7490 -0.5032 -0.2844
 8834SOL    HW137964   2.893   2.266  12.786 -0.8053 -2.9684 -0.6524
 8834SOL    HW237965   2.810   2.334  12.680  0.8374  1.5627 -1.6350
 8835SOL     OW37966   1.046   2.535   3.040  0.3367 -0.2002  0.2395
 8835SOL    HW137967   0.990   2.497   3.108 -0.1234 -0.6960 -0.4236
 8835SOL    HW237968   0.988   2.542   2.965  1.2130 -0.0848 -0.4327
 8836SOL     OW37969   4.533   3.525   6.874  0.2110 -0.3044  0.1980
 8836SOL    HW137970   4.556   3.441   6.834  0.3091  0.2465 -0.9001
 8836SOL    HW237971   4.437   3.516   6.871  0.1519  0.1394  0.8657
 8837SOL     OW37972   3.633   1.906   7.923 -0.1342 -0.3841  0.3985
 8837SOL    HW137973   3.569   1.883   7.856 -2.8852  2.9678  1.8518
 8837SOL    HW237974   3.716   1.916   7.878  0.2207  2.3068  1.6814
 8838SOL     OW37975   4.467   4.303   6.546 -0.4478  0.1572 -0.0045
 8838SOL    HW137976   4.387   4.354   6.532 -0.4729 -0.1514 -0.9699
 8838SOL    HW237977   4.457   4.253   6.627 -0.2642  0.9150  0.4819
 8839SOL     OW37978   1.624   1.984   4.785  0.5998 -0.3337 -0.0307
 8839SOL    HW137979   1.646   2.075   4.807 -1.8187 -0.3196  2.4062
 8839SOL    HW237980   1.709   1.941   4.791  1.0035  0.1456 -2.2151
 8840SOL     OW37981   2.812   1.031   8.556 -0.0256 -0.3078  0.4055
 8840SOL    HW137982   2.795   1.025   8.462 -0.9679  1.1495  0.4870
 8840SOL    HW237983   2.824   0.941   8.586  0.8969 -0.4467 -0.4053
 8841SOL     OW37984   0.128   3.503  14.274 -0.8211 -0.5358 -0.2793
 8841SOL    HW137985   0.126   3.591  14.312 -0.8775 -0.7179  0.1385
 8841SOL    HW237986   0.177   3.511  14.192 -1.3024  0.1225 -0.5014
 8842SOL     OW37987   0.628   1.299  14.718  0.4921  0.1623 -0.6386
 8842SOL    HW137988   0.694   1.329  14.655 -0.3618 -1.2327 -2.1965
 8842SOL    HW237989   0.594   1.225  14.667  0.0102  1.3411 -2.0511
 8843SOL     OW37990   0.013   2.124  16.401 -0.0834  0.0725 -0.0458
 8843SOL    HW137991   0.028   2.072  16.480 -0.6898 -0.1065 -0.0495
 8843SOL    HW237992   0.075   2.195  16.415  1.6860 -1.6179  0.5513
 8844SOL     OW37993   3.020   4.661  14.294  0.1898  0.0882  0.4138
 8844SOL    HW137994   2.976   4.724  14.239 -0.3780 -0.9799 -0.3463
 8844SOL    HW237995   2.955   4.666  14.364  0.2426  1.8459  0.3277
 8845SOL     OW37996   4.413   2.836   9.638 -0.0346 -0.1970  0.3832
 8845SOL    HW137997   4.468   2.776   9.690 -0.8881 -2.2903 -1.1025
 8845SOL    HW237998   4.449   2.923   9.653  0.5799 -0.3299 -0.3063
 8846SOL     OW37999   2.130   1.265  16.595  0.0687  0.1203  0.1252
 8846SOL    HW138000   2.144   1.171  16.604 -0.3042 -0.1620 -2.1415
 8846SOL    HW238001   2.067   1.282  16.666  1.8212  0.2399  1.6488
 8847SOL     OW38002   1.983   3.948   8.032  0.0502 -0.1932 -0.4868
 8847SOL    HW138003   1.996   3.926   8.124  3.7569  1.7616 -0.5496
 8847SOL    HW238004   1.899   3.907   8.014  0.3693 -0.8631 -0.4225
 8848SOL     OW38005   0.998   0.358   2.109  0.0448 -0.2448 -0.1546
 8848SOL    HW138006   0.984   0.326   2.020 -1.6353 -0.3179  0.1425
 8848SOL    HW238007   1.001   0.272   2.151 -1.1122 -0.1633  0.1080
 8849SOL     OW38008   4.190   2.675   0.422  0.1297  0.2025  0.7176
 8849SOL    HW138009   4.272   2.642   0.385 -0.8701 -0.2451 -1.1231
 8849SOL    HW238010   4.161   2.742   0.360  0.8209  0.1984  0.3837
 8850SOL     OW38011   3.424   4.160  10.334  1.5393  0.8331  0.0923
 8850SOL    HW138012   3.490   4.204  10.388  1.9708  0.2077  0.0902
 8850SOL    HW238013   3.453   4.070  10.316  0.6933  0.6825 -0.5128
 8851SOL     OW38014   2.978   2.475   6.223 -0.1377  0.1472 -0.1232
 8851SOL    HW138015   2.963   2.382   6.241  0.4183  0.3509  1.3588
 8851SOL    HW238016   2.958   2.483   6.130 -1.4653  0.0650  0.1525
 8852SOL     OW38017   0.634   2.062   6.245 -0.0095 -0.0485 -0.5599
 8852SOL    HW138018   0.725   2.047   6.219  0.0640 -0.5284 -0.0216
 8852SOL    HW238019   0.596   2.088   6.160 -0.6817 -0.0136 -0.2482
 8853SOL     OW38020   1.125   4.677   0.121 -0.5350  0.4609 -0.4674
 8853SOL    HW138021   1.098   0.015   0.189  1.5611  0.6009  0.2132
 8853SOL    HW238022   1.038   4.637   0.120  0.3807 -1.5653  0.6517
 8854SOL     OW38023   2.777   1.113   9.757  0.1647 -0.2942  0.2510
 8854SOL    HW138024   2.749   1.027   9.788  1.6978 -1.1897 -0.8626
 8854SOL    HW238025   2.722   1.164   9.816  0.2627  2.6772 -2.1983
 8855SOL     OW38026   4.293   0.609   7.377  0.0031 -0.5485 -0.4335
 8855SOL    HW138027   4.328   0.571   7.458 -0.7992 -3.9605 -1.6582
 8855SOL    HW238028   4.309   0.701   7.395 -0.3529 -0.1728 -2.0527
 8856SOL     OW38029   0.923   1.217   6.820  0.3675  0.1850 -0.2511
 8856SOL    HW138030   0.948   1.310   6.818 -2.6919  0.9542 -1.7479
 8856SOL    HW238031   0.925   1.205   6.725  0.5190  0.5277 -0.2925
 8857SOL     OW38032   0.467   3.962   8.396 -0.2873 -0.2153  0.1926
 8857SOL    HW138033   0.552   3.918   8.395 -0.6345 -0.8939  0.2673
 8857SOL    HW238034   0.417   3.886   8.426  0.0112 -0.8045 -0.8005
 8858SOL     OW38035   1.948   0.951   8.021  0.2596 -0.1241 -0.2961
 8858SOL    HW138036   1.967   0.862   8.049 -0.5887 -0.3549 -0.4487
 8858SOL    HW238037   1.854   0.944   8.006  0.5461 -3.3428 -0.4550
 8859SOL     OW38038   0.329   0.024   8.027 -1.0093 -0.4122  0.1142
 8859SOL    HW138039   0.341   0.119   8.026 -1.9476 -0.3060 -1.7632
 8859SOL    HW238040   0.313   0.015   7.933 -0.8585  2.9280 -0.2160
 8860SOL     OW38041   0.960   2.578   6.234  0.0693  0.3055  0.3010
 8860SOL    HW138042   0.869   2.552   6.219  0.2628 -0.0245 -0.3106
 8860SOL    HW238043   0.946   2.651   6.295 -2.4266 -0.9453  1.2267
 8861SOL     OW38044   0.087   4.053   3.154  0.6047 -0.0893  0.4316
 8861SOL    HW138045   0.069   3.983   3.216 -0.0890  0.5881  0.9911
 8861SOL    HW238046   0.006   4.104   3.151 -0.9878 -2.6726 -0.4437
 8862SOL     OW38047   2.251   0.772   7.537 -0.5035 -0.3199  0.1845
 8862SOL    HW138048   2.275   0.851   7.488 -2.0995  0.9262  1.4259
 8862SOL    HW238049   2.203   0.814   7.608 -1.3315 -0.9905  0.0141
 8863SOL     OW38050   2.506   2.194  11.422 -0.1212 -0.9691  0.6789
 8863SOL    HW138051   2.521   2.139  11.498 -0.9128  3.6602  4.1654
 8863SOL    HW238052   2.529   2.132  11.352  0.2107  0.2668 -0.3247
 8864SOL     OW38053   0.973   3.758   2.414  0.0017  0.1851  0.1431
 8864SOL    HW138054   0.925   3.794   2.488 -1.3357  0.0583 -0.6595
 8864SOL    HW238055   0.902   3.769   2.350  0.2537 -0.8457 -0.3126
 8865SOL     OW38056   4.581   1.477   3.721  0.3897 -0.1222 -0.2021
 8865SOL    HW138057   4.505   1.529   3.745 -0.5742 -0.7839 -1.8514
 8865SOL    HW238058   4.640   1.488   3.796  2.3750  0.6889 -1.8596
 8866SOL     OW38059   1.674   3.799   7.062 -0.0909 -0.2711 -0.3364
 8866SOL    HW138060   1.634   3.713   7.060 -1.0111  0.1219  1.6904
 8866SOL    HW238061   1.761   3.782   7.098  0.4861  2.9051 -0.1832
 8867SOL     OW38062   2.365   0.625   5.270 -0.1221 -0.4576 -0.0177
 8867SOL    HW138063   2.435   0.589   5.325 -1.0068 -0.3341  1.1858
 8867SOL    HW238064   2.315   0.669   5.339 -1.1299 -0.4630 -0.7510
 8868SOL     OW38065   4.493   1.094  11.536 -0.1389  0.4565 -0.2143
 8868SOL    HW138066   4.492   1.185  11.565  1.6359 -0.3124  2.2195
 8868SOL    HW238067   4.481   1.098  11.441 -0.0543  2.0624 -0.1562
 8869SOL     OW38068   0.851   4.690  14.459  0.4448 -0.3550 -0.0149
 8869SOL    HW138069   0.765   0.006  14.445  1.6329  1.4081 -2.1933
 8869SOL    HW238070   0.909   0.002  14.392  1.9015 -0.4661  1.1832
 8870SOL     OW38071   0.631   3.778   8.017  0.1866  0.5568 -0.1515
 8870SOL    HW138072   0.706   3.757   8.072 -1.3191 -4.1095  0.1259
 8870SOL    HW238073   0.648   3.717   7.945 -2.1661 -1.3407  0.9021
 8871SOL     OW38074   2.139   4.672   4.441 -0.0861 -0.3962  0.6074
 8871SOL    HW138075   2.064   4.707   4.488  0.9950 -0.3005  2.2557
 8871SOL    HW238076   2.138   0.012   4.369 -0.8613 -4.0127 -2.6290
 8872SOL     OW38077   1.548   3.564   7.916  1.0467  0.1306 -0.6713
 8872SOL    HW138078   1.589   3.479   7.931  2.7988  1.0144 -0.3903
 8872SOL    HW238079   1.524   3.568   8.009  2.1420  4.4419 -0.5384
 8873SOL     OW38080   0.662   4.414   7.778  0.5511 -0.0944  0.1085
 8873SOL    HW138081   0.675   4.393   7.870  1.6956 -1.0302 -0.2666
 8873SOL    HW238082   0.698   4.501   7.761  1.0071 -0.4356 -0.6832
 8874SOL     OW38083   0.100   2.979   7.901  0.4472 -0.0391  0.4163
 8874SOL    HW138084   0.069   3.068   7.891  0.6166 -0.0852 -0.5552
 8874SOL    HW238085   0.021   2.930   7.923 -0.3317  0.4941 -1.2235
 8875SOL     OW38086   3.703   1.068   4.234 -0.0471  0.3911 -0.5951
 8875SOL    HW138087   3.785   1.034   4.199 -1.6808 -0.7571 -3.3565
 8875SOL    HW238088   3.651   1.070   4.153  0.0944  1.8175 -0.6532
 8876SOL     OW38089   1.947   0.142   9.468 -0.1546 -0.5543 -0.4073
 8876SOL    HW138090   1.860   0.111   9.444 -0.6099  1.5692 -1.4988
 8876SOL    HW238091   1.999   0.062   9.467  0.2910 -0.3111  3.6341
 8877SOL     OW38092   3.070   2.078  13.647 -0.1676 -0.0267 -0.1335
 8877SOL    HW138093   2.999   2.030  13.603 -0.3357 -1.6996  1.9487
 8877SOL    HW238094   3.069   2.157  13.593 -2.3752  0.6064  0.7964
 8878SOL     OW38095   1.621   3.613   4.060  0.4035 -0.0698  0.0336
 8878SOL    HW138096   1.648   3.704   4.066  0.2724 -0.1567  1.8616
 8878SOL    HW238097   1.695   3.584   4.113  1.3572  0.5721 -0.9470
 8879SOL     OW38098   2.590   0.606   4.597 -0.2124 -0.4794 -0.4169
 8879SOL    HW138099   2.659   0.561   4.549  0.2995 -1.4167  1.1830
 8879SOL    HW238100   2.622   0.694   4.577  2.6750 -1.0695  1.6775
 8880SOL     OW38101   1.394   4.091   8.459  0.0211  0.0759 -0.0147
 8880SOL    HW138102   1.320   4.128   8.412 -1.1087 -2.7087 -0.4281
 8880SOL    HW238103   1.351   4.021   8.508  3.5411 -0.9575  1.5982
 8881SOL     OW38104   0.477   1.760  11.003 -0.6720  0.1327  0.4158
 8881SOL    HW138105   0.490   1.830  11.068  0.2982  0.7679 -0.4602
 8881SOL    HW238106   0.538   1.794  10.938 -1.6364  0.7835 -0.1577
 8882SOL     OW38107   2.519   3.112  16.377  0.1185 -0.2785 -0.2897
 8882SOL    HW138108   2.473   3.176  16.322 -1.2375  0.4540  1.6707
 8882SOL    HW238109   2.585   3.078  16.318  1.4351  0.8536  0.5410
 8883SOL     OW38110   2.668   0.837   3.748  0.6407  0.0133  0.0975
 8883SOL    HW138111   2.716   0.754   3.756  1.2755  0.1325 -2.6394
 8883SOL    HW238112   2.614   0.818   3.672  0.2219  1.2195  0.0972
 8884SOL     OW38113   0.733   1.084   9.730  0.2013  0.7796 -0.5547
 8884SOL    HW138114   0.750   1.151   9.796 -1.5067 -0.0986  0.7737
 8884SOL    HW238115   0.646   1.054   9.757  0.5144  0.5206  0.1408
 8885SOL     OW38116   1.762   0.218   6.744  0.2234 -0.0033  0.2255
 8885SOL    HW138117   1.823   0.155   6.706 -0.0076 -0.0555 -0.0580
 8885SOL    HW238118   1.749   0.282   6.675 -2.5949  0.3773  1.0936
 8886SOL     OW38119   0.902   0.792   4.143 -0.3443  0.7597  0.1555
 8886SOL    HW138120   0.872   0.876   4.180 -2.5210 -0.7865  1.8852
 8886SOL    HW238121   0.997   0.785   4.152 -0.1651  0.3409 -2.0444
 8887SOL     OW38122   0.884   0.282  11.573 -0.3999  0.3605 -0.3759
 8887SOL    HW138123   0.844   0.228  11.505  1.5919  0.0222 -1.2592
 8887SOL    HW238124   0.825   0.267  11.647  1.4509  1.8314  1.4020
 8888SOL     OW38125   3.701   1.639   4.221  0.4293 -0.2635  0.1537
 8888SOL    HW138126   3.766   1.609   4.157  0.4855 -0.6234  0.3800
 8888SOL    HW238127   3.642   1.686   4.161 -0.8627 -1.3307  0.5996
 8889SOL     OW38128   1.327   4.156   3.390  0.1045 -0.6297 -0.5130
 8889SOL    HW138129   1.328   4.064   3.414  1.3221 -0.3091  0.6673
 8889SOL    HW238130   1.385   4.157   3.315  1.5056  2.4268  0.5854
 8890SOL     OW38131   1.620   0.927   6.612  0.1571 -0.3193 -0.0503
 8890SOL    HW138132   1.695   0.868   6.604  1.9831  1.8451  1.2062
 8890SOL    HW238133   1.551   0.885   6.560 -1.2077  2.1319 -0.2361
 8891SOL     OW38134   4.354   0.885   7.126  0.1467  0.6535 -0.7644
 8891SOL    HW138135   4.334   0.832   7.203  1.0220  0.6884 -0.5165
 8891SOL    HW238136   4.430   0.839   7.090 -0.5065 -0.2338 -1.0110
 8892SOL     OW38137   0.172   4.309   1.656 -0.4099 -0.0047 -0.3446
 8892SOL    HW138138   0.191   4.218   1.676  2.1259  0.6172  0.0946
 8892SOL    HW238139   0.138   4.300   1.568  2.1464 -1.9113 -1.1365
 8893SOL     OW38140   2.835   4.072  10.193 -0.3296  0.1709  0.2447
 8893SOL    HW138141   2.740   4.082  10.188 -0.3140  0.8905  1.3910
 8893SOL    HW238142   2.855   4.084  10.100  0.5343  1.2108  0.5670
 8894SOL     OW38143   4.723   2.619  17.297  0.5523  0.8091  0.4806
 8894SOL    HW138144   0.028   2.667  17.374 -1.9161  1.1458  1.2123
 8894SOL    HW238145   0.075   2.627  17.239  1.7618 -0.7655  1.8641
 8895SOL     OW38146   2.420   0.349  13.720 -0.1022  0.1690  0.0572
 8895SOL    HW138147   2.401   0.316  13.632 -1.8973 -0.0809  0.5439
 8895SOL    HW238148   2.508   0.383  13.704 -0.4729  1.2711  0.3608
 8896SOL     OW38149   1.441   0.605   4.242 -0.2120  0.0765 -0.4362
 8896SOL    HW138150   1.469   0.688   4.202  1.8039 -0.2329  0.3364
 8896SOL    HW238151   1.485   0.605   4.327  0.3418 -0.9738 -0.7259
 8897SOL     OW38152   4.260   4.507  14.855  0.5370 -0.2498  0.0553
 8897SOL    HW138153   4.346   4.504  14.813  0.7107 -0.8977  0.4672
 8897SOL    HW238154   4.252   4.422  14.898  2.1432  0.4339  1.7225
 8898SOL     OW38155   0.258   1.619   7.246 -0.2768  0.0884 -0.8651
 8898SOL    HW138156   0.272   1.695   7.304  3.8624 -0.5957 -0.9673
 8898SOL    HW238157   0.344   1.588   7.221 -0.2042 -0.5400  0.1713
 8899SOL     OW38158   0.866   3.504   4.310  0.3510  0.1896  0.2773
 8899SOL    HW138159   0.877   3.413   4.282 -0.5039  0.3176 -0.4674
 8899SOL    HW238160   0.890   3.502   4.402 -1.3884 -2.0184  0.6724
 8900SOL     OW38161   1.705   1.178   8.515 -0.2893 -0.6660  0.0467
 8900SOL    HW138162   1.740   1.089   8.509 -2.4757 -1.3023 -2.8315
 8900SOL    HW238163   1.625   1.170   8.464 -0.8410  2.0462  0.4478
 8901SOL     OW38164   1.221   1.278   6.537  0.6913  0.0671  0.9232
 8901SOL    HW138165   1.209   1.307   6.447 -1.5027  0.3554  1.3043
 8901SOL    HW238166   1.269   1.197   6.522 -0.7231 -0.4729 -0.6376
 8902SOL     OW38167   2.102   4.478   8.208  0.0739  0.6749 -0.1674
 8902SOL    HW138168   2.066   4.420   8.275 -2.1681 -0.3391 -2.2339
 8902SOL    HW238169   2.191   4.501   8.235  0.6885 -0.9670 -0.8000
 8903SOL     OW38170   2.816   1.636   9.594  0.9832  0.4665 -0.4449
 8903SOL    HW138171   2.757   1.654   9.520 -0.2802 -0.6259  0.2801
 8903SOL    HW238172   2.847   1.724   9.614  0.0116  0.2411  2.1553
 8904SOL     OW38173   2.671   2.677   5.517 -0.2992 -0.4540 -0.5029
 8904SOL    HW138174   2.706   2.651   5.603  1.0394 -1.1056 -1.2402
 8904SOL    HW238175   2.726   2.754   5.507  0.2836 -0.5672  1.6849
 8905SOL     OW38176   1.977   4.093   4.336 -0.0069  0.1748 -0.2103
 8905SOL    HW138177   2.002   4.153   4.406 -0.5640  0.7704 -0.5258
 8905SOL    HW238178   2.009   4.140   4.258 -0.0534  1.5889  0.6319
 8906SOL     OW38179   1.461   0.086  10.832 -0.3887 -0.0718  1.1430
 8906SOL    HW138180   1.467   0.136  10.913 -1.8487  0.3996  0.9710
 8906SOL    HW238181   1.533   0.031  10.860  1.0125  0.4932 -1.3785
 8907SOL     OW38182   4.108   3.033   7.673 -0.0835 -0.1777  0.4613
 8907SOL    HW138183   4.107   3.128   7.685 -0.8755  0.1407 -2.0921
 8907SOL    HW238184   4.090   3.026   7.579  0.8655 -0.3422  0.2980
 8908SOL     OW38185   0.277   1.932   2.631  0.7900  0.3317 -0.4758
 8908SOL    HW138186   0.251   1.843   2.606  2.1974 -0.4560  0.8555
 8908SOL    HW238187   0.212   1.989   2.589 -0.2124  0.5635  1.3928
 8909SOL     OW38188   3.187   3.350   0.121  0.2486  0.0609 -0.0922
 8909SOL    HW138189   3.098   3.314   0.125  0.5440 -0.7646 -1.0047
 8909SOL    HW238190   3.176   3.438   0.157 -1.6693  0.2937 -1.2426
 8910SOL     OW38191   2.160   0.329   7.080 -0.2943  0.6857  0.3304
 8910SOL    HW138192   2.228   0.372   7.132 -0.6627  0.1745  1.2194
 8910SOL    HW238193   2.089   0.309   7.141 -0.4291 -1.3612 -0.5004
 8911SOL     OW38194   4.604   0.569   1.595  0.9537  0.4561 -0.0427
 8911SOL    HW138195   4.513   0.541   1.598  0.9796  0.3484 -0.2669
 8911SOL    HW238196   4.624   0.578   1.688  0.1765 -1.9253  0.3470
 8912SOL     OW38197   2.854   1.012   3.845 -0.1377 -0.0129  0.1791
 8912SOL    HW138198   2.782   0.954   3.820 -0.0200 -0.5321  1.0480
 8912SOL    HW238199   2.904   1.001   3.763 -0.8731 -0.3932 -0.2171
 8913SOL     OW38200   1.809   0.995   4.855 -0.3940  0.1229  0.2529
 8913SOL    HW138201   1.857   0.913   4.846 -1.2163 -0.0452 -2.3324
 8913SOL    HW238202   1.859   1.059   4.804 -1.4663  0.7622 -0.0009
 8914SOL     OW38203   4.583   1.081   6.701 -0.1967 -0.2218  0.0407
 8914SOL    HW138204   4.651   1.072   6.635 -0.8718 -1.1594 -0.5217
 8914SOL    HW238205   4.547   0.992   6.695  0.8408 -0.7801  2.1663
 8915SOL     OW38206   1.925   2.445   8.625  0.4847 -0.4818 -0.0582
 8915SOL    HW138207   1.878   2.520   8.662  2.0019 -0.0124  0.9131
 8915SOL    HW238208   1.928   2.384   8.699 -0.7970 -0.6134 -0.1249
 8916SOL     OW38209   1.249   0.195   7.869 -0.1818  0.5303  0.0052
 8916SOL    HW138210   1.317   0.241   7.918 -1.7685  2.7023  0.2147
 8916SOL    HW238211   1.259   0.210   7.775  2.4530  1.5018  0.4596
 8917SOL     OW38212   2.667   4.202  16.571  0.3063 -0.1785 -0.6384
 8917SOL    HW138213   2.629   4.289  16.583  1.5333  0.7349 -3.6041
 8917SOL    HW238214   2.703   4.183  16.658 -0.2198  4.0950  0.5455
 8918SOL     OW38215   3.734   2.023  14.145 -0.7227  0.3549 -0.1558
 8918SOL    HW138216   3.808   2.072  14.110 -0.2319  0.6371  1.2378
 8918SOL    HW238217   3.785   1.963  14.200 -2.4807  0.1045  1.2100
 8919SOL     OW38218   3.748   0.934   7.955  0.3563 -0.2652  0.4653
 8919SOL    HW138219   3.780   1.022   7.933 -1.4361  0.4564  0.7281
 8919SOL    HW238220   3.699   0.939   8.037  0.7223  0.3110  0.6465
 8920SOL     OW38221   4.528   3.088  12.501 -0.6349 -0.0532  0.4679
 8920SOL    HW138222   4.440   3.125  12.500 -0.2281  0.9266  0.6429
 8920SOL    HW238223   4.521   3.013  12.561 -0.5627 -0.4047  0.0398
 8921SOL     OW38224   2.440   0.727   4.404 -0.2418 -0.4312 -0.0353
 8921SOL    HW138225   2.501   0.798   4.422  0.7575 -1.5682  1.0357
 8921SOL    HW238226   2.468   0.662   4.469 -0.6873 -0.0230  0.5673
 8922SOL     OW38227   2.894   3.398  10.638  0.4831  0.1225  0.3320
 8922SOL    HW138228   2.926   3.461  10.703 -2.9113  1.6587  0.5350
 8922SOL    HW238229   2.830   3.449  10.587 -0.1732 -0.9225  0.1177
 8923SOL     OW38230   4.578   2.079   0.488  0.1327  0.4126 -0.1134
 8923SOL    HW138231   4.670   2.102   0.493  0.4641 -0.7604 -0.9788
 8923SOL    HW238232   4.558   2.080   0.395  0.0431 -1.1588 -0.0980
 8924SOL     OW38233   1.474   2.301   8.451 -0.1718  0.2533 -0.3700
 8924SOL    HW138234   1.493   2.275   8.361  0.4447  0.9514 -0.4399
 8924SOL    HW238235   1.557   2.345   8.467 -1.0499  0.1934  4.3862
 8925SOL     OW38236   0.741   1.028   4.581  0.2391 -0.4934  0.4006
 8925SOL    HW138237   0.722   1.107   4.531 -0.0956 -0.0521  1.2275
 8925SOL    HW238238   0.658   1.009   4.624  0.7710  0.8436  2.0303
 8926SOL     OW38239   3.002   1.243  13.906 -0.0745 -0.0507 -0.2737
 8926SOL    HW138240   3.036   1.293  13.980  1.1512 -0.9695 -0.2271
 8926SOL    HW238241   3.082   1.194  13.890  0.2059 -0.6589  3.0720
 8927SOL     OW38242   1.163   2.658  11.102  0.1300 -0.3509 -0.5949
 8927SOL    HW138243   1.167   2.577  11.154 -0.1338  0.0707  0.0853
 8927SOL    HW238244   1.069   2.673  11.111 -0.2627 -1.3306 -3.1231
 8928SOL     OW38245   1.062   1.802   7.968 -0.3518 -0.1284 -0.3537
 8928SOL    HW138246   1.071   1.893   7.997 -1.5253  0.4795 -1.8875
 8928SOL    HW238247   0.974   1.780   7.999  0.9496 -0.2834  3.1866
 8929SOL     OW38248   4.159   0.107   9.583 -0.0140  0.3658  0.3257
 8929SOL    HW138249   4.098   0.094   9.656  0.4612  1.7764  0.9778
 8929SOL    HW238250   4.170   0.202   9.587  1.1890  0.1678  1.7675
 8930SOL     OW38251   0.157   0.085   4.089  0.0950  0.2397 -0.3393
 8930SOL    HW138252   0.229   0.148   4.082  1.4664 -1.2643  0.3297
 8930SOL    HW238253   0.191   4.723   4.110  1.9828  1.2703  0.8710
 8931SOL     OW38254   1.485   3.563  12.147  0.0928 -0.0443 -0.1017
 8931SOL    HW138255   1.432   3.497  12.193  1.2629 -0.6752  0.3593
 8931SOL    HW238256   1.433   3.568  12.067 -0.6740  0.4266  0.4288
 8932SOL     OW38257   2.312   4.379   4.583  0.4136 -0.0535 -0.1655
 8932SOL    HW138258   2.363   4.434   4.523  1.1719  0.5977  1.0754
 8932SOL    HW238259   2.278   4.433   4.655  1.5264 -0.0245  0.3342
 8933SOL     OW38260   3.337   1.830   7.918 -0.1089 -0.2782  0.1264
 8933SOL    HW138261   3.371   1.750   7.878  4.4624  0.7059  2.0439
 8933SOL    HW238262   3.345   1.804   8.010 -1.5838  0.2195  0.3875
 8934SOL     OW38263   4.607   1.804   4.468  0.7875 -0.1190 -0.4506
 8934SOL    HW138264   4.615   1.800   4.373  0.8739  0.5563 -0.4713
 8934SOL    HW238265   4.551   1.729   4.489  0.4256  0.0508 -0.8304
 8935SOL     OW38266   0.630   2.768  10.592 -0.2065  0.1381  0.2646
 8935SOL    HW138267   0.590   2.720  10.664 -0.4620 -0.0740 -0.0177
 8935SOL    HW238268   0.706   2.715  10.568  0.6120  0.8161  1.4011
 8936SOL     OW38269   3.376   3.434  11.703  0.4353 -0.2139  0.1218
 8936SOL    HW138270   3.287   3.464  11.722  0.8836  0.1667  1.6768
 8936SOL    HW238271   3.418   3.519  11.693 -1.9676  0.8290 -1.1592
 8937SOL     OW38272   3.416   0.334   9.687  0.4582  0.5242 -0.2592
 8937SOL    HW138273   3.386   0.396   9.752  1.9438  0.3633  0.5790
 8937SOL    HW238274   3.506   0.357   9.660 -0.6659  2.4748 -2.3522
 8938SOL     OW38275   4.470   4.585  16.535  0.1223  0.2060 -0.4427
 8938SOL    HW138276   4.379   4.611  16.539  0.2793  0.5948  0.5604
 8938SOL    HW238277   4.488   4.581  16.441 -2.4504  0.0002 -0.9113
 8939SOL     OW38278   1.052   4.507   7.899  0.8034  0.4180 -0.5175
 8939SOL    HW138279   1.051   4.411   7.900 -1.9083  0.4440  0.6665
 8939SOL    HW238280   1.145   4.524   7.908  0.6054  1.0591  0.2987
 8940SOL     OW38281   3.692   0.002   4.892 -0.2358  0.6367 -0.3808
 8940SOL    HW138282   3.787   4.721   4.904 -0.0763  0.3885 -1.7455
 8940SOL    HW238283   3.657   0.056   4.963 -3.2100 -0.7888 -0.7501
 8941SOL     OW38284   3.094   0.626   5.001 -0.4658  0.0360 -0.0826
 8941SOL    HW138285   3.167   0.661   5.052 -0.7273  0.8577 -0.2708
 8941SOL    HW238286   3.145   0.576   4.938  1.9105  1.7138  0.5152
 8942SOL     OW38287   0.437   3.830   3.866  0.4420  0.2980  0.2617
 8942SOL    HW138288   0.490   3.815   3.788 -0.6135 -4.2116  0.4398
 8942SOL    HW238289   0.455   3.924   3.874 -0.8875  0.7698 -2.3256
 8943SOL     OW38290   3.817   3.501  10.417  0.5065 -0.1848  0.1755
 8943SOL    HW138291   3.859   3.509  10.332  1.4995  0.0296  0.6830
 8943SOL    HW238292   3.900   3.507  10.464  1.7922  0.0660 -2.1367
 8944SOL     OW38293   1.259   1.221   4.466 -0.0353 -0.2856 -0.0138
 8944SOL    HW138294   1.220   1.247   4.382 -1.2794 -0.8190  0.4045
 8944SOL    HW238295   1.285   1.132   4.443 -0.1194 -0.4093  0.3779
 8945SOL     OW38296   3.182   0.046   2.447 -0.2391 -0.1744  0.0678
 8945SOL    HW138297   3.265   0.075   2.408 -0.8610  0.1589 -1.0189
 8945SOL    HW238298   3.121   0.115   2.424  0.1246  0.2797  0.4798
 8946SOL     OW38299   0.339   2.251   2.524  0.0347  0.2529 -0.4760
 8946SOL    HW138300   0.327   2.173   2.471  1.6028  0.6336 -1.3986
 8946SOL    HW238301   0.434   2.245   2.538 -0.1368  0.8676  0.9888
 8947SOL     OW38302   4.343   3.446   7.421 -0.1926 -0.0674 -0.1801
 8947SOL    HW138303   4.413   3.430   7.358 -1.4206  1.6462 -1.9756
 8947SOL    HW238304   4.328   3.540   7.413  2.8162  0.2386 -2.1636
 8948SOL     OW38305   3.409   2.929  11.181 -0.0834  0.0645  1.0987
 8948SOL    HW138306   3.352   2.921  11.257 -0.5657 -0.3034  0.6966
 8948SOL    HW238307   3.492   2.948  11.225  0.7315 -2.5220  0.6842
 8949SOL     OW38308   4.117   2.893   2.981  0.1631  0.3249 -0.4915
 8949SOL    HW138309   4.062   2.878   3.058  0.6339  2.7652  0.3209
 8949SOL    HW238310   4.144   2.982   3.003  3.5083 -0.6670 -0.5534
 8950SOL     OW38311   0.978   4.428   7.372 -1.0107  0.3947  1.0901
 8950SOL    HW138312   1.067   4.418   7.408 -0.5393  0.1202 -0.1696
 8950SOL    HW238313   0.991   4.487   7.299  1.4318 -1.0674  0.3485
 8951SOL     OW38314   4.528   4.358   0.588 -0.1706  0.0356  0.0690
 8951SOL    HW138315   4.587   4.402   0.527  1.3467 -2.4414 -0.2356
 8951SOL    HW238316   4.477   4.297   0.535 -1.0859 -1.5968  2.8378
 8952SOL     OW38317   2.000   0.541   6.593  0.5710  0.1426  0.0085
 8952SOL    HW138318   2.003   0.445   6.594  0.0096  0.1264  0.1142
 8952SOL    HW238319   2.071   0.554   6.657  1.4181  0.9379 -1.0946
 8953SOL     OW38320   3.442   3.187   5.623  0.4108 -0.1111 -0.7054
 8953SOL    HW138321   3.536   3.198   5.607  0.6847  0.4487  1.2874
 8953SOL    HW238322   3.434   3.094   5.603 -3.0921  0.1802 -0.6677
 8954SOL     OW38323   3.794   4.247  17.080  0.6101 -0.3195  0.1288
 8954SOL    HW138324   3.717   4.266  17.134  1.2894  0.6302  0.7594
 8954SOL    HW238325   3.763   4.224  16.992 -2.4870  1.6034  0.7091
 8955SOL     OW38326   0.305   2.679   0.929  0.2894 -0.3557 -0.0148
 8955SOL    HW138327   0.220   2.638   0.944  1.3619 -2.2632  0.7400
 8955SOL    HW238328   0.344   2.696   1.015 -0.1830  0.7545 -0.0150
 8956SOL     OW38329   3.645   2.910   8.963  0.0324  0.7111  0.1446
 8956SOL    HW138330   3.732   2.874   8.943 -1.2757 -2.8076  0.7694
 8956SOL    HW238331   3.621   2.868   9.045 -0.8999  1.0701  0.0466
 8957SOL     OW38332   2.152   3.755   2.634  0.7887 -0.0557 -0.3764
 8957SOL    HW138333   2.128   3.671   2.596  0.6042  0.6348 -1.8052
 8957SOL    HW238334   2.247   3.747   2.644  0.6264 -0.6503  0.6482
 8958SOL     OW38335   3.088   3.810   0.361 -0.6979  0.3410  0.7201
 8958SOL    HW138336   3.026   3.807   0.435 -2.2093  1.3432 -0.5119
 8958SOL    HW238337   3.130   3.895   0.366 -0.5740  0.3001  0.3648
 8959SOL     OW38338   3.722   4.660   8.166  0.0109  0.3412 -0.2815
 8959SOL    HW138339   3.676   4.639   8.247 -0.5377 -0.8005 -0.8936
 8959SOL    HW238340   3.650   4.656   8.103 -0.1844  1.5044 -0.1257
 8960SOL     OW38341   2.176   1.095  12.048  0.1940  0.1652  0.1758
 8960SOL    HW138342   2.163   1.064  12.137 -2.8972 -1.0292 -0.6955
 8960SOL    HW238343   2.196   1.186  12.072  3.3181 -0.5872  0.5057
 8961SOL     OW38344   0.538   3.334   7.334 -0.2552 -0.1206  0.1830
 8961SOL    HW138345   0.445   3.349   7.352 -0.0663  0.1590  0.9428
 8961SOL    HW238346   0.570   3.284   7.410  2.0200 -1.4938 -1.6901
 8962SOL     OW38347   2.746   2.095  13.593  0.4693  0.3976  0.1385
 8962SOL    HW138348   2.674   2.144  13.633  0.9582  0.6218  0.7558
 8962SOL    HW238349   2.790   2.163  13.542  2.9842 -1.6670 -0.4292
 8963SOL     OW38350   4.264   4.582   2.085  0.2952  0.0142  0.7284
 8963SOL    HW138351   4.201   4.631   2.138 -1.7428 -1.3505 -0.4480
 8963SOL    HW238352   4.214   4.532   2.020 -1.1760 -1.9591  3.3900
 8964SOL     OW38353   4.701   4.063  10.870 -0.1723 -0.0546 -1.0385
 8964SOL    HW138354   4.655   3.984  10.840 -0.8485  0.6559 -1.8635
 8964SOL    HW238355   4.645   4.097  10.940  0.6342  0.3109 -0.5777
 8965SOL     OW38356   1.715   4.608   3.021 -0.1673 -0.6229 -0.1634
 8965SOL    HW138357   1.794   4.659   3.000 -1.1513 -0.0016 -2.3725
 8965SOL    HW238358   1.754   4.521   3.008 -0.7318 -1.1046  1.3772
 8966SOL     OW38359   3.776   2.129   1.657 -0.3714 -1.4676 -0.3643
 8966SOL    HW138360   3.732   2.078   1.589 -1.2503  1.3976 -1.9421
 8966SOL    HW238361   3.862   2.088   1.652  0.5570  0.3858  0.6524
 8967SOL     OW38362   1.660   3.144   9.336  0.1072  0.1915 -0.1077
 8967SOL    HW138363   1.655   3.055   9.300 -0.8651  0.0662  0.3472
 8967SOL    HW238364   1.579   3.157   9.385  1.0303 -2.8133  2.2406
 8968SOL     OW38365   1.983   2.514  10.265  0.1046 -0.2184 -0.3421
 8968SOL    HW138366   2.046   2.468  10.320  1.5177  2.3637  0.1890
 8968SOL    HW238367   2.029   2.595  10.246  0.5236 -0.0961  1.1790
 8969SOL     OW38368   3.067   0.523   3.324  0.5321 -0.1872  0.2776
 8969SOL    HW138369   3.124   0.556   3.394  1.3378  1.1311 -1.0267
 8969SOL    HW238370   3.114   0.568   3.255 -0.8044  0.2391 -0.3501
 8970SOL     OW38371   0.346   3.718   1.849  0.0092  0.2870  0.2410
 8970SOL    HW138372   0.408   3.653   1.880 -0.3707  0.2132  0.8598
 8970SOL    HW238373   0.263   3.681   1.880  0.3868  1.5340  2.7438
 8971SOL     OW38374   4.453   1.352  13.303  0.3391  0.3288  0.5507
 8971SOL    HW138375   4.476   1.284  13.366  0.1787  0.9739  1.2981
 8971SOL    HW238376   4.383   1.404  13.343 -0.4924 -1.4911  1.4204
 8972SOL     OW38377   1.327   2.384   7.508  0.1498  0.5109  0.0336
 8972SOL    HW138378   1.370   2.363   7.426 -0.0283 -0.4128  0.1702
 8972SOL    HW238379   1.260   2.444   7.475 -1.3557 -2.3310 -2.0756
 8973SOL     OW38380   2.225   2.794   0.263 -0.6247 -0.4846  0.2274
 8973SOL    HW138381   2.206   2.886   0.283  0.4692 -0.1263 -0.3849
 8973SOL    HW238382   2.136   2.767   0.237  0.0874 -1.3273 -1.3663
 8974SOL     OW38383   3.577   0.979  15.362 -0.1382 -0.3588 -0.7263
 8974SOL    HW138384   3.560   0.909  15.300  0.1344 -0.9844 -0.0886
 8974SOL    HW238385   3.602   0.940  15.445 -0.7491  2.5405  0.8426
 8975SOL     OW38386   1.541   3.982  16.423 -0.2041  0.5804 -0.0610
 8975SOL    HW138387   1.573   4.026  16.501  1.5074 -1.4697  0.3851
 8975SOL    HW238388   1.485   4.052  16.389 -0.5068  1.3428  2.0047
 8976SOL     OW38389   2.997   3.706   5.028  0.0379 -0.2025  0.1805
 8976SOL    HW138390   3.072   3.763   5.045 -0.6479  0.8839 -0.4156
 8976SOL    HW238391   2.928   3.771   5.021 -0.1723 -0.3681  0.7130
 8977SOL     OW38392   1.587   1.444  12.728  0.2373 -0.1606  0.1221
 8977SOL    HW138393   1.494   1.445  12.750 -0.3705  0.5073 -2.4427
 8977SOL    HW238394   1.618   1.377  12.789 -0.3469 -1.9141 -1.5210
 8978SOL     OW38395   0.312   3.034   6.576  0.2891  0.4536  0.1528
 8978SOL    HW138396   0.368   3.033   6.498 -0.0516  1.0193 -0.0952
 8978SOL    HW238397   0.379   3.004   6.638 -2.3292 -3.9522  0.8777
 8979SOL     OW38398   4.229   1.953   7.685  0.0050  0.1991  0.4112
 8979SOL    HW138399   4.280   1.880   7.720  0.0956  0.2485  0.3795
 8979SOL    HW238400   4.156   1.892   7.673 -0.1005  0.9424 -2.6031
 8980SOL     OW38401   2.956   4.250   6.483  0.6952 -0.0171  0.4810
 8980SOL    HW138402   3.040   4.273   6.444  1.5289 -0.6294  1.9027
 8980SOL    HW238403   2.919   4.327   6.526  2.0711  0.2606  1.1922
 8981SOL     OW38404   3.715   1.521   3.434  0.2684 -0.0388  0.3082
 8981SOL    HW138405   3.754   1.596   3.390  0.5962 -0.2279  0.2703
 8981SOL    HW238406   3.729   1.446   3.377  0.1343  1.6074 -1.8620
 8982SOL     OW38407   1.622   2.975   5.257 -0.2705 -0.8100  0.1499
 8982SOL    HW138408   1.564   2.974   5.180 -0.9139 -0.7502  0.6278
 8982SOL    HW238409   1.563   3.020   5.317 -0.8272 -1.3106 -0.0160
 8983SOL     OW38410   2.649   4.120   6.739 -0.2391  0.0219  0.4894
 8983SOL    HW138411   2.629   4.202   6.693 -3.3726 -1.5475 -1.0049
 8983SOL    HW238412   2.738   4.139   6.769 -0.1212  0.0810  0.1070
 8984SOL     OW38413   1.956   3.235   3.611  0.5461 -0.5700 -0.5249
 8984SOL    HW138414   1.942   3.174   3.684  0.8997  0.1340  0.1401
 8984SOL    HW238415   1.863   3.253   3.592  0.5902 -0.0323 -0.2408
 8985SOL     OW38416   4.210   4.213   2.673 -0.2005 -0.2189 -0.5620
 8985SOL    HW138417   4.126   4.257   2.666 -0.7321 -1.2440 -0.6878
 8985SOL    HW238418   4.252   4.233   2.589  1.7715  1.5141  0.8570
 8986SOL     OW38419   3.656   3.505   6.668  0.4296 -0.0311 -0.1586
 8986SOL    HW138420   3.653   3.490   6.763 -1.1616  0.2421 -0.1651
 8986SOL    HW238421   3.658   3.412   6.646 -0.6798 -0.2041  0.4689
 8987SOL     OW38422   1.401   3.358  10.679  0.4159  0.9972 -0.2320
 8987SOL    HW138423   1.398   3.442  10.631  2.2442 -0.0281 -2.1676
 8987SOL    HW238424   1.308   3.336  10.674  1.0708 -2.2839  2.3411
 8988SOL     OW38425   1.930   2.031   8.605 -0.1952 -0.1793 -0.2999
 8988SOL    HW138426   1.916   1.961   8.668  2.6155  0.1518  0.6916
 8988SOL    HW238427   2.001   2.084   8.642  0.9292 -2.1187  0.2967
 8989SOL     OW38428   2.509   3.700   8.966 -0.4800  0.2592 -0.1251
 8989SOL    HW138429   2.602   3.722   8.974 -0.3346 -0.5171  0.2716
 8989SOL    HW238430   2.477   3.790   8.964 -0.8533  0.1405  0.7056
 8990SOL     OW38431   3.853   4.697   5.224 -0.4050 -0.1373  0.0699
 8990SOL    HW138432   3.830   0.004   5.311  0.5627 -0.2596  0.3678
 8990SOL    HW238433   3.947   4.680   5.217 -0.4094 -0.9157  2.1297
 8991SOL     OW38434   4.108   4.500   8.753  0.6402 -0.1779  0.1529
 8991SOL    HW138435   4.078   4.587   8.729  1.2809  0.0516  0.1719
 8991SOL    HW238436   4.170   4.497   8.680  1.3458  0.1334  0.7293
 8992SOL     OW38437   1.856   3.575   4.165 -0.0391 -0.5368  0.3303
 8992SOL    HW138438   1.903   3.651   4.198 -0.6107  0.4151 -1.0274
 8992SOL    HW238439   1.927   3.526   4.123  1.0766  2.0821 -0.8407
 8993SOL     OW38440   2.633   3.475   8.138  0.2159  0.3036 -0.0522
 8993SOL    HW138441   2.540   3.494   8.146 -0.1811 -0.7211 -2.2802
 8993SOL    HW238442   2.669   3.514   8.218 -3.8193 -1.7262  2.7346
 8994SOL     OW38443   3.918   2.840   5.666 -0.0425  0.4183 -0.1822
 8994SOL    HW138444   4.006   2.842   5.706  0.0099 -1.3175 -0.2020
 8994SOL    HW238445   3.893   2.930   5.688 -1.5247 -0.2237  0.7658
 8995SOL     OW38446   1.789   3.702   2.311 -0.0874 -0.4565 -0.6487
 8995SOL    HW138447   1.776   3.770   2.245 -0.0699  1.1846  1.0289
 8995SOL    HW238448   1.875   3.666   2.289 -0.0950  0.5105 -2.3050
 8996SOL     OW38449   0.852   3.156  13.047 -0.1902 -0.1247  0.4804
 8996SOL    HW138450   0.821   3.070  13.074  2.8598 -1.1803  0.6651
 8996SOL    HW238451   0.794   3.215  13.094  1.9798 -0.6791  3.8346
 8997SOL     OW38452   4.232   3.145   0.118  0.0924 -0.2328 -0.2619
 8997SOL    HW138453   4.247   3.235   0.092  1.5133 -1.1267 -2.5099
 8997SOL    HW238454   4.160   3.115   0.061 -2.9425  1.8447  2.5126
 8998SOL     OW38455   1.004   2.766   8.501 -0.0234 -0.3333 -0.5709
 8998SOL    HW138456   1.007   2.847   8.450  2.1569  1.0431  1.7259
 8998SOL    HW238457   1.079   2.715   8.469  0.8836 -0.2862  1.4733
 8999SOL     OW38458   0.478   3.962   3.042  0.1404 -0.4772 -0.3978
 8999SOL    HW138459   0.414   4.033   3.048  2.4726  1.5967  0.1164
 8999SOL    HW238460   0.508   3.966   3.133 -1.4481 -1.1641  0.1545
 9000SOL     OW38461   4.601   0.899   9.359 -0.2016 -0.0161 -0.1163
 9000SOL    HW138462   4.576   0.980   9.404  0.3335  1.3850 -2.3139
 9000SOL    HW238463   4.517   0.856   9.369  0.0982 -0.2797  1.3002
 9001SOL     OW38464   1.831   0.135   1.660  0.0917 -0.3687 -0.3466
 9001SOL    HW138465   1.783   0.191   1.721  0.6297  1.1986 -1.3515
 9001SOL    HW238466   1.769   0.148   1.588  0.6209  0.5468 -0.6346
 9002SOL     OW38467   1.378   2.397  10.854 -0.2057  0.1208  0.0091
 9002SOL    HW138468   1.386   2.410  10.949  1.2167 -1.0175  0.0375
 9002SOL    HW238469   1.453   2.340  10.838 -1.0863 -1.6473  2.1440
 9003SOL     OW38470   0.838   3.929   1.796 -0.8834 -0.3828  0.3329
 9003SOL    HW138471   0.814   3.861   1.858 -0.5963  0.7899  1.7226
 9003SOL    HW238472   0.934   3.924   1.799 -0.9799 -2.0210  0.4403
 9004SOL     OW38473   2.507   1.531   2.384 -0.2246  0.6543 -0.4134
 9004SOL    HW138474   2.521   1.553   2.292 -0.8356 -0.6824 -0.8279
 9004SOL    HW238475   2.594   1.495   2.406 -0.7717  0.4952  1.4943
 9005SOL     OW38476   0.864   0.034   7.381  0.2649  0.0987  0.3292
 9005SOL    HW138477   0.933   4.714   7.333  0.2536  1.3278 -0.8065
 9005SOL    HW238478   0.797   4.692   7.400  0.9415 -0.8562 -0.6423
 9006SOL     OW38479   3.669   0.023  12.981 -0.6393 -0.1159  0.1100
 9006SOL    HW138480   3.748   4.720  12.936 -0.4213 -0.7847  0.9045
 9006SOL    HW238481   3.641   4.659  13.004 -0.9275  0.2184  1.0418
 9007SOL     OW38482   3.109   3.694   5.377  0.2923  1.0466  0.2677
 9007SOL    HW138483   3.146   3.606   5.370  0.4503  1.0049  1.6705
 9007SOL    HW238484   3.139   3.740   5.298  0.8059  1.4656  0.7066
 9008SOL     OW38485   0.729   3.279  14.441 -0.2778 -0.0593  0.0062
 9008SOL    HW138486   0.702   3.368  14.417 -1.4462 -0.2737  0.5488
 9008SOL    HW238487   0.731   3.287  14.536 -0.5176 -0.2685  0.0278
 9009SOL     OW38488   1.733   3.204  10.813 -0.1701  0.4448  0.3939
 9009SOL    HW138489   1.676   3.279  10.796 -1.2078 -0.9434 -2.3433
 9009SOL    HW238490   1.750   3.216  10.906 -0.3531 -0.3744  0.5320
 9010SOL     OW38491   1.719   1.358   4.445  0.0646  0.0286 -0.0241
 9010SOL    HW138492   1.748   1.405   4.366 -0.1214  1.1237  0.5545
 9010SOL    HW238493   1.792   1.371   4.505  0.7111  1.4780 -1.1000
 9011SOL     OW38494   0.961   2.427   8.247 -0.1866  0.2215  0.0482
 9011SOL    HW138495   0.951   2.411   8.153  1.3314  0.2671 -0.1194
 9011SOL    HW238496   0.971   2.336   8.273  2.4153  0.4598 -0.1146
 9012SOL     OW38497   2.493   4.341   9.059 -1.0090 -0.5885  0.2966
 9012SOL    HW138498   2.571   4.294   9.030  0.2509  1.3706  0.4593
 9012SOL    HW238499   2.453   4.352   8.973  0.9137 -0.8524 -0.6230
 9013SOL     OW38500   0.495   3.389  13.528 -0.3872  0.4607  0.5579
 9013SOL    HW138501   0.571   3.365  13.582 -0.9747 -0.8433  0.7981
 9013SOL    HW238502   0.466   3.463  13.581 -0.4595  1.7345 -1.2553
 9014SOL     OW38503   1.768   1.112  15.717  0.2799  0.2761 -0.4159
 9014SOL    HW138504   1.743   1.037  15.662  1.6144  2.1487 -3.6213
 9014SOL    HW238505   1.843   1.146  15.667 -0.5382 -0.1407 -1.9347
 9015SOL     OW38506   2.246   0.032   5.395  0.4104  0.3358 -0.1398
 9015SOL    HW138507   2.170   0.006   5.447  1.2430 -2.2245 -0.1683
 9015SOL    HW238508   2.277   0.106   5.447 -1.7523  0.8016  0.4946
 9016SOL     OW38509   1.965   3.905  15.226  0.6618  0.3415  0.7260
 9016SOL    HW138510   1.920   3.821  15.230 -0.1308  0.6226 -2.2065
 9016SOL    HW238511   1.905   3.971  15.260 -0.7237  0.2200 -1.5013
 9017SOL     OW38512   4.511   2.022   3.627 -0.2003  0.1233 -0.1317
 9017SOL    HW138513   4.456   2.032   3.705 -1.9747  0.2408 -1.3840
 9017SOL    HW238514   4.588   1.983   3.669 -0.6137 -1.4460 -0.8098
 9018SOL     OW38515   3.893   4.380   2.855 -0.3711  0.1102  0.0054
 9018SOL    HW138516   3.831   4.451   2.841  0.7715  1.5198  2.0882
 9018SOL    HW238517   3.902   4.341   2.768  3.1395  1.7058 -0.3639
 9019SOL     OW38518   4.325   4.024  17.448  0.2772  0.1852 -0.1799
 9019SOL    HW138519   4.338   4.061  17.535 -0.8186  0.6454 -0.2115
 9019SOL    HW238520   4.285   4.095  17.398 -1.6231 -0.2262  0.7577
 9020SOL     OW38521   4.001   0.386   8.890 -0.1404 -0.6421  0.2934
 9020SOL    HW138522   4.028   0.298   8.917  1.5530  0.3775  1.9420
 9020SOL    HW238523   4.063   0.450   8.926  0.2940 -0.9281  0.0556
 9021SOL     OW38524   4.495   0.793   2.672  0.7636 -0.4764  0.4053
 9021SOL    HW138525   4.522   0.742   2.748 -0.6770 -0.1691  1.1166
 9021SOL    HW238526   4.432   0.730   2.637  1.7783 -0.6981 -1.0221
 9022SOL     OW38527   2.507   3.592   3.680  0.9566  0.2758 -0.2835
 9022SOL    HW138528   2.482   3.528   3.614  0.1222  0.1903  0.1083
 9022SOL    HW238529   2.440   3.660   3.670  1.9492  1.3759  0.5175
 9023SOL     OW38530   3.698   3.214   5.599 -0.2190  0.4811  0.0541
 9023SOL    HW138531   3.702   3.308   5.615 -0.5675  0.3442  0.9096
 9023SOL    HW238532   3.765   3.181   5.659  0.6050  1.4093 -0.3508
 9024SOL     OW38533   3.184   3.337   1.561 -0.7878  0.1061 -0.1688
 9024SOL    HW138534   3.185   3.419   1.611 -0.6294  0.9851 -1.6014
 9024SOL    HW238535   3.155   3.280   1.631  0.3084 -0.6558 -0.3393
 9025SOL     OW38536   4.366   3.214   8.176  0.6689 -0.7069 -0.3533
 9025SOL    HW138537   4.276   3.244   8.189  0.4278 -2.6657  2.5308
 9025SOL    HW238538   4.354   3.172   8.091 -0.9056 -1.3263  0.1761
 9026SOL     OW38539   0.587   0.678   4.694  0.4647  0.1162  0.2163
 9026SOL    HW138540   0.576   0.683   4.789  1.8347 -0.4907  0.4182
 9026SOL    HW238541   0.511   0.621   4.680  1.3951 -1.5933  2.0324
 9027SOL     OW38542   2.255   4.548   4.154  0.1368 -0.1647  0.6786
 9027SOL    HW138543   2.297   4.467   4.126 -1.5738 -0.3695 -1.3273
 9027SOL    HW238544   2.187   4.570   4.089 -0.1495  0.0060  1.0332
 9028SOL     OW38545   0.588   2.590   7.100 -0.4224  0.1068  0.5914
 9028SOL    HW138546   0.508   2.562   7.056  0.6406 -1.1485 -0.5343
 9028SOL    HW238547   0.568   2.681   7.122  0.1683  0.8893 -2.1517
 9029SOL     OW38548   2.396   2.094   8.414  0.1451 -0.3093 -0.2818
 9029SOL    HW138549   2.456   2.096   8.489 -0.7668  0.8127  0.4188
 9029SOL    HW238550   2.315   2.064   8.455  1.0548 -0.0535  1.6965
 9030SOL     OW38551   2.257   3.953   5.376 -0.1461  0.5831  0.0792
 9030SOL    HW138552   2.287   3.952   5.285  0.7963  0.7092  0.3893
 9030SOL    HW238553   2.332   3.968   5.433 -0.1833 -0.1401  0.3109
 9031SOL     OW38554   2.292   0.114   2.984 -0.2679  0.1120  0.0659
 9031SOL    HW138555   2.254   0.152   2.906  1.7092  2.0959  0.0658
 9031SOL    HW238556   2.377   0.082   2.952 -1.4420 -0.1797 -2.6925
 9032SOL     OW38557   0.536   4.237   2.777  0.0328 -0.6512 -0.2118
 9032SOL    HW138558   0.561   4.145   2.789  0.4300 -0.5132 -0.0146
 9032SOL    HW238559   0.594   4.259   2.704 -1.9445  0.8870 -1.3245
 9033SOL     OW38560   4.400   4.212   1.831 -0.4442 -0.1029 -0.2305
 9033SOL    HW138561   4.403   4.300   1.795 -4.1831  0.9609  1.9818
 9033SOL    HW238562   4.468   4.173   1.776 -1.8562  0.8259 -2.6291
 9034SOL     OW38563   3.539   0.769   6.846  0.2379  0.1287  0.1030
 9034SOL    HW138564   3.566   0.678   6.857  1.1240  0.4539  0.5962
 9034SOL    HW238565   3.514   0.781   6.937 -0.4334  3.2881 -0.4843
 9035SOL     OW38566   3.214   4.718  17.533 -0.9653  0.2483  0.4387
 9035SOL    HW138567   3.257   0.012  17.449 -1.8461 -0.4664 -0.1796
 9035SOL    HW238568   3.274   0.044  17.588  0.0006  1.9806 -2.1599
 9036SOL     OW38569   4.257   0.749  13.696  0.1023  0.4948  0.1625
 9036SOL    HW138570   4.269   0.746  13.791 -0.2981 -0.6314  0.1818
 9036SOL    HW238571   4.310   0.827  13.683 -0.3103  1.0850  2.0390
 9037SOL     OW38572   4.496   1.685   6.585 -0.0119  0.7231  0.4511
 9037SOL    HW138573   4.548   1.743   6.530  0.3571 -0.1605 -0.1215
 9037SOL    HW238574   4.548   1.605   6.579 -2.0765 -0.4898 -1.3914
 9038SOL     OW38575   0.246   0.443   0.693 -0.2610  0.2765  0.1474
 9038SOL    HW138576   0.291   0.359   0.693  1.6615  1.3279  2.1738
 9038SOL    HW238577   0.219   0.450   0.601 -1.5451  0.4113  0.5311
 9039SOL     OW38578   4.606   4.491   5.015  0.0164  0.5070  0.5515
 9039SOL    HW138579   4.679   4.496   4.954 -1.3824 -1.3959 -1.2635
 9039SOL    HW238580   4.530   4.481   4.958  0.7985 -2.5673  0.0268
 9040SOL     OW38581   0.150   1.793   5.057 -0.2126 -0.0905  0.1188
 9040SOL    HW138582   0.202   1.719   5.088  0.2281  0.2386  0.1510
 9040SOL    HW238583   0.106   1.757   4.980  0.2641 -2.3009  0.8705
 9041SOL     OW38584   4.446   3.550   6.294 -0.0157  0.0223 -0.5539
 9041SOL    HW138585   4.485   3.468   6.322 -2.3271 -1.2563 -1.1274
 9041SOL    HW238586   4.485   3.615   6.353 -4.0394 -0.2523  2.4082
 9042SOL     OW38587   2.117   3.507   3.417 -0.4460 -0.2517  0.5107
 9042SOL    HW138588   2.115   3.603   3.411  2.3984 -0.3706 -2.0088
 9042SOL    HW238589   2.042   3.487   3.361 -1.4105  0.7676  1.4252
 9043SOL     OW38590   2.768   3.737  16.197  0.1294 -0.0281  0.5739
 9043SOL    HW138591   2.782   3.680  16.273  0.3085  1.1813  1.4330
 9043SOL    HW238592   2.801   3.675  16.132  1.9034  0.0401  1.4091
 9044SOL     OW38593   4.709   1.292   7.818 -0.1783  0.0717 -0.0477
 9044SOL    HW138594   4.666   1.257   7.740 -2.7600  1.3574  0.7957
 9044SOL    HW238595   0.077   1.288   7.793  0.4571  2.8594  1.8249
 9045SOL     OW38596   1.682   2.858   3.216  0.2168 -0.4370  0.0562
 9045SOL    HW138597   1.642   2.784   3.260  0.2676 -0.6801 -0.3051
 9045SOL    HW238598   1.607   2.912   3.190  1.4961  1.8598  1.1502
 9046SOL     OW38599   2.825   3.084   0.313  0.2711 -0.0642 -0.0995
 9046SOL    HW138600   2.779   3.098   0.230  1.0011 -1.4858 -0.7473
 9046SOL    HW238601   2.841   3.171   0.350  1.0651 -0.4811  0.5377
 9047SOL     OW38602   0.394   0.902  10.366  0.0894  0.3490 -1.1959
 9047SOL    HW138603   0.378   0.807  10.373 -1.5202  0.7631  0.8252
 9047SOL    HW238604   0.482   0.895  10.403 -1.1811 -2.8718  1.2395
 9048SOL     OW38605   0.883   2.367  14.194 -0.1721  0.3487  0.2594
 9048SOL    HW138606   0.972   2.390  14.168 -0.2176 -0.3783 -0.5589
 9048SOL    HW238607   0.879   2.285  14.143 -1.0524  0.5934 -0.0748
 9049SOL     OW38608   3.703   3.164   8.938  0.3784 -0.4410 -0.2312
 9049SOL    HW138609   3.722   3.169   8.844  0.2363 -0.6535 -0.2724
 9049SOL    HW238610   3.707   3.072   8.964 -1.1479 -0.6122 -0.5972
 9050SOL     OW38611   2.550   4.263   4.593  0.0695 -0.7066 -0.2391
 9050SOL    HW138612   2.463   4.301   4.603  0.1952 -0.8084  1.3207
 9050SOL    HW238613   2.523   4.181   4.551 -3.2523 -0.4256  1.3000
 9051SOL     OW38614   3.685   2.995   5.314 -0.1734  0.1400  0.0160
 9051SOL    HW138615   3.650   3.073   5.357  1.5009  0.2586  1.1757
 9051SOL    HW238616   3.680   2.927   5.381  1.3901 -0.0584 -0.0690
 9052SOL     OW38617   3.818   4.300   1.550 -1.1175 -0.1659  0.6298
 9052SOL    HW138618   3.770   4.309   1.632  3.2624 -2.6073  3.5236
 9052SOL    HW238619   3.861   4.386   1.550 -0.9434 -0.2463 -3.0981
 9053SOL     OW38620   2.373   1.051   0.602  0.0057 -0.8425  0.3430
 9053SOL    HW138621   2.350   1.108   0.528 -0.1703  0.5305  1.4615
 9053SOL    HW238622   2.448   1.004   0.567  1.8396  0.5888  2.3675
 9054SOL     OW38623   1.488   0.608  14.514  0.1132  0.3981  0.1419
 9054SOL    HW138624   1.454   0.526  14.478  1.0422 -0.3334  0.9198
 9054SOL    HW238625   1.583   0.601  14.512  0.1492  0.8437  0.2639
 9055SOL     OW38626   2.230   3.946   4.951 -0.3837  0.1201  0.2389
 9055SOL    HW138627   2.290   3.909   5.015 -0.4420 -0.2714  0.0675
 9055SOL    HW238628   2.186   4.005   5.012 -0.8072  2.0505 -1.9196
 9056SOL     OW38629   0.042   0.418   7.671  0.5741  0.2604  0.2411
 9056SOL    HW138630   0.044   0.324   7.653  1.0721  0.1038  1.1226
 9056SOL    HW238631   0.025   0.458   7.586 -0.1630  0.5185  0.5070
 9057SOL     OW38632   1.761   3.902  16.285  0.5783  0.2892 -0.1921
 9057SOL    HW138633   1.780   3.935  16.372 -1.5092  2.1759 -0.4579
 9057SOL    HW238634   1.832   3.840  16.267  0.7267 -0.5808  3.4083
 9058SOL     OW38635   1.455   0.307  11.033 -0.6004  0.5284  0.0343
 9058SOL    HW138636   1.449   0.396  10.998 -1.7336 -0.8601 -3.2830
 9058SOL    HW238637   1.360   0.300  11.042 -0.6584  2.0285  0.5004
 9059SOL     OW38638   1.250   4.543   3.334 -0.3485  0.0051 -0.5066
 9059SOL    HW138639   1.230   4.554   3.427  1.3115  0.4013 -0.1918
 9059SOL    HW238640   1.179   4.599   3.303  0.1968 -0.3444 -2.3564
 9060SOL     OW38641   3.138   3.785   3.093 -0.8720 -0.4119 -0.4568
 9060SOL    HW138642   3.166   3.826   3.175  1.0903 -1.6666 -0.5106
 9060SOL    HW238643   3.186   3.702   3.094  0.2818  0.2973  1.6008
 9061SOL     OW38644   2.693   1.739   3.411 -0.1037 -0.4922  0.5599
 9061SOL    HW138645   2.618   1.743   3.471 -2.1393  0.7224 -2.0614
 9061SOL    HW238646   2.651   1.750   3.326  1.9464 -1.0653 -0.5353
 9062SOL     OW38647   0.216   1.747   5.613 -0.2935  0.2886  0.2498
 9062SOL    HW138648   0.197   1.809   5.543 -0.0272 -1.3175 -1.2215
 9062SOL    HW238649   0.310   1.762   5.626  0.4854 -2.5340 -2.2239
 9063SOL     OW38650   0.107   3.013   7.513  0.3523  0.3162 -0.6847
 9063SOL    HW138651   0.188   3.014   7.564  0.2532 -1.3770 -0.5150
 9063SOL    HW238652   0.068   2.938   7.556  2.4336 -0.5037 -0.2137
 9064SOL     OW38653   0.450   0.472  16.708 -1.1244 -0.2963  0.4489
 9064SOL    HW138654   0.452   0.489  16.802  1.6360  0.9770  0.1526
 9064SOL    HW238655   0.441   0.553  16.658  0.0391 -0.1221  0.5262
 9065SOL     OW38656   2.584   1.556   2.687  0.0277  0.1834  0.0142
 9065SOL    HW138657   2.562   1.642   2.652  2.0879 -0.5321 -2.9905
 9065SOL    HW238658   2.583   1.499   2.611 -0.5703  0.5663 -0.2668
 9066SOL     OW38659   3.872   0.054  12.199  0.1303  0.5616 -0.0203
 9066SOL    HW138660   3.831   0.135  12.228 -0.5913 -1.0017  3.2452
 9066SOL    HW238661   3.831   0.046  12.113  1.7842 -1.4798 -0.6217
 9067SOL     OW38662   3.691   0.642  11.767 -0.0674 -0.0150 -0.8935
 9067SOL    HW138663   3.701   0.566  11.825 -0.7068 -0.8990 -1.9305
 9067SOL    HW238664   3.607   0.629  11.723 -0.9448  0.8487  0.5358
 9068SOL     OW38665   2.618   1.674  11.929 -0.4269  0.1573 -0.5923
 9068SOL    HW138666   2.713   1.662  11.935 -0.4349  0.0019 -0.7878
 9068SOL    HW238667   2.606   1.766  11.954 -0.1567  0.4187 -1.4421
 9069SOL     OW38668   4.477   3.735   1.774  0.0309 -0.0113  0.3878
 9069SOL    HW138669   4.550   3.727   1.712 -0.4241 -0.0139 -0.1438
 9069SOL    HW238670   4.452   3.645   1.756  1.3971 -0.2146 -0.4925
 9070SOL     OW38671   0.277   2.632   7.992 -0.6983 -0.7401 -0.4510
 9070SOL    HW138672   0.320   2.581   7.923 -1.5286  0.8719 -2.1601
 9070SOL    HW238673   0.194   2.655   7.952  0.7684 -0.1100 -3.1195
 9071SOL     OW38674   1.596   0.339  12.757 -0.5607 -0.0113 -0.4606
 9071SOL    HW138675   1.588   0.385  12.674 -2.4278 -0.9231 -0.7946
 9071SOL    HW238676   1.577   0.413  12.814 -0.4636 -1.0575  0.9465
 9072SOL     OW38677   0.243   4.213   4.108 -0.2270  0.1983  0.2151
 9072SOL    HW138678   0.219   4.122   4.091  3.0153 -0.4175 -1.1774
 9072SOL    HW238679   0.321   4.205   4.163 -0.6858 -1.7622  0.5588
 9073SOL     OW38680   3.226   1.095   2.195 -0.1975 -0.0433  0.7143
 9073SOL    HW138681   3.208   1.112   2.102 -0.7704 -2.2243  0.4124
 9073SOL    HW238682   3.301   1.036   2.181 -2.1737 -2.1347 -1.1425
 9074SOL     OW38683   3.441   3.387   9.266 -0.3467 -0.0400  0.7173
 9074SOL    HW138684   3.471   3.458   9.209  0.0419 -0.0459  0.9166
 9074SOL    HW238685   3.506   3.405   9.335 -1.1151 -0.0761  1.4452
 9075SOL     OW38686   4.113   0.998   6.209 -0.3572  0.5478 -0.8303
 9075SOL    HW138687   4.064   0.954   6.279 -0.4438  0.8368 -0.7068
 9075SOL    HW238688   4.192   1.023   6.256  0.4068 -3.3755 -0.0208
 9076SOL     OW38689   3.874   0.444   3.046 -0.1111 -0.1617 -0.4061
 9076SOL    HW138690   3.833   0.425   2.962 -2.4232  1.3424  0.3739
 9076SOL    HW238691   3.848   0.535   3.063  1.5707  0.0695  0.8706
 9077SOL     OW38692   2.929   3.039  14.984  0.4493 -0.2363 -0.0043
 9077SOL    HW138693   2.978   3.071  14.908 -0.5425 -0.0136 -0.5513
 9077SOL    HW238694   2.996   2.993  15.034 -0.3376 -1.6843 -0.2569
 9078SOL     OW38695   4.373   2.395   9.362  0.1784  0.3128  0.3088
 9078SOL    HW138696   4.401   2.365   9.448 -1.7560  0.4252  0.9795
 9078SOL    HW238697   4.299   2.337   9.342 -0.6240  0.7514  2.0771
 9079SOL     OW38698   3.198   2.021   5.939  0.2644 -0.1711  0.6823
 9079SOL    HW138699   3.258   1.959   5.981  1.1553  0.2992  0.1062
 9079SOL    HW238700   3.243   2.103   5.960  1.2092 -0.1946 -1.2223
 9080SOL     OW38701   0.480   1.183   3.476  0.4495 -0.1845 -0.5728
 9080SOL    HW138702   0.398   1.230   3.484  0.6779  0.0611  0.3414
 9080SOL    HW238703   0.549   1.233   3.521 -1.5249  1.8996  0.1392
 9081SOL     OW38704   2.735   2.498   1.769  0.2255  1.0248  1.0606
 9081SOL    HW138705   2.746   2.523   1.677 -0.6526  1.3347  1.0392
 9081SOL    HW238706   2.823   2.464   1.784 -0.7472 -2.4409 -1.0371
 9082SOL     OW38707   1.904   2.481   3.905  0.6266 -0.0645  0.4365
 9082SOL    HW138708   1.865   2.455   3.989  1.8772  0.2069  1.0973
 9082SOL    HW238709   1.828   2.467   3.848  1.0885  0.5642 -0.3395
 9083SOL     OW38710   4.432   3.979   5.601 -0.3075 -0.0449 -0.4929
 9083SOL    HW138711   4.344   3.944   5.587  0.4138 -2.2508  0.6500
 9083SOL    HW238712   4.464   3.982   5.511  3.7500 -2.2274  0.9058
 9084SOL     OW38713   4.611   3.128   2.654  0.0392 -0.3756  0.0208
 9084SOL    HW138714   4.703   3.105   2.641 -0.1043 -1.4694  0.8658
 9084SOL    HW238715   4.620   3.222   2.668 -0.3430 -0.7343  2.6665
 9085SOL     OW38716   1.285   3.390   4.686 -0.0037 -0.1025  0.2019
 9085SOL    HW138717   1.337   3.314   4.658  1.6714  1.5249 -1.0927
 9085SOL    HW238718   1.204   3.361   4.727  0.5712 -0.8105  0.8265
 9086SOL     OW38719   2.670   0.036   1.305 -0.0672 -0.1582 -0.5309
 9086SOL    HW138720   2.662   0.036   1.400 -2.2134 -1.2471 -0.7151
 9086SOL    HW238721   2.587   4.724   1.274  0.1915 -1.2529  0.0549
 9087SOL     OW38722   0.237   3.963   6.955 -0.0238  0.2054 -0.3458
 9087SOL    HW138723   0.258   3.928   6.868  0.0058  0.1231 -0.3054
 9087SOL    HW238724   0.181   3.890   6.982 -1.0507  0.6012 -1.3744
 9088SOL     OW38725   0.075   0.780   7.579 -0.2332 -0.0202 -0.3111
 9088SOL    HW138726   0.111   0.735   7.655 -0.9451  0.4320  0.2892
 9088SOL    HW238727   0.127   0.859   7.568 -0.6151  0.4281  1.1325
 9089SOL     OW38728   0.038   4.144  12.518 -0.2408  0.3874  0.2525
 9089SOL    HW138729   0.072   4.098  12.441 -1.6129 -1.6138  0.8405
 9089SOL    HW238730   4.722   4.071  12.566  1.8985 -0.2525  1.1257
 9090SOL     OW38731   0.649   0.367   5.232  0.0229  0.4613  0.2110
 9090SOL    HW138732   0.690   0.304   5.291  0.5260 -0.3271 -0.9795
 9090SOL    HW238733   0.678   0.447   5.277 -2.2124  0.3984  1.7745
 9091SOL     OW38734   1.160   1.780   7.289 -0.4158  0.0726 -0.3865
 9091SOL    HW138735   1.247   1.791   7.251 -0.0179 -3.0749 -0.3879
 9091SOL    HW238736   1.191   1.715   7.352 -3.0083 -0.2653  0.5421
 9092SOL     OW38737   1.689   1.095   4.565  0.2339  0.1721 -0.0328
 9092SOL    HW138738   1.677   1.187   4.587 -0.9014 -0.3988  1.6849
 9092SOL    HW238739   1.603   1.066   4.534  0.2982 -0.2708  0.2033
 9093SOL     OW38740   1.958   0.536  17.003  0.1522 -0.1834  0.1481
 9093SOL    HW138741   2.035   0.507  17.052 -0.4705  1.4159  2.0894
 9093SOL    HW238742   1.970   0.631  16.997 -0.1665 -0.3130 -2.3294
 9094SOL     OW38743   4.231   1.828   8.949 -0.1145  0.1361 -0.7566
 9094SOL    HW138744   4.169   1.761   8.919  0.1937  0.7929 -2.9029
 9094SOL    HW238745   4.180   1.886   9.006 -0.7391  0.0146 -1.1848
 9095SOL     OW38746   1.639   2.401  16.219 -0.2887 -0.6262 -0.4097
 9095SOL    HW138747   1.713   2.404  16.158  1.1741 -0.3840  1.3862
 9095SOL    HW238748   1.590   2.467  16.171  2.0426  0.2280 -1.5970
 9096SOL     OW38749   0.380   4.238   1.409 -0.4323  0.1990 -0.0680
 9096SOL    HW138750   0.331   4.160   1.438  0.9886 -0.8403 -0.4421
 9096SOL    HW238751   0.344   4.241   1.320 -1.5246 -0.0429  0.3593
 9097SOL     OW38752   3.280   1.482   3.327 -0.7972 -0.5125 -0.2620
 9097SOL    HW138753   3.354   1.517   3.277 -0.0204 -1.0389  0.5446
 9097SOL    HW238754   3.209   1.546   3.318 -0.4421 -0.1330 -0.3432
 9098SOL     OW38755   0.053   2.390   7.511  0.5794 -0.8113 -0.3987
 9098SOL    HW138756   0.096   2.475   7.502  1.3716 -1.1066  0.5612
 9098SOL    HW238757   0.091   2.364   7.595  0.5039 -3.8907 -1.3408
 9099SOL     OW38758   0.095   3.866   0.615 -0.3756  0.2679 -0.1508
 9099SOL    HW138759   0.080   3.945   0.668 -0.3498  1.4325 -1.8678
 9099SOL    HW238760   0.092   3.797   0.680  1.7121  0.6856  0.3922
 9100SOL     OW38761   1.050   0.975   6.837  0.0082 -0.0242  0.5426
 9100SOL    HW138762   0.981   0.912   6.813 -0.6526  0.8269  0.1955
 9100SOL    HW238763   1.013   1.063   6.835 -2.0748 -0.9009 -0.0541
 9101SOL     OW38764   0.105   0.102   1.151  0.0287 -0.1159 -0.2030
 9101SOL    HW138765   0.017   0.104   1.114 -0.1428 -0.5233  0.1819
 9101SOL    HW238766   0.107   0.189   1.191  0.5827 -0.0012 -0.4799
 9102SOL     OW38767   2.964   3.161   7.862  0.4783 -0.0379 -0.0678
 9102SOL    HW138768   2.901   3.180   7.932  0.6558  4.0541 -1.0238
 9102SOL    HW238769   2.923   3.212   7.791 -0.7833  0.8513  1.3023
 9103SOL     OW38770   0.944   1.590   7.125 -0.8763 -0.0415  0.7492
 9103SOL    HW138771   0.959   1.629   7.211  2.6172  3.5422 -1.4344
 9103SOL    HW238772   0.849   1.591   7.116 -0.9374  2.2781  1.5077
 9104SOL     OW38773   3.997   1.139   6.539  0.1818 -0.3323  0.2918
 9104SOL    HW138774   3.916   1.176   6.575  0.3308 -1.9286  2.2887
 9104SOL    HW238775   3.953   1.068   6.492 -2.2051  1.9622 -1.0004
 9105SOL     OW38776   0.349   0.943  17.315 -0.1516 -0.7493  0.5089
 9105SOL    HW138777   0.415   0.972  17.379 -0.4792 -0.3751  0.6752
 9105SOL    HW238778   0.407   0.908  17.246  0.0860  0.0095  0.3214
 9106SOL     OW38779   1.783   4.400   4.871  0.1662 -0.3774  0.1398
 9106SOL    HW138780   1.693   4.418   4.899  1.1284  1.8274  1.9030
 9106SOL    HW238781   1.782   4.305   4.865  1.3322 -0.3196 -0.8926
 9107SOL     OW38782   2.889   2.000   2.951  0.0439 -0.1253 -0.5273
 9107SOL    HW138783   2.914   2.006   2.859 -4.9002 -0.3436 -1.8851
 9107SOL    HW238784   2.917   2.085   2.985 -2.0661  0.4365 -0.2109
 9108SOL     OW38785   2.126   1.879  12.050  0.4471  0.4648 -0.3949
 9108SOL    HW138786   2.150   1.792  12.083  0.0764 -0.0266 -1.3852
 9108SOL    HW238787   2.181   1.895  11.973  0.7347  0.1105 -0.2652
 9109SOL     OW38788   1.625   4.047   1.172  0.0862  0.5296  0.9904
 9109SOL    HW138789   1.555   4.111   1.165 -0.4772 -0.2045 -0.1184
 9109SOL    HW238790   1.599   3.983   1.106  0.0963  0.1362  1.3653
 9110SOL     OW38791   0.839   2.663   7.847 -0.2197 -0.8202 -0.0151
 9110SOL    HW138792   0.927   2.680   7.811 -0.1687 -1.1525 -0.0495
 9110SOL    HW238793   0.849   2.575   7.883 -2.2743 -0.7764  0.6148
 9111SOL     OW38794   1.261   1.796   3.084 -0.0352 -0.1526 -0.2389
 9111SOL    HW138795   1.285   1.738   3.156 -0.8599  0.4004  0.4862
 9111SOL    HW238796   1.179   1.752   3.062 -0.0181 -0.0388 -0.5309
 9112SOL     OW38797   0.720   3.528  11.620 -0.4142 -0.1342  0.1829
 9112SOL    HW138798   0.649   3.524  11.556 -0.1177  0.2615 -0.1740
 9112SOL    HW238799   0.707   3.444  11.664 -3.2077  0.3324  0.2576
 9113SOL     OW38800   1.899   0.320  11.271 -0.4050 -0.1170  0.2543
 9113SOL    HW138801   1.850   0.255  11.221 -0.3918 -0.7435  1.0624
 9113SOL    HW238802   1.826   0.354  11.323 -1.1251 -0.6354 -0.4321
 9114SOL     OW38803   0.166   2.815   1.236 -0.2649  0.6410 -0.2200
 9114SOL    HW138804   0.180   2.909   1.234  0.8705  0.4175 -2.8787
 9114SOL    HW238805   0.252   2.786   1.206 -0.3914  0.1403 -0.0982
 9115SOL     OW38806   4.536   1.198   2.249  0.5288 -0.2928  0.1919
 9115SOL    HW138807   4.473   1.190   2.320 -0.1460  0.7655 -0.2758
 9115SOL    HW238808   4.615   1.220   2.297  0.2257  1.0108  0.0971
 9116SOL     OW38809   3.429   0.758   5.651  0.0802  0.4972 -0.0958
 9116SOL    HW138810   3.373   0.724   5.721  1.5408 -0.8364  0.4273
 9116SOL    HW238811   3.364   0.815   5.611 -0.5853 -1.1423 -1.3274
 9117SOL     OW38812   2.588   2.896   8.652 -0.0465 -0.4355  0.2451
 9117SOL    HW138813   2.499   2.927   8.638 -0.0617 -0.6954 -0.2091
 9117SOL    HW238814   2.624   2.921   8.567 -2.8609  2.0477 -0.2274
 9118SOL     OW38815   1.522   0.502   1.788 -0.3252 -0.2593 -0.0124
 9118SOL    HW138816   1.590   0.566   1.806 -1.9353  1.5717 -0.4605
 9118SOL    HW238817   1.448   0.554   1.819 -0.1024 -1.4244  2.4881
 9119SOL     OW38818   4.493   2.684   3.993 -0.2133 -0.2043  0.1181
 9119SOL    HW138819   4.561   2.680   3.926 -1.2030 -0.0800 -0.9109
 9119SOL    HW238820   4.415   2.668   3.939  1.9202  0.0567 -3.0680
 9120SOL     OW38821   4.437   2.894   2.243  0.2403 -0.3259 -0.3240
 9120SOL    HW138822   4.477   2.940   2.317 -2.6013  2.8431 -0.7456
 9120SOL    HW238823   4.423   2.974   2.191  0.2857 -1.0353 -1.4199
 9121SOL     OW38824   0.071   1.950   9.315 -0.1840  0.1525 -0.4488
 9121SOL    HW138825   0.137   1.944   9.384  0.9825  0.6271 -1.5278
 9121SOL    HW238826   0.102   1.892   9.245 -0.2149  1.8632 -1.8937
 9122SOL     OW38827   4.080   2.641   4.460 -0.1157  0.0187  0.3155
 9122SOL    HW138828   3.991   2.661   4.491  0.0827 -0.1272  0.9777
 9122SOL    HW238829   4.059   2.550   4.438  0.2575 -0.0742  0.3501
 9123SOL     OW38830   2.288   3.730   5.637 -0.4816  0.1114  0.2566
 9123SOL    HW138831   2.306   3.655   5.580 -0.2974 -0.6852  1.3594
 9123SOL    HW238832   2.210   3.698   5.682 -2.0769  1.2059 -1.7151
 9124SOL     OW38833   4.523   4.523  14.745 -0.4030  0.2781  0.4593
 9124SOL    HW138834   4.573   4.588  14.695 -2.3311  0.2081 -1.6039
 9124SOL    HW238835   4.537   4.543  14.837 -0.6693  1.0224  0.3411
 9125SOL     OW38836   2.040   4.345   8.000  0.1731 -0.0425 -0.0451
 9125SOL    HW138837   1.954   4.322   8.036  0.3202  0.5757  0.7088
 9125SOL    HW238838   2.082   4.394   8.071 -3.0211  0.0371  1.7936
 9126SOL     OW38839   0.024   3.756   0.892 -0.4356  0.3337  0.0812
 9126SOL    HW138840   0.088   3.687   0.876  0.5788  1.3308 -0.1850
 9126SOL    HW238841   0.063   3.842   0.909  0.3824  0.3783 -1.9944
 9127SOL     OW38842   4.414   3.475  13.098  1.0336 -0.2827 -0.6228
 9127SOL    HW138843   4.377   3.499  13.184 -1.2739 -0.6282 -1.5114
 9127SOL    HW238844   4.454   3.561  13.084 -0.8322  0.3811 -2.0353
 9128SOL     OW38845   3.041   2.616   4.740  0.0377 -0.0915 -0.2108
 9128SOL    HW138846   3.074   2.528   4.723 -1.4230 -0.5632 -0.6791
 9128SOL    HW238847   3.118   2.670   4.724  1.7110 -1.2773  4.0817
 9129SOL     OW38848   2.668   2.211   7.299 -0.7329 -0.1989 -0.0484
 9129SOL    HW138849   2.677   2.131   7.247 -1.6420 -1.0072  1.0167
 9129SOL    HW238850   2.677   2.283   7.237 -2.0463 -0.1388 -0.1885
 9130SOL     OW38851   2.683   0.169  16.014 -0.1647  0.2182 -0.5367
 9130SOL    HW138852   2.615   0.229  15.984  1.2061  2.2375  0.4100
 9130SOL    HW238853   2.755   0.218  15.975  0.6560 -0.7098 -0.1635
 9131SOL     OW38854   3.623   2.574   2.911 -0.1130 -0.0900 -0.1667
 9131SOL    HW138855   3.706   2.556   2.955 -1.3862 -1.0751  1.8568
 9131SOL    HW238856   3.589   2.492   2.875 -0.3222 -0.9986  2.0821
 9132SOL     OW38857   2.633   1.751  10.851  0.0772  0.1874  0.0068
 9132SOL    HW138858   2.709   1.777  10.903  0.5960 -0.8455 -0.2295
 9132SOL    HW238859   2.595   1.833  10.819 -0.6816 -1.1927 -2.6987
 9133SOL     OW38860   1.930   0.960   7.418 -0.0339  0.4701  0.3685
 9133SOL    HW138861   1.877   0.881   7.428  1.3267 -0.5650 -0.6796
 9133SOL    HW238862   1.899   1.008   7.496  0.8710 -1.2457  1.7807
 9134SOL     OW38863   3.327   2.293   7.297  0.3743  0.3249 -0.0630
 9134SOL    HW138864   3.379   2.368   7.266 -0.3300  0.8119 -0.0731
 9134SOL    HW238865   3.260   2.346   7.341 -0.7049 -0.0884 -1.1929
 9135SOL     OW38866   2.447   0.132  15.638 -0.2845  0.4242 -0.3613
 9135SOL    HW138867   2.394   0.080  15.697  1.6144 -0.3876  0.6204
 9135SOL    HW238868   2.475   0.203  15.696 -1.3952  1.0792 -0.6284
 9136SOL     OW38869   1.451   2.106   1.260  0.2224 -0.2130  0.3070
 9136SOL    HW138870   1.438   2.088   1.353 -3.6014  0.9376 -0.0064
 9136SOL    HW238871   1.547   2.111   1.257  0.2688 -0.4205  1.4038
 9137SOL     OW38872   2.777   2.828   3.353 -0.0151 -0.8241  0.2162
 9137SOL    HW138873   2.838   2.896   3.322 -0.5950 -0.1178  0.6415
 9137SOL    HW238874   2.824   2.753   3.316  1.6365 -0.0191  0.6799
 9138SOL     OW38875   2.519   0.200   1.568  0.0513 -0.3778  0.2936
 9138SOL    HW138876   2.481   0.207   1.481 -2.0995  0.6016  1.3023
 9138SOL    HW238877   2.476   0.277   1.605 -0.2216 -0.7046  0.6526
 9139SOL     OW38878   1.912   0.107   3.593  0.1328  0.5340 -0.0880
 9139SOL    HW138879   1.890   0.024   3.636  2.2898 -1.4640 -2.8702
 9139SOL    HW238880   1.845   0.171   3.615  0.2418  0.5002  0.3355
 9140SOL     OW38881   0.111   4.272   5.656  0.2706  0.6109 -0.5701
 9140SOL    HW138882   0.178   4.273   5.725 -0.3337 -1.0396  0.0408
 9140SOL    HW238883   0.046   4.211   5.691  1.1136  0.0896  0.0934
 9141SOL     OW38884   3.902   4.572  12.992 -0.0884 -0.2936  0.3186
 9141SOL    HW138885   3.989   4.535  12.982 -0.6797 -1.9709  1.3328
 9141SOL    HW238886   3.881   4.544  13.081 -0.0196 -2.1161 -0.2500
 9142SOL     OW38887   2.836   0.605   6.204  0.4375  0.4243  0.4607
 9142SOL    HW138888   2.763   0.633   6.260 -1.1348 -0.1981 -1.2808
 9142SOL    HW238889   2.850   0.521   6.248  1.4305  0.1105 -0.4604
 9143SOL     OW38890   1.548   0.553  10.527 -0.1785 -0.4059 -0.4823
 9143SOL    HW138891   1.526   0.637  10.570  1.2569 -1.8712  3.1286
 9143SOL    HW238892   1.505   0.571  10.444 -1.0005  0.5650  0.1362
 9144SOL     OW38893   2.713   2.727  10.893 -1.1886  0.2517 -0.4154
 9144SOL    HW138894   2.766   2.647  10.883  0.1334  0.9098  1.3243
 9144SOL    HW238895   2.765   2.789  10.844 -1.9535  2.0042  0.9932
 9145SOL     OW38896   0.157   4.074   7.303 -0.4074 -0.2837 -0.5207
 9145SOL    HW138897   0.240   4.112   7.333 -0.5748 -1.5075  1.4851
 9145SOL    HW238898   0.094   4.101   7.369 -1.9491 -0.6334 -1.8320
 9146SOL     OW38899   3.719   4.039   4.796 -0.3460  0.4899  0.1999
 9146SOL    HW138900   3.745   4.028   4.704 -0.9131  0.5107  0.0322
 9146SOL    HW238901   3.624   4.048   4.789 -0.3606 -2.1504 -2.8471
 9147SOL     OW38902   0.951   2.815  10.327 -0.2779 -0.0562  0.3421
 9147SOL    HW138903   0.909   2.891  10.287  1.0429  0.0499 -0.8383
 9147SOL    HW238904   0.992   2.786  10.246 -0.0924  1.5895 -0.1451
 9148SOL     OW38905   3.262   1.828  15.436 -0.0818  1.0335 -0.3930
 9148SOL    HW138906   3.255   1.840  15.341  1.3551  2.7948 -0.2850
 9148SOL    HW238907   3.299   1.916  15.442  1.9868  0.1870 -0.5772
 9149SOL     OW38908   2.087   3.065   7.906  0.4293 -0.8761  0.2264
 9149SOL    HW138909   2.132   3.109   7.834 -0.2707 -1.3517 -0.4976
 9149SOL    HW238910   2.119   3.124   7.974 -1.9693 -0.1047  0.6789
 9150SOL     OW38911   4.479   4.070   3.805 -0.1051  0.0241 -0.0522
 9150SOL    HW138912   4.468   4.163   3.828  0.3443  0.1508 -0.3557
 9150SOL    HW238913   4.558   4.046   3.852 -1.1083 -1.1066  1.0719
 9151SOL     OW38914   3.726   3.319   6.142 -1.1044  0.2671 -0.1198
 9151SOL    HW138915   3.787   3.319   6.068  0.5922  1.6093  1.2900
 9151SOL    HW238916   3.768   3.250   6.194  0.6789  3.4050  2.5930
 9152SOL     OW38917   2.984   2.257   4.186 -0.1427 -0.2979  0.5951
 9152SOL    HW138918   3.044   2.206   4.132  0.1971  1.7913 -0.9654
 9152SOL    HW238919   2.962   2.193   4.254 -0.8174  1.0932  1.6609
 9153SOL     OW38920   4.301   1.825   8.106  0.2976  0.3773  0.1068
 9153SOL    HW138921   4.206   1.831   8.113  0.3459  1.5512 -0.1470
 9153SOL    HW238922   4.329   1.741   8.143 -0.7238  0.2186  0.5021
 9154SOL     OW38923   3.758   2.163  11.937  0.3763 -1.1383  0.8287
 9154SOL    HW138924   3.742   2.254  11.962  1.7884 -0.7986  0.4946
 9154SOL    HW238925   3.838   2.154  11.885  0.0628 -2.3563  0.5443
 9155SOL     OW38926   2.297   1.037  10.433 -0.1649 -0.4792  0.0452
 9155SOL    HW138927   2.228   1.080  10.383 -0.6343 -0.2477  0.8979
 9155SOL    HW238928   2.283   1.074  10.520  0.8213  0.2389 -0.1093
 9156SOL     OW38929   4.557   2.945   9.231 -0.2855  0.1001  0.1494
 9156SOL    HW138930   4.529   3.025   9.276 -1.0227  0.2898 -0.6499
 9156SOL    HW238931   4.530   2.868   9.280 -0.3281 -0.5113 -0.8462
 9157SOL     OW38932   2.832   0.641   5.905  0.4980  0.4727 -0.4457
 9157SOL    HW138933   2.742   0.611   5.919  0.2955  1.9655  1.4205
 9157SOL    HW238934   2.862   0.617   5.993  0.3605  1.0136 -0.2534
 9158SOL     OW38935   0.731   2.584   3.330 -0.3054 -0.3364 -0.3161
 9158SOL    HW138936   0.643   2.621   3.328  0.1339  0.7784  0.8565
 9158SOL    HW238937   0.730   2.539   3.415  0.3406 -2.0691 -1.2390
 9159SOL     OW38938   2.672   4.340  15.049  0.4712 -0.3680  1.1082
 9159SOL    HW138939   2.740   4.390  15.093  2.3650  0.6987 -3.0619
 9159SOL    HW238940   2.705   4.350  14.960 -1.8527 -0.4305  0.2371
 9160SOL     OW38941   0.433   2.257  10.134  0.2283 -0.1926  0.0843
 9160SOL    HW138942   0.476   2.266  10.219 -1.0400 -1.6697  0.8882
 9160SOL    HW238943   0.411   2.345  10.106  1.1077  0.1622  0.5175
 9161SOL     OW38944   1.160   4.707  17.514  0.7204 -0.4238  0.6050
 9161SOL    HW138945   1.138   0.067  17.553 -0.5886 -0.3515 -0.2736
 9161SOL    HW238946   1.090   4.711  17.447  1.1832 -1.0235  0.0856
 9162SOL     OW38947   3.809   4.680   6.726  0.3846 -0.2277 -0.1488
 9162SOL    HW138948   3.863   4.671   6.805  0.0635  0.9005  0.1992
 9162SOL    HW238949   3.838   0.043   6.701  1.8504 -0.2053  1.6287
 9163SOL     OW38950   3.427   2.640   2.705 -0.1604 -0.1260  0.4068
 9163SOL    HW138951   3.506   2.670   2.749  0.1094  1.7451 -1.3231
 9163SOL    HW238952   3.379   2.723   2.694 -2.4384 -1.5983 -0.8021
 9164SOL     OW38953   0.909   1.950  15.750 -0.0819 -0.3873 -0.2280
 9164SOL    HW138954   0.854   1.872  15.756 -2.0805  1.2650  2.3662
 9164SOL    HW238955   0.893   1.989  15.835  1.6727  1.5671 -0.7717
 9165SOL     OW38956   4.158   1.515   1.985 -0.0544 -0.4129 -0.1885
 9165SOL    HW138957   4.129   1.599   1.949 -0.0126 -0.3500 -0.0729
 9165SOL    HW238958   4.145   1.468   1.902 -1.5701 -0.1845 -0.0940
 9166SOL     OW38959   4.353   4.024  12.916  0.0568  0.1663  0.3475
 9166SOL    HW138960   4.303   3.946  12.892  1.3153 -0.2301 -0.9913
 9166SOL    HW238961   4.401   4.009  12.997 -2.8861  0.2890  2.1389
 9167SOL     OW38962   2.037   0.292   6.558 -0.3763  0.4625  0.0683
 9167SOL    HW138963   2.110   0.330   6.509 -0.0184  0.2227  0.4123
 9167SOL    HW238964   2.067   0.203   6.576  0.9694  0.2718 -3.2002
 9168SOL     OW38965   0.735   2.621   8.247 -0.4409  0.0591 -0.2890
 9168SOL    HW138966   0.790   2.543   8.245 -0.9596 -0.3381  1.4949
 9168SOL    HW238967   0.651   2.582   8.222  0.2278 -0.9096 -1.0068
 9169SOL     OW38968   3.161   1.550   2.723  0.0440 -0.4255  0.4561
 9169SOL    HW138969   3.118   1.471   2.756  1.5014 -1.7005 -0.7534
 9169SOL    HW238970   3.079   1.584   2.688 -1.1783 -3.1666  0.6579
 9170SOL     OW38971   2.029   0.003   5.081  0.3229  0.4903  0.3064
 9170SOL    HW138972   2.025   4.696   4.990 -2.2356 -0.2122  0.6583
 9170SOL    HW238973   2.115   4.693   5.105 -0.5288 -1.7046  0.2254
 9171SOL     OW38974   2.631   2.154   6.294  0.4779 -0.1712  0.4339
 9171SOL    HW138975   2.641   2.237   6.248 -1.0530 -0.4796 -0.4527
 9171SOL    HW238976   2.565   2.113   6.237 -1.1439  0.8512  1.5672
 9172SOL     OW38977   0.053   0.826   6.824  0.5591  0.4529  0.0171
 9172SOL    HW138978   4.683   0.829   6.807  0.0629 -0.0983  2.6012
 9172SOL    HW238979   0.092   0.835   6.738 -1.7660 -0.9293 -1.2051
 9173SOL     OW38980   1.273   4.691   7.371 -0.3107 -0.1389 -0.0793
 9173SOL    HW138981   1.204   4.666   7.311  0.3780  0.4619 -1.1115
 9173SOL    HW238982   1.220   0.011   7.437  0.6069  3.3138 -1.6761
 9174SOL     OW38983   0.564   3.841  17.163  0.7995  0.3440  0.5737
 9174SOL    HW138984   0.486   3.787  17.174  1.1529 -0.0644  1.0791
 9174SOL    HW238985   0.626   3.772  17.140  1.6494  1.4860 -0.5847
 9175SOL     OW38986   3.456   0.986   3.735  0.1891 -0.1517  0.0750
 9175SOL    HW138987   3.512   1.022   3.666 -0.8195 -0.1490 -0.7449
 9175SOL    HW238988   3.392   1.055   3.750 -0.1325 -0.4096 -0.0997
 9176SOL     OW38989   0.927   0.483  17.523 -0.3226 -0.0842  0.0294
 9176SOL    HW138990   0.856   0.528  17.477  0.5899  1.1901 -0.1347
 9176SOL    HW238991   0.899   0.392  17.511  0.5207 -0.6254  2.1723
 9177SOL     OW38992   3.548   1.298  12.065 -0.8536 -0.1527  0.4600
 9177SOL    HW138993   3.623   1.358  12.072 -1.5464  0.7507  0.1738
 9177SOL    HW238994   3.539   1.265  11.976 -0.0241 -1.6661  0.9460
 9178SOL     OW38995   0.215   1.685  11.690  0.1897  0.0358 -0.1001
 9178SOL    HW138996   0.217   1.598  11.649 -2.0911  0.5013 -1.1702
 9178SOL    HW238997   0.308   1.707  11.691 -0.1607  1.3878  2.0461
 9179SOL     OW38998   3.228   1.811  15.173 -0.5385  0.1120 -0.0343
 9179SOL    HW138999   3.190   1.726  15.151  2.0317 -1.0999  0.2521
 9179SOL    HW239000   3.166   1.868  15.128 -0.9745 -0.3096  0.0376
 9180SOL     OW39001   0.768   4.341   2.598 -0.0370 -0.1907  0.0494
 9180SOL    HW139002   0.803   4.355   2.686  0.4723  0.5794 -0.2794
 9180SOL    HW239003   0.797   4.421   2.554  1.3614  0.6996  2.5558
 9181SOL     OW39004   1.574   3.899   3.418 -0.5589  0.7787  0.0548
 9181SOL    HW139005   1.668   3.886   3.406 -0.9315 -0.7761 -1.1437
 9181SOL    HW239006   1.548   3.952   3.342  0.7038 -1.1295 -1.7212
 9182SOL     OW39007   0.673   4.257   3.589  0.2717 -0.1308 -0.0384
 9182SOL    HW139008   0.644   4.247   3.498  0.5152  1.0835 -0.2521
 9182SOL    HW239009   0.712   4.171   3.605 -0.2835  0.0514  2.2612
 9183SOL     OW39010   4.504   0.864   5.883 -0.1710 -0.1428 -0.6770
 9183SOL    HW139011   4.563   0.816   5.825  2.6542  1.2063  1.0691
 9183SOL    HW239012   4.459   0.803   5.941 -0.3630  0.5450 -0.1096
 9184SOL     OW39013   0.126   3.072   4.998  0.2655 -0.5307  0.1108
 9184SOL    HW139014   0.187   3.000   5.017  0.3214 -0.0671  1.6934
 9184SOL    HW239015   0.117   3.060   4.903 -0.0054  0.0474  0.0623
 9185SOL     OW39016   3.010   1.198  11.443  0.3675  0.3640  0.1237
 9185SOL    HW139017   2.954   1.267  11.479 -1.0018  0.0486 -1.3651
 9185SOL    HW239018   3.000   1.216  11.349  2.5709  2.7560  0.3421
 9186SOL     OW39019   1.754   3.155  13.118  0.3718 -0.2345  0.3024
 9186SOL    HW139020   1.726   3.246  13.110  2.4828  0.6315  2.8119
 9186SOL    HW239021   1.678   3.100  13.100 -0.9350  2.2664 -1.9097
 9187SOL     OW39022   2.195   1.769  17.223 -0.7061  0.3126  0.4275
 9187SOL    HW139023   2.151   1.698  17.269  0.4259 -1.6004 -1.4785
 9187SOL    HW239024   2.236   1.823  17.291  1.6959 -0.2233 -0.5922
 9188SOL     OW39025   3.921   3.515   6.879 -0.0354 -0.5127 -0.5462
 9188SOL    HW139026   3.971   3.479   6.952 -0.1264 -1.8046 -1.1340
 9188SOL    HW239027   3.832   3.526   6.911 -0.1857  0.2397 -1.1915
 9189SOL     OW39028   4.338   2.670   5.637  0.6429  0.3553 -0.6742
 9189SOL    HW139029   4.318   2.626   5.720 -0.5375 -1.7278 -2.0529
 9189SOL    HW239030   4.403   2.740   5.648 -0.2184  1.0701 -0.0650
 9190SOL     OW39031   1.667   2.940  12.077 -0.2870  0.5365 -0.1916
 9190SOL    HW139032   1.585   2.964  12.033  0.4176  0.3142 -1.6020
 9190SOL    HW239033   1.647   2.853  12.113  1.0074 -0.2685 -1.4417
 9191SOL     OW39034   0.518   1.446   3.905 -0.0595 -0.0470 -0.2446
 9191SOL    HW139035   0.568   1.439   3.986  0.0704  0.4711 -0.2789
 9191SOL    HW239036   0.443   1.394   3.932  0.2701  0.3223  1.3513
 9192SOL     OW39037   0.762   2.498   3.854 -0.0655 -0.1034  0.7201
 9192SOL    HW139038   0.753   2.505   3.950  0.9508  2.8412  0.6178
 9192SOL    HW239039   0.710   2.419   3.843 -0.2424  0.0228  0.6460
 9193SOL     OW39040   1.686   1.968   4.432  0.3167  0.0664  0.6454
 9193SOL    HW139041   1.732   2.049   4.450 -0.3701  1.4544 -3.8554
 9193SOL    HW239042   1.766   1.921   4.409  1.0214 -0.1221  3.4630
 9194SOL     OW39043   0.662   3.198   3.591 -0.3969 -0.0002 -0.4450
 9194SOL    HW139044   0.659   3.144   3.669  2.5687 -0.6096 -0.7751
 9194SOL    HW239045   0.579   3.179   3.546 -0.3194 -1.1666 -0.0761
 9195SOL     OW39046   1.785   4.561   3.523 -0.4492  0.4134  0.4203
 9195SOL    HW139047   1.788   4.612   3.442  3.0202 -1.5137 -0.6657
 9195SOL    HW239048   1.749   4.478   3.492 -1.8238  2.0419 -2.3508
 9196SOL     OW39049   3.154   1.499  11.668 -0.1702 -0.1610  0.3677
 9196SOL    HW139050   3.161   1.592  11.645 -3.3298  0.0451  0.2269
 9196SOL    HW239051   3.248   1.480  11.667  0.1500  1.4837 -1.8899
 9197SOL     OW39052   4.514   2.914  11.787 -0.1179 -0.0803  0.1964
 9197SOL    HW139053   4.544   2.836  11.740 -2.1755  0.2266 -1.6266
 9197SOL    HW239054   4.419   2.908  11.782  0.0202 -2.3326 -0.0863
 9198SOL     OW39055   4.429   3.326   1.165 -0.3715 -1.0615 -0.0420
 9198SOL    HW139056   4.413   3.333   1.071 -1.5750  0.9712  0.3297
 9198SOL    HW239057   4.343   3.317   1.205  0.4230  0.4298  1.9937
 9199SOL     OW39058   4.502   3.019   5.460  0.5482  0.1849 -0.5044
 9199SOL    HW139059   4.529   2.998   5.370 -0.4709 -1.9532 -0.3218
 9199SOL    HW239060   4.581   3.058   5.496  0.3196  1.4376 -1.3448
 9200SOL     OW39061   3.707   2.567   6.875  0.2057  0.4580  0.2751
 9200SOL    HW139062   3.695   2.662   6.881  0.6707  0.5279  0.1070
 9200SOL    HW239063   3.734   2.552   6.966  2.7685 -1.2628 -0.7730
 9201SOL     OW39064   0.057   0.418  13.695 -0.0751  0.6796 -0.0060
 9201SOL    HW139065   0.082   0.378  13.612  1.6970  0.3400  0.6880
 9201SOL    HW239066   0.001   0.350  13.732  1.6263 -1.1633 -0.7367
 9202SOL     OW39067   3.732   4.332  17.463 -0.1254 -0.6246 -0.2917
 9202SOL    HW139068   3.711   4.408  17.519  1.0620 -0.5288  0.0092
 9202SOL    HW239069   3.790   4.358  17.392  1.4779  0.3859  1.4063
 9203SOL     OW39070   1.213   2.778   9.374  0.2303  0.0753 -0.2010
 9203SOL    HW139071   1.156   2.799   9.300 -1.4378  2.0994  1.6412
 9203SOL    HW239072   1.242   2.690   9.350 -0.5754  0.0563 -1.0888
 9204SOL     OW39073   2.496   0.516   1.238 -0.0558 -0.2968  0.5419
 9204SOL    HW139074   2.573   0.561   1.273 -0.5234  1.9449 -1.2548
 9204SOL    HW239075   2.535   0.441   1.194 -0.8566 -0.3210 -0.1222
 9205SOL     OW39076   1.175   3.474   8.787  0.6516 -0.0208 -0.4964
 9205SOL    HW139077   1.157   3.380   8.779  0.7988 -0.0849 -0.0479
 9205SOL    HW239078   1.107   3.500   8.849 -0.1611 -0.1464 -1.3242
 9206SOL     OW39079   3.510   1.329   2.313 -0.1534 -0.3102  0.1072
 9206SOL    HW139080   3.539   1.300   2.400  3.4405  1.6852 -0.4559
 9206SOL    HW239081   3.512   1.244   2.269 -0.3616 -0.3067  0.0902
 9207SOL     OW39082   3.779   2.227   3.704  0.3281  0.4411  0.1857
 9207SOL    HW139083   3.737   2.231   3.790 -0.1179  1.5785 -0.0914
 9207SOL    HW239084   3.723   2.288   3.656  1.4167 -0.6827 -2.5358
 9208SOL     OW39085   4.666   3.732   4.181 -0.3148 -0.6359 -0.0439
 9208SOL    HW139086   0.024   3.715   4.136 -0.4135  0.0690 -0.4834
 9208SOL    HW239087   4.678   3.685   4.263  0.8796  0.3464  0.3382
 9209SOL     OW39088   4.368   0.375   7.265 -0.1107 -0.8175 -0.0260
 9209SOL    HW139089   4.306   0.321   7.315 -1.2064  0.4602 -0.0220
 9209SOL    HW239090   4.346   0.463   7.294  3.1275 -0.4017  1.1948
 9210SOL     OW39091   3.620   2.517   5.467  0.2321  0.9276  0.0371
 9210SOL    HW139092   3.649   2.440   5.516  0.4402  0.0438 -1.4517
 9210SOL    HW239093   3.701   2.567   5.459  1.7378 -1.3569  0.8768
 9211SOL     OW39094   4.712   2.960   7.198 -0.2836 -0.5337 -0.2135
 9211SOL    HW139095   0.068   2.911   7.209 -0.0763 -0.1678 -0.0913
 9211SOL    HW239096   0.010   3.043   7.239  0.0726 -1.0458  0.6108
 9212SOL     OW39097   3.591   0.221  11.086  0.4186  0.2937 -0.2998
 9212SOL    HW139098   3.600   0.314  11.068  0.4680  1.0945  3.9359
 9212SOL    HW239099   3.562   0.190  11.000  0.6990 -0.1708 -0.2271
 9213SOL     OW39100   2.366   3.666   4.713  0.1474 -0.4241 -0.0968
 9213SOL    HW139101   2.286   3.713   4.734 -0.9134 -1.0067 -2.8768
 9213SOL    HW239102   2.335   3.576   4.704 -0.7595  0.0641 -1.6883
 9214SOL     OW39103   0.573   1.229  17.436 -0.4635  0.0841  0.4897
 9214SOL    HW139104   0.484   1.260  17.420  0.3278  0.3798 -3.2966
 9214SOL    HW239105   0.547   1.140  17.458 -2.3440  0.2996 -0.9160
 9215SOL     OW39106   1.723   3.215   4.230  0.4985 -0.0607 -0.5015
 9215SOL    HW139107   1.788   3.282   4.207  1.6067 -1.2879 -0.9373
 9215SOL    HW239108   1.773   3.139   4.259 -2.2545 -1.5685  0.2213
 9216SOL     OW39109   3.919   3.417   8.311 -0.2855 -0.0968  0.2452
 9216SOL    HW139110   3.995   3.475   8.322  0.1100 -0.8149  1.2368
 9216SOL    HW239111   3.921   3.421   8.215 -3.1339  0.0059  0.2017
 9217SOL     OW39112   4.056   0.624   7.244 -0.1376  0.4666  0.7274
 9217SOL    HW139113   4.134   0.614   7.300  0.3363  1.6214  0.2706
 9217SOL    HW239114   3.993   0.584   7.303  1.7289 -2.8410  0.5053
 9218SOL     OW39115   0.483   4.041   8.113  0.5585  0.3843  0.0816
 9218SOL    HW139116   0.487   4.064   8.206 -2.4506 -0.0634  0.3250
 9218SOL    HW239117   0.464   3.947   8.119  0.8819  0.2989 -0.2794
 9219SOL     OW39118   1.483   3.128   2.769  0.4160 -0.3806  0.4604
 9219SOL    HW139119   1.557   3.113   2.710  1.8038 -0.4606  2.2216
 9219SOL    HW239120   1.420   3.073   2.722 -0.8152 -0.8043  2.5959
 9220SOL     OW39121   1.283   3.967  10.735 -0.1554 -0.3273  0.1439
 9220SOL    HW139122   1.310   4.046  10.782 -0.2535  0.0848 -0.4825
 9220SOL    HW239123   1.204   4.000  10.693  0.1828 -1.0980 -1.1168
 9221SOL     OW39124   1.010   2.699   3.700 -0.7656 -0.2906 -0.0351
 9221SOL    HW139125   0.917   2.721   3.703 -1.1915 -2.3113  1.4591
 9221SOL    HW239126   1.045   2.759   3.766 -1.8614  1.5450 -1.1187
 9222SOL     OW39127   1.715   2.884   4.794  0.7537  0.1075  0.0465
 9222SOL    HW139128   1.751   2.907   4.709 -0.0651 -0.0256 -0.3309
 9222SOL    HW239129   1.789   2.921   4.843 -0.4120  1.0271  1.1112
 9223SOL     OW39130   2.144   1.598  16.810  0.6836  0.0624 -0.1134
 9223SOL    HW139131   2.147   1.612  16.715 -0.0608 -0.6063 -0.2368
 9223SOL    HW239132   2.102   1.679  16.840 -0.6103 -1.1011  1.1907
 9224SOL     OW39133   3.338   0.942   7.362  0.6743 -0.1565 -0.1703
 9224SOL    HW139134   3.420   0.939   7.412  0.8170 -0.4065 -0.4198
 9224SOL    HW239135   3.289   0.926   7.442  1.4751  0.1642  0.3941
 9225SOL     OW39136   0.789   3.146   6.818 -0.7182 -0.2468  0.3668
 9225SOL    HW139137   0.764   3.232   6.854 -2.4970 -1.0875  1.1166
 9225SOL    HW239138   0.842   3.181   6.746  0.9756  1.6113  2.5109
 9226SOL     OW39139   3.112   2.976  13.104 -0.3235  0.3938 -0.6271
 9226SOL    HW139140   3.181   3.042  13.101 -0.4728  0.5268 -1.0545
 9226SOL    HW239141   3.144   2.917  13.172 -1.2436 -0.0838 -0.6088
 9227SOL     OW39142   4.509   2.888   5.721  0.1175  0.1620 -0.0040
 9227SOL    HW139143   4.506   2.941   5.642  0.7747  0.8758  0.4497
 9227SOL    HW239144   4.473   2.951   5.783 -2.1864  0.7433 -1.9318
 9228SOL     OW39145   4.687   2.614   4.752  0.2180 -0.0165  0.0017
 9228SOL    HW139146   4.707   2.548   4.686 -0.3135  2.0142 -2.1700
 9228SOL    HW239147   0.016   2.588   4.827 -1.0798 -0.3360  0.8140
 9229SOL     OW39148   3.528   4.519   7.423 -0.1429 -0.1282 -0.6238
 9229SOL    HW139149   3.482   4.479   7.497 -0.1222  0.4164 -0.3175
 9229SOL    HW239150   3.476   4.487   7.349 -2.3129 -0.4954  1.0538
 9230SOL     OW39151   3.728   0.193  13.363  0.2024  0.3292 -0.5152
 9230SOL    HW139152   3.770   0.220  13.282  0.7100  0.5964 -0.1638
 9230SOL    HW239153   3.642   0.175  13.325 -1.5170 -1.0154  3.8884
 9231SOL     OW39154   2.873   4.622  16.574 -0.1006  0.1212  0.0631
 9231SOL    HW139155   2.894   4.544  16.625  0.0584  1.9272  2.7360
 9231SOL    HW239156   2.890   4.599  16.482 -1.1942  1.1001 -0.3889
 9232SOL     OW39157   3.484   1.860  13.480 -0.0410  0.8619 -0.4073
 9232SOL    HW139158   3.446   1.932  13.531  1.4473 -0.1034  2.0527
 9232SOL    HW239159   3.567   1.851  13.526  0.3063  0.2397 -1.1438
 9233SOL     OW39160   1.429   2.831  11.974 -0.1019 -0.0331 -0.1530
 9233SOL    HW139161   1.334   2.834  11.975 -0.0971  0.2881 -0.4725
 9233SOL    HW239162   1.453   2.769  11.905  0.5246 -1.2118  1.1219
 9234SOL     OW39163   1.375   1.500   2.436 -0.0839  0.3597 -0.4235
 9234SOL    HW139164   1.433   1.564   2.395 -0.9298  1.9742  0.9138
 9234SOL    HW239165   1.290   1.543   2.441 -0.2175  0.3280 -2.6540
 9235SOL     OW39166   2.106   2.960   4.517  0.2728 -0.6067 -0.1711
 9235SOL    HW139167   2.173   2.913   4.468  0.4599 -0.6591  0.1398
 9235SOL    HW239168   2.156   2.960   4.598 -0.4776  1.8657  0.2900
 9236SOL     OW39169   0.635   4.472   3.133  0.1095  0.2021  0.0857
 9236SOL    HW139170   0.695   4.414   3.086  0.9492  1.3826 -0.2901
 9236SOL    HW239171   0.569   4.480   3.064  0.5872  2.2120 -0.1507
 9237SOL     OW39172   1.659   4.507   8.756 -0.1855  0.3908 -0.9485
 9237SOL    HW139173   1.677   4.601   8.751  0.0438  0.4091  0.2351
 9237SOL    HW239174   1.722   4.467   8.815 -2.2295  0.4941  1.3058
 9238SOL     OW39175   1.714   4.683   9.544 -0.8827  0.2148 -0.0292
 9238SOL    HW139176   1.636   4.629   9.547 -1.5827  1.3103  1.4154
 9238SOL    HW239177   1.675   0.022   9.484 -1.2745 -0.7304 -0.7528
 9239SOL     OW39178   0.909   0.352   1.789 -0.2652 -1.0495 -0.3091
 9239SOL    HW139179   0.952   0.428   1.749 -1.6430  0.0622  0.2767
 9239SOL    HW239180   0.836   0.333   1.729 -0.5234 -1.0221 -0.0078
 9240SOL     OW39181   4.408   0.423   4.773  0.1203 -0.4303  0.2141
 9240SOL    HW139182   4.376   0.503   4.730  2.3056  0.5249  0.3538
 9240SOL    HW239183   4.356   0.361   4.724  1.4815 -0.7475 -0.8165
 9241SOL     OW39184   2.749   0.113   2.766  0.3031  0.4558 -0.0929
 9241SOL    HW139185   2.805   0.077   2.835 -1.9675  0.7407  1.9041
 9241SOL    HW239186   2.815   0.146   2.704 -0.3838  0.0451 -1.0453
 9242SOL     OW39187   3.644   4.123   1.404  0.1388 -0.2217  0.2874
 9242SOL    HW139188   3.724   4.081   1.370 -1.0960 -2.0907 -0.2673
 9242SOL    HW239189   3.680   4.198   1.451  1.8744 -0.6101 -0.3975
 9243SOL     OW39190   0.461   1.241   9.014  0.2980  0.5888  0.7934
 9243SOL    HW139191   0.525   1.173   9.033  1.3785  1.3841 -0.0653
 9243SOL    HW239192   0.399   1.232   9.087 -0.6075 -2.7517 -0.3677
 9244SOL     OW39193   1.418   1.494   6.044 -0.2971  0.0823 -0.2903
 9244SOL    HW139194   1.358   1.507   5.971  1.0070 -0.9234 -1.5333
 9244SOL    HW239195   1.434   1.587   6.065 -1.0067  0.4387 -1.3162
 9245SOL     OW39196   3.182   0.180   8.458  0.3833  0.2378 -0.4568
 9245SOL    HW139197   3.136   0.151   8.537 -2.3667 -0.1424 -2.2151
 9245SOL    HW239198   3.229   0.251   8.502  0.6592 -0.8352  1.0020
 9246SOL     OW39199   0.979   2.073  12.476 -0.2808 -0.1184  0.0661
 9246SOL    HW139200   0.901   2.017  12.476  1.0283 -1.8855 -2.1160
 9246SOL    HW239201   0.968   2.109  12.388 -0.8138 -3.1415 -1.0945
 9247SOL     OW39202   3.964   0.911  10.641  0.3676 -0.0113  0.2412
 9247SOL    HW139203   4.029   0.845  10.618  0.8060  0.8449 -0.9913
 9247SOL    HW239204   3.961   0.955  10.556 -0.1679 -1.9208 -0.7117
 9248SOL     OW39205   0.718   3.783   6.297 -0.4830  0.2111  0.2123
 9248SOL    HW139206   0.739   3.719   6.364  1.7894  2.2040  1.4506
 9248SOL    HW239207   0.800   3.832   6.283 -0.9231  0.7260 -0.6065
 9249SOL     OW39208   2.755   4.406   5.578  0.4109 -0.0499 -0.0981
 9249SOL    HW139209   2.662   4.388   5.561  1.0478 -2.2631 -1.2037
 9249SOL    HW239210   2.764   4.494   5.539  4.1047 -0.9535 -1.2826
 9250SOL     OW39211   0.710   2.978   2.114  0.6838 -0.4104 -0.2883
 9250SOL    HW139212   0.639   2.936   2.164  0.5129 -0.3830 -0.5055
 9250SOL    HW239213   0.779   2.993   2.178  1.4121 -0.0666 -1.1547
 9251SOL     OW39214   1.766   1.878   2.742  0.0991 -0.2384  0.6870
 9251SOL    HW139215   1.776   1.862   2.648  3.7930 -0.6663  1.1580
 9251SOL    HW239216   1.769   1.974   2.745  0.2934 -0.1950 -0.6710
 9252SOL     OW39217   2.550   2.285   4.768 -0.2090 -0.7498 -0.0941
 9252SOL    HW139218   2.525   2.305   4.678  2.5158  0.5753 -0.5337
 9252SOL    HW239219   2.468   2.307   4.813 -0.2460 -0.0770 -0.4965
 9253SOL     OW39220   3.499   4.349   7.634 -0.2577  0.3842 -0.2275
 9253SOL    HW139221   3.591   4.341   7.607 -0.3340  0.7084 -0.5787
 9253SOL    HW239222   3.505   4.322   7.726  2.0429  1.4799 -0.0530
 9254SOL     OW39223   4.276   1.980   2.254  0.0882  0.0205 -0.1382
 9254SOL    HW139224   4.247   2.044   2.319  0.9330  2.2579 -1.9587
 9254SOL    HW239225   4.199   1.974   2.197  0.4265  1.7262 -0.7902
 9255SOL     OW39226   3.708   1.661   8.356 -0.0675  0.6227  0.3869
 9255SOL    HW139227   3.639   1.701   8.304 -0.7279 -1.6238 -0.4696
 9255SOL    HW239228   3.768   1.735   8.364  0.4236  0.0790  1.8705
 9256SOL     OW39229   1.509   3.715   3.619 -0.3481  0.0373 -0.2250
 9256SOL    HW139230   1.565   3.757   3.553 -1.0715 -0.4159 -1.1263
 9256SOL    HW239231   1.571   3.708   3.691 -1.0996 -1.5930  0.2625
 9257SOL     OW39232   3.426   4.286   5.421  0.1327 -0.6446 -0.1331
 9257SOL    HW139233   3.462   4.361   5.468 -0.4772  0.0096 -0.7168
 9257SOL    HW239234   3.434   4.316   5.331 -2.7337 -0.5251 -0.3277
 9258SOL     OW39235   2.867   1.219   5.852 -0.7463  0.1761 -0.2421
 9258SOL    HW139236   2.837   1.195   5.940  0.2832 -0.0426  0.0412
 9258SOL    HW239237   2.847   1.142   5.798 -0.2696  0.3238 -0.6243
 9259SOL     OW39238   4.552   3.799   3.570 -0.1342  0.0865  0.2879
 9259SOL    HW139239   4.571   3.892   3.568 -0.2476  0.0915 -0.6559
 9259SOL    HW239240   4.500   3.782   3.649 -0.7897  1.5975  0.1676
 9260SOL     OW39241   3.238   3.804   4.323 -0.5996  0.0667 -0.2257
 9260SOL    HW139242   3.163   3.787   4.266 -0.4932 -0.4972 -0.2001
 9260SOL    HW239243   3.232   3.899   4.329 -0.0868  0.0396  0.7972
 9261SOL     OW39244   3.128   1.793   6.145 -0.3673 -0.0746  0.1384
 9261SOL    HW139245   3.148   1.727   6.079 -0.5192  0.2895 -0.2716
 9261SOL    HW239246   3.209   1.844   6.150 -0.6800  0.2835  1.7645
 9262SOL     OW39247   4.572   2.512   1.567 -0.0239 -0.1042 -0.5725
 9262SOL    HW139248   4.618   2.451   1.509 -0.0125 -0.0169 -0.6561
 9262SOL    HW239249   4.550   2.587   1.511 -2.7830 -0.2782  0.3036
 9263SOL     OW39250   2.782   4.496  15.805 -0.0276  0.1011 -0.4152
 9263SOL    HW139251   2.856   4.555  15.792  0.7366 -0.5608  0.9865
 9263SOL    HW239252   2.736   4.490  15.721  1.6924  2.4165 -1.5194
 9264SOL     OW39253   1.889   3.632  15.387 -0.8201  0.4121  0.0262
 9264SOL    HW139254   1.923   3.572  15.320 -1.6007  0.6955 -0.6249
 9264SOL    HW239255   1.794   3.621  15.381 -0.9823  1.4632  0.7249
 9265SOL     OW39256   1.044   2.622   6.906  0.5652 -0.2461 -0.0773
 9265SOL    HW139257   1.015   2.553   6.846  0.1715 -1.6212  1.7170
 9265SOL    HW239258   1.034   2.702   6.853 -0.2836 -0.2755  0.0276
 9266SOL     OW39259   3.100   2.024  15.053 -0.3060  0.2618  0.2450
 9266SOL    HW139260   3.013   2.047  15.020 -0.9662 -1.8932  0.4961
 9266SOL    HW239261   3.158   2.035  14.977  0.1327  0.4316  0.6020
 9267SOL     OW39262   4.502   2.666   8.800 -0.0919 -0.1865  0.4285
 9267SOL    HW139263   4.499   2.741   8.860 -2.0793  1.2645 -1.4882
 9267SOL    HW239264   4.437   2.607   8.838 -0.6911  1.9649  2.8258
 9268SOL     OW39265   3.809   0.712   7.163 -0.0701 -0.4599 -0.4236
 9268SOL    HW139266   3.901   0.692   7.179  0.1974  0.7047 -0.4782
 9268SOL    HW239267   3.788   0.772   7.235 -0.0321 -1.0902  0.1169
 9269SOL     OW39268   1.802   2.568   9.785  0.2672  0.4102  0.3056
 9269SOL    HW139269   1.870   2.551   9.850 -0.7854 -2.9053  0.4995
 9269SOL    HW239270   1.742   2.496   9.802  1.9443 -0.4156  2.7684
 9270SOL     OW39271   2.099   1.813   7.586  0.2512 -0.3374 -0.0800
 9270SOL    HW139272   2.192   1.830   7.600  0.3847 -0.5064 -0.7646
 9270SOL    HW239273   2.101   1.779   7.496 -0.8983  1.3735 -0.7484
 9271SOL     OW39274   4.314   1.098   6.348  0.2334 -0.5311  0.2207
 9271SOL    HW139275   4.293   1.181   6.392  0.8646 -0.6392  0.7339
 9271SOL    HW239276   4.311   1.039   6.424 -0.7751 -2.3126 -1.2325
 9272SOL     OW39277   3.313   3.240   1.236 -0.3917  0.0854 -0.9087
 9272SOL    HW139278   3.360   3.172   1.188  1.4540  0.9652 -0.3414
 9272SOL    HW239279   3.290   3.200   1.320 -1.2404  0.4200 -0.9758
 9273SOL     OW39280   0.111   3.011   8.176  0.2411 -0.3476  0.0954
 9273SOL    HW139281   0.073   2.944   8.233  0.1626  0.2143  0.6996
 9273SOL    HW239282   0.120   2.964   8.093  0.4910  1.4607 -0.8969
 9274SOL     OW39283   1.647   3.611   5.468 -0.0216  0.8892  0.3592
 9274SOL    HW139284   1.579   3.557   5.425  1.3774  1.0578 -2.0893
 9274SOL    HW239285   1.652   3.684   5.406 -0.9311  0.2010 -0.5524
 9275SOL     OW39286   0.670   2.051   5.525 -0.3564  0.0984  0.6220
 9275SOL    HW139287   0.698   2.055   5.616 -1.1443  2.2234  0.7705
 9275SOL    HW239288   0.664   2.144   5.503 -0.3367 -0.0502 -0.0080
 9276SOL     OW39289   1.254   1.386   8.241 -0.9072 -0.5091  0.1007
 9276SOL    HW139290   1.342   1.358   8.217  0.1478  1.3135  1.8682
 9276SOL    HW239291   1.201   1.311   8.214 -4.2577  1.3819  1.3831
 9277SOL     OW39292   2.289   4.673   0.567  0.2320  0.2599  0.1168
 9277SOL    HW139293   2.228   4.613   0.523 -0.4285  0.1907  1.1323
 9277SOL    HW239294   2.368   4.620   0.568  0.8949  1.2312 -1.3151
 9278SOL     OW39295   3.171   3.369   7.749 -0.1036 -0.0918 -0.6860
 9278SOL    HW139296   3.105   3.352   7.816  0.6147 -2.8304 -0.6801
 9278SOL    HW239297   3.148   3.308   7.679  1.3417 -1.8415  0.3652
 9279SOL     OW39298   1.475   3.475   8.952 -0.1597  0.2455  0.3650
 9279SOL    HW139299   1.521   3.503   8.873 -1.1323  0.7130 -0.0372
 9279SOL    HW239300   1.387   3.488   8.917  0.7585  0.1311 -1.9399
 9280SOL     OW39301   0.112   2.830   9.209 -0.0401 -0.0115  0.1175
 9280SOL    HW139302   0.032   2.780   9.193 -0.4889 -0.3661  3.5136
 9280SOL    HW239303   0.112   2.839   9.305 -1.5824  0.1472  0.1042
 9281SOL     OW39304   1.940   4.147  12.537  0.2100  0.8589  0.1716
 9281SOL    HW139305   1.936   4.178  12.446 -0.9890 -1.4102 -0.5486
 9281SOL    HW239306   1.963   4.055  12.533 -3.0551  0.0942 -0.6054
 9282SOL     OW39307   0.112   2.966   4.132  0.6070  0.0906 -0.4213
 9282SOL    HW139308   0.157   2.923   4.204  0.1509 -0.7315 -0.6305
 9282SOL    HW239309   0.024   2.976   4.169  1.4408 -0.7778  1.7891
 9283SOL     OW39310   2.868   0.238   1.709 -0.3932 -0.3539  0.3656
 9283SOL    HW139311   2.898   0.222   1.620 -0.3105  2.0876 -0.0576
 9283SOL    HW239312   2.855   0.333   1.701  1.6217  0.0006  1.2072
 9284SOL     OW39313   3.211   4.150   0.077  0.4310 -0.2101  0.5627
 9284SOL    HW139314   3.244   4.060   0.073 -3.0147 -1.3130 -3.1354
 9284SOL    HW239315   3.248   4.168   0.163 -0.0090  1.8797  0.3104
 9285SOL     OW39316   0.189   3.032  17.321 -0.3165  0.1506 -0.5433
 9285SOL    HW139317   0.146   3.035  17.407  0.7716 -0.6557  0.0370
 9285SOL    HW239318   0.197   2.938  17.307 -1.1554  0.2776 -1.9233
 9286SOL     OW39319   3.993   0.167  17.442 -0.2960 -0.0968 -0.3215
 9286SOL    HW139320   4.056   0.238  17.451 -1.5947  0.8977  1.0101
 9286SOL    HW239321   3.946   0.189  17.361  1.0444  0.5682 -0.9059
 9287SOL     OW39322   2.273   4.419   9.936 -0.1122 -0.1479  0.4840
 9287SOL    HW139323   2.194   4.392   9.889  0.0554 -1.5306  0.9898
 9287SOL    HW239324   2.316   4.457   9.859  1.5940 -0.0986  1.4455
 9288SOL     OW39325   3.776   2.779   8.239 -0.7069  0.1154  0.6376
 9288SOL    HW139326   3.693   2.798   8.283 -1.5012  0.6825 -1.1010
 9288SOL    HW239327   3.821   2.863   8.232  0.6936 -0.7127 -0.2478
 9289SOL     OW39328   4.044   3.249   1.542 -0.4891  0.4316  0.1326
 9289SOL    HW139329   3.966   3.268   1.490 -0.9868 -0.5104  0.5395
 9289SOL    HW239330   4.022   3.288   1.627  0.2245  1.6832 -0.2530
 9290SOL     OW39331   4.444   0.887  12.589  0.5520  0.1627  0.1459
 9290SOL    HW139332   4.517   0.949  12.584 -2.1358  3.3508  0.4288
 9290SOL    HW239333   4.377   0.951  12.611 -0.5579 -1.0352  0.2262
 9291SOL     OW39334   1.156   2.815  11.970 -0.1365  0.3598 -0.5306
 9291SOL    HW139335   1.076   2.814  11.918 -0.5416 -0.7737  0.1020
 9291SOL    HW239336   1.138   2.882  12.036  0.6274  0.9750 -0.9540
 9292SOL     OW39337   2.698   2.578   5.268  0.3143 -0.5869 -0.5594
 9292SOL    HW139338   2.662   2.655   5.223 -0.9529  0.7794  2.7574
 9292SOL    HW239339   2.693   2.616   5.356 -0.2195  0.4911 -1.0544
 9293SOL     OW39340   0.811   1.494  16.350  0.6117  0.3799  0.5990
 9293SOL    HW139341   0.872   1.426  16.379 -0.0409 -0.3094  0.3625
 9293SOL    HW239342   0.813   1.449  16.265  0.4371 -0.2781  0.9433
 9294SOL     OW39343   4.162   1.054  16.957  0.6135 -0.5578 -0.1337
 9294SOL    HW139344   4.156   1.146  16.983 -0.8683 -0.7377  0.1534
 9294SOL    HW239345   4.238   1.064  16.899 -0.4962  1.1069 -1.3073
 9295SOL     OW39346   3.681   2.303   9.166  0.0793  0.4342  0.2988
 9295SOL    HW139347   3.638   2.359   9.101 -0.7628 -0.7106 -0.1240
 9295SOL    HW239348   3.753   2.356   9.201  1.4390 -0.5105 -1.1109
 9296SOL     OW39349   2.571   3.766   9.698 -0.3227 -0.2121  0.0271
 9296SOL    HW139350   2.490   3.766   9.647  1.1132  0.7477 -2.2958
 9296SOL    HW239351   2.573   3.857   9.727 -2.2759 -0.4285  0.8329
 9297SOL     OW39352   1.461   2.016   7.344  0.8951  0.2050 -0.1356
 9297SOL    HW139353   1.460   1.985   7.253 -0.4628  0.5561 -0.2462
 9297SOL    HW239354   1.525   2.087   7.345  1.3455 -0.2174  0.4899
 9298SOL     OW39355   2.089   4.283  14.284 -0.4389 -0.4946  0.6619
 9298SOL    HW139356   2.047   4.204  14.318  0.8920 -1.4042  0.2034
 9298SOL    HW239357   2.012   4.341  14.286  0.3622  0.6662 -1.7838
 9299SOL     OW39358   2.766   2.299  11.118  0.3654 -0.0890 -0.3018
 9299SOL    HW139359   2.749   2.322  11.210 -1.2717 -0.7661 -0.4337
 9299SOL    HW239360   2.861   2.313  11.118  0.3155  0.4660  4.5427
 9300SOL     OW39361   3.859   2.395   8.872  0.5307  0.4409 -0.4995
 9300SOL    HW139362   3.779   2.428   8.913  0.0261 -0.7889 -0.4678
 9300SOL    HW239363   3.923   2.456   8.907 -0.4865  0.6192  1.0567
 9301SOL     OW39364   1.473   4.563   6.987  0.1844 -0.5549 -0.1113
 9301SOL    HW139365   1.511   4.621   6.922  0.1909  2.4098  2.5343
 9301SOL    HW239366   1.479   4.478   6.942  0.9855 -1.6591  2.1000
 9302SOL     OW39367   2.280   4.601  13.096  0.7574 -0.0169 -0.1081
 9302SOL    HW139368   2.327   4.522  13.122  1.0217  0.0626 -0.3381
 9302SOL    HW239369   2.275   4.590  13.001  0.0448 -2.7700  0.2552
 9303SOL     OW39370   0.922   3.272   9.907  0.1680 -0.0168 -0.1716
 9303SOL    HW139371   0.989   3.229   9.854  1.8324  0.3497  1.6378
 9303SOL    HW239372   0.855   3.204   9.912  0.4111 -0.4678 -3.4179
 9304SOL     OW39373   3.882   1.902   7.836 -0.2435 -0.2985  0.7094
 9304SOL    HW139374   3.920   1.980   7.797  3.5724 -1.1749  2.6427
 9304SOL    HW239375   3.876   1.846   7.758 -1.1324 -1.1011  1.3646
 9305SOL     OW39376   3.493   2.333  13.131 -0.2786 -0.0429 -0.1646
 9305SOL    HW139377   3.425   2.389  13.169  1.2203  0.2275  2.1278
 9305SOL    HW239378   3.570   2.389  13.126  0.8756 -1.6592 -0.5360
 9306SOL     OW39379   2.336   4.135   9.762  0.2084 -0.3218  0.0594
 9306SOL    HW139380   2.244   4.149   9.785  1.0685  0.6679  2.8912
 9306SOL    HW239381   2.334   4.123   9.667  3.1888  2.8125 -0.3858
 9307SOL     OW39382   0.861   3.720   8.207  0.2339 -0.1657  0.2962
 9307SOL    HW139383   0.899   3.768   8.134  0.7636 -2.7405 -1.1133
 9307SOL    HW239384   0.931   3.660   8.232  2.2289  2.6482  1.4395
 9308SOL     OW39385   2.537   0.800   3.512  0.0700  1.0777  0.3779
 9308SOL    HW139386   2.555   0.707   3.526  3.8572  1.8090  0.1422
 9308SOL    HW239387   2.507   0.801   3.421  2.2721 -0.0287 -0.3497
 9309SOL     OW39388   3.206   2.057   4.883 -0.1052  0.0752 -0.0942
 9309SOL    HW139389   3.275   1.993   4.902  0.6053  0.6189 -0.8210
 9309SOL    HW239390   3.209   2.101   4.968 -1.3184 -0.8900  0.4347
 9310SOL     OW39391   1.700   3.657   4.924  1.0242  0.1176  0.1773
 9310SOL    HW139392   1.687   3.746   4.893 -0.4260 -0.6349 -1.3894
 9310SOL    HW239393   1.708   3.606   4.843 -2.5810  0.4184 -0.3742
 9311SOL     OW39394   2.170   2.452   6.486 -0.4899  0.3274 -0.1381
 9311SOL    HW139395   2.139   2.417   6.403 -0.6687  3.1031 -1.2262
 9311SOL    HW239396   2.233   2.514   6.450 -0.2133  0.1979  0.1209
 9312SOL     OW39397   3.862   1.518  15.183  0.1208  0.0845  0.6383
 9312SOL    HW139398   3.873   1.454  15.113  1.2445  0.5609  0.3855
 9312SOL    HW239399   3.854   1.602  15.139  2.2511 -0.2353 -0.3652
 9313SOL     OW39400   2.427   2.933   2.291  0.1521  0.3233 -0.0418
 9313SOL    HW139401   2.378   2.990   2.350 -3.7457 -0.3232 -2.7095
 9313SOL    HW239402   2.447   2.860   2.350 -0.9239 -0.7421 -1.0036
 9314SOL     OW39403   0.560   2.041   7.222  0.0358  0.5510 -0.0070
 9314SOL    HW139404   0.469   2.026   7.248  0.8988 -1.2534  2.0236
 9314SOL    HW239405   0.610   2.031   7.303  0.7489  0.5724 -0.4470
 9315SOL     OW39406   2.335   2.872  12.785  0.2630  0.2600 -0.3299
 9315SOL    HW139407   2.375   2.822  12.856 -1.0139 -0.0166  0.1927
 9315SOL    HW239408   2.291   2.939  12.837 -0.2639  0.8613 -1.5692
 9316SOL     OW39409   3.568   3.795   7.117 -0.5493  0.1926  0.0750
 9316SOL    HW139410   3.594   3.757   7.202  1.4245 -1.2870 -1.1960
 9316SOL    HW239411   3.570   3.888   7.139  0.5115  0.4677 -1.2008
 9317SOL     OW39412   0.580   1.971   0.649 -0.1202 -0.2835 -0.6654
 9317SOL    HW139413   0.618   1.922   0.722 -0.6859 -1.0926 -0.9245
 9317SOL    HW239414   0.546   2.052   0.685  1.5452  0.0338  0.1829
 9318SOL     OW39415   3.850   0.204   1.742  0.7327 -0.0981  0.9043
 9318SOL    HW139416   3.761   0.234   1.722 -0.0932 -2.5157  1.0235
 9318SOL    HW239417   3.837   0.126   1.796  1.8764 -0.1296  1.1170
 9319SOL     OW39418   2.409   3.086   3.846  0.1128 -0.4233 -0.1025
 9319SOL    HW139419   2.376   3.059   3.932 -0.0868 -2.0886 -0.6978
 9319SOL    HW239420   2.366   3.026   3.785  0.5809 -0.7713 -0.0920
 9320SOL     OW39421   1.950   2.799   9.954  0.5227  0.0262 -0.1456
 9320SOL    HW139422   1.885   2.836  10.013  1.1449 -0.8563  1.0880
 9320SOL    HW239423   1.975   2.874   9.899  1.3453  0.6469  1.0616
 9321SOL     OW39424   0.919   2.197   1.786  0.3662 -0.1118  0.1308
 9321SOL    HW139425   0.855   2.250   1.739 -2.0065 -2.3576  0.8465
 9321SOL    HW239426   0.967   2.175   1.706  0.6014 -3.2735  1.1345
 9322SOL     OW39427   4.561   4.250   0.219  0.6511  0.0505  0.0638
 9322SOL    HW139428   4.622   4.189   0.261 -0.3746 -0.5941  0.6286
 9322SOL    HW239429   4.571   4.215   0.131 -1.4807 -1.2208  0.3029
 9323SOL     OW39430   1.378   3.922   2.355 -0.1124  0.1728  0.3346
 9323SOL    HW139431   1.385   3.915   2.260  0.2816  0.2000  0.3607
 9323SOL    HW239432   1.349   3.833   2.374 -1.0454  0.2786 -0.5802
 9324SOL     OW39433   1.247   3.680   9.018 -0.2742  0.6988 -0.0386
 9324SOL    HW139434   1.290   3.632   9.089  2.1308  3.0158  0.0956
 9324SOL    HW239435   1.153   3.662   9.023 -0.4131  1.0320 -1.4856
 9325SOL     OW39436   2.669   1.320  13.701 -0.2687 -0.2372  0.2587
 9325SOL    HW139437   2.728   1.395  13.689 -0.4267  0.1416  1.8420
 9325SOL    HW239438   2.727   1.251  13.733  1.4484 -0.1659 -2.6315
 9326SOL     OW39439   3.796   1.476   3.699  0.2662 -0.2037 -0.3008
 9326SOL    HW139440   3.781   1.382   3.706  1.1105 -0.4002 -1.2407
 9326SOL    HW239441   3.758   1.504   3.616 -1.6622  1.3450  1.0696
 9327SOL     OW39442   1.656   0.755   1.588  0.2424 -0.2410  1.0822
 9327SOL    HW139443   1.640   0.777   1.680 -1.4525 -1.7432  1.1427
 9327SOL    HW239444   1.628   0.826   1.531  0.3622 -1.7010 -0.7785
 9328SOL     OW39445   4.541   3.409  12.496  0.0138  0.5646 -0.0328
 9328SOL    HW139446   4.593   3.414  12.416 -1.1535  1.0051 -0.7670
 9328SOL    HW239447   4.526   3.316  12.513 -2.6801  0.6447 -1.9294
 9329SOL     OW39448   4.558   0.595  12.721 -0.3448 -0.4815  0.0131
 9329SOL    HW139449   4.622   0.528  12.746  0.8269  0.4824 -0.4155
 9329SOL    HW239450   4.494   0.585  12.792 -0.7305 -0.7070 -0.3718
 9330SOL     OW39451   2.930   3.070   8.324  0.4197 -0.0228  0.3763
 9330SOL    HW139452   2.876   2.990   8.321  0.8849 -0.3863  1.3642
 9330SOL    HW239453   2.920   3.111   8.239 -0.2378  1.3373  1.1074
 9331SOL     OW39454   2.381   2.369   4.107 -0.3222  0.4244 -0.0214
 9331SOL    HW139455   2.351   2.302   4.046 -0.1955  0.3865 -0.0418
 9331SOL    HW239456   2.384   2.317   4.187 -0.3942 -1.8971 -1.5157
 9332SOL     OW39457   4.504   0.206  10.456  0.2450  0.3833 -0.6861
 9332SOL    HW139458   4.543   0.291  10.478  0.9745 -0.1897  0.2635
 9332SOL    HW239459   4.561   0.146  10.505  0.4417  2.6250  1.8278
 9333SOL     OW39460   1.479   1.312   4.941 -0.0495 -1.0028 -0.0833
 9333SOL    HW139461   1.424   1.339   4.867 -1.0594 -2.6630  0.0628
 9333SOL    HW239462   1.558   1.313   4.888 -0.5963  1.1257 -0.8576
 9334SOL     OW39463   0.828   4.321   1.128  0.6651 -0.3423 -0.0151
 9334SOL    HW139464   0.749   4.269   1.112 -0.2445  0.4353  2.0547
 9334SOL    HW239465   0.854   4.314   1.219 -0.4249 -2.7206  0.1190
 9335SOL     OW39466   1.764   4.100   3.838 -0.5887  0.3997  0.6398
 9335SOL    HW139467   1.708   4.148   3.777  0.9552  0.7455 -0.5230
 9335SOL    HW239468   1.853   4.134   3.832 -0.5324  0.2031  0.3345
 9336SOL     OW39469   2.654   0.737   6.654  0.2945 -0.1296  0.2763
 9336SOL    HW139470   2.725   0.788   6.693  0.5744 -0.5964  0.3746
 9336SOL    HW239471   2.584   0.755   6.717  0.0646 -0.2052  0.0426
 9337SOL     OW39472   3.241   2.036  13.282  0.2789 -0.3836  0.7719
 9337SOL    HW139473   3.266   1.967  13.344  1.0732  0.7691  1.7316
 9337SOL    HW239474   3.314   2.097  13.284  0.0697 -0.1234  0.6108
 9338SOL     OW39475   3.514   2.940  12.319  0.6616  0.4664  0.6666
 9338SOL    HW139476   3.602   2.915  12.289  0.3057  0.4421 -0.3491
 9338SOL    HW239477   3.474   2.855  12.330 -2.0132  1.6307 -0.1560
 9339SOL     OW39478   2.361   0.775   6.110  0.6585  0.1764 -0.1379
 9339SOL    HW139479   2.453   0.779   6.086  0.4453 -0.5175 -1.0479
 9339SOL    HW239480   2.344   0.869   6.115  2.1117  0.1834  4.5751
 9340SOL     OW39481   2.662   1.093  12.894 -0.4740 -0.3422 -0.0745
 9340SOL    HW139482   2.725   1.102  12.823 -0.1334  0.0752  0.2782
 9340SOL    HW239483   2.632   1.183  12.906  0.0327 -0.2066  0.1355
 9341SOL     OW39484   0.793   3.085   4.911 -0.7689 -0.6060 -0.1627
 9341SOL    HW139485   0.708   3.123   4.889 -1.7907 -0.9553  3.0908
 9341SOL    HW239486   0.784   2.990   4.921  2.4330 -1.0752 -1.7821
 9342SOL     OW39487   2.900   0.846   7.834  0.3993  0.1320  0.3200
 9342SOL    HW139488   2.930   0.768   7.881  1.2446  0.8461  0.9661
 9342SOL    HW239489   2.811   0.859   7.866  1.1732 -0.0963  2.5607
 9343SOL     OW39490   2.920   4.345   7.824  0.3601 -0.2900  0.6479
 9343SOL    HW139491   2.939   4.306   7.909 -1.3308 -1.2723  0.5704
 9343SOL    HW239492   2.905   4.436   7.849  0.1285 -0.4955  1.2690
 9344SOL     OW39493   1.533   3.959   5.877 -0.0126  0.4693 -0.4328
 9344SOL    HW139494   1.438   3.953   5.864  0.1574  0.3231 -1.5723
 9344SOL    HW239495   1.560   3.874   5.842  1.2258  1.1033 -0.9957
 9345SOL     OW39496   3.767   0.428   2.802  0.4122 -0.0740  0.3707
 9345SOL    HW139497   3.676   0.402   2.801  0.9057 -1.7239 -0.5818
 9345SOL    HW239498   3.785   0.440   2.709 -1.5248 -0.2120 -0.0090
 9346SOL     OW39499   1.691   0.177  11.147 -0.4000  0.2522 -0.2895
 9346SOL    HW139500   1.619   0.238  11.130  0.1040  0.4909 -1.6031
 9346SOL    HW239501   1.647   0.104  11.191 -0.5266  0.7555  0.3998
 9347SOL     OW39502   2.190   2.295  11.898  0.0582 -0.4307  0.0332
 9347SOL    HW139503   2.121   2.269  11.837  0.4798  0.3403 -0.7749
 9347SOL    HW239504   2.145   2.327  11.976  2.4811  0.4672  1.0753
 9348SOL     OW39505   0.623   4.333   5.661 -0.4586  0.3713 -0.7757
 9348SOL    HW139506   0.646   4.385   5.584 -0.5832 -0.3555 -1.3056
 9348SOL    HW239507   0.573   4.394   5.717  1.5727  1.2718  0.0436
 9349SOL     OW39508   0.537   2.931  12.507  0.0045 -0.6352  0.3392
 9349SOL    HW139509   0.521   2.876  12.430  0.1803  0.1861 -0.2893
 9349SOL    HW239510   0.580   2.869  12.566 -1.0335 -0.7692  0.9580
 9350SOL     OW39511   2.086   4.512  12.644  0.4257  0.3339 -0.1562
 9350SOL    HW139512   2.131   4.558  12.574 -0.0054 -0.5389 -1.0186
 9350SOL    HW239513   1.997   4.506  12.610  0.5688  2.3319 -0.8597
 9351SOL     OW39514   1.214   2.718  14.460 -0.2026  0.4855 -0.0624
 9351SOL    HW139515   1.270   2.704  14.536  0.4430  0.8271 -0.4755
 9351SOL    HW239516   1.134   2.731  14.510  1.2451  0.4671  2.2431
 9352SOL     OW39517   4.245   1.210  12.291  0.4223 -0.3735 -0.3945
 9352SOL    HW139518   4.184   1.281  12.313  1.0052 -0.1511  0.5045
 9352SOL    HW239519   4.324   1.237  12.336 -0.6686 -0.5585  1.6352
 9353SOL     OW39520   3.263   3.285   8.906 -0.4365  0.1605 -0.4945
 9353SOL    HW139521   3.288   3.247   8.990  0.3069  0.3844 -0.6060
 9353SOL    HW239522   3.190   3.231   8.878  0.8809 -1.3013 -1.1420
 9354SOL     OW39523   3.822   2.533   1.301 -0.0327 -0.2550 -0.4033
 9354SOL    HW139524   3.795   2.625   1.300 -0.0663 -0.2502  1.0910
 9354SOL    HW239525   3.872   2.535   1.383  1.0739 -2.2666 -1.0278
 9355SOL     OW39526   3.987   0.372  14.563 -0.4607  0.7608  0.9351
 9355SOL    HW139527   3.924   0.369  14.636 -0.4757  0.0507  0.8923
 9355SOL    HW239528   4.029   0.286  14.570  1.5763  1.5941 -1.4744
 9356SOL     OW39529   4.026   1.191   7.616 -0.1479 -0.2058 -0.3894
 9356SOL    HW139530   4.026   1.208   7.710 -1.9651 -2.4538  0.0007
 9356SOL    HW239531   3.933   1.210   7.603 -0.2795 -0.1597  0.6704
 9357SOL     OW39532   1.307   3.863   6.058 -0.3455  0.2483  0.4092
 9357SOL    HW139533   1.365   3.787   6.057  0.6099  1.0244 -1.3693
 9357SOL    HW239534   1.317   3.892   6.149  0.6711 -2.1688  1.0554
 9358SOL     OW39535   0.967   3.912   3.763  0.2032 -0.1385 -0.0762
 9358SOL    HW139536   1.060   3.914   3.738 -0.2162  0.4079 -1.5660
 9358SOL    HW239537   0.924   3.873   3.687 -1.2154  0.7303  0.2804
 9359SOL     OW39538   4.154   1.687   4.952  0.1644 -0.3299 -0.2082
 9359SOL    HW139539   4.248   1.705   4.957 -0.0833  0.5828  0.9609
 9359SOL    HW239540   4.123   1.772   4.923  0.4170  0.2048  1.0836
 9360SOL     OW39541   2.477   3.315   4.049  0.2651  0.1713  0.4854
 9360SOL    HW139542   2.422   3.303   4.127  1.6148 -0.6432  1.3083
 9360SOL    HW239543   2.545   3.248   4.059  1.0615  1.0262  0.8175
 9361SOL     OW39544   0.106   2.031   4.938 -0.1682  0.5981  0.9729
 9361SOL    HW139545   0.114   1.950   4.989  2.0347  1.7899  2.4884
 9361SOL    HW239546   0.182   2.024   4.880 -0.6032  1.9009  0.2738
 9362SOL     OW39547   1.692   4.401   4.030 -0.2268  0.4125 -0.1259
 9362SOL    HW139548   1.597   4.400   4.042 -0.2959  3.1411 -0.3346
 9362SOL    HW239549   1.716   4.329   4.088  2.0917  0.3710 -1.1334
 9363SOL     OW39550   1.724   3.288   2.487  0.5594 -0.6416  0.4613
 9363SOL    HW139551   1.734   3.343   2.565 -1.7192  1.4766 -0.7617
 9363SOL    HW239552   1.719   3.198   2.519 -0.7360  0.6821  3.9420
 9364SOL     OW39553   2.615   3.003   6.319  0.2437 -0.0400  0.3123
 9364SOL    HW139554   2.633   3.080   6.373  0.9539 -0.0530  0.0980
 9364SOL    HW239555   2.631   3.024   6.227  0.2769 -1.0234  0.0926
 9365SOL     OW39556   0.739   0.253   7.265 -0.4236 -0.4192 -0.4637
 9365SOL    HW139557   0.751   0.210   7.180 -0.0918  1.1985 -1.2397
 9365SOL    HW239558   0.757   0.184   7.328 -2.0081  0.8182  1.3353
 9366SOL     OW39559   2.361   0.915  13.718 -1.2159 -0.5503  0.3462
 9366SOL    HW139560   2.271   0.921  13.748 -1.0804  3.8941 -0.1142
 9366SOL    HW239561   2.411   0.940  13.796 -1.5735  0.3645  0.2847
 9367SOL     OW39562   4.040   1.449   8.389  0.1682  0.3359 -0.1158
 9367SOL    HW139563   3.983   1.465   8.313 -1.5920 -1.5600  0.8330
 9367SOL    HW239564   3.999   1.367   8.415 -1.2429  1.4341  1.0869
 9368SOL     OW39565   0.805   2.890   6.941  0.0401 -0.7630  0.3504
 9368SOL    HW139566   0.761   2.882   7.026 -1.1062 -1.3624 -0.2966
 9368SOL    HW239567   0.804   2.984   6.921 -0.9466 -0.8752 -0.1059
 9369SOL     OW39568   2.460   0.301  13.157  0.4878  0.2627 -0.3125
 9369SOL    HW139569   2.395   0.252  13.106  1.2893 -0.6086 -0.5029
 9369SOL    HW239570   2.543   0.274  13.118  0.3871 -0.2877 -0.1514
 9370SOL     OW39571   0.348   3.709   8.501 -0.3956  0.1847 -0.2421
 9370SOL    HW139572   0.301   3.627   8.518  1.8167 -1.2866 -1.2279
 9370SOL    HW239573   0.396   3.718   8.583  1.1946  0.8814 -1.2577
 9371SOL     OW39574   0.472   3.149   2.996  0.1855  0.3188 -0.4032
 9371SOL    HW139575   0.425   3.190   2.923 -0.2555 -1.5490 -1.1621
 9371SOL    HW239576   0.408   3.084   3.025 -0.6453  1.4503  0.2954
 9372SOL     OW39577   3.267   1.555   9.613  0.1591  0.4712  0.1779
 9372SOL    HW139578   3.344   1.560   9.555 -0.4513  1.9969 -0.4726
 9372SOL    HW239579   3.273   1.469   9.655  0.0979 -1.0195 -2.8493
 9373SOL     OW39580   3.371   1.109   2.710 -0.2161  0.2058  0.1165
 9373SOL    HW139581   3.397   1.092   2.619  0.1542  1.1592  0.0350
 9373SOL    HW239582   3.290   1.158   2.696 -1.3106 -1.5228  0.4360
 9374SOL     OW39583   2.959   0.095   4.180  0.4583  0.2546  0.3778
 9374SOL    HW139584   2.916   0.154   4.242  0.2063 -0.0938  0.5296
 9374SOL    HW239585   3.004   0.037   4.241 -0.7833 -0.5585  0.5310
 9375SOL     OW39586   3.574   1.253   2.556  0.0200 -0.4194  0.1289
 9375SOL    HW139587   3.572   1.166   2.597  3.2545  0.2037  1.6151
 9375SOL    HW239588   3.610   1.306   2.627  2.1050  1.0372 -2.0392
 9376SOL     OW39589   0.176   0.549   4.893 -0.6159  0.4587 -0.3259
 9376SOL    HW139590   0.181   0.544   4.989 -0.1533  0.2058 -0.3659
 9376SOL    HW239591   0.122   0.471   4.881  0.1675 -0.1236 -0.0894
 9377SOL     OW39592   1.843   4.550  11.098 -0.3628  0.4010 -0.0176
 9377SOL    HW139593   1.911   4.616  11.107  2.4172 -2.5188  0.1434
 9377SOL    HW239594   1.898   4.471  11.092  1.0703  1.4662 -0.7561
 9378SOL     OW39595   2.304   1.804  10.078 -0.4094 -0.0082  0.0565
 9378SOL    HW139596   2.225   1.820  10.131  0.6636  0.6498  1.4616
 9378SOL    HW239597   2.297   1.844   9.992 -1.4954  0.8729  0.5534
 9379SOL     OW39598   3.853   2.873  11.027 -1.1301 -0.5596  0.4172
 9379SOL    HW139599   3.786   2.935  11.055 -1.2213  0.0356 -1.1207
 9379SOL    HW239600   3.857   2.906  10.937 -1.8020 -2.1810 -0.2263
 9380SOL     OW39601   3.442   0.401  13.387  0.0803  0.1492 -0.0758
 9380SOL    HW139602   3.475   0.316  13.361 -1.6803 -0.5351 -0.0748
 9380SOL    HW239603   3.489   0.458  13.326  0.0591 -0.5370 -0.7349
 9381SOL     OW39604   1.821   1.083  14.855  0.1720  0.5228  0.1546
 9381SOL    HW139605   1.803   1.155  14.795  1.3601 -0.9195 -1.9032
 9381SOL    HW239606   1.781   1.109  14.939  1.1710  2.9630 -0.1233
 9382SOL     OW39607   0.362   3.667   7.375 -0.0191 -0.8007 -0.5091
 9382SOL    HW139608   0.277   3.709   7.392  0.3245  0.2063 -1.2600
 9382SOL    HW239609   0.333   3.576   7.383  0.7890 -0.9842  0.2806
 9383SOL     OW39610   0.104   2.662   8.573  0.0875  0.5455  0.4008
 9383SOL    HW139611   0.021   2.614   8.571  0.6929 -0.4847 -0.4038
 9383SOL    HW239612   0.089   2.754   8.593  2.3303  0.5047  2.1987
 9384SOL     OW39613   1.779   2.880  13.756  0.6687 -0.0434 -0.4884
 9384SOL    HW139614   1.757   2.968  13.728  3.2431  0.8145  0.1741
 9384SOL    HW239615   1.791   2.841  13.669 -1.1335 -0.5339 -0.5022
 9385SOL     OW39616   4.253   1.771  17.641  0.2420 -0.3033  0.2078
 9385SOL    HW139617   4.188   1.839  17.623  0.5851  0.2772  1.1764
 9385SOL    HW239618   4.316   1.832  17.679 -0.4373  2.3012 -2.8008
 9386SOL     OW39619   3.147   2.562  14.715  0.1784  0.6189 -0.1371
 9386SOL    HW139620   3.163   2.656  14.707  0.6910  0.5228 -0.1981
 9386SOL    HW239621   3.063   2.553  14.669 -0.2594  0.3853  0.7084
 9387SOL     OW39622   4.270   3.028   5.202  0.2055 -0.5632 -0.2632
 9387SOL    HW139623   4.212   3.002   5.273 -1.8279  1.8229 -1.0538
 9387SOL    HW239624   4.215   3.093   5.157  0.0175  0.4855  1.4987
 9388SOL     OW39625   1.650   1.070   4.190 -0.2719  0.2582 -0.3216
 9388SOL    HW139626   1.742   1.088   4.211 -0.4231 -0.7749  1.2774
 9388SOL    HW239627   1.629   1.152   4.146  0.6272  1.7481  2.0025
 9389SOL     OW39628   4.537   2.688   8.186  0.6135  0.4186 -0.3219
 9389SOL    HW139629   4.536   2.680   8.282  1.7160 -0.4628 -0.3752
 9389SOL    HW239630   4.472   2.757   8.176  1.1774  0.7410 -1.7447
 9390SOL     OW39631   0.997   0.396   2.417  0.0115 -0.5171  0.3196
 9390SOL    HW139632   0.957   0.475   2.382  0.9904 -0.2687 -0.2404
 9390SOL    HW239633   0.955   0.384   2.502 -0.7906  2.6866  0.3720
 9391SOL     OW39634   3.598   1.394   2.805  0.4650  0.5990  0.0834
 9391SOL    HW139635   3.649   1.376   2.883  2.8705  2.4744 -1.0631
 9391SOL    HW239636   3.620   1.485   2.783  1.7593  0.2234 -0.1239
 9392SOL     OW39637   2.033   1.364   3.792 -0.2928 -0.2460  0.2209
 9392SOL    HW139638   2.017   1.357   3.698  0.6362  0.3000  0.0215
 9392SOL    HW239639   1.945   1.386   3.823  0.0404  0.4366  0.6969
 9393SOL     OW39640   3.442   0.901  14.955 -0.0196 -0.1130 -0.0915
 9393SOL    HW139641   3.411   0.815  14.983 -0.5967 -0.7959 -2.8118
 9393SOL    HW239642   3.385   0.962  15.002 -1.0345  0.6258 -2.2511
 9394SOL     OW39643   2.421   0.381   4.207  0.0032 -0.1275  0.0176
 9394SOL    HW139644   2.414   0.363   4.301  3.3058  2.1356  0.7283
 9394SOL    HW239645   2.492   0.444   4.220  0.0380 -0.2059  0.2088
 9395SOL     OW39646   0.755   0.702  17.420  0.1865 -0.3253 -0.1617
 9395SOL    HW139647   0.738   0.775  17.361  0.9921 -1.5589 -1.8853
 9395SOL    HW239648   0.731   0.760  17.493 -0.0950 -0.1099 -0.4261
 9396SOL     OW39649   3.085   1.330   3.841 -1.1088 -0.2782  0.0166
 9396SOL    HW139650   3.057   1.317   3.932 -1.5382 -1.7823 -0.3407
 9396SOL    HW239651   3.005   1.351   3.793 -0.9483  1.7557  0.6194
 9397SOL     OW39652   3.943   3.022   8.027 -0.2399  0.5851  0.5295
 9397SOL    HW139653   3.881   3.017   8.100  1.6003  0.2912  2.0706
 9397SOL    HW239654   3.901   3.090   7.973  0.6422  2.7682  2.6038
 9398SOL     OW39655   0.286   3.713   4.243  0.0961  0.1954  0.4374
 9398SOL    HW139656   0.228   3.656   4.193 -0.3754  2.1615 -1.2401
 9398SOL    HW239657   0.364   3.696   4.190  0.3629 -0.9586  1.1906
 9399SOL     OW39658   3.053   4.165   3.666  0.2453 -0.2627  0.3561
 9399SOL    HW139659   3.000   4.212   3.730 -0.6166 -0.4367 -0.2346
 9399SOL    HW239660   2.983   4.144   3.604 -0.8639  1.2421  1.1066
 9400SOL     OW39661   4.495   4.454   3.221  0.2676 -0.2497 -0.3568
 9400SOL    HW139662   4.420   4.498   3.180 -1.0985 -1.3609  0.9690
 9400SOL    HW239663   4.518   4.517   3.289  0.0349 -0.7498  0.1902
 9401SOL     OW39664   0.551   3.494   1.625  0.4202  0.0890  0.3300
 9401SOL    HW139665   0.555   3.475   1.719 -1.3486  2.2139  0.8355
 9401SOL    HW239666   0.640   3.470   1.601  0.2350  0.8474 -1.1328
 9402SOL     OW39667   0.886   2.406   3.204 -0.0643 -0.2793 -0.2768
 9402SOL    HW139668   0.946   2.366   3.267 -2.7424  0.8587  2.9881
 9402SOL    HW239669   0.836   2.472   3.250  0.4792  1.3146 -1.9727
 9403SOL     OW39670   1.980   0.264   6.009  0.0454 -0.2276  0.4583
 9403SOL    HW139671   1.969   0.298   5.920 -0.1170  0.8333  0.8934
 9403SOL    HW239672   1.906   0.203   6.021 -0.9981  1.0106  0.3288
 9404SOL     OW39673   1.755   3.222  11.092 -0.0178 -0.5537  0.4103
 9404SOL    HW139674   1.790   3.243  11.179  2.4553  1.1009 -0.9955
 9404SOL    HW239675   1.717   3.134  11.099 -0.3451 -0.3638  1.0257
 9405SOL     OW39676   1.444   0.978   9.636  0.2887 -0.1990  0.0642
 9405SOL    HW139677   1.404   1.035   9.571 -0.0206  1.4009  1.6848
 9405SOL    HW239678   1.366   0.934   9.669  1.4330 -1.4262  1.1775
 9406SOL     OW39679   3.707   1.205   8.642  0.5499  0.5819 -0.2120
 9406SOL    HW139680   3.616   1.215   8.670  0.6034 -2.2344  0.9547
 9406SOL    HW239681   3.736   1.285   8.598  1.8240  0.4764  0.4227
 9407SOL     OW39682   4.301   3.569   5.406  0.0658 -0.2685 -0.2021
 9407SOL    HW139683   4.244   3.519   5.464 -0.2430 -0.1314 -0.3888
 9407SOL    HW239684   4.386   3.559   5.450 -0.9142  0.2570  1.7954
 9408SOL     OW39685   2.433   3.969  14.487 -0.2176 -0.0553 -0.0389
 9408SOL    HW139686   2.519   3.942  14.455 -0.5111 -0.6625 -0.3249
 9408SOL    HW239687   2.385   3.970  14.404 -0.3200 -3.6391 -0.0352
 9409SOL     OW39688   2.559   2.778   9.140  0.0288 -0.2182 -0.5904
 9409SOL    HW139689   2.641   2.741   9.171  0.9263 -0.1079 -2.7837
 9409SOL    HW239690   2.589   2.815   9.056 -1.3458  0.5166 -0.7607
 9410SOL     OW39691   1.863   3.376  10.233 -0.2808  0.1268  0.4714
 9410SOL    HW139692   1.783   3.325  10.242 -1.3274  1.7142  0.1943
 9410SOL    HW239693   1.843   3.431  10.157 -2.4008  0.0219  0.9609
 9411SOL     OW39694   3.407   3.166  10.959  0.1527 -0.2708 -0.9235
 9411SOL    HW139695   3.497   3.188  10.982 -0.4565 -1.5673  2.7324
 9411SOL    HW239696   3.400   3.092  11.019 -0.3240 -0.3253 -1.0453
 9412SOL     OW39697   2.918   1.035  13.610 -0.4292  0.4977 -0.6588
 9412SOL    HW139698   3.008   1.065  13.623  0.3614 -2.5548  0.7819
 9412SOL    HW239699   2.925   0.979  13.534 -0.1331  0.7127 -0.7884
 9413SOL     OW39700   4.510   0.853   0.456 -0.2217 -0.4068 -0.2311
 9413SOL    HW139701   4.443   0.802   0.502  0.2375 -0.1017  0.7798
 9413SOL    HW239702   4.548   0.904   0.527 -0.8825 -0.3179  0.0620
 9414SOL     OW39703   4.593   4.185   4.425 -0.6190 -0.2046  0.1752
 9414SOL    HW139704   4.581   4.106   4.371  0.9582 -0.2995 -0.0378
 9414SOL    HW239705   4.588   4.254   4.359 -1.7529 -2.5127 -2.1917
 9415SOL     OW39706   0.752   3.465   8.234  0.1699 -0.0546  0.7563
 9415SOL    HW139707   0.774   3.558   8.225  1.9983 -0.8712 -3.1408
 9415SOL    HW239708   0.662   3.468   8.202  0.7268 -0.9895 -0.8552
 9416SOL     OW39709   0.427   4.113   3.860 -0.3864  0.5294 -0.2325
 9416SOL    HW139710   0.518   4.119   3.831 -0.0217  1.7929  1.1681
 9416SOL    HW239711   0.400   4.195   3.902 -1.4112 -0.2829  0.7192
 9417SOL     OW39712   2.684   2.284   2.982  0.0044  0.2786  0.4464
 9417SOL    HW139713   2.618   2.353   2.971  1.2360  1.2364 -1.0081
 9417SOL    HW239714   2.744   2.304   2.910 -1.7245  3.2265 -0.2032
 9418SOL     OW39715   2.684   1.074   0.029  0.1798  0.0104  0.2561
 9418SOL    HW139716   2.620   1.020   0.075  1.8832 -1.3839  0.9945
 9418SOL    HW239717   2.736   1.080   0.109 -1.8487 -0.5707  1.6360
 9419SOL     OW39718   1.071   0.457   4.815 -0.5239  0.9531 -0.7274
 9419SOL    HW139719   1.098   0.451   4.723  2.3179 -2.0029  0.3056
 9419SOL    HW239720   1.108   0.543   4.833  1.7461 -0.6078  1.8724
 9420SOL     OW39721   2.215   1.529  10.116 -0.6265 -0.7651 -0.8160
 9420SOL    HW139722   2.280   1.584  10.072 -0.1992 -0.5307  0.0970
 9420SOL    HW239723   2.130   1.549  10.075 -0.5990 -3.4519 -2.1257
 9421SOL     OW39724   4.580   2.632   1.811 -0.1654  0.0989 -0.6374
 9421SOL    HW139725   4.580   2.597   1.722 -0.4486  0.7757 -0.9081
 9421SOL    HW239726   4.672   2.620   1.833 -0.7806 -2.3599  0.5701
 9422SOL     OW39727   0.248   3.064  12.049  0.2602  0.4692 -0.3592
 9422SOL    HW139728   0.340   3.061  12.073  0.1243 -0.4098  0.0453
 9422SOL    HW239729   0.203   3.045  12.132 -0.8199  0.3249 -0.9777
 9423SOL     OW39730   3.945   3.716   5.716  0.0031 -0.4357 -0.2453
 9423SOL    HW139731   3.972   3.801   5.752 -3.9663  0.8492 -0.3530
 9423SOL    HW239732   3.948   3.669   5.800 -2.2631  1.1388  0.7137
 9424SOL     OW39733   1.097   2.235   7.566  0.2040 -0.2935 -0.3197
 9424SOL    HW139734   1.079   2.179   7.491 -1.4319  0.7484 -0.6955
 9424SOL    HW239735   1.168   2.294   7.541  0.5108 -0.7877 -0.5994
 9425SOL     OW39736   1.869   2.214  11.329  0.3774  0.5744 -0.4327
 9425SOL    HW139737   1.848   2.268  11.253 -0.4778  0.9778  0.0998
 9425SOL    HW239738   1.949   2.168  11.303  0.3378 -0.7971  1.9563
 9426SOL     OW39739   2.146   0.088   9.826 -0.0523 -0.0710  0.4665
 9426SOL    HW139740   2.080   0.147   9.790 -0.8618 -0.8195  0.7273
 9426SOL    HW239741   2.107   0.004   9.800 -0.4652  0.0447  0.7188
 9427SOL     OW39742   0.217   2.945   8.949  0.2111 -0.2540 -0.1958
 9427SOL    HW139743   0.247   2.855   8.936 -2.3169 -1.3001  1.2246
 9427SOL    HW239744   0.191   2.925   9.039 -0.6739 -0.0435 -0.4084
 9428SOL     OW39745   2.249   1.606   4.753 -0.3877  0.1722 -0.5850
 9428SOL    HW139746   2.182   1.590   4.820  0.0768  1.4263  0.1795
 9428SOL    HW239747   2.319   1.641   4.808 -1.4736  0.5422  0.5762
 9429SOL     OW39748   4.240   3.064  17.503  0.1051 -0.2952  0.0180
 9429SOL    HW139749   4.285   3.070  17.419 -1.6666 -2.0393 -1.0600
 9429SOL    HW239750   4.300   3.107  17.564  0.3978 -1.2618  0.4098
 9430SOL     OW39751   0.436   0.573   2.307  0.0561  0.0748 -0.5575
 9430SOL    HW139752   0.521   0.535   2.283 -0.2567  0.9018 -3.0229
 9430SOL    HW239753   0.396   0.500   2.354  0.1073 -0.8444 -1.9221
 9431SOL     OW39754   0.800   2.021   5.266  0.3404  0.2575 -0.7082
 9431SOL    HW139755   0.740   1.999   5.337  0.7296  2.3508  0.2753
 9431SOL    HW239756   0.869   2.068   5.313 -0.6507 -0.3080  1.3229
 9432SOL     OW39757   2.836   0.578   9.080  0.1205 -0.0471 -0.3771
 9432SOL    HW139758   2.792   0.535   9.153  2.5970 -0.8699  0.6426
 9432SOL    HW239759   2.819   0.670   9.101 -0.4182  0.1321 -1.6418
 9433SOL     OW39760   4.597   0.751   7.128  0.7039  0.5033  0.3655
 9433SOL    HW139761   4.666   0.700   7.086 -1.6300 -1.4072 -1.1548
 9433SOL    HW239762   4.581   0.706   7.211 -4.5489  1.2158 -0.2538
 9434SOL     OW39763   2.578   1.369  11.934  0.4540 -0.1583 -0.1204
 9434SOL    HW139764   2.663   1.403  11.960 -1.0450  2.5861  1.3177
 9434SOL    HW239765   2.575   1.394  11.842  2.8283  0.6404  0.0358
 9435SOL     OW39766   4.017   1.569  16.003  0.0429 -0.4922 -0.1015
 9435SOL    HW139767   4.095   1.618  16.030 -0.2741  0.3687 -0.7258
 9435SOL    HW239768   3.970   1.633  15.949  0.0021 -0.6361 -0.2338
 9436SOL     OW39769   1.903   3.104   5.846  0.4229 -0.8297 -0.1551
 9436SOL    HW139770   1.900   3.193   5.811 -0.0469 -0.4506  0.8185
 9436SOL    HW239771   1.984   3.081   5.802  0.6744 -1.5317  0.6766
 9437SOL     OW39772   4.585   2.536   8.570 -0.0620  0.3159  0.4348
 9437SOL    HW139773   4.524   2.570   8.636 -1.1321 -1.1366  0.1967
 9437SOL    HW239774   4.540   2.460   8.532 -0.6709  0.8656  0.0576
 9438SOL     OW39775   2.166   2.620   9.310  0.2144 -1.1300  0.3751
 9438SOL    HW139776   2.235   2.570   9.266  1.8049  0.3672  1.1514
 9438SOL    HW239777   2.182   2.710   9.278  0.8367 -1.6770 -0.8855
 9439SOL     OW39778   3.694   0.976  11.142  0.1566 -0.1099  0.0559
 9439SOL    HW139779   3.746   0.896  11.147  1.7005  0.8051 -1.2956
 9439SOL    HW239780   3.756   1.044  11.115 -1.8998  1.2038 -1.4192
 9440SOL     OW39781   1.471   4.517   2.947  0.5764  0.3674 -0.7716
 9440SOL    HW139782   1.557   4.556   2.962  1.2206 -0.7853 -1.4702
 9440SOL    HW239783   1.424   4.599   2.934  0.2648  0.8431  3.3742
 9441SOL     OW39784   3.193   3.005   0.947  0.3420  0.3341  0.1508
 9441SOL    HW139785   3.211   2.964   0.862 -0.5886  0.8678 -0.3033
 9441SOL    HW239786   3.146   3.083   0.916 -0.1819 -0.6434 -1.5281
 9442SOL     OW39787   3.433   4.490   1.631  0.0445  0.6321  0.0491
 9442SOL    HW139788   3.348   4.486   1.676 -0.0513 -2.0594 -0.4179
 9442SOL    HW239789   3.489   4.512   1.706 -1.2816 -0.1606  1.2864
 9443SOL     OW39790   1.673   2.784   0.820 -0.0700  0.2655  0.2182
 9443SOL    HW139791   1.647   2.780   0.728  1.5681  2.2684 -0.3286
 9443SOL    HW239792   1.596   2.823   0.860 -0.7196  0.8124 -1.5809
 9444SOL     OW39793   0.734   3.842  16.488  0.1849  0.0246 -0.3892
 9444SOL    HW139794   0.707   3.774  16.425  2.5939 -0.3993 -0.9528
 9444SOL    HW239795   0.698   3.808  16.570 -0.6016 -0.6710 -1.0180
 9445SOL     OW39796   1.575   3.123   3.372  0.3808 -0.4301 -0.2162
 9445SOL    HW139797   1.489   3.166   3.380  1.8315  2.3331  0.5420
 9445SOL    HW239798   1.576   3.098   3.280 -2.0103  0.7141 -0.5518
 9446SOL     OW39799   3.140   0.830  16.376  0.2996  0.0353  0.0387
 9446SOL    HW139800   3.212   0.824  16.439  2.5048  0.0751 -2.5248
 9446SOL    HW239801   3.160   0.751  16.326 -0.7120 -0.6883  0.7823
 9447SOL     OW39802   4.593   0.052   0.973 -0.4947 -0.2730 -0.0556
 9447SOL    HW139803   4.606   4.683   0.961 -0.2969 -0.3356  0.6173
 9447SOL    HW239804   4.528   0.046   1.043  1.0124  2.4860  1.5785
 9448SOL     OW39805   0.355   3.767   4.951  0.4240  0.3560  0.2586
 9448SOL    HW139806   0.280   3.826   4.957  0.0832 -0.0158 -0.3351
 9448SOL    HW239807   0.425   3.817   4.909 -1.0213  0.5835 -1.8738
 9449SOL     OW39808   3.904   3.180   4.690 -0.3932 -0.3353 -0.4148
 9449SOL    HW139809   3.941   3.148   4.772 -2.2401 -0.1763  0.4759
 9449SOL    HW239810   3.869   3.104   4.644  1.9625  0.6581 -3.8455
 9450SOL     OW39811   3.640   4.207  14.689  0.0395  0.1795 -0.4076
 9450SOL    HW139812   3.675   4.122  14.665 -0.3378 -0.7378  2.2982
 9450SOL    HW239813   3.718   4.245  14.728  0.1901 -1.7950  1.1883
 9451SOL     OW39814   2.009   4.040   7.451 -0.5902  0.1647  0.7318
 9451SOL    HW139815   2.092   4.053   7.405 -1.4080  2.6938 -0.0026
 9451SOL    HW239816   2.022   4.093   7.530  1.4396  2.1530 -0.9356
 9452SOL     OW39817   1.482   4.536   7.484 -0.1538  0.0666  0.1339
 9452SOL    HW139818   1.426   4.459   7.476 -0.5899  0.7555 -3.1621
 9452SOL    HW239819   1.418   4.603   7.459  0.6223  1.4591  1.7951
 9453SOL     OW39820   1.235   1.184   0.336 -1.0354 -0.0243 -0.2830
 9453SOL    HW139821   1.182   1.128   0.392 -0.8909  0.2377  0.1151
 9453SOL    HW239822   1.306   1.228   0.383  0.3120 -1.9830 -0.4573
 9454SOL     OW39823   3.335   1.944   3.455  0.0809 -0.2356  0.0122
 9454SOL    HW139824   3.389   1.867   3.437  0.3448 -0.0519  0.0117
 9454SOL    HW239825   3.383   2.015   3.413 -1.3278  0.4599 -0.4104
 9455SOL     OW39826   1.214   1.650  10.343 -0.1916  0.3884 -0.1376
 9455SOL    HW139827   1.195   1.657  10.437 -3.2709  3.0709 -0.9617
 9455SOL    HW239828   1.309   1.644  10.354 -0.3358  1.0691  1.5085
 9456SOL     OW39829   3.090   4.014   6.231 -0.6203 -0.0420 -0.9784
 9456SOL    HW139830   3.153   3.961   6.182  1.5257  0.1044  1.6393
 9456SOL    HW239831   3.028   4.052   6.169 -0.8033 -0.8117 -1.2680
 9457SOL     OW39832   3.730   1.441   1.395  0.5088 -0.1338 -0.9467
 9457SOL    HW139833   3.673   1.370   1.366  2.3144 -1.0279 -2.2959
 9457SOL    HW239834   3.718   1.498   1.320 -1.8099 -0.1206 -0.5759
 9458SOL     OW39835   4.415   0.048   4.121  0.8455  0.1666  0.1906
 9458SOL    HW139836   4.497   0.074   4.162  0.5490 -0.7990  1.4247
 9458SOL    HW239837   4.413   4.684   4.157 -1.1994  0.2588  0.2993
 9459SOL     OW39838   2.278   2.668   6.349  0.3006  0.8644  0.0942
 9459SOL    HW139839   2.346   2.637   6.290 -0.1669  2.6038 -1.3791
 9459SOL    HW239840   2.328   2.732   6.400 -2.5158  0.8316  2.9101
 9460SOL     OW39841   3.250   0.115  13.899 -0.4339  1.2787 -0.4452
 9460SOL    HW139842   3.226   0.107  13.991  1.4040 -1.7386 -0.2280
 9460SOL    HW239843   3.251   0.022  13.877 -0.0273  1.0846  0.3784
 9461SOL     OW39844   3.221   0.766   9.082  0.2913 -0.5463 -0.1854
 9461SOL    HW139845   3.202   0.716   9.161  2.0838 -0.9573 -0.0086
 9461SOL    HW239846   3.310   0.786   9.112 -0.7081 -1.1340  3.1250
 9462SOL     OW39847   2.587   0.089  13.748 -0.2669  0.0561 -0.1062
 9462SOL    HW139848   2.644   0.015  13.725 -0.7258 -1.2023  2.7515
 9462SOL    HW239849   2.556   0.119  13.662 -1.7936  1.5469  0.9801
 9463SOL     OW39850   0.377   2.712  11.642 -0.4899 -0.6983 -0.0412
 9463SOL    HW139851   0.309   2.647  11.629 -2.1109  1.1411 -0.7382
 9463SOL    HW239852   0.414   2.675  11.722  0.4654 -2.2869 -1.2158
 9464SOL     OW39853   0.747   1.042   4.161 -0.0849 -0.0896 -0.5906
 9464SOL    HW139854   0.667   1.083   4.194 -0.4956 -0.2093 -1.4305
 9464SOL    HW239855   0.792   1.123   4.136  2.5811 -0.9444  1.5849
 9465SOL     OW39856   0.974   3.544  16.753  0.8285  0.2986 -0.2498
 9465SOL    HW139857   1.042   3.530  16.819  0.1730  1.2240  0.6283
 9465SOL    HW239858   0.894   3.516  16.797  0.0856 -2.4615 -3.3511
 9466SOL     OW39859   0.101   2.149   0.416 -0.0904 -0.2554  0.6676
 9466SOL    HW139860   0.165   2.106   0.360  0.4417  0.0094  1.0628
 9466SOL    HW239861   0.147   2.231   0.436  0.8252 -0.3337 -1.1342
 9467SOL     OW39862   0.291   4.230   3.201  0.2412  0.2752  0.3051
 9467SOL    HW139863   0.290   4.305   3.142 -2.0406  0.8692  1.0783
 9467SOL    HW239864   0.228   4.169   3.162  0.8692 -1.7163  2.4288
 9468SOL     OW39865   0.841   0.138  11.350 -0.3659 -0.3035  0.3818
 9468SOL    HW139866   0.771   0.082  11.317 -0.9255 -0.1586  1.3257
 9468SOL    HW239867   0.911   0.109  11.292 -0.9638  1.0007 -0.9920
 9469SOL     OW39868   2.842   3.707  12.523  0.5696 -0.4753 -0.0578
 9469SOL    HW139869   2.934   3.726  12.539  0.4631 -0.2239  0.2700
 9469SOL    HW239870   2.843   3.620  12.563  0.9845  0.5723  2.2279
 9470SOL     OW39871   2.613   2.155   9.503  0.0289  0.5231  0.1162
 9470SOL    HW139872   2.661   2.211   9.563  2.2158 -1.7068  0.4161
 9470SOL    HW239873   2.535   2.142   9.556 -0.1808  2.2164  0.2261
 9471SOL     OW39874   0.940   1.320  11.698  0.2274 -0.0378  0.0551
 9471SOL    HW139875   0.975   1.334  11.610 -1.4335  0.0757 -0.5865
 9471SOL    HW239876   0.983   1.238  11.723 -0.5413 -0.2686  0.6440
 9472SOL     OW39877   4.639   4.133   8.462 -0.4792 -0.6792  1.2500
 9472SOL    HW139878   4.644   4.038   8.477 -1.0243 -0.5950  1.9826
 9472SOL    HW239879   4.554   4.141   8.418 -0.0761 -1.9688  0.2184
 9473SOL     OW39880   0.913   1.146   7.570 -0.0301 -0.6192 -0.0936
 9473SOL    HW139881   0.932   1.190   7.653 -0.8666  2.6529 -1.6521
 9473SOL    HW239882   0.977   1.189   7.514  1.0455 -1.0479  0.8098
 9474SOL     OW39883   1.178   2.487   0.425  0.2068 -0.5835 -0.1136
 9474SOL    HW139884   1.218   2.535   0.352  0.4191  0.6009  0.7748
 9474SOL    HW239885   1.227   2.405   0.428  0.3454 -0.4689  0.9267
 9475SOL     OW39886   1.925   3.012   9.710  0.1303 -0.3838  0.2064
 9475SOL    HW139887   1.977   3.033   9.632 -0.9512  0.1986 -0.3496
 9475SOL    HW239888   1.854   2.957   9.677  0.1918 -0.4996  0.2672
 9476SOL     OW39889   2.845   3.485   4.921  0.1099  0.0838 -0.2794
 9476SOL    HW139890   2.928   3.438   4.924 -0.0549 -0.1750  0.1909
 9476SOL    HW239891   2.874   3.575   4.933  0.2057  0.0858 -0.5210
 9477SOL     OW39892   0.097   4.145  14.748  0.0879  0.0792  0.2441
 9477SOL    HW139893   0.172   4.086  14.741  0.6570  1.0462 -1.6620
 9477SOL    HW239894   0.112   4.198  14.669 -0.6017  1.7902  1.2677
 9478SOL     OW39895   0.253   2.942  12.289  0.2249 -0.4702 -0.0115
 9478SOL    HW139896   0.320   2.873  12.287  0.2603 -0.4200 -0.4604
 9478SOL    HW239897   0.201   2.894  12.354  0.4176 -0.8446 -0.1350
 9479SOL     OW39898   3.157   3.608  14.342 -0.1960  0.1034  0.8059
 9479SOL    HW139899   3.078   3.613  14.395 -1.3188 -0.4239 -0.8367
 9479SOL    HW239900   3.200   3.557  14.410  1.9224 -0.5084 -0.9787
 9480SOL     OW39901   2.047   4.577   0.489  0.5927 -0.2659 -0.1781
 9480SOL    HW139902   2.041   4.647   0.553  0.5553  1.2852 -1.8696
 9480SOL    HW239903   1.996   4.607   0.414  1.1065  0.3328 -0.2817
 9481SOL     OW39904   3.171   0.727   8.835  0.0722  0.0795  0.2074
 9481SOL    HW139905   3.184   0.745   8.928  2.3405 -1.4229  0.1759
 9481SOL    HW239906   3.243   0.782   8.804 -0.4602  0.4975 -0.2878
 9482SOL     OW39907   1.137   4.498  13.264  1.0397  0.6180  0.2776
 9482SOL    HW139908   1.175   4.548  13.192  1.5709  0.9997  0.8263
 9482SOL    HW239909   1.208   4.443  13.296  0.6680  0.2221  0.4101
 9483SOL     OW39910   2.566   2.063   5.679  0.7106 -0.0082 -0.8259
 9483SOL    HW139911   2.577   2.095   5.769 -1.5919 -2.3332  0.2887
 9483SOL    HW239912   2.492   2.007   5.702  0.6068  0.0058 -1.1360
 9484SOL     OW39913   0.642   2.579   1.858 -0.3937  0.0606  0.2028
 9484SOL    HW139914   0.649   2.675   1.850  1.8219 -0.0697  0.4819
 9484SOL    HW239915   0.672   2.561   1.948  0.4999  2.4452  0.3949
 9485SOL     OW39916   4.179   3.822   5.574  0.7917 -0.0922  0.2495
 9485SOL    HW139917   4.243   3.780   5.631 -0.6491  1.0589  2.7062
 9485SOL    HW239918   4.099   3.773   5.587  0.6733  0.1560  0.4507
 9486SOL     OW39919   0.876   0.008   4.791 -0.4373  0.2294  0.1188
 9486SOL    HW139920   0.969   0.026   4.803 -0.6735  0.9243  0.9136
 9486SOL    HW239921   0.859   0.075   4.725  0.3631  0.7122  0.4044
 9487SOL     OW39922   0.166   0.376   8.362 -0.2347  0.1861  0.5502
 9487SOL    HW139923   0.088   0.361   8.309  1.0590 -2.4515 -0.6353
 9487SOL    HW239924   0.131   0.380   8.451  0.7283 -0.0335  0.9412
 9488SOL     OW39925   2.788   1.518  13.173  1.0116  0.3053 -0.3661
 9488SOL    HW139926   2.877   1.553  13.183  2.0961 -1.6597 -3.1554
 9488SOL    HW239927   2.748   1.548  13.255  1.1178 -0.6938  0.0443
 9489SOL     OW39928   0.485   3.701   6.165 -0.5181 -0.7553 -0.1833
 9489SOL    HW139929   0.524   3.624   6.123  1.1309 -0.0611  0.1008
 9489SOL    HW239930   0.560   3.734   6.215  0.3136 -1.3849 -1.0117
 9490SOL     OW39931   2.123   3.829   4.729  0.1127  0.0102  0.9646
 9490SOL    HW139932   2.080   3.768   4.790  1.4839 -0.2028  1.7340
 9490SOL    HW239933   2.168   3.885   4.792 -1.2468  0.9949  1.0453
 9491SOL     OW39934   4.089   2.596   6.623 -0.0952  0.3602 -0.1399
 9491SOL    HW139935   4.182   2.585   6.642  0.2680  0.9201 -1.6214
 9491SOL    HW239936   4.104   2.626   6.534  0.1385  1.7728  0.3611
 9492SOL     OW39937   4.137   0.892  10.078  0.2061  0.1690 -0.1268
 9492SOL    HW139938   4.109   0.900   9.987 -0.1753 -1.8853 -0.2026
 9492SOL    HW239939   4.224   0.853  10.066  0.5386  1.4968 -2.0391
 9493SOL     OW39940   1.800   3.528  10.542  0.0932  0.0848  0.0051
 9493SOL    HW139941   1.890   3.503  10.522 -0.2121  1.1355 -2.5814
 9493SOL    HW239942   1.754   3.445  10.525  0.1232  0.3436 -1.3363
 9494SOL     OW39943   0.869   1.763   4.647 -0.4953 -0.2804 -0.4303
 9494SOL    HW139944   0.925   1.784   4.572 -0.8547 -2.0477 -1.1960
 9494SOL    HW239945   0.905   1.828   4.707  1.6866 -1.8157 -0.0799
 9495SOL     OW39946   3.444   3.579   5.162 -0.2716  0.0624 -0.4798
 9495SOL    HW139947   3.531   3.614   5.182 -0.0789 -2.3928  3.0505
 9495SOL    HW239948   3.427   3.546   5.251  1.3824 -0.1146 -0.2187
 9496SOL     OW39949   1.545   4.432   2.345  0.2033  0.4169  0.5810
 9496SOL    HW139950   1.608   4.363   2.324 -0.3802  0.3153 -0.8691
 9496SOL    HW239951   1.465   4.383   2.361  0.4415  0.1042  0.8114
 9497SOL     OW39952   1.019   2.116   8.679 -0.4297 -0.2088 -0.3162
 9497SOL    HW139953   1.060   2.030   8.690  0.4742  0.1630 -0.7626
 9497SOL    HW239954   1.086   2.166   8.633 -0.7204  0.7916  0.3471
 9498SOL     OW39955   4.388   3.281  11.852  0.2342  0.2785  0.0641
 9498SOL    HW139956   4.294   3.298  11.866  0.6305  2.7731 -0.2240
 9498SOL    HW239957   4.425   3.296  11.939  0.5125 -1.3346  0.2152
 9499SOL     OW39958   2.757   0.419   4.897 -0.0968  0.1702  0.3442
 9499SOL    HW139959   2.795   0.504   4.919  0.2607  0.5929 -1.9137
 9499SOL    HW239960   2.731   0.448   4.809  2.1563  3.3129  0.6898
 9500SOL     OW39961   1.276   0.448  15.141  0.7060  0.8478  0.1103
 9500SOL    HW139962   1.197   0.410  15.179  1.1984 -1.0203 -0.7228
 9500SOL    HW239963   1.328   0.368  15.130 -0.1956  0.3015 -0.1595
 9501SOL     OW39964   3.075   1.617  13.278  1.0303 -0.0695 -0.1520
 9501SOL    HW139965   3.144   1.623  13.345  0.6410  2.6651  0.0205
 9501SOL    HW239966   3.103   1.681  13.212 -1.6336  0.4829 -0.7401
 9502SOL     OW39967   1.074   1.114   8.771  0.1344  0.2565  0.3349
 9502SOL    HW139968   0.986   1.123   8.735  1.6377  2.0782 -2.8666
 9502SOL    HW239969   1.109   1.196   8.736 -1.2354 -0.0055 -1.6558
 9503SOL     OW39970   2.874   0.460   9.570 -0.6053 -0.1643 -0.1629
 9503SOL    HW139971   2.951   0.430   9.522 -0.4261 -1.9219  1.2411
 9503SOL    HW239972   2.816   0.384   9.563 -2.8332  1.1958  3.4495
 9504SOL     OW39973   1.494   1.459   4.587 -0.3894 -0.2578  0.6286
 9504SOL    HW139974   1.556   1.416   4.529  0.8555 -0.6204  2.2280
 9504SOL    HW239975   1.523   1.550   4.594  0.6071 -0.6575  1.7096
 9505SOL     OW39976   3.373   2.087   9.030  0.7784 -0.3460  0.8092
 9505SOL    HW139977   3.293   2.111   8.984  0.6754 -1.2505  0.5165
 9505SOL    HW239978   3.438   2.099   8.961  0.4669  0.7407  0.7039
 9506SOL     OW39979   0.664   3.283   4.436  0.7379 -0.0546  0.5781
 9506SOL    HW139980   0.594   3.348   4.430 -0.4699 -1.2861  1.1255
 9506SOL    HW239981   0.676   3.253   4.346 -0.5380  0.4573  0.2367
 9507SOL     OW39982   0.838   0.291  17.093  0.0490  0.2016 -0.0965
 9507SOL    HW139983   0.927   0.293  17.130  0.4936  1.3658 -1.2386
 9507SOL    HW239984   0.847   0.215  17.035 -1.7060 -0.8898  1.0513
 9508SOL     OW39985   4.286   1.944   4.904  0.2697  0.2010  0.4414
 9508SOL    HW139986   4.265   1.986   4.988 -1.2277  0.0305  0.1598
 9508SOL    HW239987   4.201   1.951   4.862 -0.1336 -1.5912  0.9497
 9509SOL     OW39988   4.268   0.382  10.775  0.0290  0.2490 -0.4174
 9509SOL    HW139989   4.290   0.474  10.789 -1.5658  0.6620 -0.6590
 9509SOL    HW239990   4.209   0.361  10.848  0.7588 -0.2687  0.0237
 9510SOL     OW39991   0.587   0.080   1.964 -0.5694  0.7175 -0.2348
 9510SOL    HW139992   0.571   0.174   1.949  3.7206  1.4466 -0.2932
 9510SOL    HW239993   0.578   0.049   1.874 -2.2345 -0.4044  0.3351
 9511SOL     OW39994   4.723   0.174   6.395 -0.0419  0.2910 -0.2200
 9511SOL    HW139995   0.000   0.093   6.345  1.6781 -1.3967  2.6039
 9511SOL    HW239996   4.721   0.142   6.485 -0.6840 -0.0528 -0.3576
 9512SOL     OW39997   1.563   3.083   3.087  0.2675  0.2434 -0.0203
 9512SOL    HW139998   1.655   3.085   3.058 -0.4336 -0.1946 -2.3003
 9512SOL    HW239999   1.513   3.044   3.015 -1.1370  2.4264 -0.2225
 9513SOL     OW40000   0.540   0.828   2.364  0.0936 -0.1760  0.5361
 9513SOL    HW140001   0.468   0.778   2.327  0.3034  0.7272 -1.1121
 9513SOL    HW240002   0.608   0.765   2.386  1.3181 -0.0338 -2.8317
 9514SOL     OW40003   4.366   2.005   0.010 -0.4699 -0.4873  0.3899
 9514SOL    HW140004   4.447   2.050  17.683 -0.4160 -0.6152  0.3381
 9514SOL    HW240005   4.319   2.069   0.064 -1.2658  0.5458 -1.5420
 9515SOL     OW40006   0.653   0.053   7.033  0.3929  0.2876  0.1512
 9515SOL    HW140007   0.726   4.719   7.015  0.3452  0.5791 -1.0045
 9515SOL    HW240008   0.582   0.010   6.985  0.8616 -1.1838  0.7970
 9516SOL     OW40009   4.615   1.121   7.588  0.5071  0.2398 -0.0462
 9516SOL    HW140010   4.673   1.090   7.518  0.0827 -0.0872 -0.2559
 9516SOL    HW240011   4.566   1.041   7.608  1.7089 -0.9151 -1.6552
 9517SOL     OW40012   2.708   3.131   3.675  0.1972  0.1188 -0.2034
 9517SOL    HW140013   2.651   3.127   3.599 -1.2381 -0.6566  0.9200
 9517SOL    HW240014   2.672   3.203   3.727  0.5291 -0.0493  0.2648
 9518SOL     OW40015   3.970   1.523   7.007 -0.1691 -0.7905 -0.0577
 9518SOL    HW140016   4.037   1.548   6.943  0.8851 -0.3082  1.2361
 9518SOL    HW240017   3.934   1.609   7.031 -0.8413 -1.7398  2.3533
 9519SOL     OW40018   4.430   0.131  15.004  0.1521  0.2275  0.3702
 9519SOL    HW140019   4.459   0.144  14.914  0.9959  0.5599  0.6904
 9519SOL    HW240020   4.437   0.037  15.020  2.5680  0.7060  2.0744
 9520SOL     OW40021   0.724   2.495   6.029 -0.0212  0.2267 -0.2990
 9520SOL    HW140022   0.709   2.487   6.123 -0.4392 -2.6248 -0.5878
 9520SOL    HW240023   0.707   2.587   6.012  2.4964  0.4920 -1.4686
 9521SOL     OW40024   3.307   2.736   7.456 -0.4465  0.7109 -0.0021
 9521SOL    HW140025   3.363   2.759   7.530 -0.5322  0.1615  0.2352
 9521SOL    HW240026   3.369   2.724   7.384 -0.2969  1.7558 -0.0457
 9522SOL     OW40027   0.574   0.651  10.365  0.8674 -0.6936  0.1159
 9522SOL    HW140028   0.593   0.561  10.392 -0.1490 -1.0741 -0.4309
 9522SOL    HW240029   0.481   0.653  10.388  0.9808  0.1234  0.5173
 9523SOL     OW40030   2.289   1.059   6.353  0.1207 -0.2746  0.2452
 9523SOL    HW140031   2.253   0.999   6.418 -1.1023 -0.0869 -0.2594
 9523SOL    HW240032   2.220   1.047   6.288  0.6446  1.4847 -0.6336
 9524SOL     OW40033   2.239   2.007  14.699 -0.2752 -0.1721  0.4004
 9524SOL    HW140034   2.244   1.991  14.793 -0.6912  0.6496  0.5668
 9524SOL    HW240035   2.184   1.929  14.689 -0.3967  0.1696 -1.7481
 9525SOL     OW40036   4.695   3.010  11.994 -0.6883  0.1592 -0.1511
 9525SOL    HW140037   0.060   3.038  11.980 -0.9523  1.4715  0.7982
 9525SOL    HW240038   4.672   2.956  11.918  0.2994 -1.6107  0.8156
 9526SOL     OW40039   1.170   1.990   1.187 -0.0152 -0.6624 -0.5201
 9526SOL    HW140040   1.094   2.047   1.205  0.8844 -0.0992  1.4660
 9526SOL    HW240041   1.184   1.956   1.275  0.1702 -0.8975 -0.6420
 9527SOL     OW40042   0.559   2.009  10.596  0.2494  0.1927 -0.5691
 9527SOL    HW140043   0.478   1.988  10.551 -0.2201  0.9234 -0.0510
 9527SOL    HW240044   0.626   1.995  10.529 -0.8353 -1.1113 -1.3813
 9528SOL     OW40045   3.064   3.248  10.787  0.0012 -0.3233  0.1298
 9528SOL    HW140046   2.987   3.282  10.743 -0.8067 -1.7953  0.4108
 9528SOL    HW240047   3.069   3.153  10.774  1.3790 -0.3185  0.6071
 9529SOL     OW40048   1.722   2.791   9.638 -0.5281 -0.4533 -0.2550
 9529SOL    HW140049   1.648   2.800   9.699 -0.2647 -0.6037  0.0854
 9529SOL    HW240050   1.757   2.714   9.683  1.1315  0.6051  0.2587
 9530SOL     OW40051   1.115   0.500   8.641 -0.3137 -0.4336  0.2506
 9530SOL    HW140052   1.150   0.445   8.711  3.1537  2.2311  0.6037
 9530SOL    HW240053   1.114   0.587   8.679 -0.1171 -0.0584 -0.5978
 9531SOL     OW40054   1.909   3.428   8.554 -0.0640  0.2285  0.1531
 9531SOL    HW140055   1.965   3.395   8.483  0.9355  0.0530  1.0174
 9531SOL    HW240056   1.907   3.350   8.609 -1.5791  0.0879 -0.1167
 9532SOL     OW40057   3.120   0.606  17.488 -0.5044 -0.3463 -0.4366
 9532SOL    HW140058   3.140   0.693  17.523  0.7487 -0.5689 -0.6130
 9532SOL    HW240059   3.211   0.582  17.475 -0.4174 -1.0396  1.4179
 9533SOL     OW40060   0.962   3.489  15.859 -0.2679 -0.4112  0.1582
 9533SOL    HW140061   0.904   3.446  15.796 -0.8962  0.9049 -0.1660
 9533SOL    HW240062   0.901   3.535  15.917  1.6346  0.8023  1.2359
 9534SOL     OW40063   4.624   2.645   9.170  0.0528  0.4075 -0.1901
 9534SOL    HW140064   4.539   2.678   9.200 -0.4362 -3.8867  3.1288
 9534SOL    HW240065   4.601   2.569   9.116  1.4553  0.1617 -0.4379
 9535SOL     OW40066   4.434   0.641   8.510 -0.6445  0.3791  0.8147
 9535SOL    HW140067   4.473   0.594   8.583  4.3386  0.7209 -1.6385
 9535SOL    HW240068   4.347   0.601   8.509  0.0608 -1.0727 -1.2827
 9536SOL     OW40069   4.419   1.709   5.014 -0.5116 -0.0476 -0.2989
 9536SOL    HW140070   4.488   1.681   4.954  0.9654 -0.5987  1.6613
 9536SOL    HW240071   4.423   1.804   5.008  2.3552 -0.2803 -2.1793
 9537SOL     OW40072   1.764   1.786   2.477  0.6062  0.3949  0.0331
 9537SOL    HW140073   1.798   1.841   2.407  0.9454 -1.1160 -0.9935
 9537SOL    HW240074   1.780   1.699   2.441 -0.7285 -0.2581  0.9904
 9538SOL     OW40075   1.033   2.173   7.098  0.5803  0.8272 -0.2445
 9538SOL    HW140076   1.085   2.249   7.071 -0.8589  2.5207  1.7339
 9538SOL    HW240077   0.950   2.209   7.131  0.6323 -0.1699  0.9654
 9539SOL     OW40078   2.103   2.459  14.354 -0.0683 -0.0551  0.0305
 9539SOL    HW140079   2.010   2.446  14.332 -0.4441  1.2860  0.8033
 9539SOL    HW240080   2.119   2.531  14.292  0.1737 -0.2222 -0.0987
 9540SOL     OW40081   0.767   2.778   6.307 -0.2544  0.1756 -0.4137
 9540SOL    HW140082   0.723   2.732   6.378  0.9702 -0.9554 -0.3704
 9540SOL    HW240083   0.801   2.850   6.360  0.4281 -1.4425  1.3532
 9541SOL     OW40084   3.673   2.819   5.545  0.5163 -0.2890 -0.0186
 9541SOL    HW140085   3.623   2.831   5.626  0.8683 -1.6715  0.3971
 9541SOL    HW240086   3.763   2.805   5.572  0.8621 -1.0643 -1.5618
 9542SOL     OW40087   1.081   0.472   5.360  0.1825 -0.9041  0.4056
 9542SOL    HW140088   1.063   0.477   5.267  1.6461  1.1456  0.2213
 9542SOL    HW240089   1.031   0.543   5.401  1.0624  0.5524 -1.0465
 9543SOL     OW40090   1.926   0.238   9.737 -0.1374 -0.1886 -0.3124
 9543SOL    HW140091   1.972   0.318   9.712  0.0494  0.2761  1.4848
 9543SOL    HW240092   1.908   0.206   9.649  0.0710  2.0801 -1.1860
 9544SOL     OW40093   2.782   3.085   1.689  0.6793 -0.0665 -0.3653
 9544SOL    HW140094   2.712   3.136   1.729  0.3536  0.0148 -1.0287
 9544SOL    HW240095   2.734   3.011   1.652  0.7800 -1.5501  2.5256
 9545SOL     OW40096   0.038   0.987   3.129 -0.0351  0.1616  0.4945
 9545SOL    HW140097   0.085   0.937   3.062  1.1892  3.3851 -1.0516
 9545SOL    HW240098   0.110   1.041   3.161 -0.0489 -0.1459  1.0396
 9546SOL     OW40099   2.409   4.260  10.795 -0.4052  0.4756  0.1856
 9546SOL    HW140100   2.493   4.302  10.780 -0.9642  0.7318 -2.1269
 9546SOL    HW240101   2.375   4.258  10.706  0.5868  1.8851 -0.2132
 9547SOL     OW40102   3.459   4.700  17.147  0.2751 -0.4837  0.2786
 9547SOL    HW140103   3.409   0.024  17.213  3.0212  3.4827 -0.5710
 9547SOL    HW240104   3.421   0.019  17.071 -1.3771  0.0276  1.3785
 9548SOL     OW40105   3.527   3.610   5.565 -0.5888  0.3750  0.0158
 9548SOL    HW140106   3.451   3.555   5.548 -1.5422  1.6781  0.0298
 9548SOL    HW240107   3.508   3.631   5.656 -2.6858  0.4091 -0.4281
 9549SOL     OW40108   1.430   3.246   9.462  0.2672  0.0354 -0.6466
 9549SOL    HW140109   1.399   3.158   9.441 -2.8980  1.7596 -3.1687
 9549SOL    HW240110   1.395   3.243   9.551  2.1997  1.1547  0.1769
 9550SOL     OW40111   3.972   4.161   8.990 -0.1535 -0.5287  0.2894
 9550SOL    HW140112   3.964   4.090   9.053  0.3011 -0.6125  0.2520
 9550SOL    HW240113   4.056   4.200   9.015  0.1463 -2.2294  1.9400
 9551SOL     OW40114   3.377   0.300  11.233  0.2280 -0.6011  0.2323
 9551SOL    HW140115   3.451   0.275  11.178 -0.1489  2.0115 -1.5033
 9551SOL    HW240116   3.322   0.342  11.167  1.3358 -2.0519 -1.5941
 9552SOL     OW40117   0.465   1.463   3.265 -0.1122  0.5145 -0.1747
 9552SOL    HW140118   0.442   1.530   3.201 -0.6985  0.8359  0.3636
 9552SOL    HW240119   0.414   1.393   3.226  0.1334 -0.3722  1.0628
 9553SOL     OW40120   1.133   0.786   4.845 -0.2949 -0.4536  0.0747
 9553SOL    HW140121   1.219   0.827   4.832 -0.0917 -0.7563  0.4687
 9553SOL    HW240122   1.087   0.799   4.762  1.1415  0.6177 -0.5546
 9554SOL     OW40123   1.481   2.624  16.981  0.2751  0.0332  0.2442
 9554SOL    HW140124   1.563   2.662  16.951  1.5848 -1.1685  2.2984
 9554SOL    HW240125   1.459   2.676  17.058 -1.4109 -1.1255  0.5491
 9555SOL     OW40126   4.395   2.785   0.625 -0.5837  0.1484  0.7533
 9555SOL    HW140127   4.369   2.704   0.580 -0.3767  1.0176 -0.9456
 9555SOL    HW240128   4.325   2.844   0.596 -0.9772 -1.4202 -1.5379
 9556SOL     OW40129   3.502   1.648  15.413 -0.8882 -0.3270  0.1402
 9556SOL    HW140130   3.545   1.726  15.447  1.5662 -2.1037  1.1543
 9556SOL    HW240131   3.421   1.689  15.384 -0.4284 -1.0094 -2.0782
 9557SOL     OW40132   3.752   3.644   4.264  0.4307  1.0897  0.0619
 9557SOL    HW140133   3.659   3.648   4.242 -0.3180  0.3937  3.0638
 9557SOL    HW240134   3.792   3.645   4.177 -1.2777 -2.0986 -0.7263
 9558SOL     OW40135   1.597   0.749   9.571  0.3237  0.0827  0.3981
 9558SOL    HW140136   1.540   0.821   9.597 -0.9728 -1.8188  2.7435
 9558SOL    HW240137   1.550   0.673   9.605 -0.5224  0.2497 -0.3992
 9559SOL     OW40138   2.352   1.189  14.647  0.2147 -0.3523 -0.1195
 9559SOL    HW140139   2.423   1.252  14.634 -0.9081  1.2345  1.2833
 9559SOL    HW240140   2.279   1.243  14.677  0.2667 -1.2920  1.6909
 9560SOL     OW40141   3.378   3.948   8.317  0.1433 -0.2105  0.9093
 9560SOL    HW140142   3.374   3.862   8.359  2.5854 -0.9911 -0.4963
 9560SOL    HW240143   3.424   3.991   8.389 -1.2479 -0.2643  1.8315
 9561SOL     OW40144   2.080   4.317  15.763 -0.8543 -0.2120  0.0643
 9561SOL    HW140145   1.991   4.321  15.797 -1.0214 -0.4690 -0.3395
 9561SOL    HW240146   2.050   4.305  15.673  0.4572 -0.6666 -0.3112
 9562SOL     OW40147   2.217   1.735   4.498 -0.2625 -0.0026  0.5425
 9562SOL    HW140148   2.191   1.705   4.585 -3.1160  0.6981 -0.0519
 9562SOL    HW240149   2.178   1.663   4.448  1.1081 -1.4582  1.5880
 9563SOL     OW40150   3.336   1.009   0.894 -0.6176  0.0875  0.0134
 9563SOL    HW140151   3.371   1.071   0.830  0.8988 -1.5938 -0.7684
 9563SOL    HW240152   3.411   0.952   0.910 -0.7750 -0.3382 -0.7837
 9564SOL     OW40153   0.631   2.064   3.058 -0.3332  0.6390 -0.1024
 9564SOL    HW140154   0.698   2.072   2.990 -0.7098 -1.9217 -0.7902
 9564SOL    HW240155   0.574   1.992   3.028 -1.5228  2.0960 -1.3532
 9565SOL     OW40156   3.080   0.362   6.928 -0.2798 -0.0093 -0.1479
 9565SOL    HW140157   3.120   0.445   6.903 -0.8295  0.8475  1.8226
 9565SOL    HW240158   3.072   0.375   7.023 -0.6112 -0.1724 -0.1570
 9566SOL     OW40159   2.425   3.672   2.506 -0.5167 -0.0128  0.0647
 9566SOL    HW140160   2.409   3.737   2.437  2.9962  0.3150 -0.4470
 9566SOL    HW240161   2.512   3.710   2.515  0.1993 -1.6691  0.1393
 9567SOL     OW40162   1.526   1.670   3.921  0.5041  0.2662 -0.2300
 9567SOL    HW140163   1.497   1.758   3.942  0.9605  0.5033 -0.5963
 9567SOL    HW240164   1.509   1.660   3.828  1.6091  0.0185 -0.4097
 9568SOL     OW40165   0.012   3.665   0.038 -0.1089 -0.5499  0.3013
 9568SOL    HW140166   0.039   3.744   0.085 -1.7407  0.2768 -0.1489
 9568SOL    HW240167   4.686   3.710  17.669  0.2248  0.4226  0.6973
   4.72441   4.72441  17.69921
