Membrane in water
40167
    1TCq1    O1    1   0.845   0.805  11.209  0.0354  0.4204  0.5553
    1TCq1    C1    2   0.829   0.901  11.302  0.4085 -0.6630 -0.1682
    1TCq1    O2    3   0.893   0.998  11.325 -0.1557 -0.6846 -0.4917
    1TCq1    C2    4   0.740   0.858  11.402  0.6043 -0.7641  0.6251
    1TCq1    C3    5   0.617   0.815  11.359 -0.0651 -0.1149  0.9866
    1TCq1    C4    6   0.537   0.764  11.451 -0.2905  0.2981  0.0883
    1TCq1    C5    7   0.578   0.743  11.583  0.4657 -0.6472 -0.3425
    1TCq1    C6    8   0.702   0.786  11.623 -0.1947  0.0532  0.0550
    1TCq1    C7    9   0.787   0.853  11.533 -0.2630  0.2503  0.4704
    1TCq1    C8   10   0.754   0.737  11.751  0.1689 -0.2767 -0.2417
    1TCq1    O4   11   0.674   0.675  11.821  0.1653 -0.2843  0.0877
    1TCq1    C9   12   0.416   0.687  11.414  1.0851  0.3533  0.1770
    1TCq1    O5   13   0.397   0.659  11.293  0.2494  0.5797  0.0671
    1TCq1    O6   14   0.371   0.603  11.495 -0.2895  0.4693 -0.5758
    1TCq1    H1   15   0.805   0.719  11.234 -2.3132  1.7518  1.4064
    1TCq1    H2   16   0.592   0.815  11.254  4.4098 -0.8085 -0.1037
    1TCq1    H3   17   0.519   0.677  11.646  0.8767  0.1621  0.8678
    1TCq1    H4   18   0.870   0.912  11.570  0.7430 -1.0393  0.2901
    2MPD2     C   19   1.126   0.505  12.006 -0.4413  0.1772  0.6714
    2MPD2    C1   20   0.987   0.481  12.006  0.3117 -0.3996  0.5431
    2MPD2    C2   21   0.905   0.560  11.929 -0.1606  0.3186  0.1913
    2MPD2    C3   22   0.963   0.656  11.842 -0.3346 -0.2828  0.0172
    2MPD2    C4   23   1.096   0.677  11.843 -0.4187  0.0697  0.1855
    2MPD2    C5   24   1.179   0.607  11.930 -0.4784  0.9372 -0.2277
    2MPD2     H   25   0.800   0.536  11.932 -0.5750  2.0619  0.0471
    2MPD2    H1   26   1.149   0.741  11.774 -2.3179  1.2534 -0.1723
    2MPD2    H2   27   1.197   0.445  12.062 -0.2146 -0.2005 -0.0215
    2MPD2    H3   28   1.284   0.635  11.935 -0.8247  2.3111 -0.8431
    2MPD2     N   29   0.890   0.735  11.753 -0.2328 -0.3562 -0.9252
    2MPD2    H5   30   0.943   0.788  11.685  1.1944 -0.0727  0.3950
    2MPD2    N1   31   0.924   0.386  12.086  0.3210 -0.0572 -0.1312
    2MPD2    H7   32   0.823   0.378  12.080  0.3590  1.0036 -2.1238
    3TCq1    O1   33   4.410   1.295  10.309 -0.1024  0.3605  0.0051
    3TCq1    C1   34   4.539   1.299  10.318  0.7125  0.2305 -0.8882
    3TCq1    O2   35   4.602   1.210  10.373  0.7240  0.5775  0.0613
    3TCq1    C2   36   4.555   1.436  10.356 -0.5655 -0.2535 -0.0826
    3TCq1    C3   37   4.547   1.531  10.258 -0.1551 -0.6934 -0.2330
    3TCq1    C4   38   4.580   1.661  10.283  0.3445 -0.7176  0.2215
    3TCq1    C5   39   4.610   1.709  10.408 -0.3326  0.0984 -0.4113
    3TCq1    C6   40   4.614   1.613  10.506 -0.0998 -0.5104  0.3654
    3TCq1    C7   41   4.596   1.477  10.487 -0.1656  0.0861 -0.6729
    3TCq1    C8   42   4.619   1.660  10.645  0.6109  0.0593 -0.3934
    3TCq1    O4   43   4.672   1.589  10.728  0.2572  0.2093 -0.8317
    3TCq1    C9   44   4.574   1.762  10.182  0.4280 -0.1209 -1.1170
    3TCq1    O5   45   4.559   1.731  10.059 -0.5293  0.0260  0.3536
    3TCq1    O6   46   4.543   1.875  10.229 -0.6061 -0.3250  0.2610
    3TCq1    H1   47   4.370   1.374  10.267 -0.2499 -0.2073 -0.9128
    3TCq1    H2   48   4.512   1.503  10.160  0.0966  2.1986 -1.1255
    3TCq1    H3   49   4.628   1.814  10.429 -3.4427  0.4883  0.2885
    3TCq1    H4   50   4.610   1.404  10.566 -1.0702  0.8439  0.1873
    4MPD2     C   51   4.449   1.973  11.011  0.3260  0.4415  0.4508
    4MPD2    C1   52   4.387   2.015  10.894 -0.2550 -0.3028 -0.0941
    4MPD2    C2   53   4.425   1.949  10.777 -0.0536 -0.0961 -0.3222
    4MPD2    C3   54   4.520   1.843  10.776  0.5086 -0.2971  0.0095
    4MPD2    C4   55   4.578   1.807  10.897  0.0431 -0.3095 -0.1482
    4MPD2    C5   56   4.539   1.867  11.013 -0.5186 -0.2028  0.0399
    4MPD2     H   57   4.389   1.973  10.677 -1.4453  0.8910  0.4277
    4MPD2    H1   58   4.642   1.720  10.909  0.6235  0.2345  0.7641
    4MPD2    H2   59   4.436   2.028  11.104  0.8882 -1.5977  1.7285
    4MPD2    H3   60   4.565   1.823  11.109 -0.5226  0.5773  0.4019
    4MPD2     N   61   4.546   1.777  10.657 -0.4846  0.3406 -0.3812
    4MPD2    H5   62   4.483   1.802  10.581 -2.2736 -0.5344  0.8116
    4MPD2    N1   63   4.289   2.122  10.884  0.1119  0.1641 -0.4056
    4MPD2    H7   64   4.246   2.144  10.795  0.3807  0.8319 -0.3699
    5TCq1    O1   65   0.967   3.318  11.573 -0.1875  0.1666 -0.0596
    5TCq1    C1   66   0.876   3.266  11.488 -0.2465 -0.0265 -0.5670
    5TCq1    O2   67   0.849   3.310  11.379  0.3317 -0.2663 -0.6045
    5TCq1    C2   68   0.868   3.120  11.513 -0.2057 -0.3108 -0.0612
    5TCq1    C3   69   0.983   3.064  11.574  0.7310 -1.0484  0.1118
    5TCq1    C4   70   1.016   2.935  11.536  0.1731 -0.2642 -0.0370
    5TCq1    C5   71   0.937   2.865  11.440 -0.3393  0.1793  1.0814
    5TCq1    C6   72   0.833   2.929  11.386  0.2890  0.1703  0.7144
    5TCq1    C7   73   0.803   3.057  11.411  0.3942 -0.6557 -0.1451
    5TCq1    C8   74   0.763   2.848  11.291  0.4313 -1.0452 -0.2783
    5TCq1    O4   75   0.795   2.732  11.282 -0.3017  0.2298 -0.1518
    5TCq1    C9   76   1.137   2.877  11.589 -0.4177  0.1027  0.2411
    5TCq1    O5   77   1.199   2.794  11.514 -0.2724 -0.3759 -0.5087
    5TCq1    O6   78   1.150   2.897  11.717 -0.3303  0.0521 -0.3329
    5TCq1    H1   79   0.970   3.271  11.659  0.8374 -0.8140 -0.6266
    5TCq1    H2   80   1.058   3.112  11.635 -0.6729 -0.8623  1.7025
    5TCq1    H3   81   0.956   2.760  11.425 -0.4629  0.2574  0.3878
    5TCq1    H4   82   0.726   3.109  11.355 -0.8480  0.3500  2.5058
    6MPD2     C   83   0.470   2.932  11.081  0.2938  0.3230  0.1161
    6MPD2    C1   84   0.567   2.852  11.138 -0.7176 -0.0245 -0.0163
    6MPD2    C2   85   0.577   2.714  11.104  0.7793 -0.4763  0.1900
    6MPD2    C3   86   0.476   2.661  11.027  0.0922 -0.1067  0.6549
    6MPD2    C4   87   0.385   2.744  10.974  0.5261 -0.0041  0.4307
    6MPD2    C5   88   0.382   2.880  10.990  0.2167  0.1290 -0.7051
    6MPD2     H   89   0.658   2.649  11.134 -1.2931 -2.0985  2.2831
    6MPD2    H1   90   0.312   2.703  10.905  1.2097 -4.7063  2.4922
    6MPD2    H2   91   0.458   3.035  11.114 -1.2416 -0.1595  1.0663
    6MPD2    H3   92   0.301   2.934  10.942 -1.2186  0.2766  1.8595
    6MPD2     N   93   0.482   2.519  10.994 -0.8773 -0.8736  0.4954
    6MPD2    H5   94   0.567   2.469  11.019 -1.7117 -2.3210  0.4352
    6MPD2    N1   95   0.657   2.915  11.231 -0.8916 -0.7928 -0.8545
    6MPD2    H7   96   0.629   3.010  11.256  1.4929  0.4019 -2.7373
    7TCq1    O1   97   2.646   2.446  13.481 -0.0546 -0.1394  0.0501
    7TCq1    C1   98   2.522   2.461  13.521  0.4520  0.3021 -0.1777
    7TCq1    O2   99   2.467   2.571  13.540  0.1974 -0.2180 -1.0136
    7TCq1    C2  100   2.454   2.329  13.528  0.9652  0.1935 -0.6345
    7TCq1    C3  101   2.323   2.320  13.494  0.9179 -0.1412 -0.1237
    7TCq1    C4  102   2.271   2.190  13.503 -0.0161 -0.1966  0.1552
    7TCq1    C5  103   2.354   2.085  13.536 -0.0333  0.7599  0.3367
    7TCq1    C6  104   2.485   2.102  13.568  0.1451 -0.1779 -0.2785
    7TCq1    C7  105   2.535   2.228  13.572  0.1315  0.6303 -0.6598
    7TCq1    C8  106   2.557   1.984  13.592  0.2748 -0.9230 -0.6430
    7TCq1    O4  107   2.502   1.877  13.566 -0.0144 -0.0108 -0.0663
    7TCq1    C9  108   2.141   2.166  13.470  0.2549  0.3386  0.2161
    7TCq1    O5  109   2.068   2.267  13.471 -0.0594 -0.5865 -0.2221
    7TCq1    O6  110   2.099   2.058  13.430  0.2071 -0.0840  0.7429
    7TCq1    H1  111   2.671   2.359  13.443 -0.5272 -0.8087  1.2730
    7TCq1    H2  112   2.265   2.404  13.457  1.3730  0.0471 -0.4134
    7TCq1    H3  113   2.312   1.985  13.541  0.7834  0.4395  0.8262
    7TCq1    H4  114   2.643   2.236  13.584  0.3318  0.1953 -2.1370
    8MPD2     C  115   3.012   1.753  13.596 -0.1655  0.2260 -0.2577
    8MPD2    C1  116   2.891   1.703  13.561 -0.3360 -0.2065 -0.4797
    8MPD2    C2  117   2.784   1.792  13.552  0.2965 -0.3740 -0.5390
    8MPD2    C3  118   2.795   1.924  13.597 -0.0931  0.4901 -0.0210
    8MPD2    C4  119   2.920   1.970  13.624 -0.0521 -0.0631  0.5007
    8MPD2    C5  120   3.027   1.885  13.628 -0.3522 -0.0735  0.0072
    8MPD2     H  121   2.689   1.748  13.523  0.3173 -1.6490  1.3454
    8MPD2    H1  122   2.945   2.073  13.645 -2.4196  0.1000  2.4852
    8MPD2    H2  123   3.093   1.683  13.611 -1.9006 -1.7340 -0.1705
    8MPD2    H3  124   3.125   1.929  13.644 -0.7464 -0.2689  2.8951
    8MPD2     N  125   2.689   2.010  13.612 -0.1582 -0.4421  0.4592
    8MPD2    H5  126   2.716   2.108  13.610  0.0277 -0.5000  0.1059
    8MPD2    N1  127   2.875   1.556  13.563  0.4537 -0.4528  0.2303
    8MPD2    H7  128   2.959   1.504  13.587  0.1227 -0.9110  0.4009
    9TCq1    O1  129   4.581   0.677  10.775 -0.0709 -0.6224  0.4553
    9TCq1    C1  130   4.681   0.756  10.821  0.6573  0.6183  0.2444
    9TCq1    O2  131   4.689   0.801  10.933  0.3051  0.4201 -0.0501
    9TCq1    C2  132   0.067   0.739  10.729  0.6736 -0.2627  0.4649
    9TCq1    C3  133   0.056   0.711  10.597  0.1384 -0.4483  0.7783
    9TCq1    C4  134   0.173   0.719  10.524  0.2165 -0.0459 -0.0284
    9TCq1    C5  135   0.288   0.789  10.566 -0.1040 -0.3262  0.6500
    9TCq1    C6  136   0.301   0.815  10.694  0.6905 -0.1984  0.0859
    9TCq1    C7  137   0.191   0.787  10.774 -0.0083  0.0437 -0.0423
    9TCq1    C8  138   0.408   0.891  10.741 -0.4441 -0.2576  0.0217
    9TCq1    O4  139   0.469   0.956  10.655 -0.1356  0.0947  0.2894
    9TCq1    C9  140   0.164   0.684  10.383 -0.2491 -1.1532  0.0458
    9TCq1    O5  141   0.261   0.735  10.320  0.2079 -0.3532  0.5454
    9TCq1    O6  142   0.062   0.631  10.333 -0.2973  0.0659 -0.6895
    9TCq1    H1  143   4.603   0.632  10.690 -0.0923  0.3651 -0.0688
    9TCq1    H2  144   4.688   0.672  10.551  1.6748 -1.8657 -1.0158
    9TCq1    H3  145   0.368   0.814  10.499 -2.4840 -3.1432 -3.2502
    9TCq1    H4  146   0.185   0.800  10.882  0.0927  1.9575 -0.2597
   10MPD2     C  147   0.560   1.087  10.915 -0.6024 -0.1769 -0.6863
   10MPD2    C1  148   0.478   0.993  10.967 -0.0739 -0.8805  0.1130
   10MPD2    C2  149   0.453   0.989  11.102 -0.4177  0.1124 -0.9544
   10MPD2    C3  150   0.502   1.086  11.184 -0.9936 -0.4178 -0.1910
   10MPD2    C4  151   0.594   1.176  11.132 -0.3347  0.0265  0.1445
   10MPD2    C5  152   0.622   1.175  11.004 -0.0141 -0.1772 -0.2437
   10MPD2     H  153   0.381   0.911  11.125 -1.1436  1.5974  1.8124
   10MPD2    H1  154   0.654   1.248  11.186 -0.9868  2.2533 -2.1139
   10MPD2    H2  155   0.583   1.090  10.809  0.2505 -0.3643 -0.5046
   10MPD2    H3  156   0.682   1.249  10.954  0.6559  0.2501  1.1749
   10MPD2     N  157   0.461   1.103  11.319 -0.1982  0.0948 -0.6311
   10MPD2    H5  158   0.506   1.180  11.368 -0.3248  0.4938 -1.1440
   10MPD2    N1  159   0.419   0.893  10.882  0.3326 -0.3299  0.6147
   10MPD2    H7  160   0.363   0.824  10.932  2.1161 -2.9131 -1.0038
   11TCq1    O1  161   2.185   0.516  13.840 -0.2865 -0.5752 -0.0968
   11TCq1    C1  162   2.097   0.422  13.885 -0.9497 -0.1716 -0.6562
   11TCq1    O2  163   2.031   0.348  13.812 -0.8324  0.2941  0.2376
   11TCq1    C2  164   2.068   0.445  14.021  0.0180  0.9351  0.1417
   11TCq1    C3  165   2.161   0.500  14.104 -0.1029  0.2702 -0.8525
   11TCq1    C4  166   2.131   0.552  14.231 -0.0778 -0.3084  0.4818
   11TCq1    C5  167   1.995   0.566  14.259 -0.1768 -0.5759 -0.3231
   11TCq1    C6  168   1.905   0.517  14.167 -0.6292 -0.3426 -0.3591
   11TCq1    C7  169   1.934   0.449  14.053 -0.6356 -0.4028  0.4315
   11TCq1    C8  170   1.772   0.519  14.220  0.6495 -0.1251 -0.2379
   11TCq1    O4  171   1.767   0.587  14.321  0.0367 -0.0887  0.3397
   11TCq1    C9  172   2.242   0.573  14.316 -0.6923  0.7749 -0.5080
   11TCq1    O5  173   2.354   0.532  14.280 -0.0139  0.0319 -0.0726
   11TCq1    O6  174   2.207   0.583  14.439  0.9262 -0.0705 -0.7328
   11TCq1    H1  175   2.193   0.588  13.906 -2.6036 -2.7095  2.5109
   11TCq1    H2  176   2.266   0.495  14.076  0.3746  1.1690  0.7709
   11TCq1    H3  177   1.973   0.609  14.356  0.2089  1.6487 -1.2289
   11TCq1    H4  178   1.855   0.432  13.981  0.6749 -0.0704 -1.0891
   12MPD2     C  179   1.474   0.504  14.277  0.0529  0.2209  0.4092
   12MPD2    C1  180   1.536   0.437  14.173 -0.2965 -0.7980  0.3185
   12MPD2    C2  181   1.455   0.356  14.096  0.6348  0.2183 -0.3262
   12MPD2    C3  182   1.318   0.350  14.117  0.7868 -0.4911  0.1671
   12MPD2    C4  183   1.260   0.410  14.226 -0.8006  0.0443  0.3040
   12MPD2    C5  184   1.338   0.485  14.305 -0.0415  0.5346  0.3140
   12MPD2     H  185   1.498   0.294  14.017 -0.2027  0.3250 -0.8663
   12MPD2    H1  186   1.154   0.396  14.242 -0.8659 -0.8268 -0.8970
   12MPD2    H2  187   1.521   0.583  14.333 -1.7507  1.6913 -0.1516
   12MPD2    H3  188   1.283   0.543  14.378 -1.8330  0.0710 -0.6636
   12MPD2     N  189   1.245   0.265  14.025  0.3496 -0.2908 -0.3160
   12MPD2    H5  190   1.301   0.206  13.965  0.1526 -0.1426 -0.6433
   12MPD2    N1  191   1.676   0.445  14.149  0.0708 -0.4350  0.0325
   12MPD2    H7  192   1.716   0.400  14.068 -2.1800 -1.1005 -0.7068
   13TCq1    O1  193   0.719   0.528  10.417  0.1431 -0.1577 -0.0987
   13TCq1    C1  194   0.690   0.466  10.533 -0.1048  0.0627  0.2323
   13TCq1    O2  195   0.766   0.455  10.630  0.2250 -0.1284  0.4823
   13TCq1    C2  196   0.547   0.428  10.539  0.3391 -0.1972  0.2619
   13TCq1    C3  197   0.490   0.371  10.424  0.3386 -0.3372  0.1012
   13TCq1    C4  198   0.358   0.344  10.430  0.1380  0.4043 -0.0716
   13TCq1    C5  199   0.283   0.355  10.545 -0.5731  0.8261 -0.4303
   13TCq1    C6  200   0.349   0.398  10.659  0.4820 -0.3172  0.6356
   13TCq1    C7  201   0.479   0.433  10.660 -0.5436 -0.4316  0.6557
   13TCq1    C8  202   0.268   0.432  10.773  0.1525  0.3893  0.7453
   13TCq1    O4  203   0.307   0.523  10.846 -0.0571 -0.7861 -0.2626
   13TCq1    C9  204   0.295   0.311  10.302  0.2411  0.3426  0.2709
   13TCq1    O5  205   0.170   0.302  10.309  0.2730  0.0306 -0.8328
   13TCq1    O6  206   0.360   0.332  10.194  0.1156 -0.4719 -0.3279
   13TCq1    H1  207   0.631   0.539  10.374  0.2759  0.1635 -0.2878
   13TCq1    H2  208   0.547   0.346  10.336 -0.0781 -1.2267  0.0824
   13TCq1    H3  209   0.177   0.331  10.542  0.5597 -4.0304 -2.4375
   13TCq1    H4  210   0.517   0.478  10.751 -0.3992  0.8011 -0.0126
   14MPD2     C  211   4.670   0.284  10.877  0.3426  0.4501  0.0612
   14MPD2    C1  212   0.045   0.383  10.877  0.0272 -0.1253  0.2194
   14MPD2    C2  213   0.055   0.472  10.983  0.5408  0.8494  0.4096
   14MPD2    C3  214   4.685   0.470  11.091 -0.4377 -0.2899 -0.3193
   14MPD2    C4  215   4.589   0.373  11.084 -0.8042 -0.0320  0.3137
   14MPD2    C5  216   4.591   0.287  10.986  0.1596 -0.6942  0.1401
   14MPD2     H  217   0.126   0.554  10.980 -0.6654  1.8618 -0.9359
   14MPD2    H1  218   4.519   0.361  11.166 -2.3267 -0.0012 -0.9892
   14MPD2    H2  219   4.670   0.205  10.803  1.5415 -0.1687  0.7171
   14MPD2    H3  220   4.528   0.198  10.996  1.9243 -2.0961 -1.2584
   14MPD2     N  221   4.690   0.577  11.183  0.1275 -1.0911 -0.5865
   14MPD2    H5  222   0.026   0.656  11.158  0.1031 -0.6143  0.8574
   14MPD2    N1  223   0.144   0.370  10.777  0.4453  0.1260  0.3202
   14MPD2    H7  224   0.122   0.297  10.711 -1.0169 -0.6425  1.6690
   15TCq1    O1  225   2.306   4.533   1.995  0.0726  0.1904  0.3053
   15TCq1    C1  226   2.382   4.642   1.972  0.0376  0.1710 -0.4973
   15TCq1    O2  227   2.359   0.006   1.895  0.6585 -0.3578  0.6554
   15TCq1    C2  228   2.510   4.577   1.980  0.8179 -0.0049 -0.1766
   15TCq1    C3  229   2.573   4.528   2.094  0.2673  0.6794  0.0320
   15TCq1    C4  230   2.690   4.458   2.078  0.0784  0.1353  0.1868
   15TCq1    C5  231   2.739   4.427   1.956 -0.0508  0.1602  0.3764
   15TCq1    C6  232   2.682   4.493   1.848  0.5804  0.7436 -0.6355
   15TCq1    C7  233   2.568   4.561   1.859  0.1901 -0.5658  0.5413
   15TCq1    C8  234   2.711   4.446   1.711 -0.1373  0.1015 -0.1955
   15TCq1    O4  235   2.787   4.349   1.704 -0.5302  0.9497 -0.5958
   15TCq1    C9  236   2.752   4.403   2.190 -0.5415 -0.1678 -0.5362
   15TCq1    O5  237   2.691   4.409   2.303 -0.7112  0.0457  0.9020
   15TCq1    O6  238   2.868   4.353   2.175 -0.2973  0.3035 -0.3044
   15TCq1    H1  239   2.352   4.460   2.042  1.6359  0.1992 -1.2303
   15TCq1    H2  240   2.535   4.558   2.191 -1.8163 -0.3240 -0.4830
   15TCq1    H3  241   2.830   4.369   1.952  1.8187  2.9687  1.9779
   15TCq1    H4  242   2.536   4.621   1.774  1.7077 -1.5390 -0.7095
   16MPD2     C  243   2.557   4.503   1.372  0.4695 -0.3259  0.6841
   16MPD2    C1  244   2.619   4.433   1.476  0.6726  0.1370  0.8620
   16MPD2    C2  245   2.687   4.312   1.440 -0.6220  0.7171 -1.1206
   16MPD2    C3  246   2.685   4.261   1.313  0.1454 -0.3850  0.3953
   16MPD2    C4  247   2.622   4.328   1.215  0.0501 -0.5427  0.2195
   16MPD2    C5  248   2.561   4.448   1.243  1.0490 -0.5151 -0.1459
   16MPD2     H  249   2.741   4.260   1.519 -0.4697 -2.8792 -3.5870
   16MPD2    H1  250   2.625   4.301   1.110  0.1843 -0.0887  0.1046
   16MPD2    H2  251   2.501   4.594   1.394  1.3794  0.1508  1.0364
   16MPD2    H3  252   2.512   4.496   1.160  2.4074 -0.8089 -1.1114
   16MPD2     N  253   2.746   4.135   1.300 -0.6122 -0.0640 -0.5387
   16MPD2    H5  254   2.795   4.092   1.377  3.8727  2.5350 -1.9215
   16MPD2    N1  255   2.625   4.491   1.607  0.1956  0.0978  0.0094
   16MPD2    H7  256   2.557   4.564   1.624 -0.9809 -1.5728  2.4025
   17TCq1    O1  257   0.700   0.302  11.780  0.2713  0.1104  0.4197
   17TCq1    C1  258   0.824   0.279  11.741 -0.1177  0.4592 -0.1015
   17TCq1    O2  259   0.912   0.215  11.798  0.2726 -0.4274  0.5052
   17TCq1    C2  260   0.853   0.371  11.635 -0.3617  0.5194  0.0332
   17TCq1    C3  261   0.758   0.401  11.541  0.9324 -0.0941  0.2287
   17TCq1    C4  262   0.793   0.457  11.423  0.3937  0.1303 -0.4300
   17TCq1    C5  263   0.924   0.483  11.395  0.6579 -0.0926 -0.9515
   17TCq1    C6  264   1.018   0.447  11.487  0.1096 -0.0158  0.4733
   17TCq1    C7  265   0.981   0.390  11.602  0.4120  0.3691 -0.5490
   17TCq1    C8  266   1.156   0.416  11.439 -0.0435 -0.6371 -0.2887
   17TCq1    O4  267   1.232   0.389  11.528  0.0142 -0.2795 -0.0483
   17TCq1    C9  268   0.699   0.481  11.319 -0.1852  0.8324 -0.1634
   17TCq1    O5  269   0.736   0.561  11.225 -0.3329 -0.4769 -0.3205
   17TCq1    O6  270   0.587   0.437  11.344 -0.1066 -0.0192  0.2450
   17TCq1    H1  271   0.645   0.338  11.708  0.6350  0.5519  0.3680
   17TCq1    H2  272   0.654   0.379  11.564  1.2909 -1.5238  0.4861
   17TCq1    H3  273   0.948   0.538  11.304 -1.4093  0.0420 -1.4063
   17TCq1    H4  274   1.060   0.369  11.672 -0.3677  1.1967  0.5835
   18MPD2     C  275   1.399   0.355  11.285 -0.1406 -0.7588  0.2383
   18MPD2    C1  276   1.273   0.375  11.228  0.0775 -0.2383 -0.4545
   18MPD2    C2  277   1.259   0.361  11.092  0.0381 -0.3494 -0.5596
   18MPD2    C3  278   1.357   0.296  11.015  0.4442 -0.0525  0.6447
   18MPD2    C4  279   1.474   0.266  11.081 -0.5415 -0.6454  0.3157
   18MPD2    C5  280   1.495   0.301  11.210  1.0068  0.4298  0.3812
   18MPD2     H  281   1.170   0.391  11.039 -0.1397 -1.3068 -0.8061
   18MPD2    H1  282   1.549   0.218  11.020  1.6852 -0.1235  2.6206
   18MPD2    H2  283   1.428   0.385  11.385  0.5054 -0.4331 -0.0457
   18MPD2    H3  284   1.586   0.283  11.267  1.6412  2.3662 -0.0244
   18MPD2     N  285   1.343   0.262  10.878  0.4981  0.2563  0.5147
   18MPD2    H5  286   1.423   0.211  10.842 -0.1400  0.1053 -0.6611
   18MPD2    N1  287   1.165   0.422  11.305 -0.4266 -0.1645  0.1284
   18MPD2    H7  288   1.088   0.449  11.245 -0.7494 -1.1390  0.0952
   19TMC2    C1  289   2.212   4.299  13.710  0.3654 -0.1251 -0.4240
   19TMC2    C2  290   2.181   4.266  13.579  0.4649 -0.2748 -0.4335
   19TMC2    C3  291   2.074   4.184  13.557  0.5011 -0.3814 -0.0559
   19TMC2    C4  292   2.152   4.238  13.815 -0.1270 -0.0509  0.4321
   19TMC2    C5  293   2.070   4.131  13.789  1.1381  0.1002  0.1259
   19TMC2    C6  294   2.032   4.105  13.660  0.1632 -0.6218  0.0132
   19TMC2     C  295   2.289   4.419  13.730 -0.3233 -0.4577  0.0278
   19TMC2     O  296   2.282   4.498  13.635  0.6562  0.4794  0.4801
   19TMC2     H  297   2.215   4.332  13.500 -0.9814  1.1409  0.1075
   19TMC2    H1  298   2.189   4.269  13.913 -0.4316 -1.6484  1.0564
   19TMC2    H2  299   1.953   4.032  13.644  0.3866 -0.6556 -0.9691
   19TMC2    C7  300   1.981   4.083  13.892  0.4224  0.1008  0.0031
   19TMC2    C8  301   2.058   4.136  13.422 -0.4174  0.3332  0.7219
   19TMC2    O1  302   1.877   4.029  13.856 -0.8153  0.0075 -0.7025
   19TMC2    O2  303   2.056   4.018  13.393  1.1921 -0.5642  0.2348
   19TMC2    O5  304   2.019   4.246  13.348  0.5645 -0.8175  0.0691
   19TMC2    H5  305   2.036   4.329  13.397  0.9590 -0.1906 -1.1291
   20MPD2     C  306   2.455   4.643  13.835 -0.7762  0.4308  0.1157
   20MPD2    C1  307   2.432   4.528  13.906  0.4745  0.3625  0.0755
   20MPD2    C2  308   2.494   4.516  14.029 -0.2249 -0.2730  0.7314
   20MPD2    C3  309   2.576   4.618  14.077 -0.7540  0.3053 -0.0204
   20MPD2    C4  310   2.590   0.013  14.011  0.2329  0.2561  0.4862
   20MPD2    C5  311   2.527   0.021  13.893  0.5439 -0.0443  0.1624
   20MPD2     H  312   2.491   4.421  14.081 -2.8670 -0.7448 -0.3064
   20MPD2    H1  313   2.641   0.101  14.049 -0.1611  0.9315 -0.5742
   20MPD2    H2  314   2.418   4.665  13.736 -0.0859  2.2785  0.2632
   20MPD2    H3  315   2.543   0.115  13.843 -0.2368  0.4696  0.8843
   20MPD2     N  316   2.637   4.613  14.208 -0.0528  0.5191  0.1874
   20MPD2    H5  317   2.693   4.691  14.239  2.2318 -1.0793  0.0817
   20MPD2    N1  318   2.363   4.419  13.848  0.1711  0.1453 -0.3400
   20MPD2    H7  319   2.349   4.343  13.914 -1.8047 -1.1189 -2.2194
   21MPD2     C  320   0.048   0.937  14.233  0.3282  1.0526 -0.1603
   21MPD2    C1  321   0.087   0.820  14.296 -0.1600 -0.0584  0.3870
   21MPD2    C2  322   0.003   0.763  14.390 -0.0968  0.3313  0.1495
   21MPD2    C3  323   4.610   0.829  14.437  0.2728  0.4732 -0.5230
   21MPD2    C4  324   4.587   0.950  14.380 -0.7019 -1.1582  0.4685
   21MPD2    C5  325   4.662   1.003  14.282  0.2905 -0.2044  0.5465
   21MPD2     H  326   0.019   0.657  14.411 -0.2795  0.1640 -0.5789
   21MPD2    H1  327   4.508   1.008  14.426  0.1129 -0.2313  0.7001
   21MPD2    H2  328   0.100   0.991  14.154  5.1877 -2.6754  0.5303
   21MPD2    H3  329   4.642   1.101  14.242 -2.1949 -0.3344  1.5173
   21MPD2     N  330   4.525   0.771  14.533  0.1813  0.9529  0.5258
   21MPD2    H5  331   4.435   0.817  14.523 -1.3295 -2.0477  0.5606
   21MPD2    N1  332   0.204   0.752  14.264  0.1152 -0.5150 -0.1141
   21MPD2    H7  333   0.219   0.657  14.298 -0.6866 -0.5204  0.2200
   22TCq2    C1  334   4.557   0.659  14.609 -0.7235  0.4059  0.0588
   22TCq2    O2  335   4.669   0.608  14.612  0.8515 -0.1391  0.5143
   22TCq2    C2  336   4.453   0.612  14.705  0.0581 -0.1661 -0.4793
   22TCq2    C3  337   4.494   0.551  14.826 -0.2320 -0.2138  0.2991
   22TCq2    C4  338   4.404   0.537  14.931 -0.0489  0.3983 -0.0319
   22TCq2    C5  339   4.273   0.565  14.912  0.0041 -0.3416 -0.1865
   22TCq2    C6  340   4.234   0.609  14.786 -0.5593  0.1766  0.6615
   22TCq2    C7  341   4.320   0.644  14.687  0.6200 -0.0652  0.2578
   22TCq2    C8  342   4.090   0.612  14.754  0.8456  0.1978  1.1400
   22TCq2    O4  343   4.017   0.543  14.822  0.3088  0.0490  0.9777
   22TCq2    C9  344   4.449   0.482  15.058  0.1112 -0.5008 -0.0689
   22TCq2    O5  345   4.375   0.493  15.161  0.1075 -0.3932  0.1580
   22TCq2    O6  346   4.566   0.435  15.058 -0.7096  0.2419 -0.0045
   22TCq2    H2  347   4.599   0.527  14.837 -0.6541 -1.3390  1.7557
   22TCq2    H3  348   4.198   0.550  14.989 -0.9583  2.8223 -0.5221
   22TCq2    H4  349   4.288   0.682  14.591  1.1319  1.1573  0.5591
   23MPD2     C  350   1.543   1.819  14.599  0.0444 -0.3505 -0.0749
   23MPD2    C1  351   1.428   1.845  14.668  0.4777  0.2223  0.4263
   23MPD2    C2  352   1.337   1.937  14.619  0.5172 -0.9319  0.4197
   23MPD2    C3  353   1.370   1.996  14.499 -0.2869 -0.3191  0.2785
   23MPD2    C4  354   1.483   1.971  14.428 -0.4689  0.5144 -0.1037
   23MPD2    C5  355   1.564   1.874  14.476 -0.1016  0.6435 -0.7812
   23MPD2     H  356   1.253   1.971  14.677  1.6850  0.7652  1.1321
   23MPD2    H1  357   1.493   2.005  14.326 -1.7107  2.3128  0.3742
   23MPD2    H2  358   1.613   1.746  14.637  1.2966  0.4844 -0.7781
   23MPD2    H3  359   1.651   1.840  14.422 -0.8457 -2.3492 -0.1270
   23MPD2     N  360   1.281   2.100  14.454  0.0795 -0.6590 -0.7686
   23MPD2    H5  361   1.192   2.105  14.502 -0.2570 -0.2248 -1.4339
   23MPD2    N1  362   1.416   1.782  14.797  0.3119 -0.4179  0.7020
   23MPD2    H7  363   1.481   1.705  14.809  1.7130  0.7193  0.3599
   24TCq2    C1  364   1.300   2.183  14.345  0.6495 -0.2919 -0.7802
   24TCq2    O2  365   1.401   2.215  14.285  0.4019  0.5854 -0.2164
   24TCq2    C2  366   1.188   2.268  14.319  0.1706 -0.7142 -0.2690
   24TCq2    C3  367   1.208   2.402  14.310 -0.1094 -0.9080 -0.0303
   24TCq2    C4  368   1.098   2.481  14.283 -0.1693  0.0499  0.4768
   24TCq2    C5  369   0.975   2.429  14.265  0.2636 -0.0326  0.3477
   24TCq2    C6  370   0.959   2.294  14.274  0.0232 -0.2130  0.6706
   24TCq2    C7  371   1.063   2.215  14.297  0.4809  0.6683  0.1262
   24TCq2    C8  372   0.846   2.225  14.214 -0.4833  0.0699  0.3457
   24TCq2    O4  373   0.855   2.101  14.208 -0.1381 -0.3580 -0.0753
   24TCq2    C9  374   1.118   2.618  14.260 -0.1858  0.9170 -0.2483
   24TCq2    O5  375   1.233   2.668  14.280 -1.1846 -0.0577 -0.5684
   24TCq2    O6  376   1.011   2.681  14.221 -0.1387  0.6733  0.3987
   24TCq2    H2  377   1.309   2.441  14.307 -0.7127  0.8671  2.0566
   24TCq2    H3  378   0.893   2.495  14.239 -0.8453 -0.9854  1.4306
   24TCq2    H4  379   1.054   2.108  14.312 -1.3578  0.7090 -0.6615
   25TMC2    C1  380   0.229   4.646  12.158 -0.4637  0.8366  0.9612
   25TMC2    C2  381   0.338   4.631  12.231  0.6193 -0.5812 -0.7562
   25TMC2    C3  382   0.325   4.580  12.352 -0.5952  0.0396  0.2708
   25TMC2    C4  383   0.107   4.596  12.198 -0.4455  0.2869 -0.4195
   25TMC2    C5  384   0.098   4.530  12.314 -0.0129  0.1477  0.6204
   25TMC2    C6  385   0.208   4.526  12.392  0.1596 -0.4205 -0.2087
   25TMC2     C  386   0.257   4.671  12.017  0.1834  0.5688 -0.1518
   25TMC2     O  387   0.362   0.003  11.987  0.3573 -0.2385  0.4402
   25TMC2     H  388   0.441   4.655  12.207  1.1823  0.6272  2.9196
   25TMC2    H1  389   0.020   4.618  12.136 -2.5992 -0.3312  2.4198
   25TMC2    H2  390   0.212   4.471  12.486 -3.2133 -1.7320 -0.8521
   25TMC2    C7  391   4.698   4.465  12.364 -0.0378  0.3090 -0.4014
   25TMC2    C8  392   0.443   4.577  12.445  0.2956 -0.3107 -0.6861
   25TMC2    O1  393   4.700   4.435  12.483  0.2279  0.2580  0.6085
   25TMC2    O2  394   0.530   4.667  12.462 -0.1635  0.8967  0.5199
   25TMC2    O5  395   0.439   4.460  12.513  0.2699  0.8541  0.0415
   25TMC2    H5  396   0.380   4.392  12.476  0.6101 -0.7999  2.5026
   26MPD2     C  397   0.129   4.620  11.522 -0.4429  0.3391 -0.0538
   26MPD2    C1  398   0.053   4.526  11.595 -0.8148  0.4078  0.2191
   26MPD2    C2  399   0.072   4.526  11.730  0.0355  0.0887  0.4658
   26MPD2    C3  400   0.163   4.612  11.793 -0.5546 -0.7066  0.0282
   26MPD2    C4  401   0.237   4.698  11.721 -0.3570 -0.6808 -0.1318
   26MPD2    C5  402   0.211   4.709  11.584  0.4300 -0.0951  0.5686
   26MPD2     H  403   0.009   4.461  11.790  1.7230 -2.2413 -0.2645
   26MPD2    H1  404   0.304   0.048  11.767 -1.9444  0.4990  0.3161
   26MPD2    H2  405   0.115   4.633  11.416 -2.1668  2.5650  0.4421
   26MPD2    H3  406   0.280   0.044  11.523 -0.4404  1.9103  1.4339
   26MPD2     N  407   0.174   4.600  11.934  0.0153  0.1001 -0.1985
   26MPD2    H5  408   0.114   4.533  11.982  0.8643  0.1346  0.8962
   26MPD2    N1  409   4.674   4.455  11.524 -0.4433 -0.1534 -0.9198
   26MPD2    H7  410   4.649   4.481  11.429 -1.1603 -1.2079 -1.0268
   27TMC2    C1  411   3.580   2.155  12.630 -0.4319  0.1258  0.0665
   27TMC2    C2  412   3.521   2.236  12.723 -0.0446  0.3825  0.2442
   27TMC2    C3  413   3.490   2.188  12.847 -0.0134  0.3410 -0.2892
   27TMC2    C4  414   3.621   2.034  12.664 -0.2960 -0.4059 -0.1209
   27TMC2    C5  415   3.596   1.990  12.789  0.7270  0.1999  0.1623
   27TMC2    C6  416   3.519   2.056  12.877  0.0621 -0.5425  0.4150
   27TMC2     C  417   3.511   2.155  12.501  0.6935 -0.1848  0.1892
   27TMC2     O  418   3.474   2.265  12.463 -0.3101  0.5675  0.4611
   27TMC2     H  419   3.491   2.336  12.692  0.7158  0.5528  0.0478
   27TMC2    H1  420   3.679   1.981  12.589  2.3260  0.9789  0.9242
   27TMC2    H2  421   3.482   2.011  12.968 -2.9890  0.9293 -0.0888
   27TMC2    C7  422   3.552   1.856  12.775 -0.4371  0.2535 -0.8701
   27TMC2    C8  423   3.364   2.228  12.900 -0.4462 -0.0552  0.2738
   27TMC2    O1  424   3.533   1.819  12.660 -0.2798 -0.3767 -0.3476
   27TMC2    O2  425   3.274   2.146  12.906  0.5625 -0.1430 -0.5458
   27TMC2    O5  426   3.341   2.357  12.880 -0.2756 -0.6186 -0.2445
   27TMC2    H5  427   3.416   2.420  12.886 -1.3596  0.5137  1.2798
   28MPD2     C  428   3.094   1.979  12.298  0.1470  0.5042 -0.0557
   28MPD2    C1  429   3.151   1.886  12.385  0.0750  0.3527 -0.2649
   28MPD2    C2  430   3.278   1.905  12.438  0.3229 -0.0034  0.5334
   28MPD2    C3  431   3.351   2.013  12.397 -0.1206  0.2763  0.5979
   28MPD2    C4  432   3.300   2.101  12.306 -0.3747 -0.4728  0.0547
   28MPD2    C5  433   3.174   2.078  12.252 -0.3352  0.1988 -0.3927
   28MPD2     H  434   3.322   1.835  12.508 -2.4842 -0.8715  1.4292
   28MPD2    H1  435   3.363   2.177  12.262  0.3356  0.8315  3.2979
   28MPD2    H2  436   2.989   1.968  12.275 -0.2766  0.6784  1.7886
   28MPD2    H3  437   3.148   2.145  12.171  1.4598  0.6290 -0.6310
   28MPD2     N  438   3.471   2.031  12.468  0.2253 -0.8148  0.3016
   28MPD2    H5  439   3.488   1.960  12.538  0.2382  0.8528  1.9879
   28MPD2    N1  440   3.064   1.782  12.428 -0.0164 -0.0310 -0.4848
   28MPD2    H7  441   2.969   1.787  12.394 -0.2786  1.0638  0.4003
   29MPD2     C  442   3.426   3.504  13.860 -0.0890  0.1419 -0.2380
   29MPD2    C1  443   3.417   3.461  13.994 -0.4805 -0.7071  0.4255
   29MPD2    C2  444   3.378   3.556  14.091 -0.3654  0.2221 -1.2517
   29MPD2    C3  445   3.373   3.692  14.054  0.3064 -0.4696 -0.2327
   29MPD2    C4  446   3.383   3.727  13.922 -0.0659 -0.1649  0.4344
   29MPD2    C5  447   3.410   3.638  13.824  0.1674  0.3143 -1.3243
   29MPD2     H  448   3.390   3.531  14.195  1.6448 -0.9627 -1.7796
   29MPD2    H1  449   3.375   3.832  13.897  0.6329 -0.2774 -0.2493
   29MPD2    H2  450   3.448   3.436  13.779  1.8712 -0.1703  0.5500
   29MPD2    H3  451   3.428   3.673  13.723 -2.8422  0.6700 -1.7168
   29MPD2     N  452   3.358   3.797  14.149 -0.2434 -0.4057 -0.5703
   29MPD2    H5  453   3.397   3.889  14.130 -0.3219 -0.4350 -0.8749
   29MPD2    N1  454   3.461   3.328  14.032  0.5117 -0.1416  0.0876
   29MPD2    H7  455   3.407   3.284  14.106  1.7112 -2.4752 -0.4039
   30TCq2    C1  456   3.318   3.768  14.279 -0.3058  0.8011 -0.4795
   30TCq2    O2  457   3.263   3.667  14.322 -0.7275 -0.2949  0.5293
   30TCq2    C2  458   3.370   3.857  14.382  0.4951 -0.3012 -0.3620
   30TCq2    C3  459   3.311   3.852  14.504  0.2373  0.5523  0.2408
   30TCq2    C4  460   3.364   3.927  14.605  0.0774  0.2044 -0.5660
   30TCq2    C5  461   3.479   3.993  14.588 -0.7078 -0.3827  0.8684
   30TCq2    C6  462   3.541   3.989  14.467 -0.3062  0.7113  0.7959
   30TCq2    C7  463   3.494   3.907  14.369 -0.3105 -0.2893 -0.8114
   30TCq2    C8  464   3.677   4.034  14.445 -0.3051  0.2711 -0.0387
   30TCq2    O4  465   3.757   3.967  14.379 -0.2628  0.3944 -0.4000
   30TCq2    C9  466   3.293   3.939  14.731  0.0935  0.1256 -0.3592
   30TCq2    O5  467   3.196   3.856  14.743  0.4200  0.5688  0.1018
   30TCq2    O6  468   3.336   4.009  14.820 -0.0399 -0.1714  0.1228
   30TCq2    H2  469   3.214   3.803  14.514 -0.0692  1.4911  1.8249
   30TCq2    H3  470   3.511   4.051  14.674  0.7404  1.0754 -0.6360
   30TCq2    H4  471   3.555   3.885  14.282 -0.0574  0.9180 -0.9406
   31MPD2     C  472   1.265   2.612  14.945 -0.7502 -0.0193 -0.5116
   31MPD2    C1  473   1.148   2.681  14.968  0.0370  0.2685 -0.1129
   31MPD2    C2  474   1.050   2.620  15.047 -0.0418 -0.4886  0.0427
   31MPD2    C3  475   1.069   2.495  15.103  0.4178 -0.8165 -0.3862
   31MPD2    C4  476   1.194   2.439  15.091  0.3072  0.7327  0.1555
   31MPD2    C5  477   1.290   2.494  15.012  0.7323  0.2698  0.8012
   31MPD2     H  478   0.958   2.674  15.067  0.4064  0.4802 -0.5309
   31MPD2    H1  479   1.222   2.350  15.146 -2.4701 -0.1961  0.0324
   31MPD2    H2  480   1.338   2.652  14.877 -0.7635  1.4365  0.3324
   31MPD2    H3  481   1.391   2.454  15.015  0.9013  0.7230  1.1453
   31MPD2     N  482   0.976   2.434  15.194 -0.8271 -0.3131  0.0710
   31MPD2    H5  483   1.007   2.348  15.237 -1.5919 -0.1157  1.0205
   31MPD2    N1  484   1.133   2.800  14.887  0.8380  0.1623  0.0976
   31MPD2    H7  485   1.209   2.822  14.825  1.1338  0.8692  0.7073
   32TCq2    C1  486   0.845   2.464  15.192  0.4427 -0.2878 -0.0210
   32TCq2    O2  487   0.792   2.557  15.130 -0.0502 -0.3302  0.3926
   32TCq2    C2  488   0.767   2.377  15.280 -0.1121 -0.9049  0.2890
   32TCq2    C3  489   0.627   2.400  15.270 -0.1561 -0.4322 -0.2260
   32TCq2    C4  490   0.553   2.356  15.376  0.6531  0.0074  0.0068
   32TCq2    C5  491   0.609   2.287  15.481  0.4032 -0.9537  0.3329
   32TCq2    C6  492   0.744   2.274  15.488 -0.9268  0.0863 -0.8068
   32TCq2    C7  493   0.828   2.309  15.386 -0.1229 -0.0900  0.5185
   32TCq2    C8  494   0.794   2.186  15.588  0.2408  0.5002 -0.3109
   32TCq2    O4  495   0.854   2.085  15.553  0.5792 -0.4199  0.2013
   32TCq2    C9  496   0.409   2.372  15.382  0.5038  0.3612  0.7288
   32TCq2    O5  497   0.361   2.445  15.285 -0.4165 -0.3088  0.0520
   32TCq2    O6  498   0.351   2.328  15.482 -0.2161 -0.5614  0.1059
   32TCq2    H2  499   0.582   2.452  15.187  0.1328 -0.1792 -0.2231
   32TCq2    H3  500   0.546   2.233  15.551 -1.8662  0.4310 -0.6496
   32TCq2    H4  501   0.936   2.300  15.392 -0.0231  0.7963  0.0587
   33MPD2     C  502   1.424   0.574  10.101 -0.4651  0.2235  0.7840
   33MPD2    C1  503   1.304   0.522  10.148 -0.1536 -0.4506  0.0428
   33MPD2    C2  504   1.186   0.565  10.085 -1.0782 -0.6296 -0.1383
   33MPD2    C3  505   1.189   0.660   9.988 -0.1021 -0.1235 -0.3055
   33MPD2    C4  506   1.309   0.710   9.947  0.1202  0.1371 -0.4506
   33MPD2    C5  507   1.425   0.668  10.000  0.3829  0.4192 -0.6622
   33MPD2     H  508   1.092   0.526  10.123 -2.8556  3.5095 -0.3175
   33MPD2    H1  509   1.302   0.783   9.867 -3.5257  0.6729  0.3566
   33MPD2    H2  510   1.520   0.532  10.130 -0.6829 -1.2107 -0.5993
   33MPD2    H3  511   1.514   0.704   9.951  1.4376  0.8817  1.6110
   33MPD2     N  512   1.071   0.722   9.928 -0.6781 -0.3480 -0.0869
   33MPD2    H5  513   1.070   0.813   9.882  0.4121 -0.3601 -0.1348
   33MPD2    N1  514   1.313   0.425  10.255  0.0869 -0.2941  0.1341
   33MPD2    H7  515   1.401   0.380  10.280  0.2886  0.4509  0.7759
   34TCq2    C1  516   0.941   0.677   9.954 -0.3059  0.1727  0.3884
   34TCq2    O2  517   0.907   0.570  10.000 -0.1017  0.6826  0.2861
   34TCq2    C2  518   0.834   0.765   9.913 -0.0812 -0.3858 -0.6561
   34TCq2    C3  519   0.708   0.724   9.949 -0.0349 -0.8034 -0.0893
   34TCq2    C4  520   0.600   0.807   9.910 -0.2036  0.5141 -0.0755
   34TCq2    C5  521   0.617   0.926   9.854 -0.2096 -0.5673  0.1601
   34TCq2    C6  522   0.747   0.960   9.822 -0.3720  0.2291  0.0813
   34TCq2    C7  523   0.855   0.881   9.845 -0.1408  0.5369  0.3314
   34TCq2    C8  524   0.777   1.097   9.773 -0.8715 -0.8348  0.4111
   34TCq2    O4  525   0.896   1.126   9.786  0.4648  0.0013  0.4164
   34TCq2    C9  526   0.471   0.774   9.950  0.0620  0.0999  0.8837
   34TCq2    O5  527   0.375   0.844   9.911 -0.0731  0.2130 -0.3531
   34TCq2    O6  528   0.461   0.667  10.016 -0.1747  0.5591 -0.2738
   34TCq2    H2  529   0.693   0.630  10.002  2.5660 -0.2459  1.6375
   34TCq2    H3  530   0.538   0.999   9.866  0.7657  0.4014  0.7642
   34TCq2    H4  531   0.954   0.919   9.823 -0.5108  0.5672 -1.2465
   35MPD2     C  532   2.760   1.898  11.444  0.7727 -0.6252 -0.1428
   35MPD2    C1  533   2.764   1.778  11.370 -0.3038 -0.0515  0.1122
   35MPD2    C2  534   2.713   1.778  11.244 -0.3525  0.0679 -0.1238
   35MPD2    C3  535   2.675   1.904  11.184  0.4849  0.0486 -0.0794
   35MPD2    C4  536   2.671   2.016  11.265 -0.5673  0.0306  0.2876
   35MPD2    C5  537   2.715   2.016  11.398 -0.5525  0.2486 -0.2821
   35MPD2     H  538   2.702   1.685  11.188  0.9349 -0.5426  0.6375
   35MPD2    H1  539   2.650   2.115  11.227 -0.9573  0.7702  2.4762
   35MPD2    H2  540   2.777   1.911  11.550  2.1838 -0.5286 -0.3904
   35MPD2    H3  541   2.708   2.107  11.456 -2.2783  0.6338 -1.1037
   35MPD2     N  542   2.632   1.903  11.047  0.1424 -0.6378  0.2766
   35MPD2    H5  543   2.609   1.816  10.998  0.6550 -0.8248  0.3671
   35MPD2    N1  544   2.803   1.655  11.422 -0.0845 -0.4055  1.0770
   35MPD2    H7  545   2.798   1.578  11.357  1.0676  0.4157  0.0206
   36TCq2    C1  546   2.580   2.014  10.980 -0.2285 -0.5727 -0.0290
   36TCq2    O2  547   2.590   2.139  10.995 -0.3802 -0.1200 -0.2635
   36TCq2    C2  548   2.482   1.968  10.884  0.0545  0.1789  0.6525
   36TCq2    C3  549   2.443   2.057  10.780 -0.1531 -0.1802  0.4813
   36TCq2    C4  550   2.349   2.022  10.687 -0.3558  0.0225  0.1368
   36TCq2    C5  551   2.279   1.906  10.699 -0.4079  0.7113  0.6350
   36TCq2    C6  552   2.300   1.832  10.813  0.1990 -0.1457 -0.3597
   36TCq2    C7  553   2.405   1.854  10.899  0.1007 -0.1491 -0.1994
   36TCq2    C8  554   2.215   1.718  10.849  0.6571 -0.1149  0.5077
   36TCq2    O4  555   2.257   1.638  10.932 -0.7298 -0.7417 -0.1785
   36TCq2    C9  556   2.310   2.119  10.592  0.1852 -0.4804 -0.2104
   36TCq2    O5  557   2.232   2.076  10.497 -0.2140 -0.2221  0.3379
   36TCq2    O6  558   2.332   2.236  10.627 -0.1392 -1.2113 -0.4101
   36TCq2    H2  559   2.504   2.145  10.764  0.7101 -0.8011  0.3608
   36TCq2    H3  560   2.205   1.889  10.622  0.0037 -0.3177  0.4752
   36TCq2    H4  561   2.429   1.788  10.982  0.1858  3.1689  2.4337
   37TMC2    C1  562   4.270   2.633  11.084  0.4591 -0.0355 -0.3598
   37TMC2    C2  563   4.264   2.715  10.972 -0.0404  0.2650  0.3337
   37TMC2    C3  564   4.370   2.716  10.885 -0.6630  0.1329 -0.3451
   37TMC2    C4  565   4.378   2.554  11.100 -0.2740 -0.4915 -0.2454
   37TMC2    C5  566   4.486   2.560  11.011 -0.2828  0.0197  0.6917
   37TMC2    C6  567   4.482   2.641  10.902  0.0694  0.0426 -0.6282
   37TMC2     C  568   4.152   2.630  11.172 -0.2226 -0.2167 -0.6286
   37TMC2     O  569   4.048   2.695  11.144  0.5184  0.1107 -0.4505
   37TMC2     H  570   4.182   2.786  10.965 -0.7512 -0.6374 -0.4516
   37TMC2    H1  571   4.386   2.484  11.182  1.8746  0.7233  0.5708
   37TMC2    H2  572   4.569   2.657  10.840  1.8139 -2.2360  1.2708
   37TMC2    C7  573   4.569   2.447  11.032  0.2278 -0.0726 -0.6873
   37TMC2    C8  574   4.390   2.835  10.814 -0.4529 -0.1192  0.1430
   37TMC2    O1  575   4.603   2.416  11.147  0.1580  0.1740 -0.0773
   37TMC2    O2  576   4.499   2.886  10.815 -0.0790 -0.2743 -0.2401
   37TMC2    O5  577   4.272   2.874  10.762 -0.8607  0.1370 -0.0298
   37TMC2    H5  578   4.215   2.795  10.771 -2.4014  1.1384 -0.8625
   38MPD2     C  579   3.872   2.412  11.542 -0.2076  0.4331 -0.0887
   38MPD2    C1  580   3.999   2.374  11.556  0.0253  0.1368 -0.9096
   38MPD2    C2  581   4.096   2.406  11.462  0.4176  0.9057  0.1095
   38MPD2    C3  582   4.065   2.489  11.357  0.5311 -0.2957  0.1733
   38MPD2    C4  583   3.934   2.529  11.345  0.7778  0.2211 -0.1219
   38MPD2    C5  584   3.837   2.483  11.426 -0.1386 -0.1680 -0.0085
   38MPD2     H  585   4.197   2.373  11.482  0.5161  0.4937 -1.0846
   38MPD2    H1  586   3.893   2.595  11.269 -1.3550  0.1113  0.9549
   38MPD2    H2  587   3.797   2.383  11.614  0.6947 -0.1957  0.6063
   38MPD2    H3  588   3.731   2.497  11.409 -0.0923 -1.0285 -1.0242
   38MPD2     N  589   4.168   2.538  11.273 -0.0143  0.8719  0.4979
   38MPD2    H5  590   4.258   2.498  11.298 -0.9130 -0.9180  0.9134
   38MPD2    N1  591   4.037   2.304  11.670  0.3603  0.1580 -0.2309
   38MPD2    H7  592   4.135   2.295  11.696 -0.0601  2.4821  2.1007
   39MPD2     C  593   3.062   3.289   2.053  0.3262 -0.6460  0.0294
   39MPD2    C1  594   3.037   3.422   2.020  0.6832 -0.9512  0.4316
   39MPD2    C2  595   2.921   3.465   1.955  0.0277  0.6363 -0.2438
   39MPD2    C3  596   2.824   3.376   1.928  0.7702 -0.3107  0.3613
   39MPD2    C4  597   2.851   3.240   1.951 -0.1421 -0.6111  0.3461
   39MPD2    C5  598   2.963   3.202   2.022  0.5157 -0.1789 -0.0412
   39MPD2     H  599   2.903   3.567   1.925  1.0564  0.2601 -2.0759
   39MPD2    H1  600   2.777   3.163   1.934  0.0629 -0.4938 -1.0832
   39MPD2    H2  601   3.146   3.243   2.102 -0.3121 -2.2302 -0.3554
   39MPD2    H3  602   2.981   3.097   2.041  3.7411  0.6774  1.6078
   39MPD2     N  603   2.700   3.402   1.864 -0.1183  0.2104 -0.0013
   39MPD2    H5  604   2.642   3.323   1.836  0.3540 -0.0127 -0.3592
   39MPD2    N1  605   3.150   3.504   2.054  0.0374  0.2204  0.9809
   39MPD2    H7  606   3.230   3.461   2.100 -0.7037 -0.5835  1.5124
   40TCq2    C1  607   3.159   3.634   2.025  0.7752 -0.8329 -1.1049
   40TCq2    O2  608   3.074   3.708   1.978  0.4213 -0.2323 -0.1513
   40TCq2    C2  609   3.288   3.688   2.054 -0.1640  0.0227  0.5792
   40TCq2    C3  610   3.298   3.826   2.037  0.4530  0.1548 -0.2477
   40TCq2    C4  611   3.413   3.884   1.985 -0.3564 -0.0415  0.8431
   40TCq2    C5  612   3.519   3.805   1.954 -0.5634  0.1694 -0.2804
   40TCq2    C6  613   3.509   3.670   1.969  0.7469 -0.0357 -0.1061
   40TCq2    C7  614   3.395   3.615   2.017  0.2500  0.0626  0.2798
   40TCq2    C8  615   3.618   3.579   1.943  0.1228 -0.2083  0.4353
   40TCq2    O4  616   3.611   3.474   2.007 -0.0752 -0.1995  0.2556
   40TCq2    C9  617   3.424   4.025   1.960  0.0999 -0.6584  0.2273
   40TCq2    O5  618   3.331   4.106   1.996  0.1142  0.3645  0.5347
   40TCq2    O6  619   3.536   4.066   1.925  0.7350 -0.6571  0.3312
   40TCq2    H2  620   3.213   3.891   2.052  1.0759  0.8148  0.3965
   40TCq2    H3  621   3.608   3.859   1.921 -0.1414 -0.3134  0.0725
   40TCq2    H4  622   3.383   3.509   1.999 -0.7431  0.0740  0.8804
   41TMC2    C1  623   1.956   1.589  13.451  0.3137 -0.3223  1.0116
   41TMC2    C2  624   1.874   1.681  13.504 -0.0758  0.8742  0.3641
   41TMC2    C3  625   1.857   1.797  13.437 -0.2060  0.5385  0.0648
   41TMC2    C4  626   2.037   1.624  13.340  0.6253 -0.0195 -0.3304
   41TMC2    C5  627   2.028   1.752  13.293 -0.2023  0.6167  0.2758
   41TMC2    C6  628   1.936   1.843  13.331 -0.3905  0.4675  0.2689
   41TMC2     C  629   2.016   1.481  13.527 -0.6782  0.3384 -0.1494
   41TMC2     O  630   2.104   1.411  13.473 -0.2299  0.4110  0.6963
   41TMC2     H  631   1.806   1.636  13.575  0.3191 -0.0658  0.1426
   41TMC2    H1  632   2.100   1.548  13.295  1.2091  0.5831 -0.5392
   41TMC2    H2  633   1.931   1.938  13.279 -1.2331 -0.0870 -0.6457
   41TMC2    C7  634   2.120   1.789  13.182  0.4589  1.0031  0.6853
   41TMC2    C8  635   1.813   1.898  13.528 -0.0200  0.0872  0.2852
   41TMC2    O1  636   2.174   1.698  13.125 -0.1808 -0.4208  0.2448
   41TMC2    O2  637   1.734   1.862  13.614 -0.1112 -0.0948 -0.2788
   41TMC2    O5  638   1.931   1.945  13.569 -0.1796 -0.6667  0.4481
   41TMC2    H5  639   1.994   1.987  13.506 -0.3159  0.9096  1.3539
   42MPD2     C  640   2.046   1.238  13.703 -0.3198  0.2617 -0.3070
   42MPD2    C1  641   1.974   1.351  13.730  0.0919  0.2245 -1.0226
   42MPD2    C2  642   1.905   1.359  13.856  0.4778  0.3123 -0.4132
   42MPD2    C3  643   1.912   1.255  13.952  0.4659  0.7550 -0.0255
   42MPD2    C4  644   1.978   1.140  13.921 -0.1589 -0.1434  0.0080
   42MPD2    C5  645   2.042   1.133  13.800  0.5762 -0.9692  0.0177
   42MPD2     H  646   1.841   1.442  13.884 -1.3329 -1.5474  0.9118
   42MPD2    H1  647   1.994   1.055  13.986  0.7793 -0.4206 -0.5775
   42MPD2    H2  648   2.090   1.220  13.605  2.3728  0.0893  0.9082
   42MPD2    H3  649   2.103   1.045  13.781  0.3531 -0.9523 -0.7723
   42MPD2     N  650   1.854   1.262  14.080 -0.3131  0.1955  0.5988
   42MPD2    H5  651   1.875   1.181  14.137 -0.8813  0.7035  1.5334
   42MPD2    N1  652   1.958   1.466  13.647 -0.3955  0.0285  0.1449
   42MPD2    H7  653   1.893   1.539  13.672 -0.4618  0.6064 -1.6838
   43MPD2     C  654   3.281   4.345   0.725 -0.2503  0.2134 -0.0366
   43MPD2    C1  655   3.414   4.379   0.745 -0.5495 -0.6809  0.4288
   43MPD2    C2  656   3.436   4.512   0.765  0.6718  0.1757  0.4780
   43MPD2    C3  657   3.339   4.608   0.775  0.1736  0.1288 -0.3147
   43MPD2    C4  658   3.207   4.571   0.749 -0.2405 -0.7018  0.3560
   43MPD2    C5  659   3.183   4.438   0.720  0.0870  0.8979  0.7765
   43MPD2     H  660   3.541   4.538   0.780  1.1018 -0.7286 -0.9359
   43MPD2    H1  661   3.121   4.636   0.760 -0.1672 -0.2577 -1.7198
   43MPD2    H2  662   3.249   4.243   0.709  0.1316 -0.0491  0.8821
   43MPD2    H3  663   3.079   4.407   0.725  0.0820  0.5913 -1.2662
   43MPD2     N  664   3.370   0.024   0.785  0.4806 -0.4484  0.1472
   43MPD2    H5  665   3.295   0.093   0.783 -0.9428 -2.0335 -0.4050
   43MPD2    N1  666   3.521   4.287   0.722 -0.3601  0.4367 -0.0663
   43MPD2    H7  667   3.616   4.324   0.726 -0.5161  0.8007  0.2889
   44TCq2    C1  668   3.711   0.462   1.034 -0.1620  0.1970 -0.0322
   44TCq2    O2  669   3.802   0.384   1.067 -0.2709 -0.0992  0.4372
   44TCq2    C2  670   3.592   0.414   0.958 -0.0043 -0.3528  0.0077
   44TCq2    C3  671   3.510   0.493   0.890 -0.3278  0.4614 -0.1902
   44TCq2    C4  672   3.413   0.440   0.810 -0.5801  0.5666 -0.9189
   44TCq2    C5  673   3.405   0.305   0.792  0.0268 -0.1501 -0.0583
   44TCq2    C6  674   3.490   0.219   0.860  0.1065 -0.5274  0.6174
   44TCq2    C7  675   3.592   0.277   0.936  0.4878  0.5759 -0.7893
   44TCq2    C8  676   3.484   0.074   0.836 -0.1130 -0.0585  0.4984
   44TCq2    O4  677   3.592   0.015   0.864  0.1355  0.0551  0.5863
   44TCq2    C9  678   3.328   0.532   0.747 -0.2937 -0.4781  0.0939
   44TCq2    O5  679   3.277   0.497   0.641 -0.1085  0.5310 -0.9243
   44TCq2    O6  680   3.318   0.639   0.806  0.6387  0.6020 -0.1300
   44TCq2    H2  681   3.529   0.598   0.873 -1.5862  0.7589  0.2179
   44TCq2    H3  682   3.331   0.269   0.722 -1.4008 -0.0665  1.3979
   44TCq2    H4  683   3.665   0.218   0.990 -0.2578 -1.0348 -1.5615
   45TMC2    C1  684   4.176   3.626   9.439 -1.0211 -0.3503 -0.4017
   45TMC2    C2  685   4.142   3.661   9.312 -0.1434 -0.0020  0.4107
   45TMC2    C3  686   4.137   3.798   9.289  0.3420  0.4003 -0.3716
   45TMC2    C4  687   4.189   3.719   9.535 -0.1847 -0.3127  0.3900
   45TMC2    C5  688   4.168   3.848   9.512  0.4445 -0.5402 -0.1390
   45TMC2    C6  689   4.157   3.893   9.382  0.0483  0.4249  0.1285
   45TMC2     C  690   4.178   3.483   9.477  0.0081 -0.0190  0.0965
   45TMC2     O  691   4.230   3.443   9.582  0.1612  0.2421  0.5067
   45TMC2     H  692   4.129   3.591   9.230  1.3111  0.0740  0.1022
   45TMC2    H1  693   4.206   3.687   9.637  2.6445  0.2541  0.0845
   45TMC2    H2  694   4.154   3.993   9.341 -1.0601 -0.0957 -1.0609
   45TMC2    C7  695   4.158   3.941   9.622 -0.2468 -0.3217  0.2032
   45TMC2    C8  696   4.122   3.839   9.149 -0.2806  0.2564 -0.1755
   45TMC2    O1  697   4.111   3.898   9.726 -0.3631  0.2488  0.4399
   45TMC2    O2  698   4.161   3.948   9.101 -1.0220 -0.0005  0.3585
   45TMC2    O5  699   4.024   3.764   9.089  0.1710 -0.0306  0.0454
   45TMC2    H5  700   3.977   3.697   9.143 -0.2258 -0.7225 -1.1776
   46MPD2     C  701   4.157   3.181   9.466  0.0914 -0.0479 -0.1842
   46MPD2    C1  702   4.074   3.272   9.395 -0.0333 -0.3327  0.2656
   46MPD2    C2  703   3.963   3.222   9.328 -0.3296  0.2835 -0.3355
   46MPD2    C3  704   3.932   3.079   9.326  0.6946 -0.3350  0.1561
   46MPD2    C4  705   4.024   2.990   9.387 -0.3733 -0.5923  0.1882
   46MPD2    C5  706   4.133   3.046   9.457  0.0835  0.2913 -0.3546
   46MPD2     H  707   3.897   3.284   9.270 -1.2030 -2.2220 -2.0352
   46MPD2    H1  708   4.008   2.883   9.387 -0.5305 -0.5599 -1.5107
   46MPD2    H2  709   4.249   3.212   9.515  0.8166 -0.3828 -1.3087
   46MPD2    H3  710   4.204   2.978   9.503  1.0681  1.9205  0.5608
   46MPD2     N  711   3.813   3.034   9.266 -0.0350  0.0303  0.4465
   46MPD2    H5  712   3.759   3.103   9.215 -1.4572 -1.1531  0.3431
   46MPD2    N1  713   4.097   3.410   9.393 -0.2569  0.3995  0.8056
   46MPD2    H7  714   4.033   3.466   9.337 -0.7778  2.4154  3.3754
   47TMC2    C1  715   0.751   3.129   9.930  0.6216  0.2812  0.5893
   47TMC2    C2  716   0.705   3.141  10.059  0.9450  0.5472 -0.0672
   47TMC2    C3  717   0.654   3.043  10.128 -0.0560  0.0163  0.7530
   47TMC2    C4  718   0.723   3.015   9.856  0.6935  0.2592  0.3559
   47TMC2    C5  719   0.667   2.910   9.927  0.3205  0.5938  0.2694
   47TMC2    C6  720   0.634   2.923  10.058 -0.1340 -0.1636 -0.1451
   47TMC2     C  721   0.833   3.236   9.880  0.5817  0.2941 -0.4324
   47TMC2     O  722   0.840   3.349   9.928  0.1620  0.3023 -0.3476
   47TMC2     H  723   0.740   3.236  10.098  0.4145  0.4138  0.7418
   47TMC2    H1  724   0.741   3.008   9.749  0.4408 -0.4987  0.3571
   47TMC2    H2  725   0.566   2.850  10.099 -0.6011  0.7822  0.7634
   47TMC2    C7  726   0.630   2.789   9.859 -0.2612 -0.3023  0.0976
   47TMC2    C8  727   0.605   3.047  10.263  0.1292 -0.0847  0.1631
   47TMC2    O1  728   0.596   2.689   9.926  0.4319 -0.4873  0.2038
   47TMC2    O2  729   0.551   2.956  10.319  0.1140  0.4160 -0.0073
   47TMC2    O5  730   0.616   3.177  10.312  0.1434 -0.2049 -0.7235
   47TMC2    H5  731   0.674   3.235  10.258  0.1685 -0.1857 -0.6759
   48MPD2     C  732   1.052   3.381   9.722 -0.3211  0.4717 -0.1897
   48MPD2    C1  733   1.021   3.246   9.715 -0.0706  0.4050  0.1133
   48MPD2    C2  734   1.100   3.160   9.642 -0.4564  0.5358  0.3759
   48MPD2    C3  735   1.211   3.203   9.583 -0.4091  0.4881 -0.2181
   48MPD2    C4  736   1.245   3.336   9.589  0.5218 -0.0996  0.2098
   48MPD2    C5  737   1.161   3.425   9.658  0.8595 -0.2037  0.4156
   48MPD2     H  738   1.072   3.056   9.637 -2.1445  1.0204 -0.2360
   48MPD2    H1  739   1.340   3.375   9.553  0.2365 -0.5859 -1.0863
   48MPD2    H2  740   0.996   3.455   9.779 -0.2432  0.9977 -0.7963
   48MPD2    H3  741   1.179   3.532   9.656  2.8939 -0.5817 -1.0719
   48MPD2     N  742   1.289   3.100   9.524  0.5175 -0.0920  0.5159
   48MPD2    H5  743   1.246   3.009   9.509  0.7392  0.4327 -3.3277
   48MPD2    N1  744   0.918   3.186   9.784  0.6006  0.1334 -0.2084
   48MPD2    H7  745   0.920   3.084   9.786  3.7596  0.2576  2.7539
   49MPD2     C  746   3.949   0.674   9.513  0.4699 -0.2923 -0.1217
   49MPD2    C1  747   3.889   0.584   9.590  0.2416  0.9681 -1.0442
   49MPD2    C2  748   3.950   0.546   9.707  0.4547  0.6477  0.0735
   49MPD2    C3  749   4.076   0.596   9.747  0.5355  0.3727  0.2052
   49MPD2    C4  750   4.131   0.688   9.659 -0.8546 -0.1212 -0.2683
   49MPD2    C5  751   4.077   0.711   9.535 -0.1864 -0.5093 -0.1258
   49MPD2     H  752   3.908   0.465   9.766 -1.4781  0.9008 -0.9722
   49MPD2    H1  753   4.226   0.731   9.687 -2.2991  4.0963 -1.7859
   49MPD2    H2  754   3.896   0.708   9.425  0.2998 -2.4561 -0.8339
   49MPD2    H3  755   4.120   0.785   9.468 -2.0319 -0.4083 -1.1956
   49MPD2     N  756   4.151   0.542   9.850 -0.0542 -0.2407  0.1171
   49MPD2    H5  757   4.248   0.569   9.866  0.4869 -1.1769 -1.6026
   49MPD2    N1  758   3.756   0.539   9.567  0.2288  0.3004 -0.2675
   49MPD2    H7  759   3.718   0.485   9.643 -1.2460 -0.4703 -1.5401
   50TCq2    C1  760   3.685   0.568   9.456  0.1594  0.7691  0.1425
   50TCq2    O2  761   3.692   0.660   9.378  0.7140  0.3725 -0.2379
   50TCq2    C2  762   3.578   0.468   9.442  0.3346 -0.0043 -0.2527
   50TCq2    C3  763   3.475   0.518   9.376 -0.0651  0.5961  0.6032
   50TCq2    C4  764   3.368   0.441   9.348  0.4212  0.4476 -0.8014
   50TCq2    C5  765   3.364   0.316   9.391 -0.9793  0.2587  0.0809
   50TCq2    C6  766   3.473   0.261   9.462 -0.0177  0.5092 -0.3796
   50TCq2    C7  767   3.585   0.340   9.485  0.0387 -0.7434 -0.5671
   50TCq2    C8  768   3.479   0.114   9.484  0.3947  0.3528  0.3503
   50TCq2    O4  769   3.378   0.056   9.442 -0.0929  0.1459  0.2159
   50TCq2    C9  770   3.263   0.492   9.270 -0.1281  0.8069 -0.2366
   50TCq2    O5  771   3.274   0.610   9.234  0.1933 -0.0473 -0.2016
   50TCq2    O6  772   3.164   0.416   9.243 -0.1454 -0.0921  0.1200
   50TCq2    H2  773   3.464   0.624   9.357  0.8154  0.3335 -1.3759
   50TCq2    H3  774   3.282   0.259   9.350  0.7662 -0.7073 -2.1111
   50TCq2    H4  775   3.665   0.294   9.541  0.1448 -1.4363 -1.2879
   51MPD2     C  776   1.316   2.434   1.981 -0.4529 -0.1159  0.8380
   51MPD2    C1  777   1.273   2.484   1.858  0.1854  0.2758 -0.7819
   51MPD2    C2  778   1.264   2.619   1.853  0.1983 -0.1748  0.7936
   51MPD2    C3  779   1.290   2.702   1.962  0.6156  0.5710  0.6562
   51MPD2    C4  780   1.324   2.642   2.085 -0.9595 -0.4710  0.0643
   51MPD2    C5  781   1.328   2.508   2.092  0.8780 -0.4112 -0.5846
   51MPD2     H  782   1.237   2.666   1.759  0.2480  0.7581  1.2470
   51MPD2    H1  783   1.324   2.706   2.172  0.7462  0.3275 -0.5213
   51MPD2    H2  784   1.321   2.326   1.990  0.7611 -0.1842 -0.6947
   51MPD2    H3  785   1.363   2.469   2.187  1.6233  1.7755  0.0362
   51MPD2     N  786   1.293   2.843   1.948 -0.3052  0.5685 -0.0618
   51MPD2    H5  787   1.327   2.896   2.028  0.8016  0.0420 -0.1871
   51MPD2    N1  788   1.233   2.408   1.740 -0.3013 -0.5198  0.5868
   51MPD2    H7  789   1.210   2.460   1.656 -0.7881 -1.9031 -0.1414
   52TCq2    C1  790   1.236   2.915   1.840  0.1518  0.8128  0.1572
   52TCq2    O2  791   1.194   2.885   1.727 -0.5251  0.4264  0.4030
   52TCq2    C2  792   1.255   3.058   1.871  0.1627 -0.1229 -0.1888
   52TCq2    C3  793   1.358   3.089   1.949  0.5975 -0.3961 -0.4515
   52TCq2    C4  794   1.372   3.218   1.991  0.1344  0.2026  0.6021
   52TCq2    C5  795   1.276   3.317   1.962  0.3042 -0.1146  0.4568
   52TCq2    C6  796   1.183   3.278   1.874 -0.1592  0.3611  0.5679
   52TCq2    C7  797   1.169   3.152   1.821 -0.5751 -0.1249  0.1054
   52TCq2    C8  798   1.089   3.383   1.839 -0.3134  0.6490 -0.1138
   52TCq2    O4  799   1.112   3.495   1.878  0.1053  0.1238  0.4790
   52TCq2    C9  800   1.489   3.260   2.065 -0.2725  0.1650  0.4523
   52TCq2    O5  801   1.587   3.185   2.053  0.1895  0.0635 -0.3187
   52TCq2    O6  802   1.496   3.382   2.102  0.4882 -0.5898  0.6975
   52TCq2    H2  803   1.434   3.019   1.985  0.2339 -0.7148 -0.3016
   52TCq2    H3  804   1.295   3.422   1.979  0.3186 -0.0788  0.2156
   52TCq2    H4  805   1.081   3.119   1.768  0.9360 -1.7588 -1.3908
   53TMC2    C1  806   0.346   1.964  11.257  0.4723  0.4080 -0.2442
   53TMC2    C2  807   0.452   1.874  11.267 -0.5712 -0.1151 -0.1027
   53TMC2    C3  808   0.525   1.892  11.381 -0.0649  0.2786 -0.2321
   53TMC2    C4  809   0.302   2.041  11.362  0.9350 -0.5536  0.2584
   53TMC2    C5  810   0.385   2.063  11.464  0.6998 -0.2017 -0.9948
   53TMC2    C6  811   0.503   1.988  11.474 -0.2326  0.1412  0.8392
   53TMC2     C  812   0.285   1.974  11.124  0.5548  0.4761  0.8327
   53TMC2     O  813   0.311   1.893  11.037  0.0621 -0.4396 -0.5870
   53TMC2     H  814   0.472   1.816  11.177  0.3965  0.4118 -0.2197
   53TMC2    H1  815   0.207   2.092  11.363  1.1782 -0.1487  2.3778
   53TMC2    H2  816   0.573   2.001  11.555 -1.3594  1.2607  1.6328
   53TMC2    C7  817   0.326   2.132  11.576  0.1904 -0.5936  0.9654
   53TMC2    C8  818   0.642   1.803  11.401  0.2190  0.3211  0.1714
   53TMC2    O1  819   0.206   2.128  11.590 -0.3077  0.4076  0.7276
   53TMC2    O2  820   0.713   1.808  11.503  0.3849 -0.0038 -0.0171
   53TMC2    O5  821   0.633   1.688  11.323 -0.5455  0.7333  0.4807
   53TMC2    H5  822   0.561   1.703  11.259  0.0998  0.7134 -0.2504
   54MPD2     C  823   0.103   2.034  10.890 -0.0166 -0.0403 -0.3315
   54MPD2    C1  824   0.124   2.116  11.002  0.7711 -0.0758  0.0776
   54MPD2    C2  825   0.057   2.239  11.006  0.2476  0.2969 -0.3436
   54MPD2    C3  826   4.700   2.280  10.904 -0.7128  0.3963  0.1831
   54MPD2    C4  827   4.691   2.197  10.791 -0.1581 -0.0272  0.2513
   54MPD2    C5  828   0.031   2.083  10.783  0.1491  0.7818 -0.2956
   54MPD2     H  829   0.074   2.309  11.087 -0.2957 -0.0100  0.0337
   54MPD2    H1  830   4.622   2.226  10.712  1.0785 -0.1577 -0.8727
   54MPD2    H2  831   0.140   1.932  10.894  2.2471  0.7334 -1.4801
   54MPD2    H3  832   0.017   2.023  10.694  1.7307  2.0955 -1.4299
   54MPD2     N  833   4.609   2.388  10.916 -0.6949 -0.4248 -0.7023
   54MPD2    H5  834   4.549   2.410  10.837  1.3408 -0.8925 -2.3845
   54MPD2    N1  835   0.205   2.088  11.114 -0.3070  0.5540 -0.0175
   54MPD2    H7  836   0.213   2.159  11.186 -1.6912 -0.5737  1.2590
   55MPD2     C  837   1.471   3.979  16.958  0.1533  0.0040 -0.3365
   55MPD2    C1  838   1.542   4.012  17.070 -0.3519 -0.2659 -0.3540
   55MPD2    C2  839   1.515   4.127  17.140  0.4047 -0.6737 -0.1241
   55MPD2    C3  840   1.404   4.202  17.100 -0.9612  0.3956  0.8955
   55MPD2    C4  841   1.331   4.161  16.993 -0.1202 -0.1328 -0.7860
   55MPD2    C5  842   1.363   4.055  16.914 -0.1172  0.1264 -0.2535
   55MPD2     H  843   1.565   4.159  17.230  0.2140 -2.5717  0.6496
   55MPD2    H1  844   1.247   4.219  16.958 -0.6928 -0.2017  0.4849
   55MPD2    H2  845   1.499   3.897  16.891 -0.2905  1.6038 -2.4852
   55MPD2    H3  846   1.305   4.030  16.826 -0.8379 -1.4595  0.6704
   55MPD2     N  847   1.392   4.321  17.171 -0.3935 -0.1325 -0.3330
   55MPD2    H5  848   1.460   4.348  17.241 -2.0884  3.9043 -0.2180
   55MPD2    N1  849   1.641   3.923  17.119  0.5780  0.1395 -0.2558
   55MPD2    H7  850   1.649   3.834  17.071  0.7107 -0.5286  1.0072
   56TCq2    C1  851   1.713   3.936  17.239 -0.4594  0.0541 -0.2787
   56TCq2    O2  852   1.719   4.028  17.318 -0.4801  0.2150  0.4979
   56TCq2    C2  853   1.798   3.827  17.277 -0.4017  0.2580  0.5799
   56TCq2    C3  854   1.821   3.724  17.196  0.0589 -0.3596  0.1748
   56TCq2    C4  855   1.878   3.613  17.255  0.9969 -0.0689 -0.8313
   56TCq2    C5  856   1.908   3.611  17.392 -1.2056 -0.2254  0.0436
   56TCq2    C6  857   1.897   3.727  17.461 -0.3018 -0.2961 -0.0279
   56TCq2    C7  858   1.840   3.834  17.406  0.4148  0.1054 -0.2309
   56TCq2    C8  859   1.970   3.731  17.580 -0.4371  0.5358 -0.7931
   56TCq2    O4  860   2.047   3.636  17.590 -0.5003 -0.2627 -0.6172
   56TCq2    C9  861   1.902   3.496  17.176  0.3761  0.8347 -0.0620
   56TCq2    O5  862   1.868   3.510  17.054  0.1884 -0.4251 -0.1760
   56TCq2    O6  863   1.942   3.388  17.234  0.1057 -0.0543 -0.3187
   56TCq2    H2  864   1.778   3.707  17.098 -0.0896 -3.5228  0.7701
   56TCq2    H3  865   1.935   3.519  17.441  1.3962  1.5877  2.0464
   56TCq2    H4  866   1.831   3.923  17.467  1.1673 -0.6355  0.9625
   57TMC2    C1  867   0.299   0.585  13.273 -0.7631  0.0822 -0.1134
   57TMC2    C2  868   0.382   0.679  13.230 -0.4492  0.8527  0.2332
   57TMC2    C3  869   0.501   0.633  13.178 -0.0038 -0.0325 -0.0224
   57TMC2    C4  870   0.311   0.448  13.244  0.1882 -0.1608 -0.0899
   57TMC2    C5  871   0.426   0.407  13.180  0.1024 -0.0723 -0.2126
   57TMC2    C6  872   0.518   0.501  13.147  0.0103 -0.1462  0.2336
   57TMC2     C  873   0.217   0.625  13.387 -0.0248 -0.7041  0.7306
   57TMC2     O  874   0.192   0.746  13.392  0.4364  0.1029  0.0057
   57TMC2     H  875   0.379   0.776  13.280 -1.4638  1.3307 -0.7613
   57TMC2    H1  876   0.244   0.373  13.285  0.1356  0.9091  1.7620
   57TMC2    H2  877   0.613   0.473  13.104  0.2331  0.3542  0.3975
   57TMC2    C7  878   0.420   0.286  13.106 -0.4411 -0.3292  0.0035
   57TMC2    C8  879   0.623   0.716  13.162  0.2871  0.8508  0.0318
   57TMC2    O1  880   0.306   0.241  13.096 -0.2396 -0.3249 -0.1903
   57TMC2    O2  881   0.738   0.682  13.194 -0.5278  0.5236  0.1726
   57TMC2    O5  882   0.590   0.840  13.130 -0.3765 -0.1380  0.3245
   57TMC2    H5  883   0.498   0.852  13.098 -0.5299 -3.6538 -0.4874
   58MPD2     C  884   0.045   0.503  13.849  0.4675  0.2563  0.1467
   58MPD2    C1  885   0.028   0.620  13.785 -0.1713 -0.3228 -0.4746
   58MPD2    C2  886   0.084   0.633  13.660 -0.1494  0.5120 -0.0383
   58MPD2    C3  887   0.151   0.524  13.604  0.2246 -0.3295  0.5412
   58MPD2    C4  888   0.169   0.408  13.675  0.6484 -0.6391 -0.5811
   58MPD2    C5  889   0.120   0.401  13.804  0.3541  0.1715 -0.6966
   58MPD2     H  890   0.083   0.729  13.610  1.4170  0.5876  0.0537
   58MPD2    H1  891   0.223   0.322  13.637  2.2935 -0.6908  1.9040
   58MPD2    H2  892   0.002   0.477  13.945  1.3448  0.2446  0.5354
   58MPD2    H3  893   0.125   0.307  13.857 -0.8130  0.6914  0.3453
   58MPD2     N  894   0.216   0.527  13.479  0.4899 -0.5158  0.3126
   58MPD2    H5  895   0.259   0.441  13.449  1.2855 -0.2732  0.7634
   58MPD2    N1  896   4.684   0.733  13.836  0.0051 -0.0803 -0.1640
   58MPD2    H7  897   4.673   0.815  13.777  0.8266  1.0327  1.2087
   59MPD2     C  898   3.199   0.870  13.148  0.4486  0.1102  0.4373
   59MPD2    C1  899   3.236   0.944  13.041 -0.7364 -0.1573  0.0071
   59MPD2    C2  900   3.350   1.021  13.032  0.4780 -0.4217 -0.5833
   59MPD2    C3  901   3.431   1.026  13.146 -0.8840 -0.4226  0.5614
   59MPD2    C4  902   3.394   0.951  13.253  0.7301 -0.4234  0.1970
   59MPD2    C5  903   3.275   0.881  13.264  0.6611  0.9650  0.8002
   59MPD2     H  904   3.372   1.072  12.939  3.0908  0.1773  0.3574
   59MPD2    H1  905   3.456   0.961  13.342  0.9129 -1.8652  0.2243
   59MPD2    H2  906   3.111   0.807  13.158  3.1674 -3.3471  2.6647
   59MPD2    H3  907   3.245   0.830  13.355  1.1018  1.0125  0.9704
   59MPD2     N  908   3.557   1.093  13.148  0.0043 -0.2498  0.0340
   59MPD2    H5  909   3.598   1.110  13.240  0.7516  0.5945 -0.4515
   59MPD2    N1  910   3.151   0.946  12.924 -0.3647 -0.0485  0.1039
   59MPD2    H7  911   3.169   1.007  12.846  0.7212  1.0067  1.1880
   60TCq2    C1  912   3.046   0.867  12.893 -0.2246  0.0247  1.2534
   60TCq2    O2  913   2.983   0.786  12.965 -0.1389 -0.1602  0.4027
   60TCq2    C2  914   2.996   0.885  12.759  0.2664  0.0830 -0.4877
   60TCq2    C3  915   2.870   0.838  12.730 -0.5851 -0.3808 -0.9806
   60TCq2    C4  916   2.826   0.843  12.601  0.7994  0.2269  0.7386
   60TCq2    C5  917   2.908   0.898  12.506 -0.0843  0.0901 -0.5225
   60TCq2    C6  918   3.043   0.927  12.530 -0.5957  0.6129  0.5326
   60TCq2    C7  919   3.084   0.929  12.660 -0.4003 -0.1339  0.3330
   60TCq2    C8  920   3.140   0.972  12.420  0.2357  0.0799  0.3072
   60TCq2    O4  921   3.254   0.994  12.447  0.3232  0.1712  0.4788
   60TCq2    C9  922   2.698   0.789  12.564  0.6858  0.1007 -0.7217
   60TCq2    O5  923   2.618   0.744  12.654  0.1614  0.6282  0.1699
   60TCq2    O6  924   2.663   0.813  12.446  0.0658 -0.2066 -0.2509
   60TCq2    H2  925   2.811   0.792  12.808  0.6589  0.4079  0.4194
   60TCq2    H3  926   2.878   0.879  12.404 -0.3328  2.4241 -0.8788
   60TCq2    H4  927   3.190   0.944  12.675 -0.7477  2.5020  0.1989
   61MPD2     C  928   2.130   1.571  14.293  0.2258 -0.4679  0.4892
   61MPD2    C1  929   2.184   1.656  14.391  0.4017 -0.0809  0.3941
   61MPD2    C2  930   2.191   1.795  14.370 -0.3457  0.1989 -0.3786
   61MPD2    C3  931   2.169   1.848  14.242  0.2332  0.1562 -0.1166
   61MPD2    C4  932   2.124   1.761  14.145 -0.3678 -0.0557 -0.1925
   61MPD2    C5  933   2.111   1.624  14.168  0.2302  0.3642 -0.5642
   61MPD2     H  934   2.211   1.862  14.454 -0.6710  2.0278 -1.7542
   61MPD2    H1  935   2.105   1.809  14.049  1.5595 -1.5797 -1.3323
   61MPD2    H2  936   2.133   1.463  14.302 -1.1592 -0.4161  1.4906
   61MPD2    H3  937   2.088   1.559  14.085 -0.6804 -0.4746  0.3525
   61MPD2     N  938   2.184   1.986  14.215 -0.1069 -0.8371  0.0732
   61MPD2    H5  939   2.157   2.017  14.122  0.7141  0.1949  0.1755
   61MPD2    N1  940   2.203   1.612  14.522  0.0305  0.1478 -0.3934
   61MPD2    H7  941   2.231   1.686  14.585 -0.2283 -0.3679  0.3272
   62TCq2    C1  942   2.166   1.489  14.575 -0.3144  0.0279  0.4997
   62TCq2    O2  943   2.136   1.386  14.518 -0.3217 -0.2040 -0.2281
   62TCq2    C2  944   2.145   1.486  14.717  0.1946  0.2332 -0.6180
   62TCq2    C3  945   2.139   1.360  14.779 -0.3994 -0.3689 -0.3227
   62TCq2    C4  946   2.122   1.357  14.913  0.4470 -0.3392  0.4938
   62TCq2    C5  947   2.126   1.464  14.993  0.0581  0.5632  0.4658
   62TCq2    C6  948   2.135   1.585  14.924 -0.6376 -0.1100  0.2534
   62TCq2    C7  949   2.149   1.599  14.788 -0.1118  0.1961 -0.4178
   62TCq2    C8  950   2.126   1.705  15.003  0.1057  0.1112  0.1804
   62TCq2    O4  951   2.138   1.808  14.936  0.1755 -0.1648 -0.0775
   62TCq2    C9  952   2.096   1.230  14.973 -0.4564  0.2000 -0.1510
   62TCq2    O5  953   2.065   1.227  15.101  0.0954  0.0922  0.2411
   62TCq2    O6  954   2.119   1.122  14.908  0.0978 -0.3641  0.5375
   62TCq2    H2  955   2.127   1.269  14.721  0.4606 -0.4535 -0.3670
   62TCq2    H3  956   2.085   1.452  15.093 -1.6454 -0.2979 -0.3273
   62TCq2    H4  957   2.127   1.696  14.745  1.3019 -0.6842 -3.1757
   63TMC2    C1  958   1.648   2.280  10.891  0.0696  0.4855  1.0185
   63TMC2    C2  959   1.757   2.282  10.967  0.8332 -1.1520  0.6951
   63TMC2    C3  960   1.867   2.338  10.909 -0.7000  0.5521 -0.0051
   63TMC2    C4  961   1.628   2.337  10.770  0.2681  0.0044 -0.3536
   63TMC2    C5  962   1.738   2.411  10.724 -0.9266 -0.7108  0.3192
   63TMC2    C6  963   1.853   2.412  10.793  0.0167  0.3846  0.4153
   63TMC2     C  964   1.544   2.187  10.936 -0.6078 -0.3075 -0.4824
   63TMC2     O  965   1.545   2.147  11.053  0.9042  0.0546  0.4408
   63TMC2     H  966   1.758   2.226  11.059  2.2710 -1.6948  0.3494
   63TMC2    H1  967   1.532   2.343  10.720 -0.1876  0.8073  0.6406
   63TMC2    H2  968   1.941   2.468  10.765 -0.5581  1.2590  0.3573
   63TMC2    C7  969   1.703   2.519  10.634 -0.5504 -0.9646 -0.1759
   63TMC2    C8  970   1.957   2.401  11.003  0.0729 -0.4776  0.2167
   63TMC2    O1  971   1.583   2.526  10.606 -0.0349 -0.4187 -0.1189
   63TMC2    O2  972   2.074   2.416  10.975  0.3880  0.1576 -0.3649
   63TMC2    O5  973   1.881   2.497  11.061 -0.3352  0.9272 -0.2828
   63TMC2    H5  974   1.788   2.469  11.070 -0.1117  0.6472  1.2000
   64MPD2     C  975   1.201   1.808  10.867 -0.2914  0.0627 -0.3915
   64MPD2    C1  976   1.273   1.825  10.747  0.8843  0.0535  0.3193
   64MPD2    C2  977   1.366   1.927  10.741  0.1500 -0.2053  0.6462
   64MPD2    C3  978   1.380   2.021  10.846 -0.0489  0.2251  0.1685
   64MPD2    C4  979   1.307   2.002  10.963 -0.1201  0.1720 -0.1640
   64MPD2    C5  980   1.235   1.885  10.976  0.3803 -0.8352 -0.0624
   64MPD2     H  981   1.419   1.941  10.647 -1.1444  1.7909  0.2153
   64MPD2    H1  982   1.315   2.056  11.056 -1.1324 -0.9744  0.5862
   64MPD2    H2  983   1.129   1.729  10.884  0.0909  0.0024  1.0104
   64MPD2    H3  984   1.212   1.858  11.079  0.1123  0.1328  0.1291
   64MPD2     N  985   1.478   2.126  10.833 -0.3090  0.3957 -0.5007
   64MPD2    H5  986   1.496   2.144  10.735 -1.3545  0.7560 -0.6272
   64MPD2    N1  987   1.267   1.737  10.642 -1.0062 -0.5865 -0.3885
   64MPD2    H7  988   1.322   1.765  10.561 -2.6117  0.5515 -1.0923
   65MPD2     C  989   2.910   1.269  15.815  0.0332 -0.2565 -0.0959
   65MPD2    C1  990   2.901   1.276  15.673 -0.6731  0.1040 -0.2452
   65MPD2    C2  991   2.901   1.163  15.599 -0.3350  0.1266  0.4593
   65MPD2    C3  992   2.902   1.040  15.649 -0.3135  0.1217  0.3251
   65MPD2    C4  993   2.911   1.036  15.785  0.1031 -0.2552 -0.3224
   65MPD2    C5  994   2.919   1.142  15.872 -0.4364  0.4626  0.1630
   65MPD2     H  995   2.911   1.174  15.492 -1.4220  1.1871  0.4690
   65MPD2    H1  996   2.913   0.938  15.831 -0.2663 -0.7223 -1.2900
   65MPD2    H2  997   2.918   1.352  15.884  1.3973 -2.1551  2.0369
   65MPD2    H3  998   2.921   1.122  15.978  0.5130 -2.1114 -0.3505
   65MPD2     N  999   2.898   0.916  15.577 -0.0394  0.1372  0.0809
   65MPD2    H5 1000   2.890   0.830  15.630  1.4629 -1.2331 -1.9553
   65MPD2    N1 1001   2.884   1.402  15.610 -0.0496 -0.1215 -0.0836
   65MPD2    H7 1002   2.865   1.390  15.511 -0.8674 -1.5781  0.2444
   66TCq2    C1 1003   2.882   1.524  15.669  0.0086  0.5767 -0.1827
   66TCq2    O2 1004   2.861   1.549  15.788  0.4513 -0.0309 -0.2980
   66TCq2    C2 1005   2.871   1.626  15.565  0.4387 -0.3242 -0.3198
   66TCq2    C3 1006   2.910   1.597  15.437  0.5730  0.1726 -0.5586
   66TCq2    C4 1007   2.904   1.707  15.355  0.4993  0.6502  0.3426
   66TCq2    C5 1008   2.850   1.827  15.390  0.2131 -0.1779  0.6536
   66TCq2    C6 1009   2.811   1.842  15.519 -0.5354 -0.4032  0.0904
   66TCq2    C7 1010   2.819   1.744  15.606 -0.7698  0.4091 -0.3183
   66TCq2    C8 1011   2.743   1.969  15.552  0.3253 -0.1980 -0.3003
   66TCq2    O4 1012   2.714   2.037  15.451  0.2529 -0.0627  0.0640
   66TCq2    C9 1013   2.939   1.687  15.213  0.5994 -0.0993 -0.1898
   66TCq2    O5 1014   2.899   1.768  15.125 -0.0224  0.0117 -0.5997
   66TCq2    O6 1015   3.034   1.610  15.200  0.1484 -0.4677 -0.3753
   66TCq2    H2 1016   2.970   1.512  15.406  0.5966  0.4642 -1.3024
   66TCq2    H3 1017   2.842   1.906  15.316  2.8871  0.3618  0.9115
   66TCq2    H4 1018   2.774   1.756  15.705  0.1250  0.7116  0.0479
   67MPD2     C 1019   2.826   1.664  13.998 -0.8050 -0.2239  0.0323
   67MPD2    C1 1020   2.850   1.545  14.068  0.5783 -0.4728  0.2355
   67MPD2    C2 1021   2.779   1.430  14.029 -0.0081 -0.2700  0.4545
   67MPD2    C3 1022   2.680   1.442  13.935  0.4326  0.3570  0.0458
   67MPD2    C4 1023   2.658   1.565  13.876 -0.0617  0.0449  0.2658
   67MPD2    C5 1024   2.739   1.665  13.898 -0.3068 -0.4716 -0.5133
   67MPD2     H 1025   2.801   1.344  14.092  0.4136  0.6097  1.5109
   67MPD2    H1 1026   2.576   1.571  13.805  0.1643  1.7428  0.1537
   67MPD2    H2 1027   2.872   1.760  14.021 -0.9314  0.2457 -1.6578
   67MPD2    H3 1028   2.721   1.756  13.841  0.2881  0.5216  0.8689
   67MPD2     N 1029   2.597   1.331  13.893  0.1146 -0.1328  0.1202
   67MPD2    H5 1030   2.515   1.360  13.840  1.2224  1.0022 -0.9904
   67MPD2    N1 1031   2.942   1.530  14.173 -0.5245 -0.3962 -0.0554
   67MPD2    H7 1032   2.948   1.440  14.219  0.5304  0.7677  2.0944
   68TCq2    C1 1033   3.017   1.634  14.226 -0.1060 -0.2667  0.5222
   68TCq2    O2 1034   3.019   1.752  14.192  0.1805 -0.7485  0.3508
   68TCq2    C2 1035   3.075   1.615  14.364  0.2373 -0.5961 -0.0816
   68TCq2    C3 1036   3.056   1.716  14.459 -0.1271 -0.1044 -0.2264
   68TCq2    C4 1037   3.106   1.696  14.589 -0.1654 -0.1246 -0.4739
   68TCq2    C5 1038   3.141   1.573  14.626 -0.0508  0.3821 -0.0870
   68TCq2    C6 1039   3.158   1.475  14.528 -0.4105 -0.5133  0.5277
   68TCq2    C7 1040   3.121   1.491  14.395 -0.2230  0.0750  0.4479
   68TCq2    C8 1041   3.191   1.341  14.575  0.0981  0.3017  0.3938
   68TCq2    O4 1042   3.232   1.264  14.490  0.0640  0.0781  0.0786
   68TCq2    C9 1043   3.096   1.800  14.691 -0.4821 -0.2101 -0.2689
   68TCq2    O5 1044   3.059   1.770  14.811  0.2116  0.1933  0.4709
   68TCq2    O6 1045   3.129   1.919  14.654  0.2138  0.0440  0.0622
   68TCq2    H2 1046   3.014   1.812  14.433 -2.3774 -1.3628 -1.2248
   68TCq2    H3 1047   3.180   1.571  14.727  0.9403  1.8408 -0.4344
   68TCq2    H4 1048   3.114   1.401  14.335  1.2854 -0.1224  0.5717
   69TMC2    C1 1049   0.378   2.285  12.452  0.4604 -0.6044 -0.4246
   69TMC2    C2 1050   0.297   2.394  12.462  0.0725 -0.4007 -0.4419
   69TMC2    C3 1051   0.335   2.508  12.403 -0.4525 -1.4205  0.1100
   69TMC2    C4 1052   0.495   2.292  12.365  0.1372  0.0387 -0.0819
   69TMC2    C5 1053   0.538   2.419  12.337 -0.5777 -0.6045  0.5022
   69TMC2    C6 1054   0.461   2.531  12.354  0.3281 -0.5256 -0.0869
   69TMC2     C 1055   0.342   2.165  12.525  0.4756 -0.5820 -0.3413
   69TMC2     O 1056   0.229   2.176  12.573 -0.2882 -0.0961 -0.0660
   69TMC2     H 1057   0.207   2.393  12.522 -0.6746  1.3200 -1.5276
   69TMC2    H1 1058   0.555   2.202  12.355  0.3304 -0.0185  1.6085
   69TMC2    H2 1059   0.489   2.624  12.305  1.5159 -0.3682  0.8852
   69TMC2    C7 1060   0.664   2.445  12.269 -1.3156  0.1093  0.5886
   69TMC2    C8 1061   0.244   2.621  12.430 -0.2850  0.1311 -0.3688
   69TMC2    O1 1062   0.720   2.359  12.202 -0.4535  0.7071  0.1002
   69TMC2    O2 1063   0.147   2.596  12.504  0.3013  0.1197 -0.2092
   69TMC2    O5 1064   0.320   2.731  12.450 -0.4592 -0.5564 -0.0204
   69TMC2    H5 1065   0.387   2.749  12.381 -1.9596  0.1640 -1.3139
   70MPD2     C 1066   0.526   1.848  12.594 -0.2745 -0.0308 -0.0203
   70MPD2    C1 1067   0.410   1.927  12.578  0.9460  0.0179  0.4111
   70MPD2    C2 1068   0.280   1.889  12.623  0.4160  0.1831 -0.1839
   70MPD2    C3 1069   0.279   1.769  12.696  0.8617  0.1801 -0.3209
   70MPD2    C4 1070   0.390   1.691  12.710 -0.3425 -0.3275 -0.0247
   70MPD2    C5 1071   0.513   1.728  12.660  0.6223 -0.3733 -0.2408
   70MPD2     H 1072   0.192   1.946  12.595 -1.2032 -1.8323  0.7656
   70MPD2    H1 1073   0.380   1.591  12.750  1.8174 -0.0405  1.2885
   70MPD2    H2 1074   0.625   1.878  12.563  0.4747 -2.3474  0.1984
   70MPD2    H3 1075   0.604   1.669  12.657  2.5306  2.3941  3.0270
   70MPD2     N 1076   0.164   1.705  12.747  0.2420 -0.0320 -0.5665
   70MPD2    H5 1077   0.180   1.616  12.793 -0.3166 -1.2301 -2.7094
   70MPD2    N1 1078   0.432   2.062  12.522  0.4234 -0.0781 -0.5172
   70MPD2    H7 1079   0.515   2.082  12.468 -0.0668  0.6672 -1.0002
   71TMC2    C1 1080   2.673   2.704   1.731 -0.0216  0.5207 -0.0121
   71TMC2    C2 1081   2.797   2.705   1.796 -0.0906  0.0900  0.0533
   71TMC2    C3 1082   2.798   2.725   1.930 -0.2660  0.6947 -0.5150
   71TMC2    C4 1083   2.560   2.740   1.804  0.6346  0.2295  0.6175
   71TMC2    C5 1084   2.576   2.768   1.940 -0.7741  0.0485 -0.3708
   71TMC2    C6 1085   2.695   2.764   2.005 -0.3483  0.3295 -0.5340
   71TMC2     C 1086   2.646   2.680   1.594  0.0210  0.0842  0.0642
   71TMC2     O 1087   2.732   2.710   1.515 -0.0484 -0.1915 -0.0550
   71TMC2     H 1088   2.890   2.701   1.740 -0.1609 -0.0422 -0.0537
   71TMC2    H1 1089   2.459   2.744   1.765  1.3192  0.2602 -1.1289
   71TMC2    H2 1090   2.706   2.782   2.111 -2.7509 -1.1972 -0.0296
   71TMC2    C7 1091   2.468   2.840   2.008 -0.2112  0.3788 -0.7161
   71TMC2    C8 1092   2.923   2.767   1.990 -0.4984 -0.3796  0.0369
   71TMC2    O1 1093   2.483   2.852   2.130 -0.6254 -0.3246  0.0164
   71TMC2    O2 1094   2.937   2.850   2.079  0.0606  0.4092  0.1351
   71TMC2    O5 1095   3.015   2.679   1.962  0.4609  0.4217  0.4603
   71TMC2    H5 1096   2.988   2.619   1.889  1.0533 -0.5196  1.0165
   72MPD2     C 1097   2.372   2.604   1.165 -0.7990 -0.3361  0.3750
   72MPD2    C1 1098   2.478   2.688   1.195 -0.0492  0.1125  0.5761
   72MPD2    C2 1099   2.526   2.690   1.321  0.0096 -0.5681 -0.0332
   72MPD2    C3 1100   2.474   2.621   1.430  0.9059  0.9369 -0.0758
   72MPD2    C4 1101   2.366   2.542   1.398 -0.2426  0.6252  0.1225
   72MPD2    C5 1102   2.319   2.535   1.265 -0.7108  0.1731 -0.3471
   72MPD2     H 1103   2.605   2.763   1.336 -2.0873  1.6025  0.3656
   72MPD2    H1 1104   2.309   2.496   1.479  0.6731  1.5350  1.2783
   72MPD2    H2 1105   2.327   2.584   1.069 -0.9578 -2.0955  0.7997
   72MPD2    H3 1106   2.239   2.464   1.250 -1.9110  1.7429 -1.3861
   72MPD2     N 1107   2.525   2.625   1.561  0.2797 -0.1168 -0.1743
   72MPD2    H5 1108   2.475   2.574   1.633  0.4057  0.8516  0.6009
   72MPD2    N1 1109   2.540   2.764   1.091 -0.0205 -0.0651 -0.0361
   72MPD2    H7 1110   2.608   2.829   1.130  0.9086 -0.6722 -0.6542
   73TMC2    C1 1111   2.684   4.075  13.915 -0.7821 -0.0467  0.0319
   73TMC2    C2 1112   2.570   4.070  13.991  0.3802  0.5823 -0.1287
   73TMC2    C3 1113   2.571   4.119  14.116 -0.4222 -0.4226  0.2212
   73TMC2    C4 1114   2.792   4.143  13.972 -0.3730 -0.9325  0.3777
   73TMC2    C5 1115   2.789   4.192  14.100  0.1540  0.2311  0.2875
   73TMC2    C6 1116   2.679   4.183  14.174 -0.7584  0.3387 -0.2489
   73TMC2     C 1117   2.654   4.142  13.789  0.3017  0.5843 -0.1138
   73TMC2     O 1118   2.730   4.231  13.758  0.4563  0.4856  0.5444
   73TMC2     H 1119   2.481   4.015  13.964 -1.0563  1.7005  2.4169
   73TMC2    H1 1120   2.878   4.166  13.910 -0.0865  0.2239  1.2126
   73TMC2    H2 1121   2.664   4.249  14.259  4.2079  2.3612 -0.9294
   73TMC2    C7 1122   2.854   4.325  14.101 -0.1237 -0.0266  0.0411
   73TMC2    C8 1123   2.438   4.156  14.155 -0.4434 -0.3603  0.2483
   73TMC2    O1 1124   2.893   4.375  14.210 -0.1328  0.0546 -0.1899
   73TMC2    O2 1125   2.346   4.153  14.073 -0.0594 -0.1617  0.3887
   73TMC2    O5 1126   2.422   4.116  14.282  0.4718  0.0504 -0.7266
   73TMC2    H5 1127   2.501   4.129  14.339  0.0121 -2.1658  0.4016
   74MPD2     C 1128   2.403   4.228  13.362 -0.2206 -0.4310  0.0533
   74MPD2    C1 1129   2.488   4.306  13.429 -0.2618  0.2085  0.6173
   74MPD2    C2 1130   2.532   4.260  13.556  0.0429 -0.8063  0.3324
   74MPD2    C3 1131   2.506   4.132  13.592 -0.3448 -0.6623  0.4071
   74MPD2    C4 1132   2.434   4.048  13.511 -0.9846 -0.3313  0.1919
   74MPD2    C5 1133   2.379   4.098  13.396 -0.2439  0.1192 -0.6933
   74MPD2     H 1134   2.583   4.325  13.625  1.7851 -1.6733 -0.1506
   74MPD2    H1 1135   2.408   3.944  13.532  0.1487 -0.3799  1.3373
   74MPD2    H2 1136   2.359   4.275  13.276  1.5232  0.2256 -0.4667
   74MPD2    H3 1137   2.329   4.042  13.318 -1.1230 -0.8620  0.5758
   74MPD2     N 1138   2.542   4.087  13.721  0.2025  0.0691  0.0718
   74MPD2    H5 1139   2.514   3.993  13.745 -2.5800  0.6035 -1.1344
   74MPD2    N1 1140   2.511   4.436  13.383  0.2786 -0.2413  0.1425
   74MPD2    H7 1141   2.470   4.456  13.293 -3.8410 -0.5107  1.9421
   75TCq2    C1 1142   2.598   1.212  13.957 -0.1145  0.2108  0.4669
   75TCq2    O2 1143   2.670   1.164  14.046  0.1232  0.4154  0.6763
   75TCq2    C2 1144   2.501   1.123  13.896  0.3313  0.3591  0.5087
   75TCq2    C3 1145   2.460   1.022  13.974  0.2508 -1.7936 -0.2387
   75TCq2    C4 1146   2.379   0.922  13.925  0.3050 -0.3965  0.0454
   75TCq2    C5 1147   2.350   0.914  13.785  0.1817 -0.0580  0.0422
   75TCq2    C6 1148   2.399   1.013  13.707 -0.1816  0.2185  0.3868
   75TCq2    C7 1149   2.476   1.117  13.755  1.1234 -0.3373  0.5487
   75TCq2    C8 1150   2.351   1.014  13.571 -0.3877 -0.4468  0.4876
   75TCq2    O4 1151   2.352   1.119  13.513 -0.2156 -0.3118  0.5742
   75TCq2    C9 1152   2.317   0.822  14.016  0.9868  0.4471  0.1794
   75TCq2    O5 1153   2.335   0.839  14.142 -0.2827 -0.1276  0.5385
   75TCq2    O6 1154   2.244   0.738  13.959 -0.2467  0.2088 -0.4229
   75TCq2    H2 1155   2.481   1.016  14.080 -1.6446  1.1412  0.2778
   75TCq2    H3 1156   2.299   0.825  13.752 -1.0665  1.6540 -2.6335
   75TCq2    H4 1157   2.505   1.185  13.676  0.2528 -0.1768  0.3647
   76MPD2     C 1158   1.690   2.242  11.779  0.1964  1.1738  1.0512
   76MPD2    C1 1159   1.593   2.176  11.702  0.3543  0.3287 -0.5707
   76MPD2    C2 1160   1.600   2.042  11.675  0.9379 -0.3085 -0.8389
   76MPD2    C3 1161   1.707   1.970  11.727 -0.2200  0.1610 -0.4556
   76MPD2    C4 1162   1.806   2.034  11.797  0.1415  0.4745 -0.7130
   76MPD2    C5 1163   1.793   2.166  11.814  0.1747 -0.1956  1.2580
   76MPD2     H 1164   1.524   1.990  11.618 -0.1122 -1.7612  1.9135
   76MPD2    H1 1165   1.898   1.985  11.826 -1.3918 -1.0553  1.5306
   76MPD2    H2 1166   1.684   2.347  11.804 -0.4287  1.3133  0.3270
   76MPD2    H3 1167   1.872   2.230  11.854 -1.0620  1.1818  1.4935
   76MPD2     N 1168   1.719   1.824  11.722  0.1714 -0.5668 -0.1999
   76MPD2    H5 1169   1.800   1.787  11.771 -0.5565 -1.8288  0.0561
   76MPD2    N1 1170   1.478   2.240  11.649 -0.0942  0.5340 -0.1269
   76MPD2    H7 1171   1.410   2.183  11.601 -0.0257  1.2409 -1.0569
   77TCq2    C1 1172   1.625   1.742  11.666 -0.5051 -0.2142  0.0736
   77TCq2    O2 1173   1.521   1.770  11.604 -0.1713 -0.6259 -0.6424
   77TCq2    C2 1174   1.672   1.598  11.676 -0.0679 -0.8063  0.4939
   77TCq2    C3 1175   1.570   1.507  11.663  0.4012  0.3215  0.2296
   77TCq2    C4 1176   1.586   1.383  11.719 -0.9143 -0.6411 -0.7205
   77TCq2    C5 1177   1.702   1.352  11.784  0.0613  0.8113  0.0765
   77TCq2    C6 1178   1.799   1.440  11.790 -0.8833 -0.9644  0.3565
   77TCq2    C7 1179   1.784   1.572  11.746 -0.0463  0.7270 -0.2113
   77TCq2    C8 1180   1.935   1.398  11.829  0.3308  0.8776 -0.0928
   77TCq2    O4 1181   1.965   1.281  11.812 -0.4214 -0.0918 -0.1412
   77TCq2    C9 1182   1.480   1.287  11.712  0.0516 -0.2226 -0.0651
   77TCq2    O5 1183   1.491   1.190  11.791 -0.5220 -0.4281  0.2196
   77TCq2    O6 1184   1.390   1.308  11.629 -0.1440 -0.4408  0.8722
   77TCq2    H2 1185   1.473   1.522  11.616  1.5288  1.3639 -1.7568
   77TCq2    H3 1186   1.723   1.252  11.819 -1.8042 -0.1500 -1.5188
   77TCq2    H4 1187   1.861   1.648  11.740 -0.6581  1.2897 -1.1159
   78MPD1     C 1188   1.372   3.177   3.133 -0.5024  0.2826 -0.1782
   78MPD1    C1 1189   1.387   3.088   3.235  0.3432 -0.3585  0.0486
   78MPD1    C2 1190   1.427   2.957   3.209 -0.4456  0.9458 -0.1269
   78MPD1    C3 1191   1.466   2.926   3.080 -0.3832 -0.1500 -0.7376
   78MPD1    C4 1192   1.451   3.018   2.980 -0.1441 -0.1447  0.1655
   78MPD1    C5 1193   1.402   3.142   3.002 -0.4691  0.1709 -0.1239
   78MPD1     H 1194   1.450   2.891   3.292 -0.2433 -0.0037 -0.9409
   78MPD1    H1 1195   1.470   2.997   2.876  0.8386 -0.1550  0.3406
   78MPD1    H2 1196   1.345   3.279   3.156  3.6542  1.0022  1.4439
   78MPD1    H3 1197   1.385   3.206   2.916 -0.2490  0.6381  0.1763
   78MPD1     N 1198   1.511   2.798   3.040  0.0047  0.5623  0.5083
   78MPD1    H5 1199   1.527   2.786   2.941 -0.6402 -0.4310  0.5209
   78MPD1    N1 1200   1.334   3.119   3.365 -0.8253 -0.3267 -0.6068
   78MPD1    H6 1201   1.345   3.217   3.390  0.3514 -0.4708 -0.5342
   78MPD1    H7 1202   1.375   3.062   3.440 -1.2472  1.0585  0.6644
   79TCq2    C1 1203   1.544   2.708   3.135  0.1287  0.0762  0.5003
   79TCq2    O2 1204   1.580   2.717   3.254 -0.0478 -0.1752 -0.0978
   79TCq2    C2 1205   1.564   2.574   3.081  0.3388 -1.1825  0.8645
   79TCq2    C3 1206   1.647   2.485   3.144  0.8182 -0.9609  0.2936
   79TCq2    C4 1207   1.681   2.367   3.086  0.4598 -0.0562 -0.1121
   79TCq2    C5 1208   1.628   2.342   2.960 -0.3418 -0.2426 -0.1228
   79TCq2    C6 1209   1.547   2.428   2.892 -0.1209  0.3367  0.5053
   79TCq2    C7 1210   1.506   2.538   2.959 -0.3406  0.0705  0.5919
   79TCq2    C8 1211   1.466   2.393   2.784  0.2969 -0.2050 -0.0930
   79TCq2    O4 1212   1.430   2.486   2.713  0.2826  0.0647 -0.0123
   79TCq2    C9 1213   1.785   2.289   3.157  0.2233  0.1296 -0.3577
   79TCq2    O5 1214   1.846   2.200   3.092 -0.2899  0.0713  0.0213
   79TCq2    O6 1215   1.787   2.310   3.281  0.6135 -0.4178 -0.2591
   79TCq2    H2 1216   1.696   2.511   3.237  1.9184 -1.5294 -0.1187
   79TCq2    H3 1217   1.662   2.253   2.907  1.2290 -0.0998  0.6495
   79TCq2    H4 1218   1.438   2.608   2.911 -0.5829  1.4280  2.9436
   80MPD2     C 1219   0.076   2.160  12.285 -0.4650 -0.2046  0.6925
   80MPD2    C1 1220   0.053   2.153  12.146 -0.1907 -0.5764  0.4667
   80MPD2    C2 1221   4.650   2.176  12.096  0.0288 -0.0467  0.0864
   80MPD2    C3 1222   4.554   2.209  12.184 -0.3330 -0.5531 -0.1682
   80MPD2    C4 1223   4.574   2.202  12.322 -0.8137 -0.9754  0.5727
   80MPD2    C5 1224   4.702   2.189  12.377  0.2265  0.0343  0.1047
   80MPD2     H 1225   4.643   2.182  11.988 -2.3750 -1.5039  0.1625
   80MPD2    H1 1226   4.493   2.226  12.390 -1.8774  2.3702 -1.8794
   80MPD2    H2 1227   0.172   2.136  12.329 -1.0468  0.1235  2.1487
   80MPD2    H3 1228   4.717   2.180  12.484 -0.0270 -0.7222  0.0755
   80MPD2     N 1229   4.424   2.224  12.139  0.2417 -0.1418 -0.3294
   80MPD2    H5 1230   4.355   2.202  12.210 -0.7217  0.1465 -1.1760
   80MPD2    N1 1231   0.146   2.101  12.056 -0.6050  0.2546 -0.5271
   80MPD2    H7 1232   0.114   2.085  11.961  0.4814  1.1424 -1.0526
   81TCq2    C1 1233   0.275   2.070  12.088  0.2471 -0.8711 -0.1012
   81TCq2    O2 1234   0.339   2.077  12.193  0.2916  0.3203  0.4363
   81TCq2    C2 1235   0.347   2.015  11.979  0.3516 -0.3876  0.2347
   81TCq2    C3 1236   0.483   2.048  11.972  0.2249 -0.4856  1.5704
   81TCq2    C4 1237   0.556   1.994  11.868 -0.1464 -0.6625 -0.4167
   81TCq2    C5 1238   0.488   1.910  11.785  0.2156 -0.9547 -0.7280
   81TCq2    C6 1239   0.360   1.876  11.798 -0.3958  0.6419  0.1155
   81TCq2    C7 1240   0.286   1.922  11.898 -0.6586 -0.0797  0.1815
   81TCq2    C8 1241   0.322   1.747  11.731  0.1258  0.0125  0.0647
   81TCq2    O4 1242   0.398   1.700  11.646  0.1939  0.6408  0.3840
   81TCq2    C9 1243   0.696   2.037  11.847 -0.6712 -0.2521 -0.8816
   81TCq2    O5 1244   0.758   2.067  11.950  0.1644 -0.6638  0.4882
   81TCq2    O6 1245   0.748   2.007  11.734  0.1192  0.2726  0.3419
   81TCq2    H2 1246   0.525   2.121  12.040  1.8178 -1.1275  1.2853
   81TCq2    H3 1247   0.542   1.869  11.700  2.9768 -0.2454  0.6894
   81TCq2    H4 1248   0.185   1.896  11.925 -0.6924 -0.6052 -0.4514
   82MPD2     C 1249   3.299   1.623  10.440 -0.1608  0.1898  0.4831
   82MPD2    C1 1250   3.219   1.532  10.499 -0.4198 -0.1923  0.1035
   82MPD2    C2 1251   3.277   1.422  10.564  0.0550 -0.0397 -0.6213
   82MPD2    C3 1252   3.410   1.409  10.575  0.2678 -0.4648  0.7714
   82MPD2    C4 1253   3.484   1.491  10.500  0.3126  0.0983 -0.5492
   82MPD2    C5 1254   3.433   1.599  10.430 -0.6372 -0.8059  0.3680
   82MPD2     H 1255   3.212   1.345  10.604 -2.2396  0.2629 -3.7186
   82MPD2    H1 1256   3.592   1.480  10.500  0.2058 -1.3707  3.6111
   82MPD2    H2 1257   3.259   1.705  10.381  1.8430  0.0505 -1.0636
   82MPD2    H3 1258   3.494   1.661  10.365 -3.3056 -0.6852 -2.0569
   82MPD2     N 1259   3.476   1.303  10.637  0.0493  0.2181  0.3994
   82MPD2    H5 1260   3.576   1.319  10.648 -0.0610  0.9455  0.3002
   82MPD2    N1 1261   3.080   1.554  10.483 -0.5767  0.6494  0.2514
   82MPD2    H7 1262   3.048   1.636  10.432  2.4347  0.7854 -1.3494
   83TCq2    C1 1263   3.421   1.198  10.712  0.6914  0.6559 -0.0346
   83TCq2    O2 1264   3.304   1.161  10.714 -0.3144  0.5841 -0.2670
   83TCq2    C2 1265   3.516   1.125  10.793 -0.3727 -0.1910  0.2487
   83TCq2    C3 1266   3.611   1.187  10.868 -1.2865 -0.0536  0.2415
   83TCq2    C4 1267   3.685   1.130  10.974  0.5778 -0.2076  0.4164
   83TCq2    C5 1268   3.639   1.006  11.007  0.2126  0.6442  0.5310
   83TCq2    C6 1269   3.529   0.949  10.947 -0.5232  0.0703 -0.1394
   83TCq2    C7 1270   3.471   0.999  10.832  0.0600  0.1949 -0.3187
   83TCq2    C8 1271   3.476   0.833  11.013  0.6459 -0.4916 -0.0839
   83TCq2    O4 1272   3.504   0.804  11.130 -0.9680 -0.0588  0.7005
   83TCq2    C9 1273   3.788   1.200  11.042  0.2357  0.2518 -0.0955
   83TCq2    O5 1274   3.869   1.139  11.115  0.5482 -0.6369 -1.1107
   83TCq2    O6 1275   3.821   1.311  10.991  0.0264  0.1076 -0.2197
   83TCq2    H2 1276   3.643   1.286  10.839  0.3645 -0.8303 -0.6201
   83TCq2    H3 1277   3.667   0.970  11.105  2.3158 -0.4188 -0.4712
   83TCq2    H4 1278   3.390   0.952  10.778 -0.3181  1.6547 -0.9958
   84TCq2    C1 1279   4.103   0.447   9.933  0.2533 -0.4927 -0.5675
   84TCq2    O2 1280   3.987   0.431   9.975  0.1990 -0.3569 -0.5518
   84TCq2    C2 1281   4.211   0.400  10.023  0.2442  1.2680  0.2899
   84TCq2    C3 1282   4.341   0.393   9.987  0.4551  0.5079 -0.3338
   84TCq2    C4 1283   4.435   0.344  10.069  0.7910 -0.4480  0.2096
   84TCq2    C5 1284   4.401   0.316  10.201  0.4935  0.0527  0.2524
   84TCq2    C6 1285   4.271   0.340  10.238 -0.5588  0.1951 -0.4225
   84TCq2    C7 1286   4.178   0.388  10.156  0.2277  0.5248 -1.1562
   84TCq2    C8 1287   4.255   0.362  10.375 -0.5289 -0.3595 -0.3182
   84TCq2    O4 1288   4.236   0.475  10.417  0.0651 -0.2132 -1.1341
   84TCq2    C9 1289   4.570   0.328  10.019  0.0455  0.5439  0.8870
   84TCq2    O5 1290   4.658   0.325  10.108  0.0582  0.1015 -0.4016
   84TCq2    O6 1291   4.593   0.375   9.904  0.5476 -0.3292 -0.2870
   84TCq2    H2 1292   4.376   0.404   9.885  1.2401 -0.2260 -0.1453
   84TCq2    H3 1293   4.471   0.282  10.277  0.6749 -0.2436 -0.0455
   84TCq2    H4 1294   4.076   0.396  10.194 -0.1404 -1.1251 -1.7933
   85MPD2     C 1295   0.421   2.491  16.406 -0.0600 -0.0415  0.5132
   85MPD2    C1 1296   0.341   2.482  16.295  0.5050 -0.5038  0.4062
   85MPD2    C2 1297   0.386   2.524  16.171  0.4166  0.5447  1.1743
   85MPD2    C3 1298   0.513   2.589  16.166  0.5010 -0.1938  0.9638
   85MPD2    C4 1299   0.584   2.597  16.283  0.5014 -0.6010  0.7374
   85MPD2    C5 1300   0.546   2.543  16.400 -0.0114 -0.4042 -0.3520
   85MPD2     H 1301   0.327   2.522  16.081  1.4485 -1.6943  0.5734
   85MPD2    H1 1302   0.679   2.650  16.287 -0.0249  0.5710 -2.1044
   85MPD2    H2 1303   0.378   2.480  16.504 -2.8670 -3.6437 -1.1214
   85MPD2    H3 1304   0.595   2.558  16.496  0.6847  0.1654 -0.8028
   85MPD2     N 1305   0.560   2.651  16.048 -1.0503 -0.0520 -0.4987
   85MPD2    H5 1306   0.488   2.675  15.981 -0.5806  1.7208 -0.3856
   85MPD2    N1 1307   0.216   2.421  16.300 -0.6744  0.1309  0.1702
   85MPD2    H7 1308   0.171   2.387  16.216 -1.9552 -1.4511  1.4826
   86TCq2    C1 1309   0.684   2.707  16.031 -0.2901 -0.1592  0.0477
   86TCq2    O2 1310   0.785   2.688  16.096  0.3273  0.5869 -0.1592
   86TCq2    C2 1311   0.690   2.798  15.916  0.2479 -0.1282  0.8673
   86TCq2    C3 1312   0.594   2.883  15.887 -0.1393 -0.0398  0.5174
   86TCq2    C4 1313   0.607   3.000  15.812  0.2665  0.1578 -0.4008
   86TCq2    C5 1314   0.732   3.027  15.763  0.6358 -0.0899 -0.2011
   86TCq2    C6 1315   0.831   2.923  15.776 -0.1384  0.4896  0.7161
   86TCq2    C7 1316   0.807   2.813  15.850  0.4205  0.3129 -0.4801
   86TCq2    C8 1317   0.955   2.925  15.699  1.1941  0.0008  0.1129
   86TCq2    O4 1318   1.036   2.831  15.718 -0.3254 -0.0511 -0.8467
   86TCq2    C9 1319   0.501   3.096  15.798 -0.3973 -0.2071  0.0965
   86TCq2    O5 1320   0.385   3.047  15.800  0.6129 -0.1833 -0.2871
   86TCq2    O6 1321   0.534   3.216  15.775 -0.2716  0.1479 -0.0078
   86TCq2    H2 1322   0.499   2.873  15.939 -1.1129  2.4039 -0.7986
   86TCq2    H3 1323   0.754   3.118  15.710 -1.7655  0.8922  0.4733
   86TCq2    H4 1324   0.886   2.740  15.865  0.8339  0.9116  0.2687
   87MPD2     C 1325   3.064   1.534   1.021 -0.0242 -0.5843 -0.5391
   87MPD2    C1 1326   3.117   1.658   1.062 -0.6655 -0.3114 -0.2899
   87MPD2    C2 1327   3.033   1.766   1.094  0.5385  0.1695 -0.3425
   87MPD2    C3 1328   2.899   1.754   1.092  0.1506 -0.6716 -0.6718
   87MPD2    C4 1329   2.844   1.632   1.057 -0.4962  0.1035  0.0781
   87MPD2    C5 1330   2.924   1.526   1.024  0.1927  0.9171  0.3889
   87MPD2     H 1331   3.078   1.862   1.114  2.0899 -0.7560  0.5591
   87MPD2    H1 1332   2.737   1.620   1.050  0.0570 -2.4959 -3.7546
   87MPD2    H2 1333   3.123   1.446   1.000 -1.5148 -1.3017 -1.7346
   87MPD2    H3 1334   2.876   1.430   1.010  0.3187  1.1008 -1.2688
   87MPD2     N 1335   2.806   1.861   1.112  0.4199  0.5053  0.4783
   87MPD2    H5 1336   2.710   1.838   1.136  0.1937  2.1852  1.2070
   87MPD2    N1 1337   3.260   1.670   1.066  0.1694 -0.0456 -0.4130
   87MPD2    H7 1338   3.315   1.591   1.033 -0.2730 -0.1015 -1.0168
   88TCq2    C1 1339   3.332   1.779   1.117 -0.0703 -0.1067 -0.6134
   88TCq2    O2 1340   3.282   1.878   1.174 -0.7623 -0.1226 -0.7821
   88TCq2    C2 1341   3.475   1.764   1.089 -0.0135  0.2942  0.4560
   88TCq2    C3 1342   3.550   1.830   1.185 -0.4062  0.3944  0.7042
   88TCq2    C4 1343   3.687   1.825   1.173 -0.3432  0.0295 -1.3656
   88TCq2    C5 1344   3.747   1.752   1.067 -0.4082  0.6415 -1.1616
   88TCq2    C6 1345   3.666   1.700   0.974  0.0639  0.2597 -0.2770
   88TCq2    C7 1346   3.529   1.682   0.992 -0.4232  0.4313 -0.2374
   88TCq2    C8 1347   3.729   1.619   0.870  0.3279  0.1305 -0.9840
   88TCq2    O4 1348   3.833   1.569   0.903 -0.3261  0.1340  0.2269
   88TCq2    C9 1349   3.768   1.894   1.275 -0.2269  0.4907 -0.4405
   88TCq2    O5 1350   3.887   1.918   1.257  0.4463 -0.0169  0.6599
   88TCq2    O6 1351   3.706   1.908   1.382 -0.4436  0.4910  0.3055
   88TCq2    H2 1352   3.509   1.901   1.255 -1.1198  0.5553  0.1200
   88TCq2    H3 1353   3.855   1.756   1.056 -0.2498  3.5161  1.3431
   88TCq2    H4 1354   3.463   1.643   0.915 -0.8688  1.3013 -0.3082
   89MPD2     C 1355   3.865   3.455   1.849 -0.1194 -0.5480 -0.0563
   89MPD2    C1 1356   3.816   3.564   1.790 -0.0326 -0.8403  0.3354
   89MPD2    C2 1357   3.868   3.606   1.673 -0.5284  0.2908  0.9645
   89MPD2    C3 1358   3.981   3.550   1.618  0.3092 -0.2770 -0.1684
   89MPD2    C4 1359   4.041   3.445   1.689 -0.0654 -0.0994 -0.7168
   89MPD2    C5 1360   3.987   3.400   1.811  0.0074 -0.5737 -0.6298
   89MPD2     H 1361   3.815   3.681   1.616  1.5850  1.5420  0.6695
   89MPD2    H1 1362   4.132   3.397   1.657 -0.1439 -1.5841  1.2715
   89MPD2    H2 1363   3.822   3.413   1.939  1.6874 -0.6055  0.7805
   89MPD2    H3 1364   4.028   3.313   1.861  0.1371  0.4111  0.9914
   89MPD2     N 1365   4.009   3.591   1.488 -0.3263  0.0536  0.2623
   89MPD2    H5 1366   3.968   3.681   1.466  0.2239 -0.0281 -1.0547
   89MPD2    N1 1367   3.697   3.627   1.844  0.4684  0.1083 -0.0022
   89MPD2    H7 1368   3.663   3.709   1.796  1.2942  0.0376 -0.7112
   90TCq2    C1 1369   4.104   3.537   1.410  0.5683  0.2974 -0.1140
   90TCq2    O2 1370   4.188   3.455   1.436 -0.3190 -0.1326 -0.1088
   90TCq2    C2 1371   4.102   3.588   1.269 -0.0726  0.2866  0.1458
   90TCq2    C3 1372   4.223   3.586   1.205  0.2214 -0.3142  0.2935
   90TCq2    C4 1373   4.257   3.670   1.102  0.0631 -0.3000  0.8908
   90TCq2    C5 1374   4.167   3.763   1.060 -0.0570  0.5475  0.6061
   90TCq2    C6 1375   4.052   3.769   1.130 -0.6835 -0.2443 -0.1186
   90TCq2    C7 1376   4.022   3.689   1.239  0.5380  0.0829  0.3123
   90TCq2    C8 1377   3.960   3.876   1.107  0.4703  0.2780  0.2078
   90TCq2    O4 1378   3.845   3.851   1.146 -0.1618 -0.7625  0.3136
   90TCq2    C9 1379   4.379   3.651   1.023  0.5825  0.1695 -0.6440
   90TCq2    O5 1380   4.400   3.722   0.925 -0.5230  0.4453  0.5190
   90TCq2    O6 1381   4.459   3.570   1.079 -0.6175  0.3676 -0.2532
   90TCq2    H2 1382   4.294   3.508   1.228  0.9253 -0.1892 -1.4334
   90TCq2    H3 1383   4.206   3.825   0.980 -0.7618 -1.6903 -1.4444
   90TCq2    H4 1384   3.929   3.705   1.292  0.4996  1.0340 -0.0394
   91TMC2    C1 1385   1.018   4.395  16.262  0.1839 -0.2382  0.1296
   91TMC2    C2 1386   1.064   4.518  16.287 -0.0445  0.6117  0.7490
   91TMC2    C3 1387   0.977   4.615  16.304 -0.7470  0.3913  0.0979
   91TMC2    C4 1388   0.882   4.378  16.262  0.7746  0.4776 -0.9439
   91TMC2    C5 1389   0.793   4.483  16.279 -0.0269 -0.4688  0.4767
   91TMC2    C6 1390   0.840   4.603  16.300 -0.5664 -0.2401 -0.6938
   91TMC2     C 1391   1.101   4.278  16.293  0.6616  0.1077  0.3943
   91TMC2     O 1392   1.045   4.179  16.253 -0.1163 -0.3368  0.5229
   91TMC2     H 1393   1.170   4.540  16.275  0.4368 -0.6696  2.6533
   91TMC2    H1 1394   0.850   4.276  16.278 -0.6107  0.8911 -1.0907
   91TMC2    H2 1395   0.772   4.685  16.322 -1.6532 -1.4757  0.5770
   91TMC2    C7 1396   0.667   4.452  16.338  0.2738 -0.0800 -0.2062
   91TMC2    C8 1397   1.037   0.022  16.348 -0.2676  0.2245  0.0491
   91TMC2    O1 1398   0.632   4.522  16.434  0.4486  0.6331 -0.4693
   91TMC2    O2 1399   1.139   0.034  16.418  0.2865  0.5694 -0.1422
   91TMC2    O5 1400   0.997   0.106  16.248 -0.4744 -0.0266  0.4703
   91TMC2    H5 1401   0.928   0.073  16.187 -0.2846  0.4526  0.0009
   92MPD2     C 1402   1.265   4.077  16.417 -0.7205 -0.3540  0.0988
   92MPD2    C1 1403   1.295   4.205  16.424  0.4684 -0.2126  0.0895
   92MPD2    C2 1404   1.400   4.242  16.498 -0.3380  0.2477 -0.1177
   92MPD2    C3 1405   1.478   4.147  16.563  0.2933  0.2221  0.1839
   92MPD2    C4 1406   1.446   4.018  16.555  0.0660 -0.5440  0.0069
   92MPD2    C5 1407   1.338   3.981  16.478  0.0158  0.0788 -0.2804
   92MPD2     H 1408   1.421   4.348  16.496  1.2300 -0.0383  2.0995
   92MPD2    H1 1409   1.499   3.942  16.611  1.8465  0.9971  0.4390
   92MPD2    H2 1410   1.199   4.033  16.343 -1.1476  2.2466 -1.0612
   92MPD2    H3 1411   1.308   3.878  16.466  3.4086 -1.2169  2.0531
   92MPD2     N 1412   1.581   4.200  16.645  0.3030  0.6745 -0.3147
   92MPD2    H5 1413   1.577   4.300  16.661  0.0696  0.9409 -2.0698
   92MPD2    N1 1414   1.216   4.306  16.362  0.1568 -0.2544 -0.4837
   92MPD2    H7 1415   1.239   4.404  16.376  1.7597 -0.8842  1.2611
   93MPD2     C 1416   2.302   3.720  13.812  0.3502 -0.3873  0.7719
   93MPD2    C1 1417   2.308   3.688  13.675  0.6041 -1.2629  0.2689
   93MPD2    C2 1418   2.184   3.671  13.612  0.3907  0.1526 -0.4506
   93MPD2    C3 1419   2.063   3.691  13.678 -0.0374  0.4217  0.0305
   93MPD2    C4 1420   2.065   3.724  13.814 -0.8197  0.3016  0.0979
   93MPD2    C5 1421   2.182   3.738  13.873 -0.0861  1.0279 -0.4149
   93MPD2     H 1422   2.187   3.634  13.511  4.6510  1.9443 -1.0082
   93MPD2    H1 1423   1.980   3.749  13.877 -2.0663 -2.3549 -0.5409
   93MPD2    H2 1424   2.394   3.717  13.870  0.3850  1.9665  0.8230
   93MPD2    H3 1425   2.180   3.755  13.980  0.7217  0.7632 -0.3564
   93MPD2     N 1426   1.942   3.688  13.608  0.3907 -0.5447  1.0142
   93MPD2    H5 1427   1.862   3.707  13.669 -1.3284 -1.3780 -0.9871
   93MPD2    N1 1428   2.425   3.656  13.597 -0.0698  0.1822  0.3288
   93MPD2    H7 1429   2.416   3.625  13.500 -0.6332  1.4147 -0.0110
   94TCq2    C1 1430   2.542   3.714  13.626  0.5105 -0.3669  0.7047
   94TCq2    O2 1431   2.564   3.802  13.705  0.2908 -0.2454 -0.3647
   94TCq2    C2 1432   2.649   3.680  13.530 -0.6009  0.1274  0.5675
   94TCq2    C3 1433   2.644   3.550  13.477 -0.1355  0.1172 -0.3529
   94TCq2    C4 1434   2.764   3.485  13.461  0.0628 -0.2755 -0.3217
   94TCq2    C5 1435   2.886   3.544  13.486  0.3344 -0.3667 -0.2390
   94TCq2    C6 1436   2.888   3.681  13.525 -0.4397  0.0332 -0.1084
   94TCq2    C7 1437   2.765   3.748  13.549 -0.0545 -0.1835 -0.3851
   94TCq2    C8 1438   3.014   3.735  13.577  0.3961  0.0677  0.2973
   94TCq2    O4 1439   3.120   3.668  13.571 -0.4209  0.0962  0.0628
   94TCq2    C9 1440   2.770   3.346  13.419 -0.3013 -0.4983 -0.6420
   94TCq2    O5 1441   2.657   3.294  13.391 -0.1831 -0.1111 -0.0897
   94TCq2    O6 1442   2.880   3.290  13.400 -0.4044  0.7179  0.1237
   94TCq2    H2 1443   2.551   3.495  13.466 -0.4483  0.4341  0.7144
   94TCq2    H3 1444   2.981   3.491  13.491  0.4159 -0.1867  0.1233
   94TCq2    H4 1445   2.757   3.852  13.581 -2.2651 -0.6507  0.5465
   95TMC2    C1 1446   2.341   0.276  16.002  1.0829  0.1811  0.0070
   95TMC2    C2 1447   2.400   0.282  16.129 -0.4895  0.1042  0.4550
   95TMC2    C3 1448   2.328   0.333  16.234 -0.8004  0.5427  0.8408
   95TMC2    C4 1449   2.213   0.327  15.980 -0.4849  1.2545 -0.2443
   95TMC2    C5 1450   2.138   0.365  16.085  0.6607  0.3433 -0.7160
   95TMC2    C6 1451   2.199   0.377  16.212  0.4465  0.6826 -0.2198
   95TMC2     C 1452   2.424   0.263  15.887 -0.6055 -0.8084 -0.2984
   95TMC2     O 1453   2.375   0.287  15.777  0.9648  0.4842  0.5051
   95TMC2     H 1454   2.504   0.255  16.145 -1.1193 -1.9096  1.0419
   95TMC2    H1 1455   2.162   0.314  15.886  1.5869  3.1356 -1.6113
   95TMC2    H2 1456   2.131   0.414  16.288 -0.1331 -1.1274  0.1622
   95TMC2    C7 1457   1.992   0.399  16.085 -0.7096  0.1651  0.0686
   95TMC2    C8 1458   2.386   0.330  16.370 -0.5465  0.6248  0.5882
   95TMC2    O1 1459   1.926   0.421  16.185  0.1122 -0.4336  0.6258
   95TMC2    O2 1460   2.475   0.259  16.410  0.2927 -0.6286 -0.7671
   95TMC2    O5 1461   2.299   0.397  16.452 -0.2757 -0.3204 -0.0484
   95TMC2    H5 1462   2.261   0.475  16.406  1.7201 -0.6113 -2.2065
   96MPD2     C 1463   2.874   0.130  15.669  0.8653 -0.1973  0.0902
   96MPD2    C1 1464   2.784   0.237  15.646  0.0231 -0.3858  0.1024
   96MPD2    C2 1465   2.676   0.252  15.726  0.0421  0.9721  0.4541
   96MPD2    C3 1466   2.640   0.168  15.824 -0.7677  0.0454  0.0406
   96MPD2    C4 1467   2.737   0.065  15.852  0.7095 -0.1765 -0.6617
   96MPD2    C5 1468   2.854   0.048  15.769 -0.6299 -0.5170 -0.2024
   96MPD2     H 1469   2.613   0.340  15.714  1.0268  1.7762  1.2640
   96MPD2    H1 1470   2.717   4.706  15.922 -2.4765 -0.6846 -2.1572
   96MPD2    H2 1471   2.967   0.133  15.615 -0.1457  0.8216 -1.5812
   96MPD2    H3 1472   2.927   4.697  15.805 -0.8989 -1.1629 -0.9523
   96MPD2     N 1473   2.532   0.185  15.918 -0.3581  0.3978 -0.1922
   96MPD2    H5 1474   2.530   0.138  16.008 -0.1091  2.4449  0.8831
   96MPD2    N1 1475   2.815   0.337  15.547 -0.1421  0.1528 -0.0074
   96MPD2    H7 1476   2.911   0.326  15.514 -0.4202 -0.2753 -0.6920
   97MPD2     C 1477   0.330   3.098   1.157  0.3900 -0.1273 -0.7372
   97MPD2    C1 1478   0.254   2.997   1.112  0.0838 -0.0560  0.3613
   97MPD2    C2 1479   0.245   2.967   0.974 -0.3931 -0.3901  1.0249
   97MPD2    C3 1480   0.326   3.032   0.881 -0.3129  1.0383 -0.0846
   97MPD2    C4 1481   0.413   3.132   0.930 -0.5193 -0.3422  0.2211
   97MPD2    C5 1482   0.405   3.167   1.065 -0.4863  0.3506  0.1846
   97MPD2     H 1483   0.175   2.892   0.939  1.5097 -1.9924  0.6138
   97MPD2    H1 1484   0.477   3.193   0.868 -3.2142  1.3299 -0.8864
   97MPD2    H2 1485   0.333   3.132   1.260  0.0149  1.2546 -1.1921
   97MPD2    H3 1486   0.476   3.244   1.092  1.0214 -0.2019 -2.2898
   97MPD2     N 1487   0.320   3.010   0.743  0.0093 -0.3067 -0.1667
   97MPD2    H5 1488   0.381   3.063   0.681 -1.0285  1.8062  0.6042
   97MPD2    N1 1489   0.197   2.913   1.210  0.0790  0.3477 -0.2669
   97MPD2    H7 1490   0.215   2.948   1.304 -1.4887  2.0560 -0.6005
   98TCq2    C1 1491   0.237   2.924   0.683 -0.9347  0.3182 -0.2283
   98TCq2    O2 1492   0.154   2.845   0.726 -0.3871 -0.2657 -0.6320
   98TCq2    C2 1493   0.224   2.941   0.538 -0.2081  0.0624  0.1081
   98TCq2    C3 1494   0.122   2.861   0.477 -0.6041 -0.0886 -0.6218
   98TCq2    C4 1495   0.093   2.889   0.349  0.1015  0.3803 -0.1146
   98TCq2    C5 1496   0.163   2.979   0.280  0.7659 -0.3440 -0.9590
   98TCq2    C6 1497   0.263   3.042   0.340  0.2515 -0.2006 -0.3782
   98TCq2    C7 1498   0.305   3.020   0.469 -0.3483 -0.1664 -0.2977
   98TCq2    C8 1499   0.290   3.178   0.299 -1.2429 -0.1733 -1.1229
   98TCq2    O4 1500   0.404   3.211   0.268  0.4065  0.2106 -0.2656
   98TCq2    C9 1501   4.696   2.832   0.280 -0.1178  0.6562 -0.3520
   98TCq2    O5 1502   4.619   2.773   0.356 -0.2474 -0.4036  0.7399
   98TCq2    O6 1503   4.690   2.845   0.158  0.4124 -0.7302 -0.7663
   98TCq2    H2 1504   0.065   2.786   0.531 -0.1771 -1.2614 -1.7782
   98TCq2    H3 1505   0.134   3.000   0.178  0.9394  1.3416 -0.6728
   98TCq2    H4 1506   0.375   3.094   0.505 -0.3782 -1.1153  1.7049
   99MPD2     C 1507   3.902   0.812   1.337 -0.2820  0.3930 -0.0017
   99MPD2    C1 1508   3.774   0.851   1.309  0.7942  0.1471  0.9580
   99MPD2    C2 1509   3.703   0.780   1.211 -0.3408  0.2098 -0.1904
   99MPD2    C3 1510   3.765   0.670   1.152  0.4272  0.6257 -0.2986
   99MPD2    C4 1511   3.888   0.635   1.184 -0.2365 -0.3349  0.3320
   99MPD2    C5 1512   3.957   0.711   1.274 -0.1403  0.3324  0.5457
   99MPD2     H 1513   3.598   0.796   1.191 -0.0371  2.5626  0.1158
   99MPD2    H1 1514   3.931   0.545   1.142 -1.4539 -1.9142  2.4783
   99MPD2    H2 1515   3.964   0.852   1.417 -0.5256  2.0605 -0.6536
   99MPD2    H3 1516   4.058   0.678   1.297 -0.7392 -0.3183  2.2357
   99MPD2     N 1517   3.693   0.593   1.060  0.5884 -0.3161 -0.6171
   99MPD2    H5 1518   3.614   0.633   1.011  0.5140  1.8146  1.2190
   99MPD2    N1 1519   3.710   0.963   1.379 -0.2625  0.1514 -0.5151
   99MPD2    H7 1520   3.611   0.981   1.373 -0.8378 -2.1073  1.8663
  100TCq2    C1 1521   3.778   1.054   1.464 -0.1537 -0.4584 -0.3059
  100TCq2    O2 1522   3.894   1.050   1.492  0.0262  0.0521 -0.0502
  100TCq2    C2 1523   3.696   1.162   1.520 -0.3118  0.7885  0.2040
  100TCq2    C3 1524   3.761   1.241   1.608  0.0279 -0.2835 -0.4935
  100TCq2    C4 1525   3.688   1.314   1.692  0.1205 -0.5075  0.0950
  100TCq2    C5 1526   3.553   1.319   1.682 -0.8296  0.3401  0.3057
  100TCq2    C6 1527   3.492   1.238   1.593  0.3724  0.3801  0.2618
  100TCq2    C7 1528   3.557   1.156   1.509 -0.0348 -0.3824 -0.1266
  100TCq2    C8 1529   3.349   1.216   1.609  0.2571  0.3639  0.4510
  100TCq2    O4 1530   3.282   1.305   1.654 -0.7848 -0.0239 -0.2508
  100TCq2    C9 1531   3.753   1.406   1.778  0.4303 -0.5114  0.6177
  100TCq2    O5 1532   3.694   1.473   1.867 -0.9326 -1.1135 -0.2395
  100TCq2    O6 1533   3.880   1.418   1.764 -0.1452 -0.5543 -0.3766
  100TCq2    H2 1534   3.869   1.246   1.608  0.0528 -0.8595  1.1328
  100TCq2    H3 1535   3.502   1.353   1.771 -1.0682  0.9641 -0.0709
  100TCq2    H4 1536   3.508   1.108   1.425 -0.4691 -1.7685  0.9307
  101MPD2     C 1537   3.986   1.907  12.666  0.2263  0.1954 -0.0386
  101MPD2    C1 1538   3.938   1.933  12.795  0.3426 -0.0118 -0.1454
  101MPD2    C2 1539   3.929   1.829  12.887  0.0841  0.2584 -0.1704
  101MPD2    C3 1540   3.966   1.703  12.851 -0.0947 -1.0301  0.0958
  101MPD2    C4 1541   4.014   1.680  12.727  0.9723  0.0751  0.1602
  101MPD2    C5 1542   4.015   1.777  12.631  1.0790  0.2438  0.0164
  101MPD2     H 1543   3.896   1.843  12.989 -2.5118 -1.9469 -0.7150
  101MPD2    H1 1544   4.041   1.581  12.693 -0.8006 -0.4105  0.1733
  101MPD2    H2 1545   4.000   1.983  12.591 -1.0683  0.6563  0.1960
  101MPD2    H3 1546   4.043   1.746  12.531  0.5645 -0.5954  0.1380
  101MPD2     N 1547   3.958   1.605  12.945 -0.2363 -0.1365 -0.5007
  101MPD2    H5 1548   3.926   1.634  13.037  0.5183 -0.3926 -0.1610
  101MPD2    N1 1549   3.914   2.068  12.829  0.0187 -0.3942 -0.0183
  101MPD2    H7 1550   3.936   2.137  12.758 -0.6337  0.2057  0.3532
  102TCq2    C1 1551   4.132   2.477  12.787 -0.5300 -0.2299  0.7450
  102TCq2    O2 1552   4.114   2.570  12.705 -0.1715  0.3002 -1.0339
  102TCq2    C2 1553   4.017   2.433  12.866  0.5178  0.5321 -0.2397
  102TCq2    C3 1554   3.899   2.496  12.833 -0.0029  0.4460  0.2458
  102TCq2    C4 1555   3.781   2.439  12.878  0.1053 -0.1470  0.5905
  102TCq2    C5 1556   3.776   2.324  12.950 -0.0097  0.5808 -0.4811
  102TCq2    C6 1557   3.895   2.256  12.969 -0.2572 -0.5450  0.0391
  102TCq2    C7 1558   4.013   2.306  12.920 -0.0225 -0.5402 -0.6999
  102TCq2    C8 1559   3.871   2.111  12.951 -0.0517  0.3719  0.6326
  102TCq2    O4 1560   3.807   2.053  13.037  0.6186 -0.1106 -0.5907
  102TCq2    C9 1561   3.664   2.518  12.849  0.2260  0.1483  0.1356
  102TCq2    O5 1562   3.558   2.495  12.911  0.1813  0.2323  0.0076
  102TCq2    O6 1563   3.674   2.616  12.764  0.4046  0.0983  0.2630
  102TCq2    H2 1564   3.896   2.583  12.768  2.9747 -0.9309 -1.7337
  102TCq2    H3 1565   3.689   2.270  12.984  0.1001  1.1453  0.6961
  102TCq2    H4 1566   4.103   2.248  12.937 -0.1591 -0.9014 -1.1950
  103TMC2    C1 1567   2.384   1.787  12.363 -0.3165  1.0742 -0.1354
  103TMC2    C2 1568   2.494   1.846  12.318  0.3350 -0.6080  0.0184
  103TMC2    C3 1569   2.586   1.891  12.414  0.2087 -0.1090  0.4401
  103TMC2    C4 1570   2.347   1.780  12.498  0.8271 -0.0817  0.5979
  103TMC2    C5 1571   2.434   1.837  12.586  0.0859  0.2594  0.0328
  103TMC2    C6 1572   2.553   1.897  12.548 -0.1346 -0.0040 -0.8969
  103TMC2     C 1573   2.295   1.722  12.271  0.2976 -0.1568  0.0286
  103TMC2     O 1574   2.175   1.729  12.282 -0.4086 -0.4961 -0.0444
  103TMC2     H 1575   2.511   1.852  12.211 -0.8279  1.2155 -0.0711
  103TMC2    H1 1576   2.252   1.737  12.526 -0.0812  1.2483 -0.4209
  103TMC2    H2 1577   2.620   1.930  12.627 -1.2423 -2.1182  0.9299
  103TMC2    C7 1578   2.387   1.837  12.721 -0.1676  0.8435  1.2865
  103TMC2    C8 1579   2.719   1.939  12.381 -0.3868  0.2885 -0.6411
  103TMC2    O1 1580   2.297   1.761  12.746  0.2351  0.4232 -0.2750
  103TMC2    O2 1581   2.783   1.992  12.471 -0.5105  0.3720 -0.0018
  103TMC2    O5 1582   2.774   1.852  12.296  0.1503  0.3187 -0.0939
  103TMC2    H5 1583   2.716   1.795  12.242 -0.2110 -2.0784  2.8329
  104MPD2     C 1584   2.396   1.475  12.019 -0.3425 -0.5472 -0.0349
  104MPD2    C1 1585   2.310   1.566  12.077 -1.3254  0.9828  0.2329
  104MPD2    C2 1586   2.177   1.575  12.029 -1.2192  0.3514 -0.2852
  104MPD2    C3 1587   2.137   1.481  11.938  0.3197 -0.7901  0.6139
  104MPD2    C4 1588   2.217   1.384  11.885 -0.4692  0.1314 -0.3514
  104MPD2    C5 1589   2.350   1.388  11.925 -0.7331  0.4261 -0.2775
  104MPD2     H 1590   2.121   1.665  12.054 -0.8595  0.2654  0.8140
  104MPD2    H1 1591   2.183   1.307  11.816 -0.9601 -0.4237  0.5220
  104MPD2    H2 1592   2.501   1.469  12.043  0.0581 -1.8384 -2.1111
  104MPD2    H3 1593   2.423   1.319  11.885 -0.4208  0.5067  0.1518
  104MPD2     N 1594   2.004   1.494  11.892 -0.5091 -0.6459  0.3319
  104MPD2    H5 1595   1.952   1.578  11.918  1.7589  1.1273 -0.8398
  104MPD2    N1 1596   2.366   1.652  12.180  0.1239  0.3515  0.5083
  104MPD2    H7 1597   2.463   1.638  12.207  0.9987  1.2060 -2.2320
  105MPD2     C 1598   4.315   1.007  17.442  0.6635 -0.0099  0.0582
  105MPD2    C1 1599   4.234   1.110  17.488  1.1836 -0.2840  0.2831
  105MPD2    C2 1600   4.239   1.143  17.625  0.6210  0.2085  0.4529
  105MPD2    C3 1601   4.334   1.092   0.024 -0.0452 -0.7546 -0.3065
  105MPD2    C4 1602   4.415   0.981  17.671 -0.5807 -0.2246  0.3179
  105MPD2    C5 1603   4.396   0.939  17.537  0.1479  0.5118 -0.5544
  105MPD2     H 1604   4.163   1.210  17.663 -0.4962  0.2167 -1.7966
  105MPD2    H1 1605   4.474   0.916   0.043 -1.9790 -0.9890  0.8390
  105MPD2    H2 1606   4.297   0.968  17.342  0.7874  0.8591 -0.3014
  105MPD2    H3 1607   4.426   0.837  17.513 -1.8743 -0.4605  1.0801
  105MPD2     N 1608   4.338   1.145   0.154  0.2113 -0.1384 -0.7139
  105MPD2    H5 1609   4.269   1.215   0.180 -2.2563 -2.4593 -1.0414
  105MPD2    N1 1610   4.134   1.188  17.418  0.3266  0.2004 -1.2606
  105MPD2    H7 1611   4.085   1.251  17.480 -3.7623 -1.8989 -2.3862
  106TCq2    C1 1612   4.424   1.109   0.256  0.5553  0.4177 -0.0289
  106TCq2    O2 1613   4.517   1.025   0.252 -0.7452 -0.3984 -0.7541
  106TCq2    C2 1614   4.403   1.188   0.375  0.2435  0.1410 -0.5239
  106TCq2    C3 1615   4.506   1.276   0.398 -0.3039  0.0826  0.3041
  106TCq2    C4 1616   4.482   1.401   0.448  0.8877 -0.3565  0.0754
  106TCq2    C5 1617   4.353   1.443   0.463 -0.0550  0.5764 -1.5748
  106TCq2    C6 1618   4.254   1.359   0.432 -0.6453 -0.4473 -0.2044
  106TCq2    C7 1619   4.276   1.233   0.389  0.1208 -0.0278  0.2559
  106TCq2    C8 1620   4.122   1.414   0.391  0.8977  0.0840  0.6769
  106TCq2    O4 1621   4.055   1.348   0.310 -0.3709  0.0629  0.6671
  106TCq2    C9 1622   4.590   1.495   0.477 -0.3874  0.2685 -0.2696
  106TCq2    O5 1623   4.553   1.612   0.509  0.4188  0.1253  0.3523
  106TCq2    O6 1624   4.708   1.453   0.467  0.5820 -0.1046  0.4530
  106TCq2    H2 1625   4.610   1.244   0.395 -0.0353  0.6172  3.2363
  106TCq2    H3 1626   4.334   1.543   0.503  1.0728  0.8068 -1.6057
  106TCq2    H4 1627   4.204   1.166   0.344  0.4333 -0.7252  0.7954
  107TMC2    C1 1628   4.219   0.681  11.285  0.7580  0.4621  0.2639
  107TMC2    C2 1629   4.272   0.800  11.228 -0.1280  0.6174  0.2950
  107TMC2    C3 1630   4.342   0.787  11.102  0.6473 -0.6833 -0.5032
  107TMC2    C4 1631   4.204   0.562  11.221 -0.4054  0.0399 -0.3116
  107TMC2    C5 1632   4.266   0.562  11.098  0.9304  0.1600 -0.4710
  107TMC2    C6 1633   4.336   0.663  11.038  0.0712  0.1407 -0.1304
  107TMC2     C 1634   4.160   0.690  11.419 -0.1734 -0.2437 -0.3645
  107TMC2     O 1635   4.133   0.588  11.485 -0.3318 -0.0219  0.0487
  107TMC2     H 1636   4.286   0.892  11.283  1.1053  0.4904  0.1874
  107TMC2    H1 1637   4.162   0.471  11.260  1.4171  0.5617  2.8966
  107TMC2    H2 1638   4.397   0.642  10.950 -2.3071 -1.8455 -1.3158
  107TMC2    C7 1639   4.252   0.434  11.033  0.2890  1.0562  0.1813
  107TMC2    C8 1640   4.376   0.915  11.037  0.8100  0.2990 -0.1969
  107TMC2    O1 1641   4.238   0.334  11.104 -0.2368 -0.8185  0.5184
  107TMC2    O2 1642   4.353   1.021  11.094  0.2504 -0.0864  0.3364
  107TMC2    O5 1643   4.383   0.903  10.903 -0.0929 -0.2621 -0.2514
  107TMC2    H5 1644   4.395   0.812  10.868 -1.3424  0.7444 -3.2820
  108MPD2     C 1645   3.978   0.977  11.560  0.2578  0.3940 -0.5599
  108MPD2    C1 1646   4.050   0.855  11.564 -0.0819 -0.0225 -0.1906
  108MPD2    C2 1647   4.053   0.779  11.679  0.3309 -0.5520  0.7179
  108MPD2    C3 1648   3.982   0.826  11.791 -1.0978 -0.1057  0.8392
  108MPD2    C4 1649   3.927   0.945  11.785 -0.8112 -0.1816  0.9250
  108MPD2    C5 1650   3.917   1.024  11.671 -0.7242 -0.2020 -0.7148
  108MPD2     H 1651   4.113   0.691  11.694 -0.3489 -1.3039 -0.9775
  108MPD2    H1 1652   3.886   0.999  11.870 -0.7084  1.2125  0.0964
  108MPD2    H2 1653   3.973   1.035  11.468  2.6552  2.0891  0.3737
  108MPD2    H3 1654   3.867   1.119  11.663 -1.0250 -0.3507 -0.5828
  108MPD2     N 1655   3.970   0.759  11.916  0.8235 -0.0824  0.1079
  108MPD2    H5 1656   3.904   0.806  11.977 -0.1810 -0.8060 -0.4190
  108MPD2    N1 1657   4.114   0.817  11.446  0.3312 -0.7894  0.3730
  108MPD2    H7 1658   4.116   0.881  11.367  0.5631 -0.1083  0.9266
  109MPD2     C 1659   1.114   3.052   2.327  0.0918 -0.3520 -1.1422
  109MPD2    C1 1660   1.048   2.998   2.222 -0.2155 -0.2778  0.8563
  109MPD2    C2 1661   0.972   3.084   2.143  0.5617 -0.7915 -0.0572
  109MPD2    C3 1662   0.945   3.217   2.167  0.1960  0.3709  0.0139
  109MPD2    C4 1663   1.025   3.275   2.263  0.4023  0.2750 -0.3115
  109MPD2    C5 1664   1.110   3.195   2.333  0.0666 -1.1890  0.4904
  109MPD2     H 1665   0.910   3.036   2.068 -0.3222 -0.0791  0.2197
  109MPD2    H1 1666   1.007   3.380   2.283  0.1042 -0.1725  1.7070
  109MPD2    H2 1667   1.181   3.000   2.395  1.0341 -0.3962 -2.1008
  109MPD2    H3 1668   1.170   3.235   2.415  1.5449 -1.0087 -0.6791
  109MPD2     N 1669   0.854   3.291   2.085  0.1948 -0.2693 -0.5176
  109MPD2    H5 1670   0.810   3.240   2.010 -1.2050  0.7256 -0.3606
  109MPD2    N1 1671   1.047   2.858   2.204  0.2771  0.3358  0.1263
  109MPD2    H7 1672   1.096   2.808   2.278  1.3974  0.4521 -0.5405
  110TCq2    C1 1673   0.800   3.415   2.114 -0.3179 -0.1430  0.0387
  110TCq2    O2 1674   0.831   3.499   2.204 -0.0395  0.0949 -0.0447
  110TCq2    C2 1675   0.693   3.454   2.028  0.4569 -0.1046 -0.3595
  110TCq2    C3 1676   0.652   3.585   2.018  0.2319 -0.3484  0.6750
  110TCq2    C4 1677   0.532   3.609   1.970 -0.4071  0.0093 -0.1032
  110TCq2    C5 1678   0.457   3.512   1.901 -0.3720 -0.8972 -0.0315
  110TCq2    C6 1679   0.499   3.381   1.911 -0.6924 -0.7102 -0.4503
  110TCq2    C7 1680   0.611   3.356   1.981 -0.2016 -0.1837  0.0761
  110TCq2    C8 1681   0.408   3.277   1.891  0.8872 -0.0417 -0.1272
  110TCq2    O4 1682   0.326   3.294   1.799  1.2067 -0.2233  0.0036
  110TCq2    C9 1683   0.482   3.744   1.967  0.3951  0.3939 -0.2485
  110TCq2    O5 1684   0.387   3.774   1.889  0.3047  0.2458 -0.2448
  110TCq2    O6 1685   0.551   3.824   2.035  0.4309  0.7072 -0.1627
  110TCq2    H2 1686   0.711   3.665   2.061  0.0817  0.4850 -0.6767
  110TCq2    H3 1687   0.361   3.538   1.857  0.6348  3.4839  0.4182
  110TCq2    H4 1688   0.636   3.251   1.995  0.5229  0.0857  0.8031
  111TMC2    C1 1689   3.655   2.925  11.401 -0.7038 -0.1767 -1.0342
  111TMC2    C2 1690   3.555   2.843  11.443  0.1474 -0.2286 -0.0011
  111TMC2    C3 1691   3.584   2.741  11.524 -0.0248 -0.5227 -0.1649
  111TMC2    C4 1692   3.777   2.911  11.459 -0.1684  0.2426  0.6933
  111TMC2    C5 1693   3.803   2.808  11.547 -0.1868  0.0537 -0.4775
  111TMC2    C6 1694   3.702   2.726  11.595 -1.0198 -0.3102  0.6903
  111TMC2     C 1695   3.624   3.056  11.341 -0.5568 -0.5092 -0.4330
  111TMC2     O 1696   3.506   3.076  11.316  0.4392  0.6451  0.2356
  111TMC2     H 1697   3.453   2.855  11.407  0.2226 -1.8228 -0.7657
  111TMC2    H1 1698   3.852   2.987  11.439 -0.2793 -0.0146 -0.6819
  111TMC2    H2 1699   3.719   2.646  11.666  0.8164 -0.2982  0.2674
  111TMC2    C7 1700   3.928   2.772  11.603  0.0471 -0.1504 -0.4840
  111TMC2    C8 1701   3.477   2.648  11.557  0.4286 -0.0611  0.3316
  111TMC2    O1 1702   3.943   2.710  11.706  0.0983 -0.0151  0.4897
  111TMC2    O2 1703   3.377   2.637  11.489  0.6011 -0.5272  0.0697
  111TMC2    O5 1704   3.501   2.560  11.663  0.1662 -0.8941  0.1008
  111TMC2    H5 1705   3.583   2.561  11.717  0.8585  3.1960 -1.0071
  112MPD2     C 1706   3.777   3.504  11.124  0.7166  0.1807 -0.5986
  112MPD2    C1 1707   3.654   3.446  11.126  0.7135  0.2631 -0.1200
  112MPD2    C2 1708   3.639   3.317  11.175  0.3554  0.2004  0.3353
  112MPD2    C3 1709   3.737   3.259  11.243 -0.2989  0.0362  0.4944
  112MPD2    C4 1710   3.856   3.319  11.252 -0.5149 -0.0981 -0.0991
  112MPD2    C5 1711   3.881   3.440  11.191  0.4763 -0.1575 -0.2529
  112MPD2     H 1712   3.540   3.274  11.167 -0.0459  1.4394 -1.5265
  112MPD2    H1 1713   3.936   3.269  11.306  1.1312  0.0785 -2.3628
  112MPD2    H2 1714   3.795   3.604  11.086 -2.2114  1.7108  1.9796
  112MPD2    H3 1715   3.982   3.478  11.186 -0.3182  2.0242  0.2378
  112MPD2     N 1716   3.731   3.138  11.311 -0.0039  0.0872 -0.0755
  112MPD2    H5 1717   3.820   3.107  11.349  0.7758 -0.2707 -2.2087
  112MPD2    N1 1718   3.546   3.493  11.052 -0.1095  0.1270  0.3142
  112MPD2    H7 1719   3.474   3.425  11.030 -0.0804 -0.3465  1.6876
  113MPD2     C 1720   3.000   0.611   0.884  0.3044 -0.3246 -0.4440
  113MPD2    C1 1721   2.890   0.688   0.910 -0.1852 -0.8340 -0.7058
  113MPD2    C2 1722   2.762   0.636   0.886 -0.5412  0.5128 -0.5113
  113MPD2    C3 1723   2.748   0.522   0.814  0.9924 -0.3193  0.0557
  113MPD2    C4 1724   2.857   0.450   0.775  0.1551  0.0837  0.4083
  113MPD2    C5 1725   2.981   0.492   0.815 -0.6588  0.1212 -0.1583
  113MPD2     H 1726   2.675   0.693   0.915 -0.4226  1.2130 -1.5133
  113MPD2    H1 1727   2.863   0.353   0.728  0.6122 -0.4091  1.4965
  113MPD2    H2 1728   3.102   0.641   0.903  0.4561 -0.4834 -1.0177
  113MPD2    H3 1729   3.068   0.430   0.796 -1.2835 -1.2300  1.3342
  113MPD2     N 1730   2.626   0.471   0.782  0.0094  0.1274  0.1518
  113MPD2    H5 1731   2.629   0.386   0.727  3.4857  0.3776 -0.0201
  113MPD2    N1 1732   2.891   0.811   0.977 -0.4392  0.0063 -0.0640
  113MPD2    H7 1733   2.808   0.868   0.987  0.0973  0.4365  1.8941
  114TCq2    C1 1734   2.498   0.517   0.797  0.4273  0.3347 -0.1654
  114TCq2    O2 1735   2.459   0.627   0.824 -0.2133 -0.2980  1.1352
  114TCq2    C2 1736   2.400   0.416   0.760 -0.5169  0.2330  0.0507
  114TCq2    C3 1737   2.267   0.453   0.752 -0.2534 -0.8477  0.0025
  114TCq2    C4 1738   2.165   0.362   0.744  0.1520  0.1253  0.5072
  114TCq2    C5 1739   2.195   0.226   0.751  0.3519  0.1515 -0.5376
  114TCq2    C6 1740   2.323   0.195   0.778 -0.5214 -0.3003  0.1606
  114TCq2    C7 1741   2.428   0.286   0.774  0.2293  0.4685  0.7145
  114TCq2    C8 1742   2.349   0.053   0.806 -0.1101 -0.4302 -0.4059
  114TCq2    O4 1743   2.467   0.024   0.808 -0.1156  0.3358 -0.1355
  114TCq2    C9 1744   2.033   0.411   0.749 -0.4164  0.1545  0.3905
  114TCq2    O5 1745   1.945   0.336   0.793 -0.6036  0.1487 -0.2335
  114TCq2    O6 1746   2.013   0.531   0.723 -0.2606  0.0890  0.5012
  114TCq2    H2 1747   2.244   0.559   0.755  0.4691 -0.7583  2.1535
  114TCq2    H3 1748   2.111   0.158   0.761  1.2885 -0.7331  1.3939
  114TCq2    H4 1749   2.527   0.251   0.800  0.7472  1.5365  0.1774
  115TMC2    C1 1750   3.330   3.003   0.176  0.2156 -0.1339 -0.3547
  115TMC2    C2 1751   3.336   2.982   0.313  0.7041 -0.3117 -0.6135
  115TMC2    C3 1752   3.424   3.050   0.380 -0.1678 -0.5732 -0.5379
  115TMC2    C4 1753   3.406   3.091   0.114 -0.0680 -0.0240 -0.1494
  115TMC2    C5 1754   3.486   3.176   0.188 -0.1308 -0.3565  0.1907
  115TMC2    C6 1755   3.503   3.141   0.317 -0.2659 -0.0985  0.7842
  115TMC2     C 1756   3.308   2.886   0.098  0.1930 -0.0921  0.5590
  115TMC2     O 1757   3.344   2.780   0.144 -0.3914 -0.0631  0.2400
  115TMC2     H 1758   3.284   2.898   0.358  0.6135  0.5420  0.8913
  115TMC2    H1 1759   3.419   3.095   0.007 -0.0149 -0.3131 -0.1537
  115TMC2    H2 1760   3.578   3.196   0.372  0.7260  0.0157 -0.6803
  115TMC2    C7 1761   3.557   3.285   0.124  0.2584 -0.0219 -0.4350
  115TMC2    C8 1762   3.444   3.035   0.526 -0.0429 -0.3835 -0.1025
  115TMC2    O1 1763   3.655   3.333   0.179  0.0821 -0.4569  0.0341
  115TMC2    O2 1764   3.413   2.935   0.589  0.2064  0.3933  0.1984
  115TMC2    O5 1765   3.417   3.163   0.574  0.1917 -0.1830  0.4179
  115TMC2    H5 1766   3.408   3.239   0.513  1.5122  0.4897  1.0735
  116MPD2     C 1767   3.038   2.652  17.425  0.6875 -0.4870  0.5524
  116MPD2    C1 1768   3.142   2.606  17.504  0.2362 -0.2283  0.4792
  116MPD2    C2 1769   3.207   2.689  17.594  0.1049 -0.0084  0.5610
  116MPD2    C3 1770   3.166   2.817  17.600  0.2107  0.3355  1.1132
  116MPD2    C4 1771   3.074   2.866  17.513  0.1317 -0.5245 -0.0368
  116MPD2    C5 1772   3.014   2.785  17.418  0.1658 -0.2970 -0.6973
  116MPD2     H 1773   3.301   2.657  17.637 -0.3636 -0.7911  0.9967
  116MPD2    H1 1774   3.067   2.974  17.516  0.1888 -0.5049 -0.5499
  116MPD2    H2 1775   2.992   2.597  17.344 -0.6112 -1.1887  1.7667
  116MPD2    H3 1776   2.935   2.812  17.349  1.7410  2.2046 -1.5268
  116MPD2     N 1777   3.221   2.912  17.687 -0.1877 -0.5811 -0.9220
  116MPD2    H5 1778   3.178   3.003  17.672  0.1924 -0.6245 -2.3310
  116MPD2    N1 1779   3.167   2.473  17.469 -0.2499 -0.5188 -0.5111
  116MPD2    H7 1780   3.128   2.456  17.377 -1.6793  0.7499 -0.1426
  117TMC2    C1 1781   1.226   3.846  14.160 -0.2301  0.8900  0.7169
  117TMC2    C2 1782   1.223   3.714  14.216  0.0648  0.3248  0.2611
  117TMC2    C3 1783   1.323   3.669  14.290 -0.0824 -0.1317 -0.2701
  117TMC2    C4 1784   1.334   3.932  14.189 -0.0073 -0.5512  0.9762
  117TMC2    C5 1785   1.446   3.878  14.255  0.3202 -0.1240  0.0402
  117TMC2    C6 1786   1.444   3.744  14.294  0.0179  0.6274 -0.1069
  117TMC2     C 1787   1.117   3.890  14.078 -0.5988  0.3305 -0.2717
  117TMC2     O 1788   1.039   3.810  14.025 -0.3599  0.3028 -0.4571
  117TMC2     H 1789   1.128   3.663  14.208  0.0814  0.2175  0.7298
  117TMC2    H1 1790   1.330   4.039  14.171 -1.4210 -0.9011 -0.7763
  117TMC2    H2 1791   1.533   3.695  14.331 -1.2128 -0.4617  1.4157
  117TMC2    C7 1792   1.565   3.950  14.214 -0.1226  0.2825 -0.5398
  117TMC2    C8 1793   1.305   3.564  14.388 -0.7264  0.4350  0.1647
  117TMC2    O1 1794   1.552   4.020  14.116 -0.7901 -0.5561 -0.1446
  117TMC2    O2 1795   1.395   3.538  14.472 -0.4390 -0.2947  0.4400
  117TMC2    O5 1796   1.211   3.477  14.342  0.2794  0.0860 -0.4387
  117TMC2    H5 1797   1.135   3.516  14.294 -0.5615 -0.0342  0.7928
  118MPD2     C 1798   1.874   4.016  14.396  0.2154 -0.3324  0.3160
  118MPD2    C1 1799   1.796   3.999  14.287  0.6110 -0.8031  0.6812
  118MPD2    C2 1800   1.841   4.033  14.156 -0.1612 -0.3038  0.1698
  118MPD2    C3 1801   1.965   4.072  14.138 -0.1977  0.2995 -0.5175
  118MPD2    C4 1802   2.047   4.079  14.247 -0.9328 -0.4667  0.6435
  118MPD2    C5 1803   2.000   4.058  14.377  0.2232 -0.0289 -0.8165
  118MPD2     H 1804   1.780   4.024  14.067 -0.0280  1.9055 -0.1383
  118MPD2    H1 1805   2.143   4.128  14.234 -1.9785  1.1549 -1.1330
  118MPD2    H2 1806   1.845   4.000  14.499  1.9615  1.7391  1.1450
  118MPD2    H3 1807   2.069   4.071  14.459 -0.0496  0.6601 -0.6993
  118MPD2     N 1808   2.031   4.098  14.020 -0.4279 -0.7617  0.4501
  118MPD2    H5 1809   2.130   4.117  14.026 -0.9125  1.8431 -0.0465
  118MPD2    N1 1810   1.668   3.946  14.306 -0.0214  0.0549  0.6347
  118MPD2    H7 1811   1.653   3.904  14.397 -1.2927 -0.8911 -0.0066
  119MPD2     C 1812   4.699   1.310  13.541  0.4839 -0.0449  0.2520
  119MPD2    C1 1813   4.597   1.242  13.595 -0.3988 -0.2532  0.2763
  119MPD2    C2 1814   4.487   1.207  13.515  0.1065  0.0949  0.1262
  119MPD2    C3 1815   4.482   1.235  13.382 -0.4047 -0.0561  0.1033
  119MPD2    C4 1816   4.584   1.311  13.335  0.3077  0.8846 -0.2627
  119MPD2    C5 1817   4.689   1.357  13.419  0.2663 -0.6042  0.3207
  119MPD2     H 1818   4.411   1.142  13.557 -0.4956  1.5754  1.3149
  119MPD2    H1 1819   4.592   1.343  13.232 -0.8078  0.1747 -0.5687
  119MPD2    H2 1820   0.070   1.324  13.596  1.8890 -2.1518 -1.5693
  119MPD2    H3 1821   0.041   1.425  13.379 -0.8607 -0.0206 -0.8040
  119MPD2     N 1822   4.379   1.187  13.306  0.6081 -0.6707 -0.1288
  119MPD2    H5 1823   4.381   1.221  13.210  0.4378  0.7622  0.3839
  119MPD2    N1 1824   4.612   1.196  13.732 -0.1283  0.2772 -0.2905
  119MPD2    H7 1825   4.702   1.206  13.778 -0.5928  0.3153  0.5991
  120TCq2    C1 1826   4.273   1.109  13.334 -0.4031 -0.7209 -0.2387
  120TCq2    O2 1827   4.237   1.071  13.443 -0.3142 -0.3281 -0.1317
  120TCq2    C2 1828   4.189   1.058  13.220 -0.4337 -0.3176  0.2374
  120TCq2    C3 1829   4.213   1.101  13.093 -1.0535 -0.4699  0.0930
  120TCq2    C4 1830   4.122   1.067  13.000 -0.4960 -0.2278  0.6856
  120TCq2    C5 1831   4.011   0.982  13.023  0.2577 -0.4355  0.2408
  120TCq2    C6 1832   4.000   0.930  13.148  0.2377  0.5365 -0.0527
  120TCq2    C7 1833   4.081   0.979  13.253  0.2012  0.0511 -0.0770
  120TCq2    C8 1834   3.889   0.839  13.182 -0.1118 -0.5391  0.3018
  120TCq2    O4 1835   3.790   0.849  13.106  0.3355  0.0278 -0.5516
  120TCq2    C9 1836   4.152   1.106  12.866  0.0951 -0.0924 -0.4487
  120TCq2    O5 1837   4.088   1.061  12.772  0.3492 -0.2128 -0.2035
  120TCq2    O6 1838   4.254   1.174  12.854  0.4266  0.6351 -0.2177
  120TCq2    H2 1839   4.306   1.148  13.062 -0.2973 -1.1951  1.2477
  120TCq2    H3 1840   3.941   0.958  12.944 -0.6959 -1.8632  1.5191
  120TCq2    H4 1841   4.058   0.953  13.355  2.7479 -0.6740  0.3018
  121TMC2    C1 1842   1.668   2.714  13.872  0.1507  0.4568 -0.0776
  121TMC2    C2 1843   1.790   2.658  13.915 -0.3562  0.7578  0.4740
  121TMC2    C3 1844   1.782   2.534  13.975 -0.0936  0.4528  0.1779
  121TMC2    C4 1845   1.546   2.658  13.902 -0.5314  1.0917 -0.1512
  121TMC2    C5 1846   1.552   2.532  13.938  0.9063  0.1449 -0.4875
  121TMC2    C6 1847   1.659   2.465  13.985  0.8018  0.3107 -0.0997
  121TMC2     C 1848   1.672   2.856  13.868 -0.3919 -0.4721  0.2456
  121TMC2     O 1849   1.746   2.918  13.945 -0.4419 -0.3031  0.1136
  121TMC2     H 1850   1.878   2.720  13.923  1.5644 -1.5743 -2.3969
  121TMC2    H1 1851   1.449   2.702  13.880 -1.2139  0.0758  0.8230
  121TMC2    H2 1852   1.647   2.372  14.039  1.0877  0.5542  0.3789
  121TMC2    C7 1853   1.433   2.448  13.930  0.1256  0.1870  0.0287
  121TMC2    C8 1854   1.901   2.480  14.040 -0.4356 -0.0204  0.5880
  121TMC2    O1 1855   1.463   2.331  13.895  0.0766 -0.0055  0.5773
  121TMC2    O2 1856   1.995   2.555  14.067  0.0270 -0.6021  0.4161
  121TMC2    O5 1857   1.889   2.345  14.041  0.5168  0.0576 -0.0058
  121TMC2    H5 1858   1.832   2.313  13.968  0.9899  0.4901 -0.5621
  122MPD2     C 1859   1.600   3.144  13.807  0.0802 -0.7646 -0.1606
  122MPD2    C1 1860   1.561   3.031  13.734 -0.0856 -0.0450  0.5560
  122MPD2    C2 1861   1.500   3.053  13.614 -0.6995  0.8139 -0.7329
  122MPD2    C3 1862   1.450   3.176  13.584 -0.3576 -0.3947  0.2438
  122MPD2    C4 1863   1.483   3.283  13.664  0.3904 -0.2080 -0.3275
  122MPD2    C5 1864   1.559   3.266  13.776 -0.0704  0.0111 -0.2754
  122MPD2     H 1865   1.478   2.969  13.550  0.3293  1.6614 -2.2094
  122MPD2    H1 1866   1.433   3.379  13.651  1.4594  0.6700  1.9325
  122MPD2    H2 1867   1.663   3.138  13.896 -1.0146 -0.4170  0.6395
  122MPD2    H3 1868   1.580   3.349  13.843 -2.4244  0.0140  0.4287
  122MPD2     N 1869   1.377   3.216  13.469 -0.1727  0.4258  0.3746
  122MPD2    H5 1870   1.367   3.316  13.456 -2.6120  0.1095 -0.1987
  122MPD2    N1 1871   1.595   2.897  13.762 -0.2241 -0.0083 -0.2588
  122MPD2    H7 1872   1.575   2.826  13.692  0.4099 -0.0626 -0.3820
  123MPD2     C 1873   0.183   2.968   9.448  0.3346 -0.2783  0.0550
  123MPD2    C1 1874   0.053   2.926   9.416 -0.0100 -0.5987  0.6873
  123MPD2    C2 1875   0.009   2.810   9.472  0.6495 -0.0584 -0.4050
  123MPD2    C3 1876   0.088   2.739   9.556  0.1226  0.3569 -0.1824
  123MPD2    C4 1877   0.216   2.774   9.573 -0.0095 -0.2253 -0.4829
  123MPD2    C5 1878   0.263   2.893   9.522 -0.6012  0.1262 -0.0696
  123MPD2     H 1879   4.629   2.777   9.458  0.9848  0.1850 -3.4356
  123MPD2    H1 1880   0.277   2.708   9.634  0.1354  0.7983  0.4728
  123MPD2    H2 1881   0.227   3.059   9.409  1.0914 -0.9067 -0.5585
  123MPD2    H3 1882   0.365   2.925   9.541 -1.1152  2.0569 -0.5265
  123MPD2     N 1883   0.031   2.621   9.608  0.0672  0.4714 -0.6020
  123MPD2    H5 1884   4.667   2.591   9.564 -1.0818  2.0819  0.5862
  123MPD2    N1 1885   4.694   3.025   9.352 -0.1467  0.2507  0.5656
  123MPD2    H7 1886   0.033   3.103   9.330 -0.5634  0.7497  1.1991
  124TCq2    C1 1887   0.099   2.540   9.698 -0.0783  0.5637 -0.4648
  124TCq2    O2 1888   0.187   2.561   9.779  0.5083 -0.0814 -0.5545
  124TCq2    C2 1889   0.039   2.410   9.712 -0.1185 -0.0394  0.4037
  124TCq2    C3 1890   0.048   2.350   9.834 -0.0911 -0.0070  0.2873
  124TCq2    C4 1891   0.002   2.225   9.847 -0.2556  0.1643 -0.1456
  124TCq2    C5 1892   4.687   2.158   9.739 -0.5647  0.0758  0.3005
  124TCq2    C6 1893   4.686   2.222   9.619  0.3791 -0.3815 -0.8906
  124TCq2    C7 1894   0.005   2.351   9.598  0.2510 -0.9203  0.0443
  124TCq2    C8 1895   4.628   2.145   9.514 -0.0302  0.9700 -0.8412
  124TCq2    O4 1896   4.574   2.041   9.548 -0.7682 -0.3215  0.5093
  124TCq2    C9 1897   4.705   2.168   9.979 -0.4734 -0.3910 -0.1179
  124TCq2    O5 1898   4.704   2.258  10.072 -0.2046 -0.0451 -0.2539
  124TCq2    O6 1899   4.663   2.051   9.995  0.2875 -0.1924  0.4462
  124TCq2    H2 1900   0.085   2.408   9.918 -0.2131  0.1227  0.2524
  124TCq2    H3 1901   4.649   2.059   9.760 -1.8038  0.4061 -0.4050
  124TCq2    H4 1902   4.717   2.415   9.511 -0.9206 -1.2900 -0.0975
  125TMC2    C1 1903   0.304   1.922   9.555 -0.2567  0.0433  0.1871
  125TMC2    C2 1904   0.350   1.892   9.677  0.6472 -0.1816  0.2659
  125TMC2    C3 1905   0.397   1.993   9.752 -0.0445  0.4406  0.2971
  125TMC2    C4 1906   0.323   2.042   9.497  0.8451 -0.2509  0.0838
  125TMC2    C5 1907   0.371   2.146   9.574 -0.6189  0.0493 -0.3188
  125TMC2    C6 1908   0.414   2.120   9.700 -0.0437  0.4346 -0.2223
  125TMC2     C 1909   0.240   1.822   9.468  1.0402 -0.3663 -0.2298
  125TMC2     O 1910   0.222   1.856   9.350 -0.1549  0.2193 -0.1063
  125TMC2     H 1911   0.350   1.794   9.724  0.4182 -1.4379 -2.3366
  125TMC2    H1 1912   0.277   2.068   9.402 -0.2554  1.2089  1.0108
  125TMC2    H2 1913   0.483   2.182   9.756 -1.3682  0.4363  1.4333
  125TMC2    C7 1914   0.415   2.269   9.506  0.4142 -0.1780 -0.4354
  125TMC2    C8 1915   0.418   1.967   9.892  0.1502  0.3135  0.3987
  125TMC2    O1 1916   0.408   2.263   9.382  0.0523  0.0764 -0.4712
  125TMC2    O2 1917   0.408   1.857   9.942 -0.4458 -0.4276 -0.3411
  125TMC2    O5 1918   0.375   2.076   9.953  0.5829 -0.6715 -0.0678
  125TMC2    H5 1919   0.385   2.151   9.892  1.6709 -0.1059  0.8020
  126MPD1     C 1920   0.218   1.335   9.308  0.0928  0.1660  0.4877
  126MPD1    C1 1921   0.190   1.336   9.442 -0.1701  0.6049 -0.1785
  126MPD1    C2 1922   0.191   1.458   9.513 -0.8563 -0.4234 -0.1679
  126MPD1    C3 1923   0.221   1.575   9.451  0.4908 -1.1520 -0.1590
  126MPD1    C4 1924   0.255   1.568   9.317 -0.2927  1.2024  0.0162
  126MPD1    C5 1925   0.247   1.446   9.250 -0.2257  0.8480 -0.5288
  126MPD1     H 1926   0.167   1.448   9.618  0.4934  1.7419  0.3475
  126MPD1    H1 1927   0.282   1.659   9.265 -0.0709  0.7758 -0.6185
  126MPD1    H2 1928   0.213   1.243   9.250  2.2098 -0.2027  0.8722
  126MPD1    H3 1929   0.271   1.450   9.144 -0.6296 -2.1185 -0.7146
  126MPD1     N 1930   0.222   1.698   9.529  0.3151 -0.0638 -0.1587
  126MPD1    H5 1931   0.219   1.682   9.629  0.6561 -0.4491 -0.2078
  126MPD1    N1 1932   0.171   1.215   9.516  0.2487 -0.1175 -0.0964
  126MPD1    H6 1933   0.215   1.130   9.483 -1.3374 -0.9594 -0.0611
  126MPD1    H7 1934   0.198   1.241   9.611  0.5501  0.5970 -0.3780
  127MPD2     C 1935   1.141   2.223   9.231  0.1072  0.2643  0.0973
  127MPD2    C1 1936   1.225   2.203   9.337  0.1938 -0.0723  0.0403
  127MPD2    C2 1937   1.311   2.302   9.377  0.3921 -0.0835  0.1503
  127MPD2    C3 1938   1.311   2.428   9.311 -0.3430  0.1877  0.4602
  127MPD2    C4 1939   1.227   2.449   9.205 -0.5340  0.1859  0.6433
  127MPD2    C5 1940   1.142   2.349   9.167 -0.6216 -0.6624 -0.1287
  127MPD2     H 1941   1.376   2.276   9.459  1.1208  0.1685 -0.3477
  127MPD2    H1 1942   1.204   2.544   9.159  0.3311  0.6376  1.1263
  127MPD2    H2 1943   1.070   2.149   9.196 -0.1747 -0.0449  1.3163
  127MPD2    H3 1944   1.073   2.370   9.086 -0.8558 -0.5811  0.0918
  127MPD2     N 1945   1.393   2.539   9.356 -0.0108 -0.1722  0.0101
  127MPD2    H5 1946   1.450   2.521   9.439  1.0813  0.2071 -0.6594
  127MPD2    N1 1947   1.215   2.079   9.401  0.9029 -0.1659  0.0018
  127MPD2    H7 1948   1.166   2.006   9.352 -3.3355  2.5194  0.2941
  128TCq2    C1 1949   1.269   2.035   9.516 -0.7038  0.3064  0.5547
  128TCq2    O2 1950   1.351   2.097   9.588  0.3549  0.3238  0.1699
  128TCq2    C2 1951   1.241   1.896   9.550 -0.2814  0.7487  1.0323
  128TCq2    C3 1952   1.314   1.845   9.652 -0.8034  0.3167  0.2535
  128TCq2    C4 1953   1.277   1.712   9.698 -0.1801 -0.3294  0.2247
  128TCq2    C5 1954   1.177   1.639   9.633 -0.0237 -0.4425  0.4153
  128TCq2    C6 1955   1.107   1.702   9.533  0.1140 -0.2444  1.1481
  128TCq2    C7 1956   1.137   1.828   9.485  0.7291 -0.5235 -0.1115
  128TCq2    C8 1957   0.976   1.651   9.493 -0.0557  0.2909 -0.2234
  128TCq2    O4 1958   0.909   1.710   9.406  0.4295 -0.8609  0.3369
  128TCq2    C9 1959   1.351   1.653   9.802 -0.1471 -0.1405 -0.6257
  128TCq2    O5 1960   1.304   1.548   9.859 -0.1012  0.4342  0.7868
  128TCq2    O6 1961   1.453   1.718   9.841 -0.0744 -0.4713 -0.1815
  128TCq2    H2 1962   1.395   1.902   9.697  1.0251 -2.1576  0.0997
  128TCq2    H3 1963   1.159   1.536   9.662 -1.7007 -0.4656 -0.7097
  128TCq2    H4 1964   1.078   1.867   9.403  0.1301  0.7198  0.9207
  129MPD2     C 1965   1.005   1.415   1.724 -0.5269  0.0001 -0.2441
  129MPD2    C1 1966   0.949   1.523   1.792 -0.0171  0.1201 -0.1094
  129MPD2    C2 1967   0.961   1.649   1.746  0.1501 -0.6038  0.4580
  129MPD2    C3 1968   1.045   1.683   1.641 -0.0367  0.4757  0.1447
  129MPD2    C4 1969   1.113   1.574   1.580 -0.2635 -0.3847  0.4957
  129MPD2    C5 1970   1.093   1.442   1.620  0.3702  0.1430 -0.3480
  129MPD2     H 1971   0.899   1.728   1.787 -0.1626  0.8478 -2.8023
  129MPD2    H1 1972   1.177   1.599   1.496  1.1958 -1.7525  1.1838
  129MPD2    H2 1973   0.999   1.320   1.775 -1.3957 -0.4763 -1.2284
  129MPD2    H3 1974   1.157   1.367   1.575  1.4737  1.8523 -1.6486
  129MPD2     N 1975   1.060   1.821   1.614  0.7622  0.6646  0.8331
  129MPD2    H5 1976   1.004   1.887   1.667 -0.2119 -0.3682  1.1010
  129MPD2    N1 1977   0.858   1.497   1.896 -0.0503 -0.0115  0.1871
  129MPD2    H7 1978   0.803   1.575   1.929  1.3179  1.6331 -1.4158
  130TCq2    C1 1979   0.851   1.378   1.969 -0.1403  0.3342  0.4829
  130TCq2    O2 1980   0.922   1.279   1.970 -0.3434  0.1390 -0.0711
  130TCq2    C2 1981   0.753   1.384   2.072 -0.1342 -0.0750 -0.2517
  130TCq2    C3 1982   0.782   1.315   2.187  0.0372  0.2524 -0.0384
  130TCq2    C4 1983   0.686   1.315   2.281  0.9781  0.0558  0.1698
  130TCq2    C5 1984   0.569   1.385   2.272 -0.5025 -0.2522 -0.3111
  130TCq2    C6 1985   0.551   1.455   2.158 -0.7675  0.0845 -0.9826
  130TCq2    C7 1986   0.637   1.455   2.060  0.4124  0.9926 -0.0327
  130TCq2    C8 1987   0.417   1.514   2.123  0.0359  0.3562 -0.1584
  130TCq2    O4 1988   0.411   1.613   2.053  0.0766  0.0025  0.0938
  130TCq2    C9 1989   0.703   1.234   2.394  0.2334 -0.2222 -0.4989
  130TCq2    O5 1990   0.616   1.250   2.487  0.1450  0.6496 -0.5240
  130TCq2    O6 1991   0.807   1.162   2.402  0.2912  0.3032 -0.1932
  130TCq2    H2 1992   0.879   1.268   2.196 -1.1911 -1.7900  2.5909
  130TCq2    H3 1993   0.504   1.399   2.358 -1.5393 -2.6436 -0.7171
  130TCq2    H4 1994   0.629   1.508   1.965  1.4310  0.7326 -0.2655
  131MPD2     C 1995   3.868   3.168   8.768 -0.2677  0.0475 -0.5388
  131MPD2    C1 1996   3.907   3.060   8.837  0.0743  0.3903 -0.5778
  131MPD2    C2 1997   4.020   3.063   8.915 -0.7732  0.2709  0.4661
  131MPD2    C3 1998   4.073   3.190   8.946 -0.4117 -0.5545  0.4481
  131MPD2    C4 1999   4.028   3.302   8.873 -0.6584  0.7712 -0.5994
  131MPD2    C5 2000   3.932   3.292   8.775 -0.2455 -0.4794 -0.0915
  131MPD2     H 2001   4.054   2.977   8.972 -4.0537  0.6262  2.9539
  131MPD2    H1 2002   4.085   3.394   8.865 -2.5221  1.8631 -1.3325
  131MPD2    H2 2003   3.785   3.152   8.700 -1.8225 -2.0138  1.8521
  131MPD2    H3 2004   3.913   3.373   8.706 -2.8395  0.6458  1.9690
  131MPD2     N 2005   4.181   3.190   9.036  0.2893 -0.1710  0.3314
  131MPD2    H5 2006   4.216   3.098   9.061  1.8768 -0.1499 -1.8417
  131MPD2    N1 2007   3.823   2.942   8.822  0.5048  0.0013  0.4077
  131MPD2    H7 2008   3.742   2.957   8.762 -0.6446  1.1655  2.2405
  132TCq2    C1 2009   3.710   2.361   8.901 -0.2887 -0.2655 -0.9007
  132TCq2    O2 2010   3.633   2.277   8.858  0.1713  0.1615 -0.1652
  132TCq2    C2 2011   3.692   2.498   8.850 -0.4170 -0.5228 -0.2562
  132TCq2    C3 2012   3.578   2.535   8.777  0.0545  0.4469  0.0175
  132TCq2    C4 2013   3.562   2.658   8.721 -0.2639 -0.4240 -0.0617
  132TCq2    C5 2014   3.664   2.749   8.733  0.0874 -0.1150 -0.0106
  132TCq2    C6 2015   3.770   2.719   8.815  1.0438  0.5840 -0.3213
  132TCq2    C7 2016   3.791   2.597   8.868 -0.0676  0.2794  0.2340
  132TCq2    C8 2017   3.864   2.817   8.859 -0.0017 -0.1054  0.3620
  132TCq2    O4 2018   3.965   2.774   8.908 -0.4246 -0.0652 -0.6655
  132TCq2    C9 2019   3.456   2.681   8.624  0.2488  0.3951  0.1037
  132TCq2    O5 2020   3.426   2.798   8.591 -0.1451 -0.3792 -0.0175
  132TCq2    O6 2021   3.382   2.581   8.601 -0.1323 -0.4856  0.2688
  132TCq2    H2 2022   3.499   2.462   8.767 -2.4871  2.9487  1.9500
  132TCq2    H3 2023   3.641   2.840   8.679  1.2033  0.1001 -0.1294
  132TCq2    H4 2024   3.870   2.572   8.937  0.4183  0.8311 -0.1165
  133MPD2     C 2025   2.890   3.232   8.914 -0.2908 -0.8654 -0.1124
  133MPD2    C1 2026   2.937   3.247   9.045  0.0847  0.1858 -0.3488
  133MPD2    C2 2027   3.061   3.199   9.084 -1.0292 -1.0788  0.6692
  133MPD2    C3 2028   3.129   3.122   8.989  0.0902 -0.2141 -0.1426
  133MPD2    C4 2029   3.085   3.103   8.859  0.3203  0.7599 -0.4630
  133MPD2    C5 2030   2.968   3.165   8.824 -0.4709  0.4302 -0.3343
  133MPD2     H 2031   3.106   3.223   9.179 -0.7266 -0.8328  0.4643
  133MPD2    H1 2032   3.142   3.052   8.783  1.1668  0.4411  0.3872
  133MPD2    H2 2033   2.806   3.293   8.881 -0.2998 -2.3001 -2.7961
  133MPD2    H3 2034   2.929   3.168   8.723 -2.0597 -1.6441  0.2323
  133MPD2     N 2035   3.254   3.062   9.012  0.3485 -0.2527  0.7228
  133MPD2    H5 2036   3.280   2.989   8.947 -1.7464  2.1670 -2.8763
  133MPD2    N1 2037   2.853   3.325   9.132  0.1568 -0.3434  0.0805
  133MPD2    H7 2038   2.765   3.359   9.093 -1.6568 -3.9020  1.0215
  134TCq2    C1 2039   2.868   3.370   9.256 -0.1749  0.1401 -0.1529
  134TCq2    O2 2040   2.973   3.373   9.325  0.4245  0.1588  0.6795
  134TCq2    C2 2041   2.744   3.429   9.304 -0.2404  0.7865 -0.4625
  134TCq2    C3 2042   2.753   3.488   9.429 -0.5982  1.1379  0.5630
  134TCq2    C4 2043   2.647   3.566   9.480  0.0710  0.1391 -0.0736
  134TCq2    C5 2044   2.545   3.599   9.399  0.1178 -0.5366  0.1404
  134TCq2    C6 2045   2.541   3.553   9.268  0.2053  0.5326 -0.2152
  134TCq2    C7 2046   2.636   3.466   9.220 -0.1802  0.4800  0.5997
  134TCq2    C8 2047   2.430   3.589   9.181 -0.0344 -0.2049  0.1041
  134TCq2    O4 2048   2.395   3.513   9.086 -0.3949  0.2486  0.3609
  134TCq2    C9 2049   2.641   3.597   9.624  0.1486  0.2865 -0.0741
  134TCq2    O5 2050   2.748   3.586   9.691 -0.0800  0.0716  0.1572
  134TCq2    O6 2051   2.520   3.597   9.657 -0.5184 -0.1782  0.2028
  134TCq2    H2 2052   2.825   3.460   9.504 -0.7473  0.2682  0.3862
  134TCq2    H3 2053   2.461   3.647   9.448 -0.1972 -0.5408 -0.3844
  134TCq2    H4 2054   2.634   3.444   9.113 -0.3624 -1.9495  1.1029
  135MPD2     C 2055   1.180   3.473   9.303 -0.2186  0.1401  0.3570
  135MPD2    C1 2056   1.100   3.366   9.275 -0.6529 -0.3508 -0.3858
  135MPD2    C2 2057   1.151   3.263   9.189 -0.0871  0.3573  0.0320
  135MPD2    C3 2058   1.281   3.265   9.140  0.5199 -0.2042  0.5092
  135MPD2    C4 2059   1.372   3.364   9.179  0.1566  0.1519 -0.1411
  135MPD2    C5 2060   1.317   3.465   9.264 -0.4275 -0.5403  0.4479
  135MPD2     H 2061   1.085   3.182   9.163  0.2837  0.5952 -1.6497
  135MPD2    H1 2062   1.472   3.373   9.139 -0.4949  1.7892 -1.4063
  135MPD2    H2 2063   1.139   3.554   9.361  1.7543  0.4621  1.3218
  135MPD2    H3 2064   1.374   3.552   9.294 -0.6321 -0.6983  1.3033
  135MPD2     N 2065   1.330   3.148   9.063  0.7443 -0.4515 -0.3067
  135MPD2    H5 2066   1.429   3.155   9.042  0.7133 -0.0662 -0.3236
  135MPD2    N1 2067   0.966   3.352   9.319 -0.3066 -0.2422 -0.6497
  135MPD2    H7 2068   0.912   3.277   9.276 -0.5775 -2.2515  3.2514
  136TCq2    C1 2069   0.893   3.436   9.400 -0.2128  0.3212 -0.0430
  136TCq2    O2 2070   0.928   3.530   9.472  0.7908  0.5522 -0.4501
  136TCq2    C2 2071   0.753   3.397   9.404 -0.0485  0.2146  0.1101
  136TCq2    C3 2072   0.702   3.365   9.279 -0.0296 -0.0959 -0.0612
  136TCq2    C4 2073   0.591   3.290   9.282 -0.2791  0.1105 -0.7193
  136TCq2    C5 2074   0.532   3.251   9.398 -0.4947  0.2156 -0.7348
  136TCq2    C6 2075   0.585   3.289   9.518  0.2797 -0.7393 -0.0872
  136TCq2    C7 2076   0.695   3.368   9.523  0.3362 -0.5461 -0.3775
  136TCq2    C8 2077   0.516   3.242   9.635 -0.5243  0.3020  0.5729
  136TCq2    O4 2078   0.432   3.154   9.632  0.6214 -0.0872 -0.0209
  136TCq2    C9 2079   0.519   3.257   9.163 -0.0178 -0.1107 -0.7042
  136TCq2    O5 2080   0.583   3.269   9.055 -0.0280 -0.0593 -0.3914
  136TCq2    O6 2081   0.411   3.196   9.184 -0.1204 -0.0037  0.6373
  136TCq2    H2 2082   0.756   3.388   9.188 -1.2161  1.4973 -0.3621
  136TCq2    H3 2083   0.441   3.193   9.394  0.3491 -1.3383  2.3133
  136TCq2    H4 2084   0.749   3.391   9.614 -0.4740  0.8583 -0.2507
  137MPD2     C 2085   0.517   1.302   9.976  0.0360  0.4045 -0.3099
  137MPD2    C1 2086   0.413   1.390   9.979 -0.0778 -0.1544  0.0717
  137MPD2    C2 2087   0.444   1.524  10.013  0.3024  1.2417  1.3830
  137MPD2    C3 2088   0.570   1.561  10.044 -0.5197 -0.5052  0.1622
  137MPD2    C4 2089   0.673   1.474  10.044 -0.2458  0.3889  0.0273
  137MPD2    C5 2090   0.647   1.340  10.014  0.5363 -0.3570 -0.2574
  137MPD2     H 2091   0.363   1.596  10.011 -0.8784 -0.1268  0.0404
  137MPD2    H1 2092   0.771   1.512  10.069  0.1409  0.8806 -2.2899
  137MPD2    H2 2093   0.498   1.196   9.964 -0.6305  0.3236  1.4040
  137MPD2    H3 2094   0.725   1.265  10.015 -0.7172 -1.6395  0.4229
  137MPD2     N 2095   0.580   1.698  10.078 -0.3442  0.6806 -0.1822
  137MPD2    H5 2096   0.499   1.757  10.063 -1.7146 -1.1801  0.0115
  137MPD2    N1 2097   0.285   1.334   9.967 -0.4001  0.2732  0.6313
  137MPD2    H7 2098   0.280   1.234   9.948 -1.0841  0.1741  1.3358
  138TCq2    C1 2099   0.171   1.398  10.010  0.5397  0.3570  0.1480
  138TCq2    O2 2100   0.159   1.508  10.061 -0.0490 -0.0095 -0.1929
  138TCq2    C2 2101   0.051   1.307  10.016  0.3264 -0.1994  1.0896
  138TCq2    C3 2102   0.055   1.173  10.048 -0.0347 -0.1021  0.2953
  138TCq2    C4 2103   4.660   1.098  10.043  0.0364  0.1224 -0.1633
  138TCq2    C5 2104   4.543   1.144   9.991  0.1975  0.1634 -0.5710
  138TCq2    C6 2105   4.543   1.281   9.968 -0.2880 -0.3206  0.4646
  138TCq2    C7 2106   4.658   1.363   9.969  0.5326 -0.0644 -0.1813
  138TCq2    C8 2107   4.412   1.325   9.913  0.3801  0.0735  0.4858
  138TCq2    O4 2108   4.338   1.234   9.892  0.0532  0.2739 -0.1217
  138TCq2    C9 2109   4.665   0.963  10.085 -0.1661 -0.0887  0.1138
  138TCq2    O5 2110   0.051   0.919  10.137  0.1021 -0.4353  0.0770
  138TCq2    O6 2111   4.553   0.903  10.103  0.3976  0.2415  0.9358
  138TCq2    H2 2112   0.149   1.137  10.087  0.8077 -0.0816 -1.7120
  138TCq2    H3 2113   4.454   1.086   9.972 -0.5631  0.9892  0.4537
  138TCq2    H4 2114   4.655   1.469   9.946 -0.3406 -0.2189 -0.7920
  139TMC2    C1 2115   0.869   0.447  13.538  0.1730  0.5066  0.5249
  139TMC2    C2 2116   0.786   0.333  13.516  0.6860  0.0234 -0.0457
  139TMC2    C3 2117   0.650   0.370  13.498  1.4716 -0.0107  0.6792
  139TMC2    C4 2118   0.819   0.575  13.539  0.0784 -0.0383  0.3537
  139TMC2    C5 2119   0.685   0.603  13.516  0.0003  0.4477 -0.3913
  139TMC2    C6 2120   0.600   0.499  13.498  0.2815 -0.2486 -1.3461
  139TMC2     C 2121   1.002   0.419  13.584 -0.2392 -0.0699 -0.0197
  139TMC2     O 2122   1.058   0.317  13.545  0.1625  0.2172 -0.7865
  139TMC2     H 2123   0.823   0.232  13.530  0.4900 -0.2373 -1.4529
  139TMC2    H1 2124   0.882   0.662  13.552 -2.3694  2.2364 -3.4468
  139TMC2    H2 2125   0.492   0.496  13.489  0.1663  0.3996 -0.1466
  139TMC2    C7 2126   0.633   0.731  13.544  0.5767 -0.0559 -0.0277
  139TMC2    C8 2127   0.552   0.265  13.484  0.5442 -0.0998  0.5520
  139TMC2    O1 2128   0.690   0.836  13.508 -0.0794 -0.0440 -0.3615
  139TMC2    O2 2129   0.433   0.279  13.513  0.2191  0.5456 -0.3702
  139TMC2    O5 2130   0.598   0.187  13.384  0.4512  0.4192  0.0553
  139TMC2    H5 2131   0.694   0.196  13.369  0.2566  2.0020 -0.2885
  140MPD2     C 2132   1.204   0.645  13.798  0.1847  0.1945  0.2449
  140MPD2    C1 2133   1.170   0.540  13.715  0.5748  0.8372 -0.8742
  140MPD2    C2 2134   1.274   0.451  13.685 -0.2338 -0.1450 -0.3421
  140MPD2    C3 2135   1.406   0.474  13.729 -0.6668 -0.2132  0.0148
  140MPD2    C4 2136   1.429   0.581  13.815 -0.3400  0.0924  0.6488
  140MPD2    C5 2137   1.325   0.663  13.852  0.9428 -0.0529  0.6511
  140MPD2     H 2138   1.264   0.371  13.612 -1.1530 -1.1151  0.8564
  140MPD2    H1 2139   1.531   0.612  13.836  0.0017 -3.1047  3.8777
  140MPD2    H2 2140   1.123   0.711  13.827  0.5215  0.2501  1.0433
  140MPD2    H3 2141   1.337   0.751  13.914  0.3472  0.2038  0.3972
  140MPD2     N 2142   1.509   0.382  13.686  0.2649 -0.1049 -0.1896
  140MPD2    H5 2143   1.476   0.321  13.612 -1.2474 -0.3744  0.7036
  140MPD2    N1 2144   1.040   0.520  13.668  0.0359  0.3856 -0.9099
  140MPD2    H7 2145   0.969   0.583  13.702  0.0272  1.1390 -2.3280
  141TCq2    C1 2146   1.788   1.360  14.132 -0.6842  0.3079  0.3701
  141TCq2    O2 2147   1.784   1.474  14.092  0.0247  0.0278  0.6303
  141TCq2    C2 2148   1.776   1.346  14.274  0.2137 -0.0967 -0.2269
  141TCq2    C3 2149   1.787   1.220  14.328 -0.4574  0.2049  0.1382
  141TCq2    C4 2150   1.822   1.206  14.463 -0.2340  0.7364 -0.0441
  141TCq2    C5 2151   1.834   1.318  14.542  0.1614 -0.4461 -1.0599
  141TCq2    C6 2152   1.812   1.440  14.484  0.3706  0.1100 -0.4296
  141TCq2    C7 2153   1.789   1.459  14.354 -0.3528  0.3431  0.0376
  141TCq2    C8 2154   1.838   1.556  14.571 -0.5197 -0.0539 -0.4729
  141TCq2    O4 2155   1.824   1.543  14.691 -0.1322 -0.7563 -0.3790
  141TCq2    C9 2156   1.856   1.084  14.528  0.4601 -0.5314 -0.3423
  141TCq2    O5 2157   1.872   0.985  14.447 -0.0002 -0.3004  0.1640
  141TCq2    O6 2158   1.866   1.081  14.654 -0.2824 -0.3921  0.3858
  141TCq2    H2 2159   1.767   1.134  14.265 -0.6983  0.2443  0.1625
  141TCq2    H3 2160   1.874   1.318  14.643 -2.0654  1.3961 -0.1682
  141TCq2    H4 2161   1.755   1.554  14.315 -2.5046 -0.0892  0.8700
  142MPD2     C 2162   4.037   1.026   9.597 -0.2925  0.3272  0.1324
  142MPD2    C1 2163   3.932   1.096   9.544  0.7011  0.0070 -0.1532
  142MPD2    C2 2164   3.964   1.210   9.473  0.0944 -0.8196 -0.7905
  142MPD2    C3 2165   4.090   1.244   9.436 -0.5830  0.0061  0.0569
  142MPD2    C4 2166   4.191   1.164   9.477 -0.3122 -0.0069 -0.2217
  142MPD2    C5 2167   4.160   1.057   9.557 -1.1428  0.5645 -0.0561
  142MPD2     H 2168   3.876   1.269   9.450 -1.2685 -2.7737 -0.5420
  142MPD2    H1 2169   4.294   1.186   9.454 -0.0031  1.1958  2.3229
  142MPD2    H2 2170   4.022   0.944   9.668 -0.8262  0.3338  0.0295
  142MPD2    H3 2171   4.241   0.990   9.587 -2.6205 -1.5479 -0.7613
  142MPD2     N 2172   4.124   1.358   9.354  0.0171 -0.6671 -0.0731
  142MPD2    H5 2173   4.219   1.377   9.325  0.0944  0.7510  1.0968
  142MPD2    N1 2174   3.797   1.051   9.577 -0.0174 -0.3380 -0.4044
  142MPD2    H7 2175   3.793   0.984   9.653 -1.2523  0.4789  0.2621
  143TCq2    C1 2176   4.032   1.443   9.299  0.5531  0.3624  0.1343
  143TCq2    O2 2177   3.915   1.450   9.322 -0.5415  0.3147 -0.0706
  143TCq2    C2 2178   4.094   1.529   9.209  0.3383  0.0170 -0.1482
  143TCq2    C3 2179   4.022   1.553   9.100  0.5138  0.0715 -0.3124
  143TCq2    C4 2180   4.064   1.645   9.012 -1.1342 -0.1526  0.5564
  143TCq2    C5 2181   4.182   1.715   9.036 -0.0495  0.1846  0.2223
  143TCq2    C6 2182   4.256   1.697   9.151 -0.3236 -0.4101 -0.4060
  143TCq2    C7 2183   4.208   1.600   9.238  0.8105 -0.6370 -0.3552
  143TCq2    C8 2184   4.343   1.794   9.207 -0.3057 -0.1718 -0.4707
  143TCq2    O4 2185   4.350   1.797   9.329  0.1109 -0.0891  0.6090
  143TCq2    C9 2186   3.975   1.670   8.898  0.5346  0.1078 -0.1050
  143TCq2    O5 2187   3.882   1.586   8.877  0.2044 -0.3116  0.6105
  143TCq2    O6 2188   3.987   1.777   8.837 -0.5641  0.0705 -0.4412
  143TCq2    H2 2189   3.942   1.494   9.058  0.3714 -1.0726  1.5934
  143TCq2    H3 2190   4.218   1.791   8.968 -0.7330 -0.3280 -0.7088
  143TCq2    H4 2191   4.259   1.575   9.331  1.2966 -1.5067 -0.8601
  144MPD2     C 2192   2.714   4.478   0.874 -0.3686  0.5618  0.3029
  144MPD2    C1 2193   2.751   4.356   0.831 -0.1813  0.0891 -0.8242
  144MPD2    C2 2194   2.861   4.298   0.890  0.4614  0.0260 -0.1153
  144MPD2    C3 2195   2.943   4.364   0.980  0.0878  0.1739 -0.4807
  144MPD2    C4 2196   2.913   4.497   1.010 -0.3475  0.1102 -0.3161
  144MPD2    C5 2197   2.790   4.547   0.967 -0.2034  0.0004  0.2094
  144MPD2     H 2198   2.880   4.192   0.872 -0.0293  0.2500 -2.0212
  144MPD2    H1 2199   2.978   4.562   1.067 -1.3587  0.6597  0.2038
  144MPD2    H2 2200   2.620   4.525   0.846 -0.0463 -0.3879 -2.3903
  144MPD2    H3 2201   2.766   4.643   1.012  1.3446 -0.7460  2.5937
  144MPD2     N 2202   3.067   4.312   1.027  0.0954 -0.1202  0.0065
  144MPD2    H5 2203   3.114   4.368   1.096 -0.4202  0.9739 -0.5309
  144MPD2    N1 2204   2.680   4.276   0.742 -0.4266 -0.4145  0.5242
  144MPD2    H7 2205   2.710   4.179   0.739 -0.8453 -0.5296  0.0591
  145TCq2    C1 2206   3.121   4.186   1.004  0.3923  0.3427  0.1613
  145TCq2    O2 2207   3.070   4.082   0.969 -0.2390 -0.0255  0.0415
  145TCq2    C2 2208   3.257   4.189   1.058 -0.8027 -1.3920 -0.0389
  145TCq2    C3 2209   3.296   4.073   1.123 -0.0297 -0.0457 -0.8610
  145TCq2    C4 2210   3.405   4.073   1.205 -0.1039 -0.0245  1.2887
  145TCq2    C5 2211   3.483   4.185   1.218  0.2110  0.0524 -0.0542
  145TCq2    C6 2212   3.436   4.300   1.158 -0.1545 -0.5920  0.7487
  145TCq2    C7 2213   3.327   4.310   1.074 -0.2078  0.7984 -0.2551
  145TCq2    C8 2214   3.495   4.424   1.208 -0.6358 -0.6525 -0.1859
  145TCq2    O4 2215   3.602   4.412   1.267 -0.4258 -0.0869 -0.4769
  145TCq2    C9 2216   3.422   3.955   1.282 -0.3703 -0.4967 -0.0247
  145TCq2    O5 2217   3.345   3.860   1.265 -0.2776  0.1891 -0.0265
  145TCq2    O6 2218   3.516   3.952   1.364  0.6238 -0.1552 -0.5747
  145TCq2    H2 2219   3.238   3.981   1.120 -1.7343  0.9605  1.3684
  145TCq2    H3 2220   3.565   4.190   1.289  0.0493  0.3411  0.1154
  145TCq2    H4 2221   3.299   4.405   1.032 -3.2991 -0.1626 -0.3796
  146TMC2    C1 2222   3.972   3.023  12.212  0.2743  0.2431 -0.1935
  146TMC2    C2 2223   3.929   3.044  12.081 -0.2082 -0.8543  0.3419
  146TMC2    C3 2224   4.009   2.992  11.978  0.0878 -0.4434 -0.4267
  146TMC2    C4 2225   4.092   2.972  12.243 -0.3136  0.4085 -0.8405
  146TMC2    C5 2226   4.168   2.930  12.134 -0.2362 -0.1632 -0.5492
  146TMC2    C6 2227   4.133   2.938  12.005 -0.1935 -0.0703 -0.3483
  146TMC2     C 2228   3.893   3.075  12.321 -0.2634  1.2481  0.3582
  146TMC2     O 2229   3.826   3.172  12.291 -1.4149  0.1319  0.1081
  146TMC2     H 2230   3.828   3.081  12.064  0.8435  1.2812 -1.1910
  146TMC2    H1 2231   4.132   2.974  12.343 -2.0424 -0.7141 -0.1325
  146TMC2    H2 2232   4.198   2.908  11.923  2.9330 -1.8745  2.8121
  146TMC2    C7 2233   4.309   2.937  12.152 -0.0327  0.4505  0.0959
  146TMC2    C8 2234   3.970   3.017  11.840 -0.3543 -0.0513  0.3738
  146TMC2    O1 2235   4.368   3.003  12.068  0.0689  0.1418  0.8811
  146TMC2    O2 2236   4.043   3.070  11.757 -0.1352 -0.7816  0.1928
  146TMC2    O5 2237   3.843   3.028  11.846  0.6344 -0.2231  0.0778
  146TMC2    H5 2238   3.803   2.968  11.912  4.3003 -0.7412  1.8069
  147MPD2     C 2239   0.019   2.904  12.457  0.8732 -0.2543 -0.4681
  147MPD2    C1 2240   4.627   2.860  12.528 -0.2456 -0.7638 -0.8023
  147MPD2    C2 2241   4.504   2.849  12.466 -0.1369 -0.3744  0.0511
  147MPD2    C3 2242   4.477   2.887  12.339 -0.0382 -1.3038  0.3899
  147MPD2    C4 2243   4.590   2.917  12.263 -0.3401 -0.1411  0.2339
  147MPD2    C5 2244   4.710   2.941  12.329 -0.0116  0.3058 -0.4665
  147MPD2     H 2245   4.418   2.806  12.516 -1.5610 -0.6403 -2.6122
  147MPD2    H1 2246   4.574   2.943  12.158 -3.1075  0.5342  0.7982
  147MPD2    H2 2247   0.119   2.930  12.491  1.4498 -1.2498 -1.4041
  147MPD2    H3 2248   0.069   2.977  12.267 -0.3556  0.0884 -1.0525
  147MPD2     N 2249   4.345   2.892  12.280 -0.4300 -0.3192  0.0417
  147MPD2    H5 2250   4.279   2.844  12.342 -1.4703  1.6930  0.5006
  147MPD2    N1 2251   4.652   2.815  12.655  0.2038  0.3321 -0.1254
  147MPD2    H7 2252   0.025   2.799  12.688 -0.3354  1.5264  2.0123
  148MPD2     C 2253   3.623   2.355   9.959  0.4411  0.5017 -0.9521
  148MPD2    C1 2254   3.651   2.228  10.004  0.2202  0.3481  0.5152
  148MPD2    C2 2255   3.556   2.136   9.980  0.2498 -0.2336  0.0225
  148MPD2    C3 2256   3.433   2.164   9.926  0.2000  0.1567  0.3011
  148MPD2    C4 2257   3.407   2.296   9.888  0.3390 -0.0603  0.2079
  148MPD2    C5 2258   3.501   2.392   9.909  0.5856 -0.1968  0.6567
  148MPD2     H 2259   3.573   2.036  10.017  1.4035 -0.0747 -0.0848
  148MPD2    H1 2260   3.315   2.329   9.842  0.7726  0.1532 -0.5002
  148MPD2    H2 2261   3.695   2.436   9.968  0.5122  0.5944 -2.3823
  148MPD2    H3 2262   3.489   2.495   9.877  1.6001 -0.8078 -1.6583
  148MPD2     N 2263   3.332   2.063   9.904 -0.2475  0.1604 -0.1769
  148MPD2    H5 2264   3.241   2.102   9.884 -0.2922 -0.5132 -1.2853
  148MPD2    N1 2265   3.771   2.185  10.056  0.4693  0.3752  0.3661
  148MPD2    H7 2266   3.776   2.083  10.052 -2.0516  0.1916  1.5906
  149TCq2    C1 2267   3.863   2.272  10.119 -0.2447  0.0901 -0.0023
  149TCq2    O2 2268   3.859   2.393  10.141 -0.2871 -0.4314  0.1045
  149TCq2    C2 2269   3.966   2.192  10.178  0.2321 -0.0146 -0.0375
  149TCq2    C3 2270   4.091   2.243  10.164  0.7012 -0.1326 -0.3379
  149TCq2    C4 2271   4.201   2.167  10.189 -0.4777 -0.2672 -0.3152
  149TCq2    C5 2272   4.182   2.041  10.233 -0.7139 -0.5990  1.0712
  149TCq2    C6 2273   4.055   1.989  10.250  0.4359  0.4788  0.0865
  149TCq2    C7 2274   3.948   2.066  10.226  0.4537 -0.0205  0.5490
  149TCq2    C8 2275   4.022   1.858  10.304  0.0254 -0.0403 -0.2395
  149TCq2    O4 2276   3.906   1.818  10.291  0.3301  0.6262 -0.2454
  149TCq2    C9 2277   4.323   2.196  10.131 -0.9763  0.0626 -0.2663
  149TCq2    O5 2278   4.407   2.101  10.118 -0.3118  0.1815  0.2796
  149TCq2    O6 2279   4.337   2.315  10.092  0.2503 -0.0295  0.7102
  149TCq2    H2 2280   4.107   2.336  10.110 -0.7112 -1.4241 -2.9920
  149TCq2    H3 2281   4.274   1.984  10.236  0.4438  1.4039  2.8786
  149TCq2    H4 2282   3.845   2.035  10.239  0.5453 -1.1926 -1.5219
  150MPD2     C 2283   0.698   1.076  12.151 -0.1957  0.4512 -0.0794
  150MPD2    C1 2284   0.697   1.125  12.018  0.2878  0.2478 -1.1210
  150MPD2    C2 2285   0.790   1.232  11.985  0.6213  0.0825 -0.1835
  150MPD2    C3 2286   0.860   1.292  12.082 -0.6486 -0.0703 -0.1321
  150MPD2    C4 2287   0.842   1.255  12.211 -0.0282 -0.5907 -0.0470
  150MPD2    C5 2288   0.758   1.156  12.250 -0.0469 -0.1905 -0.4408
  150MPD2     H 2289   0.806   1.262  11.882 -2.5403 -1.0003 -0.9960
  150MPD2    H1 2290   0.879   1.315  12.293  0.8765  1.1671 -1.7316
  150MPD2    H2 2291   0.644   0.989  12.186  2.6503 -1.1234  0.4207
  150MPD2    H3 2292   0.750   1.127  12.354  0.3185  0.9824 -0.0962
  150MPD2     N 2293   0.948   1.397  12.047 -0.5239  0.2893  0.0871
  150MPD2    H5 2294   0.957   1.415  11.947 -1.0517  2.9821  0.5172
  150MPD2    N1 2295   0.615   1.054  11.933 -0.1017 -0.0117  0.2338
  150MPD2    H7 2296   0.561   0.979  11.974 -2.7901  1.2889 -0.9476
  151TCq2    C1 2297   1.047   1.446  12.133 -0.3123 -0.8640 -0.3463
  151TCq2    O2 2298   1.094   1.396  12.234  0.1901  0.1630 -0.4150
  151TCq2    C2 2299   1.131   1.535  12.057 -0.1480  0.1498 -0.4071
  151TCq2    C3 2300   1.069   1.640  11.987  0.2700  0.0551 -0.2213
  151TCq2    C4 2301   1.147   1.729  11.921  0.2613 -0.1186 -0.2594
  151TCq2    C5 2302   1.285   1.728  11.931 -1.4097  0.1072  0.4940
  151TCq2    C6 2303   1.342   1.627  12.011  0.0199  0.0893  0.3743
  151TCq2    C7 2304   1.263   1.548  12.086  0.5229  0.1222 -0.4104
  151TCq2    C8 2305   1.486   1.633  12.038  0.2320 -0.2400 -0.9583
  151TCq2    O4 2306   1.539   1.741  12.015  0.6281  0.7540  0.0895
  151TCq2    C9 2307   1.091   1.839  11.858 -0.4670  0.5395  0.0837
  151TCq2    O5 2308   0.966   1.846  11.863  0.1542 -1.0108  0.5091
  151TCq2    O6 2309   1.160   1.919  11.790 -0.0451  0.1745  0.1637
  151TCq2    H2 2310   0.962   1.656  11.987  0.0851 -1.1997 -0.1678
  151TCq2    H3 2311   1.343   1.801  11.876 -1.4518  0.9447  1.5548
  151TCq2    H4 2312   1.312   1.481  12.156  2.9366  1.8698 -0.4368
  152MPD2     C 2313   0.206   0.659  12.556 -0.1671 -0.0602 -0.0265
  152MPD2    C1 2314   0.268   0.780  12.534  0.0510  0.6832 -0.1309
  152MPD2    C2 2315   0.203   0.877  12.460 -0.5260 -0.4156 -0.6999
  152MPD2    C3 2316   0.075   0.853  12.401 -0.2419 -0.1968 -0.8872
  152MPD2    C4 2317   0.015   0.734  12.419  0.5376  0.0929  0.2252
  152MPD2    C5 2318   0.083   0.640  12.492 -0.2298  0.1987  0.9585
  152MPD2     H 2319   0.245   0.976  12.449 -0.2978 -0.3203  0.9919
  152MPD2    H1 2320   4.637   0.720  12.380 -0.4873  0.0692  2.8493
  152MPD2    H2 2321   0.251   0.571  12.601 -1.1459 -0.2698  0.5290
  152MPD2    H3 2322   0.037   0.543  12.507  0.4504  0.0553  2.1510
  152MPD2     N 2323   0.009   0.962  12.342 -0.3947 -0.2330  0.0006
  152MPD2    H5 2324   0.063   1.046  12.324 -0.6463 -0.1693 -0.4463
  152MPD2    N1 2325   0.396   0.793  12.593  0.4480  0.7642 -0.1527
  152MPD2    H7 2326   0.432   0.724  12.659 -0.3354 -0.2117 -0.7439
  153TCq2    C1 2327   0.477   0.904  12.579 -0.5486  0.0633 -0.0278
  153TCq2    O2 2328   0.457   1.003  12.507  0.5222 -0.0553  0.2400
  153TCq2    C2 2329   0.601   0.888  12.657 -0.5526  0.0358 -0.2767
  153TCq2    C3 2330   0.622   0.783  12.739  0.0242 -0.4679 -0.0733
  153TCq2    C4 2331   0.747   0.752  12.765  0.3511  0.0855 -0.1912
  153TCq2    C5 2332   0.852   0.822  12.710  0.4682  0.3810  0.0875
  153TCq2    C6 2333   0.828   0.930  12.630 -0.2232  0.5897 -0.2972
  153TCq2    C7 2334   0.702   0.969  12.607  0.3709  0.3624 -0.0621
  153TCq2    C8 2335   0.929   1.036  12.605  0.2904  0.1727 -0.2999
  153TCq2    O4 2336   0.883   1.134  12.552 -0.1944  0.3839 -0.1166
  153TCq2    C9 2337   0.775   0.640  12.838  0.2753  0.4230  0.8170
  153TCq2    O5 2338   0.892   0.620  12.878 -0.5567 -0.1376  0.0123
  153TCq2    O6 2339   0.685   0.560  12.856  0.0124  0.0729 -0.3942
  153TCq2    H2 2340   0.543   0.734  12.795 -2.2565  2.4781 -0.7495
  153TCq2    H3 2341   0.955   0.792  12.721  0.6909  0.8146 -0.8165
  153TCq2    H4 2342   0.679   1.052  12.542 -1.7768 -0.2549 -0.0894
  154MPD2     C 2343   2.185   0.893  17.544 -0.0715  0.1052  0.3257
  154MPD2    C1 2344   2.276   0.870  17.643  0.1435 -0.8351  0.0038
  154MPD2    C2 2345   2.305   0.963   0.051 -0.8263 -0.0565 -0.2658
  154MPD2    C3 2346   2.251   1.090   0.041  0.1119  0.4941  0.1133
  154MPD2    C4 2347   2.183   1.118  17.618 -0.2875  0.2160  0.0453
  154MPD2    C5 2348   2.136   1.021  17.532 -0.3872 -0.3852  0.7757
  154MPD2     H 2349   2.372   0.934   0.131 -0.4786 -0.7071 -0.7855
  154MPD2    H1 2350   2.139   1.212  17.586  1.0347  0.6491 -0.4630
  154MPD2    H2 2351   2.154   0.814  17.476 -2.3333  1.5030 -0.2710
  154MPD2    H3 2352   2.081   1.051  17.444  0.6068 -0.7508  0.0412
  154MPD2     N 2353   2.294   1.188   0.137 -0.7462 -0.0575  0.0519
  154MPD2    H5 2354   2.355   1.155   0.211 -0.2040  3.8622  1.3637
  154MPD2    N1 2355   2.321   0.739  17.652  0.2748  0.2376  0.1929
  154MPD2    H7 2356   2.274   0.675  17.590  0.0574  0.1282  0.4740
  155TCq2    C1 2357   2.415   0.692   0.046 -0.0825  0.2228 -0.5590
  155TCq2    O2 2358   2.516   0.752   0.089 -0.2208  0.2210 -0.5087
  155TCq2    C2 2359   2.412   0.548   0.033 -0.1922  0.0207  0.8405
  155TCq2    C3 2360   2.526   0.478   0.067 -0.0301  0.0898 -0.2802
  155TCq2    C4 2361   2.514   0.337   0.070  0.2176  0.6780 -0.3800
  155TCq2    C5 2362   2.407   0.279   0.027  0.3197 -0.2009  0.4004
  155TCq2    C6 2363   2.298   0.350  17.685 -0.0419  0.0332 -0.2316
  155TCq2    C7 2364   2.296   0.487  17.681 -0.1586 -0.0437 -0.7932
  155TCq2    C8 2365   2.169   0.289  17.686  0.0025  0.1657  0.9842
  155TCq2    O4 2366   2.073   0.362  17.667 -0.3494 -0.1728 -0.2746
  155TCq2    C9 2367   2.631   0.264   0.099 -0.2668 -0.1113 -0.1914
  155TCq2    O5 2368   2.622   0.141   0.082  0.5160 -0.7018 -0.6304
  155TCq2    O6 2369   2.736   0.327   0.091 -0.5201 -0.5646 -0.2004
  155TCq2    H2 2370   2.620   0.522   0.098 -0.3861  0.6439  0.0101
  155TCq2    H3 2371   2.416   0.171   0.019  0.7247 -0.2498  1.4208
  155TCq2    H4 2372   2.201   0.538  17.666  0.0654 -0.2020 -2.6401
  156MPD2     C 2373   0.147   3.564  11.808  0.4548 -0.4384  0.4708
  156MPD2    C1 2374   0.178   3.491  11.693  0.5202 -0.1670 -0.6346
  156MPD2    C2 2375   0.212   3.351  11.696 -0.1929 -0.5925 -0.0518
  156MPD2    C3 2376   0.204   3.280  11.815 -0.2631  0.0647 -0.2296
  156MPD2    C4 2377   0.151   3.354  11.928  0.2261  0.1847  0.5040
  156MPD2    C5 2378   0.135   3.487  11.922 -0.1639  0.2580  1.1958
  156MPD2     H 2379   0.254   3.304  11.608  0.8412  2.3843 -1.1365
  156MPD2    H1 2380   0.120   3.299  12.017 -2.7105 -1.0742 -1.3075
  156MPD2    H2 2381   0.114   3.667  11.798 -1.9855 -1.2273  0.2020
  156MPD2    H3 2382   0.099   3.522  12.018 -1.3581 -0.8577  1.1456
  156MPD2     N 2383   0.242   3.143  11.818 -0.1568 -0.0463 -0.1019
  156MPD2    H5 2384   0.256   3.095  11.730  4.6275  3.4680 -1.2475
  156MPD2    N1 2385   0.192   3.572  11.574  0.6669  0.3143  0.0387
  156MPD2    H7 2386   0.174   3.671  11.582 -0.8852 -0.0589  1.2271
  157TCq2    C1 2387   0.233   3.530  11.454  0.9373 -0.1549 -0.1232
  157TCq2    O2 2388   0.256   3.415  11.416 -0.1182 -0.4240  0.4892
  157TCq2    C2 2389   0.265   3.640  11.368  0.2547 -0.5261  0.3110
  157TCq2    C3 2390   0.289   3.616  11.235  0.0661 -0.2623  0.0564
  157TCq2    C4 2391   0.349   3.704  11.148  0.0146 -0.0701  0.3452
  157TCq2    C5 2392   0.388   3.825  11.203 -0.1632 -0.4592 -0.0603
  157TCq2    C6 2393   0.360   3.851  11.337 -0.0446 -0.4008  0.5987
  157TCq2    C7 2394   0.308   3.761  11.424  0.1526 -0.5405  0.1070
  157TCq2    C8 2395   0.391   3.988  11.376 -0.2502  0.4040 -0.2672
  157TCq2    O4 2396   0.464   4.047  11.296 -0.1652  0.6391 -0.8112
  157TCq2    C9 2397   0.356   3.676  11.011  0.2947  0.3673 -0.7697
  157TCq2    O5 2398   0.406   3.769  10.948  0.2758  0.0411  0.0440
  157TCq2    O6 2399   0.299   3.572  10.962  0.3437 -0.3662  0.3298
  157TCq2    H2 2400   0.241   3.530  11.191 -1.1080 -0.4400  1.6587
  157TCq2    H3 2401   0.430   3.905  11.142 -0.2817  0.2602  0.7982
  157TCq2    H4 2402   0.314   3.790  11.528  1.8870  1.8026 -0.6383
  158TMC2    C1 2403   1.497   1.701  13.222  0.1317 -0.2655  0.1481
  158TMC2    C2 2404   1.553   1.705  13.091  0.2391 -0.1086  0.2882
  158TMC2    C3 2405   1.486   1.776  12.993  0.4833  0.0662 -0.1750
  158TMC2    C4 2406   1.370   1.756  13.241 -0.7517 -0.5486  0.2491
  158TMC2    C5 2407   1.307   1.813  13.132  0.4694  0.2916  0.1781
  158TMC2    C6 2408   1.365   1.827  13.010 -0.1385 -0.0643  0.7442
  158TMC2     C 2409   1.557   1.614  13.319  0.3915 -0.0525  0.0750
  158TMC2     O 2410   1.651   1.545  13.286  0.0164 -0.4094 -0.2625
  158TMC2     H 2411   1.645   1.651  13.070  1.8674  1.8370  2.4543
  158TMC2    H1 2412   1.321   1.755  13.338 -1.1512 -0.2938  0.0490
  158TMC2    H2 2413   1.315   1.877  12.928 -1.3161 -2.0385  0.2448
  158TMC2    C7 2414   1.168   1.863  13.146 -0.4023 -0.8536 -0.4973
  158TMC2    C8 2415   1.526   1.766  12.855  0.4735 -0.1553  0.3759
  158TMC2    O1 2416   1.127   1.920  13.049  0.2264  0.8249  0.2678
  158TMC2    O2 2417   1.456   1.803  12.763  0.1391  0.8359 -0.2720
  158TMC2    O5 2418   1.657   1.777  12.850 -0.3547 -0.6049  0.0143
  158TMC2    H5 2419   1.691   1.788  12.942  1.1210 -0.0951 -0.6005
  159MPD2     C 2420   1.585   1.438  13.797 -0.3348  0.2805  0.1990
  159MPD2    C1 2421   1.503   1.554  13.794 -0.4682 -0.3309  0.1771
  159MPD2    C2 2422   1.487   1.624  13.679  0.9517  1.3285  0.2181
  159MPD2    C3 2423   1.550   1.576  13.563 -0.0794 -0.3535  0.7063
  159MPD2    C4 2424   1.618   1.456  13.569 -0.0718 -0.0311 -0.2048
  159MPD2    C5 2425   1.644   1.391  13.689 -0.1955  0.1789 -0.6432
  159MPD2     H 2426   1.431   1.717  13.671  1.2334  1.5412  0.7227
  159MPD2    H1 2427   1.654   1.407  13.479 -1.9475 -0.5677 -0.6616
  159MPD2    H2 2428   1.595   1.391  13.895  0.0523 -0.7352 -0.3241
  159MPD2    H3 2429   1.694   1.296  13.682  0.4884  0.7351 -3.1290
  159MPD2     N 2430   1.523   1.646  13.441  0.2173  0.0569  0.4203
  159MPD2    H5 2431   1.465   1.729  13.451 -1.1611 -0.8391 -0.0961
  159MPD2    N1 2432   1.460   1.609  13.918  0.0991 -0.0847  0.0143
  159MPD2    H7 2433   1.477   1.553  14.001  1.3344  1.4518  0.8119
  160TMC2    C1 2434   1.029   4.484   0.695 -0.4838  0.1221 -0.1105
  160TMC2    C2 2435   1.079   4.389   0.776  0.0308 -0.3256  0.0678
  160TMC2    C3 2436   1.188   4.429   0.850  0.2189  0.5671  0.2944
  160TMC2    C4 2437   1.077   4.604   0.680  0.5888 -0.4969  0.2523
  160TMC2    C5 2438   1.188   4.637   0.751 -0.3213  0.1102 -0.6381
  160TMC2    C6 2439   1.242   4.551   0.845 -0.1526  0.2136 -0.5607
  160TMC2     C 2440   0.888   4.475   0.652 -0.5721  0.0927  0.2179
  160TMC2     O 2441   0.848   4.367   0.615  0.3435 -0.6929 -0.3555
  160TMC2     H 2442   1.044   4.287   0.777  1.7764 -0.9322 -0.5469
  160TMC2    H1 2443   1.058   4.674   0.600  0.5763 -0.4575  0.2899
  160TMC2    H2 2444   1.320   4.588   0.910  1.9122  0.3112 -3.0952
  160TMC2    C7 2445   1.182   0.057   0.774 -0.1687 -0.4440 -0.5960
  160TMC2    C8 2446   1.245   4.334   0.941 -0.2219 -0.0729  0.2717
  160TMC2    O1 2447   1.082   0.119   0.731  0.4971  0.2460 -0.1262
  160TMC2    O2 2448   1.206   4.221   0.950  0.2415  0.1306  0.3189
  160TMC2    O5 2449   1.300   4.383   1.056  0.3896 -0.7821  0.0446
  160TMC2    H5 2450   1.334   4.475   1.054  1.0443 -1.0082  1.0497
  161MPD2     C 2451   0.614   4.569   0.570  0.1400 -0.3633  0.6884
  161MPD2    C1 2452   0.703   4.643   0.651  0.0199 -0.2697  0.3264
  161MPD2    C2 2453   0.663   0.043   0.698 -0.1062 -0.2109  0.4391
  161MPD2    C3 2454   0.530   0.083   0.694  0.0652 -0.2440 -0.4530
  161MPD2    C4 2455   0.443   0.005   0.618 -0.1800  0.2455 -0.3358
  161MPD2    C5 2456   0.483   4.613   0.559  0.6292  0.4929  0.5865
  161MPD2     H 2457   0.737   0.096   0.757 -0.3744  1.7398 -0.9740
  161MPD2    H1 2458   0.340   0.035   0.604 -0.3013  0.7038  1.5401
  161MPD2    H2 2459   0.653   4.479   0.523  0.3783  0.2570 -0.2837
  161MPD2    H3 2460   0.417   4.555   0.495  1.7889 -1.0305  0.7761
  161MPD2     N 2461   0.485   0.195   0.779 -0.2913 -0.7155  0.3950
  161MPD2    H5 2462   0.389   0.223   0.760 -0.2279 -0.0141  1.1140
  161MPD2    N1 2463   0.834   4.600   0.670  0.3980  0.3279 -0.0295
  161MPD2    H7 2464   0.896   4.675   0.698  0.1694  0.4748  0.0772
  162TMC2    C1 2465   0.591   2.770   1.598 -0.6182  0.1289  0.0822
  162TMC2    C2 2466   0.630   2.904   1.616  0.2340  0.3671  0.1162
  162TMC2    C3 2467   0.635   2.939   1.749 -0.4150  0.6386 -0.5708
  162TMC2    C4 2468   0.575   2.677   1.697 -0.1221  0.0364 -0.7071
  162TMC2    C5 2469   0.589   2.728   1.827  0.6894 -0.0273  0.1417
  162TMC2    C6 2470   0.624   2.850   1.857  0.1472 -0.5768 -0.4733
  162TMC2     C 2471   0.539   2.750   1.461 -0.8879  0.6452  0.7338
  162TMC2     O 2472   0.449   2.667   1.459 -0.0116 -0.0098 -0.1273
  162TMC2     H 2473   0.629   2.973   1.532  1.3650  2.5298  1.8576
  162TMC2    H1 2474   0.547   2.573   1.681  2.1652 -1.0038  1.9813
  162TMC2    H2 2475   0.654   2.876   1.958 -1.6418  0.8931 -0.3272
  162TMC2    C7 2476   0.578   2.636   1.935  0.5416  0.1412 -0.3046
  162TMC2    C8 2477   0.726   3.046   1.771  0.8311  0.1941  0.5391
  162TMC2    O1 2478   0.665   2.639   2.021 -0.3244 -0.0304  0.0443
  162TMC2    O2 2479   0.746   3.095   1.881  0.3189 -0.3091 -0.1709
  162TMC2    O5 2480   0.815   3.026   1.675  0.0264 -0.5572 -0.0669
  162TMC2    H5 2481   0.796   2.970   1.597 -0.5130  2.0602 -1.8366
  163MPD2     C 2482   0.565   2.780   0.940  0.4316 -0.2207 -0.2904
  163MPD2    C1 2483   0.482   2.705   1.020 -0.4042  0.6518  0.3041
  163MPD2    C2 2484   0.491   2.728   1.159 -0.1876 -0.5937  0.1403
  163MPD2    C3 2485   0.597   2.795   1.210  1.2476 -0.2182  0.0020
  163MPD2    C4 2486   0.677   2.871   1.131 -0.1443  0.1507  0.2475
  163MPD2    C5 2487   0.655   2.865   0.997  0.0755  0.3195  0.2906
  163MPD2     H 2488   0.424   2.675   1.226  0.1652 -1.0186  0.1513
  163MPD2    H1 2489   0.754   2.934   1.173 -0.0650  0.3096 -0.1390
  163MPD2    H2 2490   0.561   2.777   0.832  1.1734  2.6573 -0.3815
  163MPD2    H3 2491   0.719   2.914   0.925  1.4534  0.1360  1.4006
  163MPD2     N 2492   0.615   2.809   1.356  0.0093  0.3689  0.7875
  163MPD2    H5 2493   0.701   2.858   1.381  1.9240 -2.8951  0.4987
  163MPD2    N1 2494   0.406   2.611   0.954 -0.2542  0.2784 -0.2411
  163MPD2    H7 2495   0.417   2.600   0.854  2.5566  0.2479  0.0598
  164TCq2    C1 2496   4.245   2.202  10.990 -0.2700  0.0799 -0.5034
  164TCq2    O2 2497   4.251   2.179  11.111  0.6554 -0.1860 -0.4325
  164TCq2    C2 2498   4.157   2.302  10.944 -0.3835  0.2280  0.3520
  164TCq2    C3 2499   4.193   2.375  10.830 -0.2023 -0.2777  0.4099
  164TCq2    C4 2500   4.121   2.482  10.802  0.0031 -0.1197  0.0566
  164TCq2    C5 2501   4.007   2.514  10.874 -0.8104  0.5151  0.0728
  164TCq2    C6 2502   3.969   2.437  10.983 -0.3183 -0.5435  0.1871
  164TCq2    C7 2503   4.049   2.334  11.023 -0.0004 -0.0453 -0.2792
  164TCq2    C8 2504   3.827   2.422  11.015 -0.3008 -0.7817 -0.2593
  164TCq2    O4 2505   3.754   2.464  10.928 -0.0473 -0.1377  0.0122
  164TCq2    C9 2506   4.157   2.565  10.689  0.0355  1.0502 -0.0830
  164TCq2    O5 2507   4.112   2.681  10.687  0.3469  0.2055 -0.1064
  164TCq2    O6 2508   4.262   2.540  10.625 -0.0712  0.0635  0.4616
  164TCq2    H2 2509   4.273   2.342  10.763  0.6468  1.3216  0.6433
  164TCq2    H3 2510   3.938   2.588  10.835 -0.6192  1.1445  0.9512
  164TCq2    H4 2511   4.029   2.273  11.110 -0.5313  0.9363  0.2852
  165MPD2     C 2512   0.788   3.372   1.629 -0.1112 -0.3930  0.4222
  165MPD2    C1 2513   0.875   3.427   1.721 -0.1630  0.1272 -0.2514
  165MPD2    C2 2514   0.858   3.557   1.757 -0.0111  0.5903  0.4084
  165MPD2    C3 2515   0.744   3.629   1.721  1.0530  0.4785  0.6792
  165MPD2    C4 2516   0.646   3.567   1.644 -0.0110 -0.1426  0.1864
  165MPD2    C5 2517   0.676   3.443   1.593  0.9352 -0.5027  0.0805
  165MPD2     H 2518   0.930   3.611   1.818  0.3538  1.0806 -0.4613
  165MPD2    H1 2519   0.552   3.613   1.617  0.6472  1.2950  0.2845
  165MPD2    H2 2520   0.798   3.268   1.601  1.9059 -0.8294  2.7197
  165MPD2    H3 2521   0.603   3.392   1.531  0.2966 -0.4670  0.7981
  165MPD2     N 2522   0.726   3.766   1.749  0.1267 -0.1338  0.4262
  165MPD2    H5 2523   0.644   3.809   1.708  1.2239 -0.1545 -1.8220
  165MPD2    N1 2524   0.982   3.347   1.759  0.4113  1.0259 -0.3791
  165MPD2    H7 2525   0.975   3.252   1.723 -0.1087 -0.0937  2.6409
  166TCq2    C1 2526   0.820   3.854   1.805  0.6436  0.3780 -0.3802
  166TCq2    O2 2527   0.937   3.834   1.841 -0.7315 -0.5837  0.8816
  166TCq2    C2 2528   0.781   3.990   1.778  0.6708  0.0698 -0.5277
  166TCq2    C3 2529   0.653   4.034   1.753  0.0287 -0.1599 -0.9524
  166TCq2    C4 2530   0.628   4.167   1.721 -0.2008 -0.0119  0.2585
  166TCq2    C5 2531   0.731   4.254   1.705 -0.4343 -0.5009  0.5755
  166TCq2    C6 2532   0.857   4.202   1.738  0.2484  0.1482  0.2370
  166TCq2    C7 2533   0.884   4.076   1.778  0.2322 -0.5524  0.5220
  166TCq2    C8 2534   0.980   4.283   1.712 -0.4834 -0.7597  0.1913
  166TCq2    O4 2535   1.086   4.220   1.730  0.7787  0.0519 -0.3372
  166TCq2    C9 2536   0.500   4.217   1.667  0.2944 -0.1046  0.9639
  166TCq2    O5 2537   0.432   4.135   1.600 -0.3724 -0.5852 -0.3676
  166TCq2    O6 2538   0.482   4.342   1.669 -0.2816  0.0122  0.0554
  166TCq2    H2 2539   0.568   3.969   1.770  1.7083 -2.0552  0.2115
  166TCq2    H3 2540   0.717   4.355   1.669  0.5717 -1.3998 -2.4159
  166TCq2    H4 2541   0.981   4.049   1.817 -1.1463 -1.4225  3.3522
  167TMC2    C1 2542   3.105   1.288  12.617 -0.4660  0.1118  0.1502
  167TMC2    C2 2543   2.987   1.236  12.652  0.0365 -0.0237 -0.5302
  167TMC2    C3 2544   2.884   1.230  12.572  0.2623 -0.2378  0.4359
  167TMC2    C4 2545   3.134   1.339  12.492  1.0506 -0.4641  0.4387
  167TMC2    C5 2546   3.025   1.331  12.407  0.4408  0.0083  0.2733
  167TMC2    C6 2547   2.895   1.292  12.444 -0.0789 -1.1595  0.3253
  167TMC2     C 2548   3.190   1.311  12.730  0.1979  0.1643 -0.2224
  167TMC2     O 2549   3.195   1.219  12.810  0.0320 -0.4076  0.1024
  167TMC2     H 2550   2.980   1.183  12.746 -2.1761 -1.0249 -1.2480
  167TMC2    H1 2551   3.237   1.365  12.471  0.0934  1.9993 -1.2948
  167TMC2    H2 2552   2.800   1.311  12.396  1.2750  1.3351 -1.3779
  167TMC2    C7 2553   3.027   1.419  12.296 -0.1192 -0.6257 -0.5314
  167TMC2    C8 2554   2.759   1.198  12.635 -0.0844 -0.6316  0.8970
  167TMC2    O1 2555   2.922   1.455  12.247  0.5037 -0.5378  0.0456
  167TMC2    O2 2556   2.738   1.178  12.755 -0.7617  0.1160  0.3147
  167TMC2    O5 2557   2.670   1.168  12.539 -0.4588 -0.8433  0.0653
  167TMC2    H5 2558   2.703   1.154  12.447 -2.3881 -1.8082 -0.4843
  168MPD2     C 2559   3.392   1.403  12.935  0.6231 -0.5589  0.2326
  168MPD2    C1 2560   3.352   1.476  12.820 -0.3803 -0.3787 -0.1764
  168MPD2    C2 2561   3.405   1.598  12.807  0.3951  0.4213 -0.0784
  168MPD2    C3 2562   3.493   1.662  12.902  0.2902  0.5981  0.4852
  168MPD2    C4 2563   3.529   1.583  13.008 -0.2241 -0.0570  0.1273
  168MPD2    C5 2564   3.474   1.462  13.035  0.1120  0.2285  0.1504
  168MPD2     H 2565   3.378   1.657  12.721  2.0761  2.6816  0.9334
  168MPD2    H1 2566   3.610   1.612  13.075  0.7881 -0.3149 -0.9906
  168MPD2    H2 2567   3.358   1.302  12.957  1.0858 -1.0004 -1.0873
  168MPD2    H3 2568   3.491   1.410  13.128 -0.1081 -1.0668 -0.5347
  168MPD2     N 2569   3.551   1.782  12.888 -0.0502  0.1338  0.4399
  168MPD2    H5 2570   3.596   1.819  12.972 -0.7949  2.2666 -0.0993
  168MPD2    N1 2571   3.266   1.430  12.717  0.4250  1.2180 -0.1511
  168MPD2    H7 2572   3.253   1.498  12.643 -1.7884  1.0371  0.0592
  169MPD1     C 2573   0.473   1.990   9.168  0.2318 -0.0058 -0.0848
  169MPD1    C1 2574   0.588   1.990   9.246 -0.1617 -0.3583  0.1064
  169MPD1    C2 2575   0.670   1.874   9.243 -0.7137  0.1639 -0.1575
  169MPD1    C3 2576   0.634   1.753   9.183  0.0184 -0.1520 -0.2542
  169MPD1    C4 2577   0.518   1.758   9.108  1.1030 -0.6322  0.4227
  169MPD1    C5 2578   0.446   1.873   9.097 -0.2103  0.0616 -0.4370
  169MPD1     H 2579   0.769   1.874   9.286 -0.0527 -1.6849 -1.6835
  169MPD1    H1 2580   0.478   1.676   9.049  2.0326  0.9212 -2.3262
  169MPD1    H2 2581   0.399   2.070   9.168  0.7200  0.4583 -1.9710
  169MPD1    H3 2582   0.354   1.878   9.041  0.2205 -0.5577 -1.1881
  169MPD1     N 2583   0.717   1.644   9.196  0.2533  0.2742 -0.3510
  169MPD1    H5 2584   0.789   1.647   9.268 -0.5151 -1.4368  0.4880
  169MPD1    N1 2585   0.631   2.111   9.294 -0.1959  0.7217 -0.2439
  169MPD1    H6 2586   0.549   2.163   9.324 -0.0786  0.8608 -0.1673
  169MPD1    H7 2587   0.689   2.091   9.375  1.2607  2.1243 -0.9529
  170MPD1     C 2588   4.332   3.629  12.880  0.4872 -0.7528 -0.4353
  170MPD1    C1 2589   4.221   3.682  12.947  0.5265 -0.0824  0.5345
  170MPD1    C2 2590   4.238   3.722  13.079 -0.1801  0.3667  0.1334
  170MPD1    C3 2591   4.359   3.708  13.146  0.2730 -0.5882  0.4324
  170MPD1    C4 2592   4.462   3.664  13.073 -0.2499  1.0254 -0.5285
  170MPD1    C5 2593   4.451   3.615  12.948 -0.0896 -0.0863  0.4059
  170MPD1     H 2594   4.150   3.745  13.140 -0.0397  0.4675  0.2987
  170MPD1    H1 2595   4.558   3.664  13.123 -1.3041 -0.5994  1.4882
  170MPD1    H2 2596   4.333   3.587  12.780  2.5298 -1.4498 -0.1194
  170MPD1    H3 2597   4.540   3.579  12.897 -1.0937 -2.2143  0.1348
  170MPD1     N 2598   4.365   3.761  13.279 -0.3103  0.3740 -0.6678
  170MPD1    H5 2599   4.285   3.807  13.321 -0.3966 -1.8711  1.6012
  170MPD1    N1 2600   4.091   3.661  12.896 -0.1045 -0.0838 -0.5976
  170MPD1    H6 2601   4.090   3.664  12.794  2.2260 -0.5724 -0.6342
  170MPD1    H7 2602   4.036   3.739  12.931  0.8707  0.9895 -1.4460
  171MPD1     C 2603   2.832   0.280  16.185 -0.0298  0.1292 -0.7004
  171MPD1    C1 2604   2.824   0.146  16.207 -0.0651  1.1801 -0.0592
  171MPD1    C2 2605   2.915   0.061  16.152  0.7834 -0.3939 -0.0781
  171MPD1    C3 2606   3.031   0.116  16.102 -0.8467 -0.7986  0.4944
  171MPD1    C4 2607   3.049   0.249  16.092  0.3604  0.7587  0.1625
  171MPD1    C5 2608   2.952   0.331  16.127 -0.5311 -0.1038  0.6639
  171MPD1     H 2609   2.892   4.678  16.160  0.2846  0.0149  3.6704
  171MPD1    H1 2610   3.140   0.294  16.054 -0.9171  2.7907 -0.5020
  171MPD1    H2 2611   2.757   0.352  16.214 -0.3527 -0.8036  0.8349
  171MPD1    H3 2612   2.968   0.438  16.120 -0.4526 -0.0366  1.8566
  171MPD1     N 2613   3.136   0.037  16.062  0.3021 -0.1919  0.5248
  171MPD1    H5 2614   3.227   0.083  16.061 -1.3768  3.1342 -1.6334
  171MPD1    N1 2615   2.708   0.085  16.264 -0.2502  0.7620 -0.0642
  171MPD1    H6 2616   2.733   4.716  16.301  2.0454  0.9408 -1.1982
  171MPD1    H7 2617   2.664   0.140  16.337  0.7453 -0.3605  1.3663
  172MPD1     C 2618   2.954   4.001   0.243 -0.1178  0.2450  0.1702
  172MPD1    C1 2619   2.889   4.055   0.348  0.4512  0.2998  0.2145
  172MPD1    C2 2620   2.910   4.188   0.376  0.6227 -0.3568 -0.7187
  172MPD1    C3 2621   3.004   4.267   0.306  0.5736 -0.0589 -0.2158
  172MPD1    C4 2622   3.075   4.199   0.212 -0.0547  0.3746 -0.0678
  172MPD1    C5 2623   3.044   4.077   0.166 -0.3934  1.0270  0.4912
  172MPD1     H 2624   2.853   4.224   0.461  0.2794 -0.7814 -0.7674
  172MPD1    H1 2625   3.157   4.248   0.160 -0.2889  0.5188 -0.3019
  172MPD1    H2 2626   2.938   3.898   0.213  2.5290  0.0676 -0.6443
  172MPD1    H3 2627   3.098   4.031   0.083  0.3924 -1.0463  2.1497
  172MPD1     N 2628   3.028   4.398   0.342 -0.1134  0.6875  0.6111
  172MPD1    H5 2629   3.112   4.445   0.310  1.3042 -2.8164 -0.8157
  172MPD1    N1 2630   2.791   3.982   0.419 -0.0983 -0.2085 -0.0161
  172MPD1    H6 2631   2.784   4.008   0.517 -1.2831  1.4216 -0.5429
  172MPD1    H7 2632   2.801   3.880   0.425 -1.8725 -0.3491  0.6117
  173MPD1     C 2633   3.606   3.409  14.408 -0.3573  0.3311 -0.6382
  173MPD1    C1 2634   3.605   3.541  14.451 -0.8033 -0.0393 -0.5968
  173MPD1    C2 2635   3.543   3.585  14.562 -0.6177  0.8443  0.5650
  173MPD1    C3 2636   3.474   3.502  14.644 -0.0576 -0.6757  0.1740
  173MPD1    C4 2637   3.465   3.369  14.594 -0.3668  0.0019  0.2826
  173MPD1    C5 2638   3.532   3.323  14.485  0.1498 -0.1144  0.0305
  173MPD1     H 2639   3.551   3.688  14.597  1.7877 -0.0187  2.5382
  173MPD1    H1 2640   3.400   3.298  14.645 -0.8373 -0.4432 -0.9211
  173MPD1    H2 2641   3.669   3.371  14.328  1.3743  0.8766  0.4628
  173MPD1    H3 2642   3.519   3.222  14.449  0.6614 -0.2011  0.0912
  173MPD1     N 2643   3.415   3.553  14.765  0.0389 -0.4344  0.0643
  173MPD1    H5 2644   3.427   3.652  14.783  1.0809 -0.6686  0.6807
  173MPD1    N1 2645   3.692   3.631  14.390 -0.2595 -0.3476  0.1025
  173MPD1    H6 2646   3.666   3.725  14.419 -0.3589 -0.2544 -0.2816
  173MPD1    H7 2647   3.683   3.632  14.288  1.2504 -1.2544 -0.0305
  174MPD1     C 2648   3.804   4.223  15.081  0.2330  0.3623 -0.5880
  174MPD1    C1 2649   3.733   4.176  15.194  0.6339  0.0948  0.1170
  174MPD1    C2 2650   3.620   4.089  15.186  0.4969  0.0536 -0.0060
  174MPD1    C3 2651   3.577   4.047  15.060  0.2649 -0.0138  0.7457
  174MPD1    C4 2652   3.650   4.093  14.951 -0.1473 -0.1324  0.1068
  174MPD1    C5 2653   3.760   4.178  14.958 -0.5503 -0.0778 -0.2124
  174MPD1     H 2654   3.558   4.065  15.272 -1.2669  2.0210 -0.7602
  174MPD1    H1 2655   3.632   4.076  14.846 -1.1052 -2.8188  0.6999
  174MPD1    H2 2656   3.888   4.290  15.089  0.4778 -0.0700  0.4958
  174MPD1    H3 2657   3.801   4.218  14.866  1.8895  0.4730  1.1117
  174MPD1     N 2658   3.472   3.955  15.040  0.3327 -0.4461 -0.0444
  174MPD1    H5 2659   3.446   3.946  14.942  0.1338 -2.4585  0.1958
  174MPD1    N1 2660   3.749   4.242  15.317 -0.6097  0.4537 -0.2520
  174MPD1    H6 2661   3.751   4.168  15.387  0.6936 -1.6311 -2.4858
  174MPD1    H7 2662   3.844   4.279  15.326 -0.6801  0.5622  0.0300
  175MPD1     C 2663   2.542   4.465  15.867 -0.1883 -0.2876 -0.0116
  175MPD1    C1 2664   2.428   4.546  15.880 -0.1448  0.2633 -0.3712
  175MPD1    C2 2665   2.402   4.605  16.008 -0.7043  0.2028 -0.0575
  175MPD1    C3 2666   2.484   4.571  16.112  0.0666 -0.2753  0.0192
  175MPD1    C4 2667   2.604   4.498  16.092 -0.0582 -0.6355  0.4825
  175MPD1    C5 2668   2.631   4.443  15.972 -0.6256 -0.4401  0.1777
  175MPD1     H 2669   2.302   4.645  16.021  0.2539  2.0965  1.5518
  175MPD1    H1 2670   2.679   4.495  16.170 -0.6065 -5.0513  0.8542
  175MPD1    H2 2671   2.570   4.430  15.769  1.2015 -0.4278  0.4461
  175MPD1    H3 2672   2.728   4.399  15.955 -0.3715  1.1750 -2.4722
  175MPD1     N 2673   2.453   4.617  16.246 -0.0721 -0.0957  0.6210
  175MPD1    H5 2674   2.520   4.594  16.318  0.0733  0.5886  0.7065
  175MPD1    N1 2675   2.333   4.559  15.774 -0.3031  0.0483  0.2534
  175MPD1    H6 2676   2.285   4.649  15.772  2.1601  1.3616 -0.1205
  175MPD1    H7 2677   2.383   4.560  15.686 -0.1468 -4.4776  0.2841
  176MPD1     C 2678   4.335   1.961  17.466 -0.5669  0.3830  0.3471
  176MPD1    C1 2679   4.245   2.018  17.379  0.0293  0.7139  0.1592
  176MPD1    C2 2680   4.184   2.136  17.423  0.7159  0.3807  0.1588
  176MPD1    C3 2681   4.207   2.196  17.546 -0.2657  0.8881  0.4830
  176MPD1    C4 2682   4.294   2.134  17.634 -0.8782  0.2676  0.1299
  176MPD1    C5 2683   4.357   2.014  17.593  0.2698 -0.0979 -0.1532
  176MPD1     H 2684   4.116   2.179  17.351 -0.5437 -1.8645  0.0196
  176MPD1    H1 2685   4.323   2.180   0.037 -2.0658  0.7717  0.2558
  176MPD1    H2 2686   4.395   1.878  17.431 -2.4957 -0.4635 -0.9661
  176MPD1    H3 2687   4.442   1.979  17.650  0.1804  1.3972  0.8989
  176MPD1     N 2688   4.141   2.318  17.583 -0.0168 -0.3197 -0.0060
  176MPD1    H5 2689   4.077   2.349  17.511  0.8153  0.7233 -0.3011
  176MPD1    N1 2690   4.240   1.962  17.248 -0.5734  0.6004 -0.0498
  176MPD1    H6 2691   4.156   1.981  17.193 -0.7541 -1.6783 -0.6015
  176MPD1    H7 2692   4.259   1.862  17.252 -0.8887  0.4937 -1.0368
  177MPD1     C 2693   2.061   2.430   9.845  0.1844 -0.3746  0.3302
  177MPD1    C1 2694   1.965   2.365   9.777  0.2045 -0.0152 -0.0004
  177MPD1    C2 2695   1.875   2.433   9.701  0.0785  0.7600 -0.0942
  177MPD1    C3 2696   1.879   2.571   9.703  0.9812 -0.4856  0.3852
  177MPD1    C4 2697   1.964   2.641   9.794 -0.4970 -0.0911  0.2107
  177MPD1    C5 2698   2.060   2.567   9.864 -0.5016 -0.6597 -1.0076
  177MPD1     H 2699   1.808   2.370   9.644  0.5574 -1.7469  2.1452
  177MPD1    H1 2700   1.961   2.747   9.815 -1.2387 -0.1221  0.2619
  177MPD1    H2 2701   2.140   2.379   9.899  0.1575  0.1549  0.8745
  177MPD1    H3 2702   2.122   2.628   9.929 -0.4794 -0.5865 -1.0980
  177MPD1     N 2703   1.782   2.645   9.621 -0.5647  0.6691 -1.1804
  177MPD1    H5 2704   1.721   2.581   9.572 -0.3182 -0.0694 -0.5221
  177MPD1    N1 2705   1.979   2.224   9.758  0.1461  0.2299  0.2361
  177MPD1    H6 2706   1.887   2.184   9.741  0.9660 -1.0551 -1.1552
  177MPD1    H7 2707   2.023   2.179   9.839  0.4775 -0.3002 -0.2373
  178MPD1     C 2708   4.168   3.813  17.036  0.2171  0.3748  0.7216
  178MPD1    C1 2709   4.300   3.835  17.069  0.2093  0.1650 -0.1196
  178MPD1    C2 2710   4.380   3.734  17.119 -0.3159  0.7582 -0.1578
  178MPD1    C3 2711   4.323   3.610  17.136 -0.7865 -0.0681 -0.8943
  178MPD1    C4 2712   4.190   3.596  17.121 -0.1967 -0.4768  0.1959
  178MPD1    C5 2713   4.116   3.691  17.054 -0.1890 -0.5698  0.2873
  178MPD1     H 2714   4.480   3.760  17.151  0.0121 -1.4088  0.5933
  178MPD1    H1 2715   4.141   3.502  17.144  0.0219 -0.9237 -1.1635
  178MPD1    H2 2716   4.110   3.901  17.012  0.1819 -0.4469 -2.2430
  178MPD1    H3 2717   4.011   3.673  17.033 -0.2440 -2.5386  2.2870
  178MPD1     N 2718   4.391   3.496  17.187 -0.2688  0.2298 -0.3124
  178MPD1    H5 2719   4.334   3.413  17.197  0.2502 -0.2888 -1.7344
  178MPD1    N1 2720   4.344   3.970  17.077  0.5257  1.0027 -0.1191
  178MPD1    H6 2721   4.285   4.031  17.020 -1.2784  0.4397  1.1351
  178MPD1    H7 2722   4.444   3.961  17.061  0.0243  0.5067 -2.9013
  179MPD1     C 2723   4.186   1.479  15.571  0.2590  0.0576 -0.5701
  179MPD1    C1 2724   4.082   1.382  15.578 -0.0093 -0.1994 -0.7820
  179MPD1    C2 2725   4.116   1.246  15.585  0.3089 -0.1537 -0.8444
  179MPD1    C3 2726   4.247   1.209  15.603 -0.2706 -0.3971  0.5326
  179MPD1    C4 2727   4.344   1.303  15.617 -0.0797 -0.2507 -0.3651
  179MPD1    C5 2728   4.319   1.437  15.587  0.1661  0.1712 -0.0552
  179MPD1     H 2729   4.034   1.176  15.576  0.1850 -0.5751  3.5862
  179MPD1    H1 2730   4.446   1.271  15.638 -0.5565 -2.2301 -1.0853
  179MPD1    H2 2731   4.162   1.584  15.562 -0.7039 -0.0687  0.4433
  179MPD1    H3 2732   4.400   1.507  15.572 -1.2976  1.3447 -2.4866
  179MPD1     N 2733   4.286   1.076  15.624  0.1378 -0.0396  0.0991
  179MPD1    H5 2734   4.385   1.064  15.644 -0.0822 -1.1904  0.4696
  179MPD1    N1 2735   3.950   1.410  15.550  0.4339 -0.5936 -0.4396
  179MPD1    H6 2736   3.930   1.506  15.575  1.2881  0.0346 -2.2001
  179MPD1    H7 2737   3.887   1.346  15.597  0.2373  2.2123  3.1222
  180MPD1     C 2738   4.490   2.369  15.417 -0.3427  0.2634  0.1076
  180MPD1    C1 2739   4.471   2.506  15.422  0.3472  0.0507  0.0883
  180MPD1    C2 2740   4.433   2.569  15.308  0.0054 -0.4459  0.0413
  180MPD1    C3 2741   4.398   2.499  15.193  0.0295 -0.0018  0.2331
  180MPD1    C4 2742   4.407   2.361  15.193  0.4039  1.3727  0.8844
  180MPD1    C5 2743   4.454   2.303  15.304  0.5833  0.3723 -0.1635
  180MPD1     H 2744   4.422   2.677  15.300 -1.9054 -0.6312  0.2289
  180MPD1    H1 2745   4.391   2.296  15.108 -0.3735  2.2216  0.3861
  180MPD1    H2 2746   4.505   2.318  15.512  0.1678 -1.8462 -1.1163
  180MPD1    H3 2747   4.464   2.195  15.309  1.3785  0.4868  0.8760
  180MPD1     N 2748   4.355   2.580  15.084 -0.2715  0.3533  0.4236
  180MPD1    H5 2749   4.351   2.678  15.111  1.9315  0.0966  1.6309
  180MPD1    N1 2750   4.469   2.575  15.548  0.6604  0.2402 -0.3483
  180MPD1    H6 2751   4.474   2.675  15.531  0.3411  0.4840  1.0289
  180MPD1    H7 2752   4.543   2.541  15.609 -0.2770 -0.6792  0.2879
  181MPD1     C 2753   0.362   3.887  10.050  0.3927  0.0502  0.0991
  181MPD1    C1 2754   0.406   3.969  10.149 -0.1816 -0.5539 -0.0459
  181MPD1    C2 2755   0.524   4.037  10.139  0.6235 -0.6387  0.8413
  181MPD1    C3 2756   0.589   4.041  10.016 -0.7964  0.0592 -0.4911
  181MPD1    C4 2757   0.530   3.968   9.913 -0.1550  0.1339 -0.4853
  181MPD1    C5 2758   0.420   3.885   9.929  0.7103 -0.2755  0.2025
  181MPD1     H 2759   0.553   4.097  10.225  0.7721  0.3850  0.0780
  181MPD1    H1 2760   0.581   3.968   9.818  0.9286 -0.3451  0.0939
  181MPD1    H2 2761   0.278   3.826  10.080 -1.1786  1.5709 -1.2215
  181MPD1    H3 2762   0.382   3.823   9.849  1.8062  0.6701 -1.0439
  181MPD1     N 2763   0.714   4.111   9.994  0.4615 -0.0316 -0.2727
  181MPD1    H5 2764   0.760   4.104   9.903  0.6361 -0.5996 -0.1413
  181MPD1    N1 2765   0.341   3.957  10.271  0.5635  0.5027  0.1528
  181MPD1    H6 2766   0.241   3.941  10.262  0.6001  0.4975 -0.2657
  181MPD1    H7 2767   0.352   4.053  10.303 -0.8902  0.8786 -0.4812
  182MPD1     C 2768   2.162   3.546   2.028 -0.3744  0.3682 -0.4865
  182MPD1    C1 2769   2.210   3.447   1.941  0.7934 -0.3838 -0.2582
  182MPD1    C2 2770   2.170   3.456   1.812  0.1545  0.3063 -0.5083
  182MPD1    C3 2771   2.090   3.557   1.777  0.3284 -0.0201  0.3233
  182MPD1    C4 2772   2.028   3.645   1.868  0.3554  0.0372 -0.6581
  182MPD1    C5 2773   2.063   3.633   1.993 -0.4866 -0.3151  0.8076
  182MPD1     H 2774   2.184   3.381   1.735 -0.6116 -2.4158  2.0396
  182MPD1    H1 2775   1.970   3.731   1.835 -1.1105 -0.8225 -0.3408
  182MPD1    H2 2776   2.181   3.545   2.135  0.7441 -1.8057 -0.7089
  182MPD1    H3 2777   2.027   3.702   2.069 -0.2630  0.6429  0.0416
  182MPD1     N 2778   2.066   3.587   1.641  0.3669 -0.1536 -0.3123
  182MPD1    H5 2779   2.005   3.666   1.621  2.0023  0.8663 -1.3398
  182MPD1    N1 2780   2.297   3.348   1.981  0.2556 -0.1354  0.0935
  182MPD1    H6 2781   2.305   3.335   2.082  2.1354 -0.7007 -0.1377
  182MPD1    H7 2782   2.268   3.257   1.948 -1.0519 -0.4999  2.1933
  183MPD1     C 2783   1.271   3.810   8.802 -0.9529 -0.0486 -0.4502
  183MPD1    C1 2784   1.267   3.769   8.936  0.0779 -0.1475 -0.7019
  183MPD1    C2 2785   1.314   3.856   9.032  0.8783 -0.3118 -0.1388
  183MPD1    C3 2786   1.357   3.982   8.998 -0.5291 -0.5060  0.2950
  183MPD1    C4 2787   1.375   4.016   8.861 -1.1256  0.7568 -0.0758
  183MPD1    C5 2788   1.332   3.927   8.763 -0.6847 -0.4931  0.5393
  183MPD1     H 2789   1.308   3.833   9.138  0.9843  0.7680  0.1029
  183MPD1    H1 2790   1.412   4.112   8.829 -0.5570  0.1081 -1.3557
  183MPD1    H2 2791   1.219   3.762   8.720 -0.1437  2.4992 -2.4551
  183MPD1    H3 2792   1.336   3.957   8.659  0.2166  1.0885  1.0323
  183MPD1     N 2793   1.392   4.069   9.106  0.0121 -0.0464  0.7990
  183MPD1    H5 2794   1.392   4.037   9.202 -0.9651  0.8441  1.0871
  183MPD1    N1 2795   1.210   3.645   8.968  0.1242  0.3147  0.4513
  183MPD1    H6 2796   1.182   3.599   8.881  2.0727  1.6292 -0.8789
  183MPD1    H7 2797   1.265   3.577   9.020 -0.7844 -1.8763 -1.4415
  184MPD1     C 2798   0.989   1.856   9.919  0.1401 -0.1308 -0.4014
  184MPD1    C1 2799   0.910   1.851   9.806 -0.4606 -0.6311 -0.1771
  184MPD1    C2 2800   0.900   1.970   9.730  0.0661  0.1026  0.2531
  184MPD1    C3 2801   0.981   2.081   9.750  0.0099  0.0898 -0.1537
  184MPD1    C4 2802   1.074   2.074   9.861 -0.0117 -0.5554 -0.0346
  184MPD1    C5 2803   1.069   1.967   9.944 -0.0780 -0.0017  0.2462
  184MPD1     H 2804   0.830   1.968   9.648 -1.4045  0.7524  1.4983
  184MPD1    H1 2805   1.149   2.152   9.870 -0.7629  0.2955 -1.2103
  184MPD1    H2 2806   0.989   1.772   9.988  1.3374  0.9769  0.9332
  184MPD1    H3 2807   1.131   1.966  10.034 -1.6363  1.2167  1.3312
  184MPD1     N 2808   0.991   2.193   9.668  0.1787 -0.1955 -0.1931
  184MPD1    H5 2809   1.051   2.267   9.701  0.6057 -1.0997  1.0654
  184MPD1    N1 2810   0.815   1.750   9.794  0.2440  0.3009 -0.3927
  184MPD1    H6 2811   0.783   1.743   9.698 -0.0934 -0.2151 -0.2430
  184MPD1    H7 2812   0.866   1.666   9.821 -0.5229  0.0053  0.1308
  185MPD1     C 2813   0.665   2.794   8.771  0.0402  0.1510  0.5837
  185MPD1    C1 2814   0.593   2.704   8.845  0.3277 -0.8442  0.1088
  185MPD1    C2 2815   0.654   2.651   8.962 -0.6304  0.0409 -0.1554
  185MPD1    C3 2816   0.767   2.704   9.014 -0.0540  0.6852 -0.6025
  185MPD1    C4 2817   0.815   2.812   8.952 -0.5798  0.4748 -0.9381
  185MPD1    C5 2818   0.771   2.857   8.828  0.2621  0.2354 -0.2126
  185MPD1     H 2819   0.610   2.561   9.004  0.6440 -0.2427  0.5784
  185MPD1    H1 2820   0.895   2.868   8.998  0.3974 -0.7529 -1.1443
  185MPD1    H2 2821   0.626   2.835   8.679 -0.6386 -0.2634  0.6900
  185MPD1    H3 2822   0.817   2.946   8.787  1.6102 -0.6567 -0.6048
  185MPD1     N 2823   0.840   2.658   9.131 -0.8686  0.0458 -0.1869
  185MPD1    H5 2824   0.925   2.705   9.161 -1.8343  1.4403  0.3813
  185MPD1    N1 2825   0.479   2.651   8.780  0.2579 -0.2647 -0.3065
  185MPD1    H6 2826   0.414   2.610   8.846  0.1667 -1.7798 -1.3278
  185MPD1    H7 2827   0.423   2.721   8.731 -1.0877 -0.9703  0.2329
  186MPD1     C 2828   3.881   1.992  16.705 -0.1469  0.3740 -0.0962
  186MPD1    C1 2829   3.913   1.949  16.577  0.6922  0.0037  0.7291
  186MPD1    C2 2830   4.044   1.918  16.547 -0.1667  0.1528  0.2458
  186MPD1    C3 2831   4.139   1.898  16.649  1.4034 -0.5797 -0.7590
  186MPD1    C4 2832   4.103   1.916  16.780  0.2575 -0.3277 -0.2832
  186MPD1    C5 2833   3.980   1.973  16.806 -0.1410  0.8241  0.5490
  186MPD1     H 2834   4.065   1.911  16.441 -1.3844  0.2988 -0.0054
  186MPD1    H1 2835   4.167   1.883  16.861 -0.1116 -0.4011 -0.0216
  186MPD1    H2 2836   3.784   2.036  16.727 -0.7139 -0.8308 -0.1957
  186MPD1    H3 2837   3.951   1.999  16.907  0.6889 -1.8636  1.4606
  186MPD1     N 2838   4.273   1.862  16.631  0.5775  0.3074  0.1597
  186MPD1    H5 2839   4.330   1.851  16.715 -0.2785 -2.6699  0.3769
  186MPD1    N1 2840   3.814   1.974  16.480  0.2932 -0.4063 -0.1185
  186MPD1    H6 2841   3.721   1.944  16.509 -0.3029 -0.4989 -2.1335
  186MPD1    H7 2842   3.836   1.912  16.402  1.0440 -0.1545 -0.1077
  187MPD1     C 2843   4.462   3.120   0.180 -0.0815 -0.5193 -0.4169
  187MPD1    C1 2844   4.395   3.036   0.095 -0.1952 -0.5799 -0.3076
  187MPD1    C2 2845   4.280   3.077   0.038  0.1634  0.4466  0.8633
  187MPD1    C3 2846   4.238   3.213   0.052  0.1775 -0.4887  0.6341
  187MPD1    C4 2847   4.324   3.302   0.116  0.4493  0.2724  0.6531
  187MPD1    C5 2848   4.420   3.251   0.189 -0.0405 -0.6246 -0.9816
  187MPD1     H 2849   4.221   3.002  17.677  1.5044  0.5733 -0.8364
  187MPD1    H1 2850   4.289   3.404   0.132 -0.7805 -0.6137  3.7291
  187MPD1    H2 2851   4.553   3.087   0.229  1.1259  1.1027 -1.5909
  187MPD1    H3 2852   4.478   3.318   0.252 -0.7989 -0.1353 -0.8083
  187MPD1     N 2853   4.116   3.270  17.685 -0.3253  0.1015 -0.2915
  187MPD1    H5 2854   4.103   3.370  17.674  0.7447  0.2825  0.0561
  187MPD1    N1 2855   4.423   2.902   0.107  0.5982  0.2024  0.0975
  187MPD1    H6 2856   4.393   2.851   0.024  1.9906  0.1047 -0.3604
  187MPD1    H7 2857   4.525   2.899   0.105  0.5265 -0.4880 -2.7359
  188MPD1     C 2858   4.336   3.277  10.029 -0.3165 -0.4214  0.3192
  188MPD1    C1 2859   4.245   3.313   9.931 -0.1103 -0.2897  0.4063
  188MPD1    C2 2860   4.177   3.210   9.870 -0.9993  0.7736  0.5555
  188MPD1    C3 2861   4.178   3.076   9.912 -0.1662  0.8916  0.0067
  188MPD1    C4 2862   4.280   3.043   9.997  0.2525  0.1109  0.3852
  188MPD1    C5 2863   4.366   3.141  10.052  0.4837  0.3092 -0.0764
  188MPD1     H 2864   4.100   3.238   9.798 -0.5967  1.4562  0.3861
  188MPD1    H1 2865   4.317   2.942  10.010 -1.5365 -0.5758  0.0760
  188MPD1    H2 2866   4.399   3.351  10.076 -2.0292  1.5929 -0.5443
  188MPD1    H3 2867   4.455   3.117  10.109  0.5960  0.2735 -0.2648
  188MPD1     N 2868   4.106   2.973   9.848  0.3424 -0.0621 -0.3060
  188MPD1    H5 2869   4.123   2.884   9.895 -1.0282 -0.4202 -0.4812
  188MPD1    N1 2870   4.206   3.447   9.911 -0.4784 -0.0657 -0.0534
  188MPD1    H6 2871   4.196   3.452   9.810  0.7197  0.2123 -0.1585
  188MPD1    H7 2872   4.271   3.519   9.942  0.0177  0.4578 -2.3264
  189MPD1     C 2873   1.386   4.074   0.307 -0.1829  0.6219  0.1724
  189MPD1    C1 2874   1.311   4.164   0.237 -0.1020 -0.0319  0.6768
  189MPD1    C2 2875   1.184   4.122   0.206 -0.1397  0.3912 -0.2331
  189MPD1    C3 2876   1.130   4.001   0.241  0.0361  0.1846  0.2302
  189MPD1    C4 2877   1.212   3.913   0.307 -0.0455 -0.2974  0.1650
  189MPD1    C5 2878   1.339   3.952   0.339 -0.0270 -0.3483  0.0463
  189MPD1     H 2879   1.117   4.190   0.155 -2.4126 -1.8493 -0.2842
  189MPD1    H1 2880   1.176   3.814   0.333  0.6719 -0.6930 -0.3553
  189MPD1    H2 2881   1.488   4.086   0.341 -0.2660  0.3580  0.5232
  189MPD1    H3 2882   1.404   3.883   0.391 -1.0057 -0.8882  0.5521
  189MPD1     N 2883   1.001   3.975   0.203 -0.2853  0.3870  0.4382
  189MPD1    H5 2884   0.953   4.053   0.159  0.7154  0.8907  0.2373
  189MPD1    N1 2885   1.345   4.301   0.241  0.1398  0.1620 -0.6639
  189MPD1    H6 2886   1.445   4.303   0.220  0.4736  1.0722  1.0357
  189MPD1    H7 2887   1.290   4.349   0.170  0.0812  3.6587  1.7657
  190MPD1     C 2888   3.583   1.841  15.781 -1.0685  0.4902 -0.2303
  190MPD1    C1 2889   3.656   1.875  15.663  0.2295  0.4375  0.4909
  190MPD1    C2 2890   3.753   1.976  15.671  0.0252  0.2962 -0.2151
  190MPD1    C3 2891   3.786   2.034  15.794 -0.3362 -0.3064 -0.6535
  190MPD1    C4 2892   3.722   1.995  15.914  0.5026  0.7212  0.0830
  190MPD1    C5 2893   3.619   1.902  15.900 -0.2287  0.3342  0.1848
  190MPD1     H 2894   3.822   1.994  15.590  0.1678  1.2641  0.1304
  190MPD1    H1 2895   3.748   2.030  16.013  2.1032 -0.7169  0.1709
  190MPD1    H2 2896   3.508   1.763  15.782  0.8321 -1.3375 -1.5505
  190MPD1    H3 2897   3.556   1.878  15.985  0.6531 -0.5582  0.5758
  190MPD1     N 2898   3.906   2.113  15.800 -0.6737 -0.0665 -0.1808
  190MPD1    H5 2899   3.964   2.106  15.717  0.3437  2.2607  0.3085
  190MPD1    N1 2900   3.632   1.802  15.550  0.3365 -0.3436 -0.0262
  190MPD1    H6 2901   3.533   1.808  15.526  0.3664 -1.9698 -0.5626
  190MPD1    H7 2902   3.684   1.836  15.469 -1.7646  0.6764 -0.9549
  191MPD1     C 2903   2.710   0.416  13.014 -0.2689  0.0633  0.0523
  191MPD1    C1 2904   2.811   0.511  13.012  0.4977  0.6737 -0.0421
  191MPD1    C2 2905   2.937   0.471  12.964 -0.0786  0.0159  0.3179
  191MPD1    C3 2906   2.952   0.354  12.894 -0.0031 -0.0198 -0.4915
  191MPD1    C4 2907   2.852   0.263  12.886 -0.0905  0.3830 -0.2927
  191MPD1    C5 2908   2.735   0.299  12.943 -0.3747 -0.0469  0.7944
  191MPD1     H 2909   3.024   0.530  12.992 -0.1280 -0.3267  1.1862
  191MPD1    H1 2910   2.874   0.164  12.846  0.0556  1.0152 -1.7946
  191MPD1    H2 2911   2.613   0.432  13.061  1.0562  1.5592  2.2441
  191MPD1    H3 2912   2.657   0.223  12.948  0.9274 -1.6981 -4.0372
  191MPD1     N 2913   3.078   0.327  12.833 -0.4183 -0.4651  0.7320
  191MPD1    H5 2914   3.143   0.404  12.849 -1.3301  0.6246 -0.8037
  191MPD1    N1 2915   2.785   0.626  13.089 -0.0093 -0.3456 -0.1135
  191MPD1    H6 2916   2.691   0.660  13.068  0.5621  0.7224 -0.9085
  191MPD1    H7 2917   2.843   0.704  13.061 -1.4418  1.0368  0.7682
  192MPD1     C 2918   4.038   0.475  13.046 -0.0622 -0.0937 -0.1052
  192MPD1    C1 2919   3.924   0.443  13.115 -0.0972 -1.7875 -0.0286
  192MPD1    C2 2920   3.807   0.436  13.039  0.5289  0.9790  0.1505
  192MPD1    C3 2921   3.797   0.464  12.906 -0.2179  0.7845  0.6760
  192MPD1    C4 2922   3.915   0.511  12.840  0.2228  0.1833 -0.1807
  192MPD1    C5 2923   4.028   0.518  12.914  0.1482  0.0615 -0.9887
  192MPD1     H 2924   3.716   0.400  13.086  0.7561  1.6525  1.1036
  192MPD1    H1 2925   3.908   0.547  12.738  0.1304  1.0776  0.1392
  192MPD1    H2 2926   4.131   0.483  13.100 -0.0219  1.2982 -0.3807
  192MPD1    H3 2927   4.118   0.554  12.865  1.3986 -0.3768  0.9592
  192MPD1     N 2928   3.686   0.425  12.827  0.4297 -0.0467 -0.0745
  192MPD1    H5 2929   3.697   0.444  12.728  0.6147 -0.6447 -0.1659
  192MPD1    N1 2930   3.924   0.383  13.250  0.6943 -0.2730 -0.4947
  192MPD1    H6 2931   4.009   0.425  13.288 -0.7736 -0.5847  3.0731
  192MPD1    H7 2932   3.839   0.411  13.298  0.1356 -2.6500 -0.1221
  193MPD1     C 2933   3.166   0.053  16.454  0.4610  0.4256  0.0418
  193MPD1    C1 2934   3.232   4.711  16.554 -0.0307  0.3039 -0.2295
  193MPD1    C2 2935   3.350   0.042  16.603 -0.3704  0.0235 -1.0960
  193MPD1    C3 2936   3.401   0.160  16.547 -0.2908  0.0346  0.0192
  193MPD1    C4 2937   3.319   0.235  16.464  0.1051  0.4250  0.5510
  193MPD1    C5 2938   3.206   0.180  16.420  0.7812  0.6792 -0.3551
  193MPD1     H 2939   3.403   4.709  16.680 -0.1432  0.5344 -0.8912
  193MPD1    H1 2940   3.345   0.333  16.425 -0.3959  0.8402  1.2632
  193MPD1    H2 2941   3.073   0.017  16.412 -0.3235 -0.1521  2.3101
  193MPD1    H3 2942   3.142   0.235  16.352  0.7073  0.8466 -0.1470
  193MPD1     N 2943   3.521   0.219  16.592 -0.7600 -0.1271 -0.1308
  193MPD1    H5 2944   3.536   0.320  16.596  0.4468 -0.2658 -1.0718
  193MPD1    N1 2945   3.186   4.580  16.592  0.2456 -0.6573  0.7908
  193MPD1    H6 2946   3.085   4.574  16.604  0.1576  1.5864  1.0277
  193MPD1    H7 2947   3.248   4.552  16.668 -1.2259 -0.3499  2.1027
  194MPD1     C 2948   1.325   2.200  17.142  0.3542 -0.2837  0.0527
  194MPD1    C1 2949   1.382   2.257  17.259  0.8370  0.3675  0.4510
  194MPD1    C2 2950   1.489   2.179  17.312  0.0110 -0.0303 -0.3162
  194MPD1    C3 2951   1.564   2.090  17.234 -0.0197  0.2049  0.2087
  194MPD1    C4 2952   1.510   2.054  17.109 -0.3338  0.2180 -0.0922
  194MPD1    C5 2953   1.389   2.108  17.067 -0.6929 -0.1201 -0.1429
  194MPD1     H 2954   1.538   2.204  17.405  1.1585 -1.6293 -0.4972
  194MPD1    H1 2955   1.554   1.982  17.042 -0.0636  0.3961 -0.1065
  194MPD1    H2 2956   1.229   2.244  17.116  0.5420  0.0287 -0.1188
  194MPD1    H3 2957   1.365   2.084  16.964 -2.1902 -2.3304  0.7141
  194MPD1     N 2958   1.683   2.027  17.272 -0.3771 -0.1455  0.1248
  194MPD1    H5 2959   1.725   1.970  17.199 -0.1221  0.5207 -0.2450
  194MPD1    N1 2960   1.322   2.368  17.330  0.7943  0.4925 -0.2505
  194MPD1    H6 2961   1.283   2.437  17.264 -1.6800  0.2061  0.9113
  194MPD1    H7 2962   1.382   2.424  17.390 -1.2406 -0.4577  2.6523
  195MPD1     C 2963   3.441   4.394   0.331  0.0560  0.2631  0.2304
  195MPD1    C1 2964   3.561   4.356   0.277 -0.0005 -0.4089  0.1297
  195MPD1    C2 2965   3.580   4.213   0.260 -0.7956  0.2664 -0.3438
  195MPD1    C3 2966   3.496   4.129   0.324  0.3232 -0.0292 -0.4588
  195MPD1    C4 2967   3.384   4.166   0.386 -0.7926  0.1544 -0.4686
  195MPD1    C5 2968   3.364   4.300   0.391 -0.0427 -0.3277 -0.2613
  195MPD1     H 2969   3.673   4.179   0.217 -0.4299  0.8403 -0.0220
  195MPD1    H1 2970   3.324   4.098   0.444  0.3217 -1.4393 -1.1793
  195MPD1    H2 2971   3.411   4.498   0.333 -0.2447  0.2075 -1.0381
  195MPD1    H3 2972   3.273   4.332   0.440 -0.5023 -1.9431 -0.0383
  195MPD1     N 2973   3.528   3.988   0.333  0.0240  0.5144 -0.0335
  195MPD1    H5 2974   3.460   3.944   0.395 -0.1998  2.2962  0.9966
  195MPD1    N1 2975   3.649   4.458   0.233 -0.1399  0.3042 -0.1026
  195MPD1    H6 2976   3.746   4.432   0.250 -0.1562 -1.3543 -2.5121
  195MPD1    H7 2977   3.626   4.553   0.264 -0.5700 -0.0063  0.5213
  196MPD1     C 2978   2.533   2.628   0.079  0.3523 -0.5973  0.0850
  196MPD1    C1 2979   2.570   2.754   0.096 -0.2195 -0.0441  0.3325
  196MPD1    C2 2980   2.616   2.792   0.220  0.3412 -0.7382 -0.6729
  196MPD1    C3 2981   2.604   2.704   0.332  0.3652 -0.1404  0.4313
  196MPD1    C4 2982   2.552   2.577   0.313  0.2443 -0.3833  0.1939
  196MPD1    C5 2983   2.516   2.541   0.184  0.7599 -0.3696  0.0540
  196MPD1     H 2984   2.673   2.883   0.235 -0.3640 -0.4710  0.4056
  196MPD1    H1 2985   2.534   2.503   0.390 -0.2420 -1.9362 -1.4194
  196MPD1    H2 2986   2.507   2.582  17.674  0.1128 -0.9137  0.3032
  196MPD1    H3 2987   2.475   2.442   0.170 -1.3904  0.3527  1.3114
  196MPD1     N 2988   2.637   2.744   0.462  0.1756  0.4040  0.0074
  196MPD1    H5 2989   2.661   2.671   0.528  0.3986 -2.4464 -3.2479
  196MPD1    N1 2990   2.605   2.829  17.667 -0.6031  0.1623  0.4057
  196MPD1    H6 2991   2.605   2.930  17.685  0.3690  0.3914 -0.8792
  196MPD1    H7 2992   2.547   2.807  17.587 -0.4210  0.6752  0.1336
  197MPD1     C 2993   2.293   1.646  17.466  0.1271  0.6750 -0.3176
  197MPD1    C1 2994   2.323   1.732  17.360 -0.9794  0.3831  0.0019
  197MPD1    C2 2995   2.308   1.679  17.236 -0.0050 -0.0081 -0.6506
  197MPD1    C3 2996   2.266   1.549  17.214 -0.2638 -0.6783 -0.2048
  197MPD1    C4 2997   2.245   1.471  17.325  0.2510  0.8251  0.2036
  197MPD1    C5 2998   2.270   1.516  17.451 -0.4058 -0.9126  0.5970
  197MPD1     H 2999   2.355   1.736  17.156 -0.4707  1.9244  0.4520
  197MPD1    H1 3000   2.225   1.367  17.300 -1.5160  1.0927  0.4642
  197MPD1    H2 3001   2.299   1.683  17.568  1.6278  1.8380 -0.8158
  197MPD1    H3 3002   2.272   1.443  17.532 -2.3278  1.2170  2.5803
  197MPD1     N 3003   2.243   1.492  17.090 -0.0400 -0.0457  0.1131
  197MPD1    H5 3004   2.220   1.393  17.093  1.6320 -0.4561 -0.4500
  197MPD1    N1 3005   2.343   1.875  17.385  0.3227  0.1545 -0.1543
  197MPD1    H6 3006   2.412   1.909  17.318 -2.3004  0.5285 -2.6466
  197MPD1    H7 3007   2.384   1.895  17.477 -1.4051 -1.4781  0.9649
  198MPD1     C 3008   4.421   3.111  16.198 -0.1837  0.2455 -0.3411
  198MPD1    C1 3009   4.424   3.151  16.067 -0.2288  0.1255 -0.2724
  198MPD1    C2 3010   4.464   3.289  16.040  0.6645 -0.0126 -0.2341
  198MPD1    C3 3011   4.501   3.372  16.141  1.0554  0.6104  0.1712
  198MPD1    C4 3012   4.498   3.329  16.271 -1.0327  0.3266  0.9083
  198MPD1    C5 3013   4.449   3.205  16.303  0.1322 -0.1639 -0.3387
  198MPD1     H 3014   4.475   3.323  15.938 -1.1145 -0.7632 -0.6730
  198MPD1    H1 3015   4.496   3.392  16.359  0.1247 -0.0550  1.2073
  198MPD1    H2 3016   4.391   3.010  16.225  2.9675 -0.3127  1.0490
  198MPD1    H3 3017   4.428   3.175  16.405  0.4223  0.7572 -0.0095
  198MPD1     N 3018   4.546   3.501  16.100  0.1210  0.0618 -0.4069
  198MPD1    H5 3019   4.549   3.521  16.001  0.6423 -0.4666 -0.4947
  198MPD1    N1 3020   4.365   3.078  15.967  0.1517  0.6507  0.3534
  198MPD1    H6 3021   4.415   3.101  15.881  2.8565 -0.3412  1.6621
  198MPD1    H7 3022   4.360   2.980  15.994 -1.0435  0.6468  0.1233
  199MPD1     C 3023   2.103   0.391   9.752 -0.6126 -0.6266  0.0541
  199MPD1    C1 3024   2.032   0.502   9.767  0.1893  0.2339  0.0751
  199MPD1    C2 3025   1.898   0.497   9.737 -0.2287 -0.4846  0.5691
  199MPD1    C3 3026   1.835   0.390   9.676  0.1461  0.1607  0.3678
  199MPD1    C4 3027   1.916   0.280   9.646 -0.1198  0.0655  0.8826
  199MPD1    C5 3028   2.052   0.282   9.686  0.5224 -0.1754  0.1592
  199MPD1     H 3029   1.847   0.590   9.760  0.5126  0.0302  0.1562
  199MPD1    H1 3030   1.875   0.188   9.604  0.7297 -0.0989  0.4140
  199MPD1    H2 3031   2.206   0.391   9.786 -0.4783 -3.7335 -0.3101
  199MPD1    H3 3032   2.113   0.196   9.658 -0.6017 -0.3755 -1.6616
  199MPD1     N 3033   1.693   0.368   9.667 -0.1968 -0.0929 -0.0520
  199MPD1    H5 3034   1.662   0.275   9.643 -2.2590  1.1827 -2.2798
  199MPD1    N1 3035   2.085   0.604   9.850  0.1012 -0.1635  0.1407
  199MPD1    H6 3036   2.053   0.699   9.834 -0.1468 -0.1140  0.9008
  199MPD1    H7 3037   2.186   0.614   9.842  0.1999 -0.2274  1.3255
  200MPD1     C 3038   0.419   4.698  15.275 -0.3335  0.5079  0.2511
  200MPD1    C1 3039   0.404   4.610  15.175  0.1331  0.2680 -0.1236
  200MPD1    C2 3040   0.504   4.591  15.079  0.3230  0.2193 -0.1725
  200MPD1    C3 3041   0.618   4.672  15.084  0.8040  0.6742 -0.2953
  200MPD1    C4 3042   0.622   0.050  15.180 -0.0303 -0.4248  0.3486
  200MPD1    C5 3043   0.523   0.066  15.276 -0.4658 -0.0008  0.3510
  200MPD1     H 3044   0.499   4.502  15.016 -1.7237  0.2245 -0.0126
  200MPD1    H1 3045   0.706   0.119  15.176 -1.0878  0.9681  1.8219
  200MPD1    H2 3046   0.367   4.686  15.369 -1.2100 -0.2902 -0.3376
  200MPD1    H3 3047   0.544   0.137  15.355 -0.3193 -0.1929  0.4856
  200MPD1     N 3048   0.712   4.656  14.982  0.4608 -0.2669 -0.3216
  200MPD1    H5 3049   0.687   4.581  14.918  0.1454 -0.1880 -0.2925
  200MPD1    N1 3050   0.303   4.513  15.189 -0.3007  0.2179  0.9417
  200MPD1    H6 3051   0.228   4.554  15.244 -0.7299 -0.4795  0.8682
  200MPD1    H7 3052   0.265   4.496  15.097  0.5247 -0.9726  0.8225
  201MPD1     C 3053   2.552   4.016  13.087  0.4860 -0.5699  0.3924
  201MPD1    C1 3054   2.488   3.897  13.089  0.4855 -0.2874 -0.2622
  201MPD1    C2 3055   2.560   3.782  13.098  0.3326 -0.2264 -0.3402
  201MPD1    C3 3056   2.704   3.791  13.115 -0.2405  0.8349  0.4549
  201MPD1    C4 3057   2.761   3.911  13.093  0.5331 -0.2353  0.3939
  201MPD1    C5 3058   2.685   4.023  13.086 -0.3419  0.0919  0.2079
  201MPD1     H 3059   2.512   3.685  13.105  0.9349 -0.5395 -0.5565
  201MPD1    H1 3060   2.869   3.922  13.103  0.6064 -0.4098 -0.1898
  201MPD1    H2 3061   2.501   4.112  13.082  0.9130 -0.4169 -1.0219
  201MPD1    H3 3062   2.712   4.128  13.085 -2.3011  0.5899 -1.4250
  201MPD1     N 3063   2.777   3.671  13.124 -0.7701  0.5158  0.4133
  201MPD1    H5 3064   2.728   3.583  13.117  2.6173 -1.2131 -1.8157
  201MPD1    N1 3065   2.345   3.903  13.074  0.2886 -0.0499 -0.1213
  201MPD1    H6 3066   2.303   3.985  13.118  0.6320  0.9172 -1.5960
  201MPD1    H7 3067   2.304   3.819  13.114  0.1871  0.4505  0.8219
  202MPD1     C 3068   2.015   3.160   8.752  0.2430 -0.0892  0.1671
  202MPD1    C1 3069   1.926   3.183   8.847  0.2317 -0.7614  0.1312
  202MPD1    C2 3070   1.983   3.226   8.972  0.4758 -0.0606 -0.0977
  202MPD1    C3 3071   2.106   3.291   8.985 -0.2339 -1.1165  1.0031
  202MPD1    C4 3072   2.185   3.280   8.874 -0.5884 -0.4847  0.9626
  202MPD1    C5 3073   2.140   3.213   8.764 -0.2325 -0.8095 -0.2640
  202MPD1     H 3074   1.919   3.228   9.060  0.3107 -2.2572 -0.1593
  202MPD1    H1 3075   2.283   3.323   8.857 -1.2333  0.5214 -0.1842
  202MPD1    H2 3076   1.983   3.112   8.661 -3.3027 -0.1312  1.4332
  202MPD1    H3 3077   2.200   3.201   8.674 -0.7267 -1.1447 -0.5541
  202MPD1     N 3078   2.149   3.359   9.102  0.2793 -0.2444  0.1144
  202MPD1    H5 3079   2.245   3.393   9.099 -0.2803  1.4376  1.0279
  202MPD1    N1 3080   1.804   3.115   8.846  0.4764  0.0145  0.2594
  202MPD1    H6 3081   1.744   3.157   8.917  0.2149 -0.3202  0.2344
  202MPD1    H7 3082   1.764   3.116   8.752  3.7539 -1.4971 -1.1786
  203MPD1     C 3083   1.745   0.129  12.628  0.2324 -0.8082  0.3700
  203MPD1    C1 3084   1.743   0.074  12.503  0.2818  0.0895  0.4161
  203MPD1    C2 3085   1.741   4.660  12.494 -0.5417  0.1020  0.5007
  203MPD1    C3 3086   1.728   4.573  12.601  0.1843  0.1215 -0.1620
  203MPD1    C4 3087   1.729   4.628  12.728  0.5183 -0.1380 -0.5126
  203MPD1    C5 3088   1.736   0.045  12.732  0.7599  0.0114 -0.6833
  203MPD1     H 3089   1.743   4.620  12.394 -2.4105  0.5466  0.2923
  203MPD1    H1 3090   1.724   4.574  12.822  0.1046  0.2777 -0.2958
  203MPD1    H2 3091   1.739   0.236  12.644 -0.5400 -0.9103  0.7515
  203MPD1    H3 3092   1.729   0.100  12.826  0.2862 -1.3033  0.0587
  203MPD1     N 3093   1.711   4.430  12.574 -0.3999 -0.1083  0.3008
  203MPD1    H5 3094   1.716   4.398  12.477 -1.9230 -1.8566  0.7899
  203MPD1    N1 3095   1.757   0.162  12.395 -1.0475 -0.4887  0.6210
  203MPD1    H6 3096   1.702   0.129  12.316 -1.8855  0.2337  0.8976
  203MPD1    H7 3097   1.730   0.257  12.420  0.4902 -0.3135  1.6262
  204MPD1     C 3098   0.332   0.387  17.685  0.0360  0.2756  0.3704
  204MPD1    C1 3099   0.468   0.398  17.670  0.7920  0.2549 -0.3924
  204MPD1    C2 3100   0.525   0.321  17.572 -0.3952 -0.1755 -0.6734
  204MPD1    C3 3101   0.456   0.217  17.505  0.2953 -0.4802 -0.7458
  204MPD1    C4 3102   0.325   0.198  17.534  0.1240  0.2647  0.1228
  204MPD1    C5 3103   0.267   0.283  17.622 -0.5251  0.4396 -0.5786
  204MPD1     H 3104   0.630   0.335  17.552 -0.1519 -3.8828 -2.0720
  204MPD1    H1 3105   0.259   0.122  17.496 -2.1713  1.3825  1.8694
  204MPD1    H2 3106   0.268   0.444   0.061  0.2489 -0.7601  1.4447
  204MPD1    H3 3107   0.162   0.273  17.647 -0.8089 -1.2225 -2.4255
  204MPD1     N 3108   0.524   0.147  17.402 -0.1236 -0.0137 -0.0219
  204MPD1    H5 3109   0.619   0.172  17.379 -0.8240  3.1632  0.4841
  204MPD1    N1 3110   0.531   0.516   0.034  0.3776 -0.7242  0.3354
  204MPD1    H6 3111   0.503   0.549   0.126 -0.7183 -1.0483  0.1167
  204MPD1    H7 3112   0.632   0.506   0.037  0.2151 -2.5106 -0.0131
  205MPD1     C 3113   1.238   3.253  16.801 -1.0605 -0.1677 -0.2514
  205MPD1    C1 3114   1.353   3.277  16.870 -0.1327  0.2109  0.4658
  205MPD1    C2 3115   1.356   3.392  16.947  0.0323 -0.7640  0.5272
  205MPD1    C3 3116   1.244   3.475  16.970 -0.5419 -0.3755  0.7629
  205MPD1    C4 3117   1.130   3.445  16.895 -0.2302  0.8578  0.0421
  205MPD1    C5 3118   1.129   3.338  16.806  0.6231  0.3541 -0.1447
  205MPD1     H 3119   1.447   3.406  17.003 -1.2544 -2.9473  3.1617
  205MPD1    H1 3120   1.041   3.507  16.903 -1.1366 -0.7202  2.1245
  205MPD1    H2 3121   1.237   3.171  16.730 -0.5207 -0.9972  0.7074
  205MPD1    H3 3122   1.035   3.324  16.752 -0.9971  0.5115  2.6347
  205MPD1     N 3123   1.248   3.579  17.064  0.3136  0.2173 -0.3172
  205MPD1    H5 3124   1.164   3.636  17.065  1.8753  2.4683  0.9803
  205MPD1    N1 3125   1.466   3.200  16.849 -0.5240  0.1560 -0.3093
  205MPD1    H6 3126   1.521   3.171  16.929  1.0037 -0.1382 -1.4689
  205MPD1    H7 3127   1.455   3.107  16.809 -3.3510  0.8701 -1.2141
  206MPD1     C 3128   1.431   1.278  16.794  0.0990 -0.2241  0.8244
  206MPD1    C1 3129   1.417   1.413  16.788 -0.1721 -0.3147 -0.2681
  206MPD1    C2 3130   1.347   1.465  16.676  0.9029  0.4860 -0.1254
  206MPD1    C3 3131   1.287   1.384  16.581 -1.1432 -0.4533  0.7838
  206MPD1    C4 3132   1.298   1.251  16.598  0.0542  0.1124  0.0275
  206MPD1    C5 3133   1.379   1.200  16.699 -0.2984  0.3095 -0.2503
  206MPD1     H 3134   1.353   1.573  16.662  1.3689  0.4228 -0.4340
  206MPD1    H1 3135   1.250   1.181  16.530  0.8998 -0.7384  0.3023
  206MPD1    H2 3136   1.487   1.229  16.873  3.0536 -2.0269 -2.3639
  206MPD1    H3 3137   1.394   1.093  16.709  0.7366  0.5367  0.6992
  206MPD1     N 3138   1.242   1.434  16.452  0.2831 -0.1879 -0.1475
  206MPD1    H5 3139   1.238   1.374  16.369  1.4524 -0.8886  0.3097
  206MPD1    N1 3140   1.500   1.488  16.868  0.2270  0.1326 -0.0122
  206MPD1    H6 3141   1.471   1.585  16.877 -1.0710 -0.1434 -1.1887
  206MPD1    H7 3142   1.518   1.446  16.959 -1.3720  0.0350  0.2658
  207MPD1     C 3143   2.727   1.276   9.637  0.0958 -0.5671 -0.5340
  207MPD1    C1 3144   2.822   1.326   9.548 -0.2573 -0.7530  0.2206
  207MPD1    C2 3145   2.941   1.258   9.535  0.6590 -0.6707  0.2250
  207MPD1    C3 3146   2.968   1.140   9.605  0.5364  0.1242  0.0792
  207MPD1    C4 3147   2.875   1.093   9.692  0.0380  0.4046  0.3703
  207MPD1    C5 3148   2.757   1.158   9.708 -0.2941  0.1112 -0.0967
  207MPD1     H 3149   3.010   1.292   9.459  0.1183 -1.0316 -0.4357
  207MPD1    H1 3150   2.889   0.997   9.742  0.7334  0.3582  0.0899
  207MPD1    H2 3151   2.629   1.322   9.642  0.5390  0.4662 -1.4079
  207MPD1    H3 3152   2.683   1.115   9.774  0.2942  0.2774  0.6657
  207MPD1     N 3153   3.099   1.074   9.613  0.6859 -0.4009 -0.0051
  207MPD1    H5 3154   3.105   1.000   9.682 -0.0999 -1.6345 -1.2393
  207MPD1    N1 3155   2.797   1.431   9.463 -0.1100  0.9682 -0.3594
  207MPD1    H6 3156   2.720   1.492   9.489 -2.3230 -1.8784 -0.1508
  207MPD1    H7 3157   2.883   1.482   9.447  1.2485 -0.3649  2.8116
  208MPD1     C 3158   2.791   3.606   0.205 -0.5626  0.3970  0.8334
  208MPD1    C1 3159   2.731   3.616   0.332  0.0874 -0.1992  0.1868
  208MPD1    C2 3160   2.593   3.589   0.347 -0.2702 -0.1744 -0.2845
  208MPD1    C3 3161   2.534   3.516   0.246 -0.3430 -0.3334 -0.0166
  208MPD1    C4 3162   2.603   3.489   0.130  0.0343  0.5731 -0.3921
  208MPD1    C5 3163   2.724   3.547   0.104  0.5018 -0.1092  0.2318
  208MPD1     H 3164   2.536   3.610   0.436  0.1230  2.0091 -0.5553
  208MPD1    H1 3165   2.554   3.432   0.051  1.4842  1.5305 -1.9881
  208MPD1    H2 3166   2.888   3.652   0.189 -0.6181 -0.9336 -3.3435
  208MPD1    H3 3167   2.764   3.535   0.004  1.9352 -0.5728  0.8654
  208MPD1     N 3168   2.400   3.468   0.267  0.1942 -0.1063  0.5801
  208MPD1    H5 3169   2.360   3.486   0.358  1.1058  0.9227  0.7883
  208MPD1    N1 3170   2.805   3.685   0.436  0.6177 -0.1877  0.4701
  208MPD1    H6 3171   2.899   3.647   0.441 -0.1538 -2.0566  0.5105
  208MPD1    H7 3172   2.764   3.673   0.528 -1.9908 -1.7549 -0.9035
  209MPD1     C 3173   3.713   4.007   9.997  0.7334 -0.0951 -0.4267
  209MPD1    C1 3174   3.811   4.046   9.903  0.6563  0.1400  0.8539
  209MPD1    C2 3175   3.834   4.183   9.880 -0.1974 -0.3184 -0.5234
  209MPD1    C3 3176   3.783   4.279   9.963  0.3648 -0.9179 -0.2362
  209MPD1    C4 3177   3.698   4.237  10.065 -0.2477  0.6237 -0.6199
  209MPD1    C5 3178   3.665   4.103  10.080  0.0318 -0.3399  0.3791
  209MPD1     H 3179   3.898   4.203   9.795 -1.8731 -0.4154 -1.8146
  209MPD1    H1 3180   3.666   4.317  10.131  1.0644 -1.3225  2.3740
  209MPD1    H2 3181   3.679   3.904  10.003  0.4573  0.0872  1.0742
  209MPD1    H3 3182   3.603   4.086  10.167  1.1305  0.1751  1.2678
  209MPD1     N 3183   3.804   4.415   9.933 -0.3309  0.0957  0.2615
  209MPD1    H5 3184   3.867   4.435   9.856 -0.9460  1.1288  0.0229
  209MPD1    N1 3185   3.854   3.944   9.815  0.4701  0.1222  0.6154
  209MPD1    H6 3186   3.864   3.859   9.870  1.1297 -0.0124  0.2772
  209MPD1    H7 3187   3.943   3.968   9.772 -0.4085  2.6569  0.2060
  210MPD1     C 3188   4.575   4.715   9.832  0.0402  0.4300  0.3447
  210MPD1    C1 3189   4.498   0.015   9.719 -0.4377  0.6273 -0.7063
  210MPD1    C2 3190   4.364   0.044   9.728  0.0345  0.1606  0.3052
  210MPD1    C3 3191   4.304   0.023   9.848  0.0879  0.6408  0.3633
  210MPD1    C4 3192   4.372   4.694   9.950 -0.3828  0.0432  0.0423
  210MPD1    C5 3193   4.509   4.690   9.952  0.1617 -0.3519  0.1060
  210MPD1     H 3194   4.312   0.086   9.642  0.8287 -0.7407 -0.6070
  210MPD1    H1 3195   4.327   4.666  10.045 -0.4665  2.4817  0.7216
  210MPD1    H2 3196   4.684   4.716   9.830  0.0533 -1.1440 -0.6246
  210MPD1    H3 3197   4.560   4.675  10.046  1.0947  0.7333 -0.2212
  210MPD1     N 3198   4.168   0.038   9.875 -0.0480 -0.0391  0.4389
  210MPD1    H5 3199   4.145   4.711   9.961  1.4262 -1.5016  0.0091
  210MPD1    N1 3200   4.554   0.057   9.598  0.5155  0.2400  0.0311
  210MPD1    H6 3201   4.491   0.026   9.524  0.9161 -0.0494 -0.1935
  210MPD1    H7 3202   4.644   0.009   9.591  1.3564  1.7165  0.8083
  211MPD1     C 3203   2.189   3.734  17.250 -0.0225 -0.1945 -0.3891
  211MPD1    C1 3204   2.177   3.722  17.116  0.0769 -0.5934  0.5208
  211MPD1    C2 3205   2.126   3.835  17.053  0.4788  0.0300 -0.4629
  211MPD1    C3 3206   2.086   3.953  17.111 -0.0876 -0.1815 -0.9810
  211MPD1    C4 3207   2.113   3.970  17.245  0.1988 -0.2796  0.2184
  211MPD1    C5 3208   2.168   3.861  17.312  0.1773 -0.3980 -0.0710
  211MPD1     H 3209   2.111   3.832  16.946  2.4770 -2.3676 -0.6564
  211MPD1    H1 3210   2.085   4.060  17.299  2.1692  1.0066 -0.9201
  211MPD1    H2 3211   2.242   3.661  17.310  3.4851  1.8898 -0.9563
  211MPD1    H3 3212   2.194   3.864  17.417  2.6039 -1.0355 -0.6345
  211MPD1     N 3213   2.018   4.050  17.034 -0.0713  0.6054  0.1977
  211MPD1    H5 3214   1.999   4.022  16.938  1.3895 -2.3657  0.7630
  211MPD1    N1 3215   2.231   3.611  17.047  0.1823 -0.3809  0.0885
  211MPD1    H6 3216   2.221   3.530  17.107 -0.2763  0.7146  1.5009
  211MPD1    H7 3217   2.171   3.590  16.967 -2.5035  0.8478  1.7561
  212MPD1     C 3218   0.825   2.365  16.510 -0.3070 -1.1124 -0.6536
  212MPD1    C1 3219   0.787   2.356  16.641  0.0215  0.6781 -0.2343
  212MPD1    C2 3220   0.757   2.226  16.692 -0.3196  0.0275  0.2317
  212MPD1    C3 3221   0.755   2.113  16.614  0.3102  0.2213  0.7963
  212MPD1    C4 3222   0.795   2.129  16.482 -1.2128  0.3370 -0.2297
  212MPD1    C5 3223   0.821   2.252  16.431 -0.0056  0.6158 -0.3387
  212MPD1     H 3224   0.739   2.223  16.798  0.8284  0.3794  0.4381
  212MPD1    H1 3225   0.784   2.046  16.414 -1.4187 -0.9224  1.3280
  212MPD1    H2 3226   0.871   2.456  16.472  0.9031 -1.1590  0.7178
  212MPD1    H3 3227   0.838   2.251  16.324 -2.7447  0.6368 -0.7842
  212MPD1     N 3228   0.749   1.984  16.667  0.2909  0.0938  0.8864
  212MPD1    H5 3229   0.777   1.911  16.602 -0.7283  0.1905  0.3325
  212MPD1    N1 3230   0.809   2.464  16.724 -0.1505 -0.2303  0.4358
  212MPD1    H6 3231   0.808   2.552  16.673  0.5330 -0.2518  0.3809
  212MPD1    H7 3232   0.749   2.467  16.807 -2.4261 -1.0830 -1.1903
  213MPD1     C 3233   4.120   2.925  15.729 -0.3918  0.3697 -0.1221
  213MPD1    C1 3234   4.024   3.018  15.752 -0.1660  0.0094 -0.1994
  213MPD1    C2 3235   3.904   2.998  15.696  0.2748 -0.1261  0.5045
  213MPD1    C3 3236   3.869   2.878  15.636 -0.3675 -0.4241  0.1261
  213MPD1    C4 3237   3.960   2.775  15.645  0.3281 -0.7125 -0.2221
  213MPD1    C5 3238   4.088   2.803  15.681 -0.6182 -0.6255 -0.4434
  213MPD1     H 3239   3.829   3.076  15.704  0.4713  0.0117  1.0350
  213MPD1    H1 3240   3.954   2.683  15.588  1.1102 -1.1961  0.4784
  213MPD1    H2 3241   4.226   2.949  15.726 -0.7489  1.7114 -2.4334
  213MPD1    H3 3242   4.164   2.731  15.654  0.3333 -0.7609  2.5462
  213MPD1     N 3243   3.741   2.866  15.575 -0.6757 -0.2289  0.2307
  213MPD1    H5 3244   3.679   2.945  15.587  0.4378  0.1835  3.3111
  213MPD1    N1 3245   4.070   3.146  15.790 -0.0066 -0.6768 -0.3249
  213MPD1    H6 3246   3.995   3.203  15.829 -0.3179 -1.9787  0.9831
  213MPD1    H7 3247   4.154   3.139  15.847 -1.0460 -0.4557  1.2415
  214MPD1     C 3248   2.835   2.323  15.257  0.4695 -0.0125 -0.5429
  214MPD1    C1 3249   2.941   2.289  15.337  0.2467  0.3597  0.8496
  214MPD1    C2 3250   3.047   2.376  15.351 -0.7300  0.2054 -0.0391
  214MPD1    C3 3251   3.049   2.500  15.289 -0.4524  0.7015 -0.0654
  214MPD1    C4 3252   2.943   2.527  15.200  1.1198 -0.4859  0.1769
  214MPD1    C5 3253   2.843   2.438  15.196  0.0642  0.5375  0.8002
  214MPD1     H 3254   3.122   2.342  15.422 -1.3406 -0.6682  0.1821
  214MPD1    H1 3255   2.942   2.622  15.148  1.3133 -1.1257 -0.9916
  214MPD1    H2 3256   2.744   2.266  15.244  0.6586 -1.0114  2.5755
  214MPD1    H3 3257   2.759   2.463  15.133 -1.2803 -2.1919  1.4885
  214MPD1     N 3258   3.154   2.594  15.312  0.4436 -0.1593  0.3605
  214MPD1    H5 3259   3.157   2.681  15.260 -3.8263  0.0026  0.3993
  214MPD1    N1 3260   2.964   2.158  15.383  0.1482 -0.0222  0.4453
  214MPD1    H6 3261   2.877   2.108  15.399 -0.1679  0.0057 -1.2121
  214MPD1    H7 3262   3.015   2.150  15.471  0.5877 -0.5938  0.1369
  215MPD1     C 3263   3.997   3.671  10.802 -0.3488  0.3388 -0.8494
  215MPD1    C1 3264   4.086   3.726  10.886  0.5663 -0.5612  0.0399
  215MPD1    C2 3265   4.048   3.850  10.942 -0.1207 -0.3897  0.3025
  215MPD1    C3 3266   3.926   3.910  10.922 -0.1934  0.0353  0.9754
  215MPD1    C4 3267   3.828   3.840  10.853 -0.1271 -0.2101 -0.1218
  215MPD1    C5 3268   3.869   3.726  10.787  0.0515 -0.2328 -0.0864
  215MPD1     H 3269   4.120   3.906  11.001 -0.3860 -0.5290  0.7627
  215MPD1    H1 3270   3.724   3.872  10.853  0.7282  2.6413 -0.7461
  215MPD1    H2 3271   4.017   3.585  10.740  2.3768  0.0301  0.4371
  215MPD1    H3 3272   3.792   3.676  10.728 -0.2358 -3.1183  2.7484
  215MPD1     N 3273   3.902   4.040  10.973  0.2851 -0.6341 -0.9329
  215MPD1    H5 3274   3.956   4.056  11.058  0.8327  3.4070 -2.0405
  215MPD1    N1 3275   4.216   3.667  10.889  0.3161 -0.2827 -0.2920
  215MPD1    H6 3276   4.216   3.567  10.871  0.9151 -0.6784  1.9587
  215MPD1    H7 3277   4.272   3.696  10.969  1.0268 -0.9341 -0.5503
  216MPD1     C 3278   1.080   1.844  16.979 -0.1836 -0.5920 -0.4532
  216MPD1    C1 3279   1.117   1.720  16.975 -0.2724 -0.3275 -0.2802
  216MPD1    C2 3280   1.113   1.651  17.095  0.5160  0.2124  0.3756
  216MPD1    C3 3281   1.060   1.704  17.210  0.0417 -0.1865 -0.4872
  216MPD1    C4 3282   1.006   1.823  17.205  0.3526 -0.1684  0.6390
  216MPD1    C5 3283   1.029   1.894  17.096  0.5495  0.3448 -0.3206
  216MPD1     H 3284   1.139   1.546  17.091  0.8243  0.3910 -2.4833
  216MPD1    H1 3285   0.954   1.858  17.294 -0.1285  1.7476 -0.3983
  216MPD1    H2 3286   1.091   1.920  16.903  3.5616 -0.4866  0.1708
  216MPD1    H3 3287   1.001   1.999  17.103 -2.4062 -0.4147 -0.4455
  216MPD1     N 3288   1.056   1.620  17.321  0.2823 -0.1723 -0.5708
  216MPD1    H5 3289   1.108   1.533  17.317  1.4661  0.6062 -2.1038
  216MPD1    N1 3290   1.180   1.664  16.868 -0.2531 -0.2699 -0.5076
  216MPD1    H6 3291   1.159   1.705  16.777  0.4687 -1.6761 -1.3085
  216MPD1    H7 3292   1.161   1.565  16.854 -0.5986 -0.3529  0.5842
  217MPD1     C 3293   1.140   2.280   8.423 -0.0007 -0.2273 -0.1800
  217MPD1    C1 3294   1.076   2.405   8.418 -0.1298 -0.4177 -0.1813
  217MPD1    C2 3295   1.125   2.511   8.495  0.1285 -0.3683 -0.6196
  217MPD1    C3 3296   1.230   2.480   8.584 -0.7187  0.0983  0.3537
  217MPD1    C4 3297   1.283   2.350   8.593  0.0168 -0.7483  0.1076
  217MPD1    C5 3298   1.240   2.253   8.506 -0.8738 -0.1991 -0.9037
  217MPD1     H 3299   1.078   2.608   8.487  0.8215 -0.0675 -1.0242
  217MPD1    H1 3300   1.360   2.324   8.664  0.8360  1.2463 -0.0705
  217MPD1    H2 3301   1.105   2.194   8.367  2.1607 -0.8034 -0.6541
  217MPD1    H3 3302   1.276   2.151   8.507  1.5187  0.6645  0.8717
  217MPD1     N 3303   1.291   2.578   8.667 -0.2593  0.3127 -0.0434
  217MPD1    H5 3304   1.361   2.531   8.725  0.5344  0.9326 -0.4973
  217MPD1    N1 3305   0.977   2.426   8.313  0.7351 -0.0591  0.2463
  217MPD1    H6 3306   0.912   2.498   8.345  2.0009  1.2740 -0.1879
  217MPD1    H7 3307   0.921   2.348   8.280  0.7590  0.0975 -0.1579
  218MPD1     C 3308   2.477   3.664  12.630 -0.3137 -0.0487 -0.1329
  218MPD1    C1 3309   2.497   3.777  12.703 -0.9954  0.2979 -0.3394
  218MPD1    C2 3310   2.624   3.812  12.741  0.2251 -0.2549  0.4769
  218MPD1    C3 3311   2.726   3.714  12.731  0.4865  0.1155 -0.5220
  218MPD1    C4 3312   2.703   3.593  12.668 -0.2802 -0.0072 -1.0482
  218MPD1    C5 3313   2.577   3.572  12.624 -0.3265  0.2760 -0.9511
  218MPD1     H 3314   2.638   3.909  12.787 -2.2212  0.6611 -0.6957
  218MPD1    H1 3315   2.778   3.516  12.649 -0.5376 -0.9842  1.8621
  218MPD1    H2 3316   2.376   3.652  12.593 -0.6631  1.0186  0.4703
  218MPD1    H3 3317   2.558   3.471  12.591  1.6688 -0.2096 -0.6310
  218MPD1     N 3318   2.858   3.752  12.772  0.2158  0.5371  0.4356
  218MPD1    H5 3319   2.859   3.851  12.794 -2.8186  1.0943 -1.9136
  218MPD1    N1 3320   2.389   3.868  12.707 -0.5052  0.3290  0.7415
  218MPD1    H6 3321   2.402   3.948  12.769 -2.3726  1.1032  0.1319
  218MPD1    H7 3322   2.296   3.833  12.731 -0.2292 -0.3268  0.8509
  219MPD1     C 3323   3.325   4.441  12.423 -0.3622  0.3055 -0.2335
  219MPD1    C1 3324   3.435   4.377  12.471 -0.2974  0.8683  0.0303
  219MPD1    C2 3325   3.413   4.258  12.542  0.0453  0.7220 -0.0721
  219MPD1    C3 3326   3.281   4.203  12.555  0.0651  0.0318  0.2909
  219MPD1    C4 3327   3.175   4.270  12.497  0.3073  0.0579 -0.1845
  219MPD1    C5 3328   3.201   4.391  12.435 -0.0993  0.6648 -0.3585
  219MPD1     H 3329   3.493   4.198  12.582  0.1476  1.4480  0.8071
  219MPD1    H1 3330   3.079   4.220  12.489 -0.1259  0.9892 -0.8229
  219MPD1    H2 3331   3.331   4.540  12.380 -0.3396  0.3158 -0.2064
  219MPD1    H3 3332   3.118   4.443  12.388 -0.7549  0.2022  0.2892
  219MPD1     N 3333   3.247   4.091  12.627  0.3387  0.5438  0.0065
  219MPD1    H5 3334   3.148   4.072  12.615  0.4591 -0.0700 -0.0381
  219MPD1    N1 3335   3.560   4.438  12.486 -0.2581 -0.0899 -0.4553
  219MPD1    H6 3336   3.576   4.490  12.400  1.1772  0.2149 -0.0104
  219MPD1    H7 3337   3.639   4.374  12.485 -2.1863 -2.4648 -1.1766
  220MPD1     C 3338   2.873   0.763  10.128 -0.3521 -0.0567 -0.1340
  220MPD1    C1 3339   3.010   0.759  10.120 -0.0963 -0.1391  0.2235
  220MPD1    C2 3340   3.071   0.641  10.101  0.2090 -0.7316 -0.3660
  220MPD1    C3 3341   3.009   0.518  10.105  0.0064 -0.2760  0.1663
  220MPD1    C4 3342   2.873   0.528  10.092 -0.7178 -0.7005 -0.5451
  220MPD1    C5 3343   2.804   0.650  10.102 -0.4493  0.6285  1.1791
  220MPD1     H 3344   3.179   0.651  10.092 -0.0680  1.5455 -1.1667
  220MPD1    H1 3345   2.818   0.436  10.081 -0.3761 -0.8966 -0.6171
  220MPD1    H2 3346   2.817   0.856  10.131  0.4956  0.4142  1.1522
  220MPD1    H3 3347   2.696   0.659  10.104 -0.3545  1.8503  0.5749
  220MPD1     N 3348   3.088   0.402  10.090 -0.0738 -0.6689  0.3419
  220MPD1    H5 3349   3.189   0.410  10.088 -0.1049 -0.3343 -0.1294
  220MPD1    N1 3350   3.083   0.878  10.115  0.8815  0.3261  0.6417
  220MPD1    H6 3351   3.177   0.853  10.143  0.2385 -2.1046  0.6305
  220MPD1    H7 3352   3.052   0.950  10.181 -0.6093  0.3908 -0.1173
  221MPD1     C 3353   0.632   3.175  16.557  0.2013 -0.1737  0.1863
  221MPD1    C1 3354   0.605   3.037  16.576  0.4846  0.0851  0.4083
  221MPD1    C2 3355   0.714   2.953  16.577  0.4072  0.2487 -0.1534
  221MPD1    C3 3356   0.844   2.999  16.565  0.2855 -0.0700 -0.4931
  221MPD1    C4 3357   0.863   3.127  16.528  0.4145  0.1243 -0.1199
  221MPD1    C5 3358   0.759   3.214  16.528  0.3211 -0.6588 -0.2769
  221MPD1     H 3359   0.694   2.851  16.609 -1.3060  0.1848 -1.4314
  221MPD1    H1 3360   0.956   3.174  16.498 -0.1922  0.4109 -1.5810
  221MPD1    H2 3361   0.548   3.242  16.546  0.8720  0.4384 -1.2871
  221MPD1    H3 3362   0.795   3.312  16.499  1.7331 -0.9391  0.5374
  221MPD1     N 3363   0.960   2.919  16.563  0.4555 -0.6404 -0.2848
  221MPD1    H5 3364   1.048   2.966  16.548 -0.8136  1.5970 -0.7358
  221MPD1    N1 3365   0.470   2.993  16.583 -0.2112 -0.4514  0.4797
  221MPD1    H6 3366   0.402   3.068  16.592 -2.6848 -2.6787  0.4301
  221MPD1    H7 3367   0.459   2.920  16.653 -0.3414 -0.6861  0.2132
  222MPD1     C 3368   0.883   0.779   0.677 -0.0972 -0.4340  0.0468
  222MPD1    C1 3369   0.889   0.806   0.815 -0.6647  0.1995  0.3364
  222MPD1    C2 3370   0.850   0.934   0.856 -0.2940 -0.5072 -0.2343
  222MPD1    C3 3371   0.792   1.031   0.776  0.0602  0.0482  0.5269
  222MPD1    C4 3372   0.783   0.997   0.642 -0.3921 -0.3327 -1.0291
  222MPD1    C5 3373   0.828   0.876   0.594 -0.0278 -0.7329  0.3839
  222MPD1     H 3374   0.857   0.946   0.964  1.5291  1.1443 -0.5390
  222MPD1    H1 3375   0.756   1.078   0.575 -2.0600 -1.3465 -1.5917
  222MPD1    H2 3376   0.918   0.684   0.638 -3.7221 -2.3337  1.3747
  222MPD1    H3 3377   0.816   0.846   0.491 -1.3845  0.6692  0.1540
  222MPD1     N 3378   0.747   1.164   0.815 -0.2953  0.1917  0.0451
  222MPD1    H5 3379   0.707   1.223   0.743  1.3990  0.4117 -0.7123
  222MPD1    N1 3380   0.959   0.720   0.899 -0.1923  0.3882  0.0747
  222MPD1    H6 3381   0.908   0.729   0.986 -1.4618 -2.6313 -0.3488
  222MPD1    H7 3382   0.948   0.626   0.860 -0.2448  1.9857 -3.7703
  223MPD1     C 3383   0.208   1.831   1.481 -0.0383 -0.1797  0.0344
  223MPD1    C1 3384   0.212   1.879   1.351  0.0242 -0.8581 -0.0502
  223MPD1    C2 3385   0.316   1.831   1.275  0.5038  0.1881  0.6086
  223MPD1    C3 3386   0.376   1.711   1.301 -0.5258 -0.0655  0.6432
  223MPD1    C4 3387   0.357   1.656   1.425  0.6602  0.4217 -0.1376
  223MPD1    C5 3388   0.282   1.728   1.515 -0.1335  0.0582  0.3829
  223MPD1     H 3389   0.348   1.872   1.179  0.3988 -0.7525  0.1628
  223MPD1    H1 3390   0.406   1.566   1.459 -0.6343 -0.2302  0.0111
  223MPD1    H2 3391   0.158   1.875   1.567  0.5992  0.2473  0.1895
  223MPD1    H3 3392   0.276   1.681   1.612 -0.2656 -2.3102 -0.7746
  223MPD1     N 3393   0.460   1.654   1.204 -0.0555  0.0812 -0.3317
  223MPD1    H5 3394   0.464   1.704   1.116  0.3345  1.6014  0.5388
  223MPD1    N1 3395   0.153   2.002   1.324 -0.0354 -0.1561  0.0869
  223MPD1    H6 3396   0.130   2.017   1.226  2.6478 -0.0684 -0.5238
  223MPD1    H7 3397   0.066   2.021   1.375 -1.1998 -4.4296 -0.3198
  224MPD1     C 3398   1.693   3.551   8.728  0.3687 -0.3171 -0.0860
  224MPD1    C1 3399   1.587   3.594   8.804 -0.3428  0.6384  0.3292
  224MPD1    C2 3400   1.594   3.598   8.943  0.0790  0.9797  0.3202
  224MPD1    C3 3401   1.714   3.576   9.000  0.8351  0.0280  0.5715
  224MPD1    C4 3402   1.819   3.528   8.925 -0.3901  0.2879 -0.7625
  224MPD1    C5 3403   1.809   3.513   8.788  0.3603  0.4207 -0.0287
  224MPD1     H 3404   1.501   3.612   8.997  0.9154  1.2711  1.6873
  224MPD1    H1 3405   1.912   3.506   8.975 -0.3503 -0.6375 -1.2351
  224MPD1    H2 3406   1.688   3.545   8.620  1.5158 -0.0843 -0.1513
  224MPD1    H3 3407   1.894   3.473   8.734  0.0960 -0.6474  0.3522
  224MPD1     N 3408   1.727   3.583   9.137 -0.1705  0.2047  0.5000
  224MPD1    H5 3409   1.799   3.522   9.175 -0.2880  0.3712  1.0004
  224MPD1    N1 3410   1.455   3.571   8.754  0.1272  0.1851  0.1003
  224MPD1    H6 3411   1.384   3.623   8.804  0.0682 -0.8767  1.1082
  224MPD1    H7 3412   1.445   3.606   8.659 -2.2086 -0.6327  0.0393
  225MPD1     C 3413   3.409   0.644  12.707  0.2835 -0.6307 -0.2743
  225MPD1    C1 3414   3.279   0.627  12.755 -0.4902 -0.0478  0.2860
  225MPD1    C2 3415   3.173   0.593  12.667  0.2476  0.2207  0.6879
  225MPD1    C3 3416   3.201   0.593  12.525  0.4701 -0.7168 -0.6417
  225MPD1    C4 3417   3.326   0.609  12.480 -0.0123 -0.4535  0.9158
  225MPD1    C5 3418   3.430   0.635  12.572 -0.5598  0.1110  0.0580
  225MPD1     H 3419   3.074   0.580  12.709 -0.7040  1.1870 -1.2824
  225MPD1    H1 3420   3.347   0.602  12.374  1.0838  0.4784  1.0695
  225MPD1    H2 3421   3.494   0.653  12.773 -1.0269 -2.2582  1.6231
  225MPD1    H3 3422   3.530   0.648  12.532 -0.0612 -0.0104  1.2534
  225MPD1     N 3423   3.103   0.573  12.420  0.3533  0.2170 -0.2782
  225MPD1    H5 3424   3.128   0.569  12.322  0.5873 -0.7632 -0.1794
  225MPD1    N1 3425   3.249   0.609  12.891  0.1320  0.1233 -0.0979
  225MPD1    H6 3426   3.156   0.651  12.889  1.1013  2.3177  0.6072
  225MPD1    H7 3427   3.315   0.664  12.946  1.3123 -0.4708 -0.9238
  226MPD1     C 3428   0.293   0.483   9.272 -0.1046 -0.1023  0.7462
  226MPD1    C1 3429   0.332   0.612   9.265  0.3652  0.6747  0.3380
  226MPD1    C2 3430   0.464   0.643   9.249 -0.4536 -0.4510 -0.2375
  226MPD1    C3 3431   0.559   0.546   9.232  0.7891  0.7211  0.6327
  226MPD1    C4 3432   0.521   0.413   9.247 -0.5813  0.2832  0.3864
  226MPD1    C5 3433   0.386   0.383   9.263  0.2526 -0.0250  0.7263
  226MPD1     H 3434   0.500   0.745   9.259  0.5363 -1.1947  3.4754
  226MPD1    H1 3435   0.595   0.333   9.245  2.4259  3.0946 -0.1671
  226MPD1    H2 3436   0.192   0.445   9.282 -0.3638  0.3485 -0.1391
  226MPD1    H3 3437   0.365   0.276   9.267  1.8729 -0.2509  2.9391
  226MPD1     N 3438   0.692   0.587   9.214 -0.1625  0.1849 -0.8228
  226MPD1    H5 3439   0.696   0.687   9.200  2.1530  0.1850 -0.0690
  226MPD1    N1 3440   0.242   0.711   9.254  0.1137 -0.2301  0.1804
  226MPD1    H6 3441   0.150   0.699   9.296  1.0061  0.9721  2.4783
  226MPD1    H7 3442   0.280   0.798   9.290 -1.4888  0.8030 -0.6794
  227MPD1     C 3443   0.830   1.294   8.808 -0.1830  0.7666  0.0760
  227MPD1    C1 3444   0.763   1.178   8.777  0.1951 -0.3865  0.3596
  227MPD1    C2 3445   0.797   1.067   8.852 -0.2864 -0.8316  0.5098
  227MPD1    C3 3446   0.905   1.068   8.934 -0.1044 -0.1195 -0.0587
  227MPD1    C4 3447   0.978   1.188   8.951 -0.5999 -0.0192 -0.2068
  227MPD1    C5 3448   0.928   1.307   8.902  0.0229  0.2956 -0.3156
  227MPD1     H 3449   0.728   0.982   8.851  0.6422 -1.5840  0.4439
  227MPD1    H1 3450   1.054   1.197   9.027  0.0900  1.8339 -1.1137
  227MPD1    H2 3451   0.804   1.387   8.758 -0.2110  0.7667  0.0908
  227MPD1    H3 3452   0.969   1.405   8.924  0.8367 -0.3828  1.2232
  227MPD1     N 3453   0.922   0.944   9.003 -0.2114  0.1848  0.9983
  227MPD1    H5 3454   0.859   0.869   8.978 -0.2492  0.4671  0.2377
  227MPD1    N1 3455   0.644   1.195   8.706  0.0031  0.5845  0.0135
  227MPD1    H6 3456   0.649   1.277   8.646  0.9048 -0.2426 -1.0406
  227MPD1    H7 3457   0.628   1.118   8.641  0.0514  2.8320 -2.6624
  228MPD1     C 3458   0.677   2.439  12.677 -0.3992 -0.4281  0.1378
  228MPD1    C1 3459   0.640   2.575  12.660  0.4742  0.4299  0.2762
  228MPD1    C2 3460   0.513   2.611  12.706 -0.3862  0.6370 -0.5472
  228MPD1    C3 3461   0.419   2.520  12.758 -0.2258 -0.6990 -0.0393
  228MPD1    C4 3462   0.452   2.385  12.757  0.4303  0.6184  0.8228
  228MPD1    C5 3463   0.578   2.348  12.721  0.0566  0.3948  0.1666
  228MPD1     H 3464   0.474   2.712  12.703  1.4692  1.4795  3.3629
  228MPD1    H1 3465   0.375   2.313  12.782  1.9242 -1.0513  0.6369
  228MPD1    H2 3466   0.771   2.392  12.650 -1.3413 -3.6546  2.3206
  228MPD1    H3 3467   0.609   2.245  12.718  1.0097  0.6465  1.5318
  228MPD1     N 3468   0.304   2.569  12.810  0.0083 -0.4869  0.6031
  228MPD1    H5 3469   0.283   2.661  12.772  2.1892 -0.7344 -1.1836
  228MPD1    N1 3470   0.724   2.668  12.588  0.1520 -0.4607 -0.0856
  228MPD1    H6 3471   0.822   2.638  12.581  0.3890  0.9022 -2.4560
  228MPD1    H7 3472   0.714   2.761  12.627  0.7757 -0.9882  1.3443
  229MPD1     C 3473   4.265   1.036  15.144 -0.5613 -0.6388  0.0946
  229MPD1    C1 3474   4.332   1.101  15.251  0.6416  0.0390  0.3568
  229MPD1    C2 3475   4.440   1.038  15.302 -0.2856  0.3974  0.3174
  229MPD1    C3 3476   4.470   0.906  15.270 -0.9336 -0.7277  0.6917
  229MPD1    C4 3477   4.398   0.840  15.172  0.0526  0.1730  0.1817
  229MPD1    C5 3478   4.290   0.908  15.111 -0.6000  0.0877  0.1430
  229MPD1     H 3479   4.503   1.105  15.360 -0.1946  1.2941 -0.8092
  229MPD1    H1 3480   4.406   0.736  15.145  1.1396  0.6391 -1.2655
  229MPD1    H2 3481   4.185   1.091  15.096 -0.7423  1.1241  2.4143
  229MPD1    H3 3482   4.228   0.864  15.034  2.2550 -3.1837 -0.2966
  229MPD1     N 3483   4.594   0.848  15.307  0.1683  0.4797 -0.4889
  229MPD1    H5 3484   4.609   0.760  15.259  1.8804  0.7484 -0.4568
  229MPD1    N1 3485   4.318   1.237  15.271 -0.2671  0.0590  0.0762
  229MPD1    H6 3486   4.227   1.276  15.245  0.3392  0.6701 -1.1264
  229MPD1    H7 3487   4.339   1.268  15.366 -1.1128  0.1004  0.2509
  230MPD1     C 3488   0.772   0.680  15.926 -0.4360 -0.1294  0.2070
  230MPD1    C1 3489   0.776   0.591  15.816  0.2002 -0.2818 -0.1412
  230MPD1    C2 3490   0.676   0.604  15.727  0.2541  0.2278 -0.6544
  230MPD1    C3 3491   0.562   0.685  15.752 -0.1475  0.3639  0.5073
  230MPD1    C4 3492   0.551   0.752  15.867  0.3280  0.1373 -0.3483
  230MPD1    C5 3493   0.657   0.748  15.955 -0.2204  0.1246 -0.1516
  230MPD1     H 3494   0.684   0.546  15.636  0.8284 -0.2852 -0.2776
  230MPD1    H1 3495   0.460   0.807  15.888 -0.5970 -2.5000  2.4660
  230MPD1    H2 3496   0.841   0.684  16.010 -1.7856  1.3606  1.2433
  230MPD1    H3 3497   0.659   0.804  16.047  3.0617  1.3837 -0.9654
  230MPD1     N 3498   0.466   0.692  15.648 -0.2539  0.5527 -0.1637
  230MPD1    H5 3499   0.489   0.636  15.566  0.1366  2.1967 -1.1738
  230MPD1    N1 3500   0.866   0.484  15.812 -0.3670  0.3274  0.2637
  230MPD1    H6 3501   0.886   0.439  15.723  0.2203 -1.1727  1.1617
  230MPD1    H7 3502   0.956   0.521  15.842  0.0304  1.1344 -1.9498
  231MPD1     C 3503   2.296   2.049  15.241 -0.2078 -0.1796  0.1144
  231MPD1    C1 3504   2.310   2.108  15.119  0.1028  0.2167 -0.5431
  231MPD1    C2 3505   2.365   2.233  15.124  0.1095  0.4835  0.4327
  231MPD1    C3 3506   2.402   2.299  15.246 -0.8029  0.8333 -0.0567
  231MPD1    C4 3507   2.373   2.238  15.366 -0.7517  0.5093 -0.4182
  231MPD1    C5 3508   2.318   2.115  15.361  0.3906 -0.3702 -0.5525
  231MPD1     H 3509   2.398   2.282  15.033 -0.6065 -0.1891 -0.1910
  231MPD1    H1 3510   2.388   2.295  15.457 -1.0018  0.7411 -0.5237
  231MPD1    H2 3511   2.262   1.946  15.241  2.1625 -0.9413 -0.2462
  231MPD1    H3 3512   2.296   2.063  15.454 -2.1256  0.6151 -0.6038
  231MPD1     N 3513   2.463   2.423  15.234  0.3239  0.4053  0.5771
  231MPD1    H5 3514   2.471   2.457  15.139 -0.2386  1.3195  0.8526
  231MPD1    N1 3515   2.308   2.032  15.004  0.3005  0.3536 -0.0790
  231MPD1    H6 3516   2.251   1.948  15.002 -1.1015  1.3228 -0.7086
  231MPD1    H7 3517   2.304   2.083  14.915 -2.6713 -0.0431 -0.1609
  232MPD1     C 3518   1.079   4.625   0.266 -0.9176  0.1906 -0.1284
  232MPD1    C1 3519   1.056   0.019   0.329 -0.4477  0.5232  0.3738
  232MPD1    C2 3520   0.926   0.065   0.335  0.3470  0.4547  0.3335
  232MPD1    C3 3521   0.826   4.720   0.268  0.1951 -0.0930 -0.0921
  232MPD1    C4 3522   0.857   4.616   0.180  0.4459  0.2580  0.7957
  232MPD1    C5 3523   0.983   4.569   0.191  0.4523  0.2526 -0.2169
  232MPD1     H 3524   0.905   0.152   0.395 -1.9689 -0.2615  0.5809
  232MPD1    H1 3525   0.782   4.584   0.109  1.0980 -1.6501  0.9596
  232MPD1    H2 3526   1.175   4.573   0.271 -0.9775 -0.0944 -2.1858
  232MPD1    H3 3527   0.999   4.481   0.130  1.7388  1.1939 -1.2211
  232MPD1     N 3528   0.699   0.052   0.275 -0.3878 -0.1425  0.3509
  232MPD1    H5 3529   0.685   0.131   0.337  2.9816  0.9948 -0.3251
  232MPD1    N1 3530   1.162   0.069   0.411  0.3265  0.8438 -0.3947
  232MPD1    H6 3531   1.252   0.052   0.366  1.3986  0.1119  1.9982
  232MPD1    H7 3532   1.160   0.161   0.454 -1.5106 -0.0208  1.3847
  233MPD1     C 3533   0.825   4.685   1.005 -0.1240 -0.2566 -1.0697
  233MPD1    C1 3534   0.770   4.562   1.006 -0.0838 -0.1933  0.8094
  233MPD1    C2 3535   0.833   4.465   1.075 -0.5842 -0.7306  0.5748
  233MPD1    C3 3536   0.959   4.483   1.134  0.1525 -0.6172 -0.1562
  233MPD1    C4 3537   1.015   4.612   1.126 -0.1871  0.1012  0.2340
  233MPD1    C5 3538   0.942   4.709   1.065 -0.0485 -0.1610 -0.3006
  233MPD1     H 3539   0.783   4.369   1.078 -1.1064 -0.5023 -0.7500
  233MPD1    H1 3540   1.111   4.636   1.171  0.1284  0.1859 -0.4898
  233MPD1    H2 3541   0.771   0.043   0.955  0.0686  0.8615  0.5168
  233MPD1    H3 3542   0.962   0.094   1.072 -1.3307 -0.0752  1.8349
  233MPD1     N 3543   1.030   4.377   1.203 -0.1995  0.0192 -0.0350
  233MPD1    H5 3544   1.121   4.403   1.240  0.0840  1.2814 -1.6493
  233MPD1    N1 3545   0.640   4.543   0.949  0.2254  0.0112  0.2671
  233MPD1    H6 3546   0.612   4.603   0.872 -0.1159 -2.1086 -1.2389
  233MPD1    H7 3547   0.642   4.444   0.925  2.1370  0.5016 -1.5545
  234MPD1     C 3548   2.675   2.040   9.509  0.2152  0.1662 -0.3458
  234MPD1    C1 3549   2.640   2.099   9.392  0.5894  0.0666 -0.8104
  234MPD1    C2 3550   2.550   2.204   9.397 -0.2285  0.1430  0.1300
  234MPD1    C3 3551   2.498   2.258   9.517  0.3423 -0.1375  0.5246
  234MPD1    C4 3552   2.514   2.176   9.630  0.5511 -0.5559  0.1263
  234MPD1    C5 3553   2.607   2.079   9.621  0.3026 -0.5592 -0.3451
  234MPD1     H 3554   2.539   2.248   9.298 -0.8235  0.4833  0.3424
  234MPD1    H1 3555   2.463   2.196   9.724  0.2363 -1.3571  0.1270
  234MPD1    H2 3556   2.737   1.952   9.519 -0.4871 -0.5681 -2.4780
  234MPD1    H3 3557   2.633   2.022   9.710 -0.8188 -3.7232 -2.0104
  234MPD1     N 3558   2.418   2.371   9.503 -0.2397  0.1918  0.3966
  234MPD1    H5 3559   2.405   2.398   9.406 -0.8549 -1.9746 -0.1318
  234MPD1    N1 3560   2.665   2.038   9.272  0.0042  0.3883 -0.4722
  234MPD1    H6 3561   2.675   2.105   9.197  0.0536  1.0910  0.1641
  234MPD1    H7 3562   2.760   2.002   9.276 -0.7546 -1.4688  1.2939
  235MPD1     C 3563   4.618   3.991   9.522 -1.1002  0.7363 -0.2298
  235MPD1    C1 3564   4.531   3.987   9.418 -0.3914 -0.2175 -1.0619
  235MPD1    C2 3565   4.511   3.866   9.353 -0.0466 -0.1684  0.7613
  235MPD1    C3 3566   4.574   3.750   9.389 -0.2834 -0.5318  0.1685
  235MPD1    C4 3567   4.664   3.757   9.497  0.2652  0.3496 -0.0293
  235MPD1    C5 3568   4.688   3.879   9.554  0.0175  0.7166 -0.9059
  235MPD1     H 3569   4.443   3.857   9.269  1.4982 -0.8376 -0.4128
  235MPD1    H1 3570   4.705   3.668   9.542  1.3191  0.0093 -1.6971
  235MPD1    H2 3571   4.635   4.077   9.585 -0.2657 -1.4180  2.4933
  235MPD1    H3 3572   0.032   3.875   9.641  0.5396 -1.3981 -1.4066
  235MPD1     N 3573   4.539   3.623   9.326 -0.0700 -0.1957 -0.3517
  235MPD1    H5 3574   4.496   3.644   9.237 -0.5857 -0.9399 -0.2747
  235MPD1    N1 3575   4.450   4.090   9.379  0.0212 -0.6532  0.9630
  235MPD1    H6 3576   4.490   4.182   9.399  0.1696 -0.1853 -1.4911
  235MPD1    H7 3577   4.443   4.079   9.278 -3.5686  1.2770  0.9988
  236MPD1     C 3578   2.509   1.599   9.538  0.0894 -0.0745  0.3846
  236MPD1    C1 3579   2.602   1.691   9.496  0.0879 -0.1333  0.4137
  236MPD1    C2 3580   2.710   1.720   9.578  0.1111 -0.0470  0.8566
  236MPD1    C3 3581   2.717   1.673   9.710 -0.1570 -0.5606  0.4625
  236MPD1    C4 3582   2.617   1.588   9.756 -0.2283 -0.1494 -0.1608
  236MPD1    C5 3583   2.518   1.549   9.669 -0.3197 -0.1210  0.7792
  236MPD1     H 3584   2.798   1.765   9.534 -0.7535  0.3256 -0.5133
  236MPD1    H1 3585   2.623   1.542   9.854 -1.7455  1.7026  0.7968
  236MPD1    H2 3586   2.433   1.571   9.467  0.3167  2.2399 -0.7729
  236MPD1    H3 3587   2.444   1.487   9.717 -4.2895  4.1881  0.1928
  236MPD1     N 3588   2.823   1.701   9.793  0.0412  0.1664  0.3665
  236MPD1    H5 3589   2.839   1.660   9.884 -1.1580 -0.2942  0.3769
  236MPD1    N1 3590   2.597   1.723   9.359  0.3693  0.3266  0.2223
  236MPD1    H6 3591   2.630   1.817   9.340 -0.5604 -0.0551 -3.2658
  236MPD1    H7 3592   2.513   1.700   9.306  0.3433  1.9433 -0.4289
  237MPD1     C 3593   3.340   0.077  15.618  0.2467  0.6052 -0.4134
  237MPD1    C1 3594   3.337   0.013  15.500 -0.2181  0.6266  0.2531
  237MPD1    C2 3595   3.271   4.623  15.485 -0.5375  0.3540  0.3012
  237MPD1    C3 3596   3.194   4.577  15.585  0.6573 -0.9263 -0.7478
  237MPD1    C4 3597   3.186   4.643  15.703 -0.0583 -0.2382  0.3352
  237MPD1    C5 3598   3.258   0.037  15.724 -1.0308 -0.3174 -0.2663
  237MPD1     H 3599   3.280   4.563  15.395  0.1064 -0.7377  1.0988
  237MPD1    H1 3600   3.131   4.601  15.786 -0.2312 -1.6308 -0.4929
  237MPD1    H2 3601   3.414   0.154  15.633 -0.1180  0.8973 -0.1111
  237MPD1    H3 3602   3.268   0.077  15.824  0.3489 -0.9143 -0.1593
  237MPD1     N 3603   3.119   4.450  15.576 -0.1058 -0.0716  0.7618
  237MPD1    H5 3604   3.071   4.434  15.664 -1.0986  1.2374  0.4750
  237MPD1    N1 3605   3.428   0.047  15.394 -0.6216 -0.1179 -0.7683
  237MPD1    H6 3606   3.439   0.148  15.395 -0.0696 -0.1992  0.0972
  237MPD1    H7 3607   3.377   0.026  15.308  1.1623  0.3635 -1.9302
  238MPD1     C 3608   4.717   3.230  15.829  0.3650 -0.6846  0.2715
  238MPD1    C1 3609   4.665   3.104  15.843  0.1511 -0.5981  0.2671
  238MPD1    C2 3610   4.608   3.048  15.729 -0.1927  0.1536 -0.0008
  238MPD1    C3 3611   4.567   3.129  15.625 -0.1501 -0.1168 -0.5429
  238MPD1    C4 3612   4.596   3.260  15.626  0.3293 -0.0250  0.7018
  238MPD1    C5 3613   4.679   3.307  15.725  0.2082 -0.5334  0.1608
  238MPD1     H 3614   4.565   2.949  15.734  0.3756 -0.1872 -1.8240
  238MPD1    H1 3615   4.574   3.331  15.548  3.1147  2.5738  2.2832
  238MPD1    H2 3616   0.055   3.281  15.903  0.7490  0.4123 -0.7857
  238MPD1    H3 3617   4.716   3.408  15.721  0.6832 -0.7046  0.2987
  238MPD1     N 3618   4.481   3.083  15.513  0.1261  0.0464  0.0128
  238MPD1    H5 3619   4.453   3.159  15.452 -1.0588 -1.5050 -1.3479
  238MPD1    N1 3620   4.710   3.025  15.953 -0.0161 -0.3426  0.0644
  238MPD1    H6 3621   0.013   3.073  16.040  1.3950  0.6110 -0.8679
  238MPD1    H7 3622   4.654   2.944  15.980 -1.8800  0.6367 -0.8794
  239MPD1     C 3623   0.651   3.824  15.364 -0.0821 -0.4001  0.8531
  239MPD1    C1 3624   0.513   3.840  15.391 -0.5543 -0.1273  0.2675
  239MPD1    C2 3625   0.426   3.835  15.282  0.1222  0.0455  0.0676
  239MPD1    C3 3626   0.476   3.824  15.154  0.2653 -0.6172 -0.5654
  239MPD1    C4 3627   0.613   3.819  15.136  0.1061  0.2123  0.0629
  239MPD1    C5 3628   0.695   3.808  15.240  0.0644 -0.2976 -0.0721
  239MPD1     H 3629   0.320   3.846  15.301  0.3155 -0.9011  1.7054
  239MPD1    H1 3630   0.650   3.820  15.034  2.5204  0.9075  0.9415
  239MPD1    H2 3631   0.724   3.830  15.444  0.0398 -1.8465  0.8435
  239MPD1    H3 3632   0.801   3.791  15.221  0.5284  0.6717  1.6183
  239MPD1     N 3633   0.393   3.835  15.037 -0.9522 -0.1123  0.3894
  239MPD1    H5 3634   0.445   3.818  14.951  2.4496  1.2468  2.1618
  239MPD1    N1 3635   0.478   3.867  15.523  0.0817  0.0560 -0.5418
  239MPD1    H6 3636   0.380   3.846  15.542 -0.0986  0.7824 -0.6374
  239MPD1    H7 3637   0.537   3.819  15.590 -0.6765  0.8639  0.7239
  240MPD1     C 3638   4.188   3.881  14.488 -0.3370  0.0132 -0.0731
  240MPD1    C1 3639   4.089   3.802  14.455  0.0191  0.1425  0.4525
  240MPD1    C2 3640   4.053   3.698  14.537  0.5411 -0.1335 -0.1769
  240MPD1    C3 3641   4.123   3.681  14.659 -0.3625 -0.0110 -0.3289
  240MPD1    C4 3642   4.235   3.759  14.681 -0.2017 -0.2990 -0.2545
  240MPD1    C5 3643   4.265   3.857  14.596  0.1080 -0.4862 -0.1597
  240MPD1     H 3644   3.961   3.643  14.521  0.7816 -0.6105  0.0723
  240MPD1    H1 3645   4.293   3.744  14.771 -0.6658  1.3450  0.3242
  240MPD1    H2 3646   4.226   3.960  14.424  0.6774 -1.6526 -1.5076
  240MPD1    H3 3647   4.359   3.910  14.609 -1.5717  2.1001  1.5553
  240MPD1     N 3648   4.068   3.583  14.745  0.6694 -0.0489 -0.0613
  240MPD1    H5 3649   3.993   3.527  14.706 -0.3844 -0.4310  2.5205
  240MPD1    N1 3650   4.019   3.823  14.336  0.2203  0.1645  0.3391
  240MPD1    H6 3651   4.030   3.921  14.310 -0.3355  0.3282  0.7063
  240MPD1    H7 3652   3.920   3.811  14.358 -0.1272 -1.0238 -1.8189
  241MPD1     C 3653   3.940   3.704  15.675 -0.2912 -0.1432 -0.5365
  241MPD1    C1 3654   3.896   3.577  15.668 -0.1109  0.3679 -0.0478
  241MPD1    C2 3655   3.940   3.511  15.555  0.7392  0.4110  0.4768
  241MPD1    C3 3656   4.028   3.564  15.466 -0.2925 -0.3384  0.1764
  241MPD1    C4 3657   4.092   3.678  15.494 -0.2409 -0.5362  1.2804
  241MPD1    C5 3658   4.030   3.759  15.592  0.2297  0.0428 -0.4732
  241MPD1     H 3659   3.883   3.422  15.534 -2.4823  2.2718  1.2344
  241MPD1    H1 3660   4.172   3.716  15.431 -0.2033 -0.3699  1.4293
  241MPD1    H2 3661   3.890   3.767  15.748  0.5738 -0.6685  0.5072
  241MPD1    H3 3662   4.058   3.862  15.610  3.8031 -1.4207  2.2810
  241MPD1     N 3663   4.058   3.500  15.344  0.2684  0.1162  0.2939
  241MPD1    H5 3664   4.120   3.550  15.282  1.8649 -3.1110 -0.7166
  241MPD1    N1 3665   3.790   3.536  15.748  0.1812  0.0304 -0.1532
  241MPD1    H6 3666   3.794   3.576  15.842 -0.5227  0.9503 -0.5200
  241MPD1    H7 3667   3.787   3.434  15.752 -0.9783  0.1044  0.5912
  242MPD1     C 3668   3.938   2.363  15.399  0.0356  0.5868  0.1224
  242MPD1    C1 3669   3.824   2.278  15.395 -0.4901  0.6001  0.1168
  242MPD1    C2 3670   3.847   2.148  15.356  0.3284  0.1492  0.8239
  242MPD1    C3 3671   3.969   2.087  15.349 -0.6119 -1.3302 -0.3918
  242MPD1    C4 3672   4.077   2.165  15.368  0.5845  0.5350  0.1331
  242MPD1    C5 3673   4.064   2.298  15.387  0.2162 -0.0197  0.2309
  242MPD1     H 3674   3.757   2.088  15.340 -1.3009  3.2823 -1.5628
  242MPD1    H1 3675   4.175   2.118  15.377 -0.7853 -1.8298  2.4088
  242MPD1    H2 3676   3.938   2.469  15.421  1.2949  0.4686  0.6843
  242MPD1    H3 3677   4.151   2.358  15.411 -0.2284  0.3234  1.0027
  242MPD1     N 3678   3.985   1.949  15.333 -0.4131 -0.1306  0.1297
  242MPD1    H5 3679   4.084   1.926  15.332 -0.5582 -0.6616 -2.1985
  242MPD1    N1 3680   3.697   2.333  15.398 -0.4337 -0.5734  0.4379
  242MPD1    H6 3681   3.701   2.420  15.451 -0.6326 -0.1910 -0.1766
  242MPD1    H7 3682   3.620   2.270  15.419 -0.8640  0.3952  1.8036
  243MPD1     C 3683   1.438   1.811  17.375 -0.1475 -0.4267 -0.7036
  243MPD1    C1 3684   1.512   1.747  17.462  0.0915 -0.8292 -0.0910
  243MPD1    C2 3685   1.536   1.615  17.443 -0.1403  0.2761  0.3258
  243MPD1    C3 3686   1.498   1.543  17.334 -0.5934 -0.2626 -0.4958
  243MPD1    C4 3687   1.431   1.610  17.237  0.1678 -0.4002 -1.0008
  243MPD1    C5 3688   1.407   1.745  17.261  0.0060 -0.5180  0.3669
  243MPD1     H 3689   1.593   1.559  17.517 -2.4023 -0.7721  1.2919
  243MPD1    H1 3690   1.388   1.564  17.148 -2.7416 -2.1394  1.3033
  243MPD1    H2 3691   1.419   1.917  17.389  0.0564 -0.4141 -0.5183
  243MPD1    H3 3692   1.362   1.809  17.186 -1.8344 -1.9080  0.2749
  243MPD1     N 3693   1.533   1.410  17.321 -0.0533  0.2065  0.0899
  243MPD1    H5 3694   1.590   1.375  17.398  1.8483  1.7747 -0.5999
  243MPD1    N1 3695   1.541   1.808  17.584  0.3177 -0.2463  0.6214
  243MPD1    H6 3696   1.565   1.905  17.563  0.1051 -0.4335 -0.4500
  243MPD1    H7 3697   1.620   1.758  17.624  1.4820  0.6125 -0.6182
  244MPD1     C 3698   1.849   0.913   0.275 -0.1599  0.2697 -0.1046
  244MPD1    C1 3699   1.895   1.026   0.204 -0.4334  0.7269  0.2420
  244MPD1    C2 3700   1.843   1.051   0.081  0.2804 -0.6291 -0.2568
  244MPD1    C3 3701   1.753   0.956   0.016  1.0844 -0.2554  0.1648
  244MPD1    C4 3702   1.723   0.841   0.078  0.4801 -0.2866  0.2478
  244MPD1    C5 3703   1.768   0.823   0.206 -0.0495 -0.0169 -0.2095
  244MPD1     H 3704   1.862   1.149   0.040 -2.6816  0.1257  0.1735
  244MPD1    H1 3705   1.657   0.768   0.033 -1.2593  0.3810  1.6990
  244MPD1    H2 3706   1.891   0.894   0.373 -0.5711 -1.3410 -0.2427
  244MPD1    H3 3707   1.742   0.740   0.271  0.9276 -0.5466 -0.5022
  244MPD1     N 3708   1.705   0.995  17.589  0.3445  0.3561 -0.1507
  244MPD1    H5 3709   1.748   1.080  17.555  1.6980  0.5328  1.9977
  244MPD1    N1 3710   1.959   1.138   0.272 -0.5420  0.1876 -0.1513
  244MPD1    H6 3711   2.019   1.101   0.345 -0.1394  0.3362 -0.4041
  244MPD1    H7 3712   2.020   1.190   0.209  0.3855 -0.0718  0.5502
  245MPD1     C 3713   2.530   0.785  13.019 -0.1976 -0.0345  0.8194
  245MPD1    C1 3714   2.597   0.903  12.995  0.0674 -0.5245 -0.1118
  245MPD1    C2 3715   2.639   0.985  13.100 -0.0855  0.2483 -0.9536
  245MPD1    C3 3716   2.622   0.949  13.230  0.6922 -0.0948  0.0063
  245MPD1    C4 3717   2.560   0.828  13.258 -0.3271  0.1523 -0.4949
  245MPD1    C5 3718   2.519   0.746  13.149  0.2797 -0.1451  0.6923
  245MPD1     H 3719   2.685   1.080  13.075  1.4569 -0.6506 -1.5337
  245MPD1    H1 3720   2.530   0.803  13.359  0.7524 -1.2866 -0.5420
  245MPD1    H2 3721   2.494   0.721  12.940  1.3071  2.8888 -2.2139
  245MPD1    H3 3722   2.450   0.665  13.167  0.5361  0.0140  2.3953
  245MPD1     N 3723   2.664   1.048  13.329  0.3112 -0.2833 -0.3773
  245MPD1    H5 3724   2.697   1.140  13.300 -2.3146  0.8872  0.3049
  245MPD1    N1 3725   2.584   0.953  12.864 -0.1153 -0.1211  0.7106
  245MPD1    H6 3726   2.580   0.874  12.799  4.7800  0.5378 -0.4017
  245MPD1    H7 3727   2.662   1.010  12.833  0.2104 -0.8031  0.2682
  246MPD1     C 3728   2.026   3.882   9.073 -1.0574  0.5995 -0.0338
  246MPD1    C1 3729   2.102   3.953   9.162 -0.7283  0.1044  0.6793
  246MPD1    C2 3730   2.218   3.892   9.212  0.0390 -0.4472 -0.4724
  246MPD1    C3 3731   2.256   3.768   9.176 -0.6519 -0.2191  0.0957
  246MPD1    C4 3732   2.168   3.705   9.083  0.5452 -0.4166 -0.8361
  246MPD1    C5 3733   2.058   3.760   9.032  0.6139 -0.7462  0.2773
  246MPD1     H 3734   2.278   3.951   9.280  0.4840 -2.1143  0.5486
  246MPD1    H1 3735   2.197   3.615   9.029 -1.3856 -0.1814 -2.2767
  246MPD1    H2 3736   1.940   3.927   9.025 -0.2075  0.6853 -1.4842
  246MPD1    H3 3737   1.994   3.702   8.966  1.1998 -0.2791 -0.7052
  246MPD1     N 3738   2.371   3.710   9.227 -0.0628 -0.2191 -0.0231
  246MPD1    H5 3739   2.417   3.759   9.303  1.0578  0.1116 -0.9238
  246MPD1    N1 3740   2.076   4.092   9.176  0.3652 -0.1755 -0.5819
  246MPD1    H6 3741   2.111   4.126   9.265  1.2572  0.5125 -1.1899
  246MPD1    H7 3742   1.980   4.123   9.159  1.4012  2.6067 -1.3777
  247MPD1     C 3743   1.583   0.554  15.820  0.2084  0.1514 -0.0968
  247MPD1    C1 3744   1.588   0.496  15.942  0.0910 -0.4395 -0.7962
  247MPD1    C2 3745   1.714   0.470  15.989  0.7351  0.7975  0.1803
  247MPD1    C3 3746   1.830   0.479  15.911 -0.5954 -0.9439 -0.2693
  247MPD1    C4 3747   1.818   0.527  15.778 -0.0732 -0.1224  0.3090
  247MPD1    C5 3748   1.693   0.574  15.740 -0.7257  0.1458  0.4377
  247MPD1     H 3749   1.717   0.437  16.093 -1.6920 -2.1305 -0.6676
  247MPD1    H1 3750   1.900   0.541  15.707 -0.5980  1.2811 -0.0231
  247MPD1    H2 3751   1.489   0.587  15.777  0.5592 -0.8074 -1.5827
  247MPD1    H3 3752   1.677   0.616  15.641 -1.4159 -1.0740  0.0201
  247MPD1     N 3753   1.957   0.442  15.959 -0.2943 -0.7982  0.3354
  247MPD1    H5 3754   2.029   0.453  15.888  1.6035  2.5898  2.7986
  247MPD1    N1 3755   1.469   0.493  16.023  0.8526 -0.2595  0.2211
  247MPD1    H6 3756   1.468   0.412  16.086 -1.8864 -1.7888 -1.8027
  247MPD1    H7 3757   1.381   0.496  15.973  0.2821 -0.5512  1.1904
  248MPD1     C 3758   1.866   4.625   0.135  0.2736 -0.5828  0.2935
  248MPD1    C1 3759   1.993   4.594   0.180 -0.3889  0.2908 -0.0982
  248MPD1    C2 3760   2.088   4.693   0.169 -0.3470 -0.4685  0.1215
  248MPD1    C3 3761   2.061   0.081   0.096 -0.7535 -0.5640 -0.0736
  248MPD1    C4 3762   1.943   0.101   0.042 -0.3361  0.0552 -0.3315
  248MPD1    C5 3763   1.843   0.015   0.065 -0.4599  0.4590 -0.0934
  248MPD1     H 3764   2.186   4.669   0.209  0.6892  0.1244 -2.0545
  248MPD1    H1 3765   1.925   0.191  17.675 -0.9000  1.6887  2.4256
  248MPD1    H2 3766   1.784   4.554   0.138 -1.0713  0.9530  0.0781
  248MPD1    H3 3767   1.746   0.025   0.018  0.4880 -1.6991 -2.4653
  248MPD1     N 3768   2.171   0.172   0.068 -0.0650 -0.1837 -0.6233
  248MPD1    H5 3769   2.260   0.145   0.109  0.0568 -0.9589 -1.3898
  248MPD1    N1 3770   2.019   4.480   0.257  0.0114  0.2865 -0.2592
  248MPD1    H6 3771   1.953   4.404   0.241  0.7185 -0.9964  2.9819
  248MPD1    H7 3772   2.112   4.441   0.247  1.0213  2.4876  0.5625
  249MPD1     C 3773   3.688   4.369   9.593 -0.2166 -0.4604 -0.2110
  249MPD1    C1 3774   3.785   4.467   9.609  0.7609 -0.4558 -0.6953
  249MPD1    C2 3775   3.747   4.601   9.588  0.2506  0.0244  0.0532
  249MPD1    C3 3776   3.619   4.642   9.551 -0.8088 -0.2199 -0.0707
  249MPD1    C4 3777   3.525   4.543   9.534 -0.0612 -0.7007  0.2939
  249MPD1    C5 3778   3.560   4.413   9.564  0.5519  0.4091 -0.6771
  249MPD1     H 3779   3.822   4.676   9.609  0.6853 -0.5825  0.6522
  249MPD1    H1 3780   3.423   4.554   9.501  0.5754  0.0481 -1.4659
  249MPD1    H2 3781   3.704   4.263   9.612  0.4721  0.1123  2.3153
  249MPD1    H3 3782   3.481   4.340   9.549  1.2360  0.2162 -3.2514
  249MPD1     N 3783   3.597   0.059   9.534  0.3559  0.1723 -0.3681
  249MPD1    H5 3784   3.675   0.123   9.545 -0.8978  1.7404 -0.7062
  249MPD1    N1 3785   3.911   4.441   9.671 -0.2138  0.0466  0.0260
  249MPD1    H6 3786   3.981   4.506   9.637  1.9670 -1.0840  2.3739
  249MPD1    H7 3787   3.952   4.354   9.638 -0.6674  0.2149 -0.9771
  250MPD2     C 3788   1.322   3.994  12.763 -0.4978 -0.4722  0.4146
  250MPD2    C1 3789   1.246   4.090  12.691  0.8436 -0.5966 -0.0301
  250MPD2    C2 3790   1.179   4.046  12.573  0.4264  0.0205  0.4802
  250MPD2    C3 3791   1.186   3.909  12.540 -0.2173 -0.6833  0.4000
  250MPD2    C4 3792   1.257   3.819  12.612 -0.2183 -0.3728 -0.2577
  250MPD2    C5 3793   1.328   3.861  12.719 -0.2111 -0.7696  0.4931
  250MPD2     H 3794   1.139   4.111  12.497  1.4202  1.8788  1.5443
  250MPD2    H1 3795   1.264   3.717  12.576 -2.8504 -0.0031 -1.8445
  250MPD2    H2 3796   1.394   4.036  12.832 -0.8399  1.6716 -0.5126
  250MPD2    H3 3797   1.407   3.793  12.751  0.4029  0.3057  1.2737
  250MPD2     N 3798   1.111   3.871  12.426 -0.0710  0.4617  0.4523
  250MPD2    H5 3799   1.067   3.950  12.379  0.2143  0.8448  0.8268
  250MPD2    N1 3800   1.252   4.223  12.739  0.1972 -0.2894 -0.2484
  250MPD2    H7 3801   1.314   4.248  12.815  0.8436 -0.1007 -0.8366
  251TMC3    C1 3802   1.186   4.441  12.754  0.4534 -0.4049 -0.4775
  251TMC3    C2 3803   1.064   4.498  12.794  0.5871 -0.0873 -0.0108
  251TMC3    C3 3804   1.065   4.617  12.861  0.2845  0.0696 -0.2704
  251TMC3    C4 3805   1.305   4.492  12.795 -0.6233  0.0780 -0.0332
  251TMC3    C5 3806   1.299   4.612  12.863  0.8135  0.0383 -0.8906
  251TMC3    C6 3807   1.183   4.678  12.897  0.2685  0.8854  0.2650
  251TMC3     C 3808   1.177   4.323  12.673  0.0595 -0.0108 -0.1601
  251TMC3     O 3809   1.088   4.318  12.591 -0.3512 -0.0401  0.1851
  251TMC3     H 3810   0.976   4.447  12.756 -1.2645  0.8045  3.0075
  251TMC3    H1 3811   1.403   4.447  12.785 -0.2305  0.6952  1.0811
  251TMC3    H2 3812   1.186   0.049  12.953 -0.2652 -0.4441  2.4984
  251TMC3    C7 3813   1.410   4.667  12.925  0.3160  0.6330 -0.3198
  251TMC3    C8 3814   0.950   4.698  12.893  0.0364 -0.6869 -0.2712
  251TMC3    O1 3815   1.448   4.601  13.016 -0.3477  0.6194  0.2211
  251TMC3    O2 3816   0.978   0.063  12.977  0.6038 -0.5709  0.0689
  252TMC3    C1 3817   0.788   1.414   9.197 -0.5825  0.2537 -0.3726
  252TMC3    C2 3818   0.915   1.453   9.204 -0.1065  0.2211 -0.1996
  252TMC3    C3 3819   0.997   1.364   9.264  0.5816  0.0449 -0.6739
  252TMC3    C4 3820   0.744   1.292   9.222 -0.6037 -0.3211  0.4938
  252TMC3    C5 3821   0.829   1.203   9.280  0.3616  0.2026  0.1263
  252TMC3    C6 3822   0.960   1.238   9.303 -0.6004  0.4216 -0.5360
  252TMC3     C 3823   0.690   1.516   9.156  0.3327 -0.3028 -0.5756
  252TMC3     O 3824   0.596   1.481   9.082 -0.3398  0.3499  0.0063
  252TMC3     H 3825   0.946   1.554   9.182  0.5037 -0.1122 -0.8721
  252TMC3    H1 3826   0.643   1.261   9.199 -0.3043 -1.1462  0.2791
  252TMC3    H2 3827   1.033   1.163   9.328  0.4341  1.0138 -1.7796
  252TMC3    C7 3828   0.772   1.082   9.329 -0.4493 -0.3528  0.3440
  252TMC3    C8 3829   1.138   1.385   9.250 -0.0298  0.0132  0.2888
  252TMC3    O1 3830   0.652   1.065   9.315 -0.2146 -0.2944  0.2921
  252TMC3    O2 3831   1.173   1.464   9.165 -0.3035 -0.0980  0.2378
  253MPD2     C 3832   2.374   4.089  15.690 -0.2439  0.2369  0.3974
  253MPD2    C1 3833   2.244   4.041  15.684  0.6591  0.2931  0.0480
  253MPD2    C2 3834   2.156   4.059  15.794 -0.0712  0.4832 -0.3126
  253MPD2    C3 3835   2.204   4.133  15.904  0.0591  0.0006 -0.1829
  253MPD2    C4 3836   2.332   4.175  15.912  0.1819  0.3095  0.4528
  253MPD2    C5 3837   2.416   4.154  15.807  0.1899 -0.5161 -0.1114
  253MPD2     H 3838   2.052   4.030  15.786 -0.0466  0.7857 -1.6844
  253MPD2    H1 3839   2.377   4.230  15.994 -1.3952  0.0471  1.4901
  253MPD2    H2 3840   2.436   4.095  15.602 -1.7731 -1.6731 -0.7946
  253MPD2    H3 3841   2.516   4.196  15.812  0.2454 -0.3982 -2.2253
  253MPD2     N 3842   2.121   4.165  16.016 -0.2236 -0.5246 -0.0766
  253MPD2    H5 3843   2.172   4.211  16.091  1.6159  1.3648 -2.4672
  253MPD2    N1 3844   2.190   3.989  15.559 -0.8110 -0.5101 -0.6625
  253MPD2    H7 3845   2.092   3.964  15.573 -0.4473 -1.6403 -0.1725
  254TMC3    C1 3846   1.952   4.171  16.159  0.0469  0.1396  0.1228
  254TMC3    C2 3847   1.821   4.216  16.178 -0.6450 -0.2739  0.3741
  254TMC3    C3 3848   1.785   4.260  16.310  0.5499  0.6349  0.4862
  254TMC3    C4 3849   2.041   4.164  16.260 -0.1800 -0.5962 -0.4114
  254TMC3    C5 3850   1.996   4.192  16.387 -0.5708  0.8935  0.0371
  254TMC3    C6 3851   1.872   4.240  16.419  0.9319  0.6475 -0.2597
  254TMC3     C 3852   1.990   4.140  16.028  0.4095  0.1613 -0.2415
  254TMC3     O 3853   1.905   4.115  15.944  0.2312  0.2182  0.1841
  254TMC3     H 3854   1.765   4.250  16.091 -0.7479 -0.1274  0.4975
  254TMC3    H1 3855   2.135   4.114  16.240 -0.1848 -0.9572  0.4370
  254TMC3    H2 3856   1.852   4.274  16.520  0.7231 -0.7929  0.1725
  254TMC3    C7 3857   2.096   4.212  16.498 -0.7245  0.6270  0.1527
  254TMC3    C8 3858   1.713   4.385  16.323  0.3677  0.1682 -0.3645
  254TMC3    O1 3859   2.056   4.199  16.612  0.1920  0.3863 -0.3361
  254TMC3    O2 3860   1.685   4.419  16.437 -0.2478 -0.0457  0.4654
  255MPD2     C 3861   0.512   2.571  10.649  0.1180 -0.1647 -0.4435
  255MPD2    C1 3862   0.444   2.542  10.535 -0.5049 -0.1867 -0.3458
  255MPD2    C2 3863   0.476   2.425  10.468  0.1738  0.1984  0.0882
  255MPD2    C3 3864   0.572   2.337  10.518  0.2737  0.7735  0.5826
  255MPD2    C4 3865   0.636   2.367  10.632  0.0976  0.6819 -0.7904
  255MPD2    C5 3866   0.606   2.486  10.699 -0.4455 -0.3983  0.0650
  255MPD2     H 3867   0.427   2.399  10.375  1.9982 -1.2694 -0.4761
  255MPD2    H1 3868   0.710   2.298  10.671  0.4998 -0.3828 -3.4946
  255MPD2    H2 3869   0.494   2.665  10.698 -0.1910  0.2092 -1.2658
  255MPD2    H3 3870   0.673   2.529  10.774 -0.1206  0.1941 -0.5639
  255MPD2     N 3871   0.605   2.224  10.437  0.4937  0.0626  0.0456
  255MPD2    H5 3872   0.551   2.220  10.350  0.9174 -0.9041 -0.1703
  255MPD2    N1 3873   0.350   2.631  10.491  0.0688 -0.0079 -0.1475
  255MPD2    H7 3874   0.332   2.707  10.556 -3.1073 -1.2482  0.3896
  256TMC3    C1 3875   0.176   2.724  10.352  0.0068 -0.2084 -0.3463
  256TMC3    C2 3876   0.244   2.845  10.326 -0.2375 -0.5005  0.3215
  256TMC3    C3 3877   0.196   2.920  10.218 -0.1640  0.0790  0.2322
  256TMC3    C4 3878   0.076   2.686  10.255  0.1590  0.1367 -0.0816
  256TMC3    C5 3879   0.026   2.774  10.162 -0.5215 -0.5686  0.2014
  256TMC3    C6 3880   0.085   2.893  10.144  0.2616 -0.3321  0.3862
  256TMC3     C 3881   0.258   2.617  10.386  0.2767  0.5782  0.6398
  256TMC3     O 3882   0.230   2.512  10.328  0.0620 -0.3862  0.1416
  256TMC3     H 3883   0.318   2.888  10.393 -1.3881  1.8549  0.0707
  256TMC3    H1 3884   0.013   2.601  10.280 -1.2790  1.3272  0.3656
  256TMC3    H2 3885   0.066   2.953  10.056 -0.5013 -0.7813  0.2413
  256TMC3    C7 3886   4.658   2.725  10.063 -0.3478  0.4548  0.0396
  256TMC3    C8 3887   0.242   3.052  10.215  0.6536  0.0256  0.2496
  256TMC3    O1 3888   4.641   2.603  10.054 -0.0990 -0.3903  0.2781
  256TMC3    O2 3889   0.216   3.125  10.315 -0.6823  0.4173  0.2386
  257MPD2     C 3890   4.544   4.632  13.203  0.1360  1.0927  0.3311
  257MPD2    C1 3891   4.474   4.539  13.124 -0.1223 -0.2587 -0.2798
  257MPD2    C2 3892   4.444   4.418  13.183  0.5613 -0.2451 -0.4313
  257MPD2    C3 3893   4.478   4.387  13.313  0.2082  0.2105  1.0190
  257MPD2    C4 3894   4.544   4.485  13.385 -0.8114 -1.0290 -0.0527
  257MPD2    C5 3895   4.579   4.607  13.332  0.6948 -0.2561  0.1905
  257MPD2     H 3896   4.381   4.351  13.124 -1.1419  0.0298  1.0807
  257MPD2    H1 3897   4.589   4.462  13.481  0.5656  2.2833  0.1079
  257MPD2    H2 3898   4.570   0.006  13.161  2.3016  0.3032 -0.1281
  257MPD2    H3 3899   4.624   4.689  13.386  1.2039  0.0916 -0.7579
  257MPD2     N 3900   4.451   4.258  13.368 -0.5087  0.1075  0.4584
  257MPD2    H5 3901   4.405   4.197  13.302  1.4562 -1.7224  0.7492
  257MPD2    N1 3902   4.444   4.573  12.992  0.7116 -0.6193 -0.0710
  257MPD2    H7 3903   4.482   4.663  12.961  1.9468 -1.0827  0.1027
  258TMC3    C1 3904   4.463   4.080  13.529  0.4011 -0.1574  0.0981
  258TMC3    C2 3905   4.434   3.981  13.434 -0.4828  0.1970  0.2487
  258TMC3    C3 3906   4.478   3.851  13.460  0.1061 -0.6037  0.1304
  258TMC3    C4 3907   4.518   4.046  13.650 -0.3953 -0.5570  1.0340
  258TMC3    C5 3908   4.564   3.920  13.666 -0.3513  0.2728  0.5777
  258TMC3    C6 3909   4.553   3.821  13.570  1.4134  0.2761  0.2518
  258TMC3     C 3910   4.457   4.225  13.503 -0.4674 -0.0149 -0.2663
  258TMC3     O 3911   4.490   4.294  13.596 -0.3103 -0.2269  0.5068
  258TMC3     H 3912   4.401   4.003  13.333  0.4062  0.6857  0.0726
  258TMC3    H1 3913   4.526   4.111  13.736 -0.8949  1.3663 -0.3756
  258TMC3    H2 3914   4.591   3.722  13.591 -0.9157 -0.5484  0.5684
  258TMC3    C7 3915   4.616   3.888  13.798  0.0390 -0.3677  0.1991
  258TMC3    C8 3916   4.475   3.750  13.361  0.5000 -0.1036 -0.4354
  258TMC3    O1 3917   4.611   3.973  13.883 -1.0437 -0.0382 -0.2573
  258TMC3    O2 3918   4.561   3.661  13.361  0.5384 -0.4436 -0.1879
  259MPD2     C 3919   4.381   1.674   1.036 -1.0828 -0.6142  0.2731
  259MPD2    C1 3920   4.310   1.563   1.041 -0.7251 -0.0981  1.0369
  259MPD2    C2 3921   4.345   1.446   0.976  0.0736  0.3172 -0.6863
  259MPD2    C3 3922   4.458   1.457   0.897  0.2868  0.0444 -0.0381
  259MPD2    C4 3923   4.534   1.572   0.891 -0.2584 -0.1796  0.1630
  259MPD2    C5 3924   4.501   1.682   0.972 -0.4928 -0.7967  0.1478
  259MPD2     H 3925   4.292   1.351   0.983  1.1743 -0.3551 -1.5861
  259MPD2    H1 3926   4.626   1.579   0.834 -0.4085 -2.9367 -0.3991
  259MPD2    H2 3927   4.352   1.758   1.099 -0.2085  0.3221 -0.5638
  259MPD2    H3 3928   4.569   1.766   0.963 -1.9115  0.1538 -1.8672
  259MPD2     N 3929   4.493   1.336   0.833  0.1068  0.1765  0.3685
  259MPD2    H5 3930   4.423   1.264   0.845 -0.0547  0.2892  0.0858
  259MPD2    N1 3931   4.200   1.568   1.128  0.0089 -0.6104  0.4323
  259MPD2    H7 3932   4.177   1.662   1.159  1.2638 -0.0841 -0.2174
  260TMC3    C1 3933   4.622   1.161   0.756  0.3857  0.2926 -0.7439
  260TMC3    C2 3934   0.025   1.098   0.765  0.2737  0.6520 -0.2288
  260TMC3    C3 3935   0.037   0.969   0.723  0.2821 -0.2255 -0.0092
  260TMC3    C4 3936   4.514   1.101   0.702  0.7219 -0.0843 -1.0440
  260TMC3    C5 3937   4.533   0.969   0.657  0.1684  0.5795  0.3293
  260TMC3    C6 3938   4.653   0.904   0.671 -0.6957  1.1369 -0.2516
  260TMC3     C 3939   4.617   1.301   0.779 -0.6528 -0.2349  0.3198
  260TMC3     O 3940   0.006   1.354   0.786  0.3270 -0.5385  0.2178
  260TMC3     H 3941   0.110   1.137   0.819 -0.7207  2.2726  0.1554
  260TMC3    H1 3942   4.433   1.161   0.662 -0.4920 -0.3417  1.0426
  260TMC3    H2 3943   4.666   0.804   0.629  0.2221  0.3956  1.8059
  260TMC3    C7 3944   4.433   0.908   0.570  0.0887  0.3517  0.1665
  260TMC3    C8 3945   0.167   0.902   0.736 -0.2215  0.9278  0.2819
  260TMC3    O1 3946   4.462   0.817   0.496 -0.5177 -0.3451 -0.2409
  260TMC3    O2 3947   0.259   0.977   0.771 -0.3781 -0.0588  0.2467
  261MPD2     C 3948   0.574   4.135  12.041  0.3294 -0.2790 -0.0846
  261MPD2    C1 3949   0.696   4.169  12.078 -1.3195 -0.0881  0.3379
  261MPD2    C2 3950   0.719   4.303  12.098 -0.8515  0.9639 -0.3035
  261MPD2    C3 3951   0.635   4.405  12.054 -0.4842  0.3453  0.0371
  261MPD2    C4 3952   0.506   4.367  12.012 -0.1258  0.2608 -0.0449
  261MPD2    C5 3953   0.479   4.231  12.013 -0.7635  0.0309 -0.2513
  261MPD2     H 3954   0.814   4.334  12.142 -0.3717 -0.7216 -0.1660
  261MPD2    H1 3955   0.424   4.434  11.987  0.7822  1.6177  0.5961
  261MPD2    H2 3956   0.542   4.033  12.021  0.4210 -0.2761 -0.2449
  261MPD2    H3 3957   0.379   4.200  11.985  0.1966 -1.4667 -2.0110
  261MPD2     N 3958   0.667   4.541  12.042 -0.4783 -0.0988 -0.0236
  261MPD2    H5 3959   0.602   4.609  12.003  1.5272  1.2777 -0.9574
  261MPD2    N1 3960   0.790   4.070  12.113  0.3052 -0.4874  0.2122
  261MPD2    H7 3961   0.877   4.091  12.161  0.7685 -0.6733 -0.5402
  262TMC3    C1 3962   0.794   0.020  12.067 -0.7560 -0.2567 -0.1377
  262TMC3    C2 3963   0.664   0.081  12.070 -0.4351  0.2687  0.8301
  262TMC3    C3 3964   0.653   0.206  12.132 -0.2663 -0.4212  0.0572
  262TMC3    C4 3965   0.897   0.072  12.142  0.6352  0.1742 -0.3582
  262TMC3    C5 3966   0.883   0.193  12.205  0.4161 -0.5327  0.1705
  262TMC3    C6 3967   0.759   0.257  12.200 -0.0922  0.3761 -0.0693
  262TMC3     C 3968   0.792   4.593  12.074 -0.4744 -0.3160  0.1017
  262TMC3     O 3969   0.899   4.543  12.094  0.2671 -0.7470  0.1137
  262TMC3     H 3970   0.580   0.042  12.014 -0.5389  0.7828  0.6248
  262TMC3    H1 3971   0.994   0.024  12.140  1.0558  0.9880  0.7214
  262TMC3    H2 3972   0.742   0.334  12.275 -1.0067  0.2804 -0.1775
  262TMC3    C7 3973   0.985   0.279  12.155 -0.0524 -0.2096 -0.7761
  262TMC3    C8 3974   0.565   0.303  12.070 -0.3402  0.6415  0.5739
  262TMC3    O1 3975   1.102   0.247  12.162 -0.0393 -0.1140  0.1482
  262TMC3    O2 3976   0.599   0.418  12.092 -0.0608 -0.1607  0.1689
  263MPD2     C 3977   1.479   3.927  11.601 -0.2409  0.2327  0.7870
  263MPD2    C1 3978   1.580   3.944  11.513 -0.3875  0.9624 -0.2515
  263MPD2    C2 3979   1.560   3.973  11.379  0.2274  0.4946  0.5532
  263MPD2    C3 3980   1.432   4.001  11.342 -0.0598  0.2114  1.1210
  263MPD2    C4 3981   1.327   3.998  11.439 -0.3508  0.3069  0.0333
  263MPD2    C5 3982   1.351   3.964  11.568  0.3199  0.3738 -0.2955
  263MPD2     H 3983   1.640   3.988  11.308 -0.1427  0.0287  0.0436
  263MPD2    H1 3984   1.227   4.032  11.416 -0.4116  0.7879  1.0306
  263MPD2    H2 3985   1.503   3.905  11.705 -1.2562  0.0167  0.9806
  263MPD2    H3 3986   1.270   3.979  11.639 -0.3023 -2.4145 -0.4075
  263MPD2     N 3987   1.394   4.040  11.213  0.1632  0.1652  0.9280
  263MPD2    H5 3988   1.297   4.063  11.194 -0.0302 -2.3035 -1.1740
  263MPD2    N1 3989   1.713   3.919  11.560 -0.8477  0.3808 -0.4111
  263MPD2    H7 3990   1.719   3.910  11.661  1.1454  2.6669 -0.3287
  264TMC3    C1 3991   1.432   4.127  10.991 -0.2250  0.9389 -0.9717
  264TMC3    C2 3992   1.372   4.245  11.018 -0.0060 -0.1502  0.2376
  264TMC3    C3 3993   1.370   4.337  10.916  0.4579 -0.7781  0.2535
  264TMC3    C4 3994   1.495   4.107  10.873 -0.8800  0.3857  0.0730
  264TMC3    C5 3995   1.489   4.197  10.772  0.0047 -0.1072  0.7788
  264TMC3    C6 3996   1.414   4.306  10.791  0.9535 -0.4140 -0.2654
  264TMC3     C 3997   1.485   4.056  11.105 -0.4972  0.5950  0.0385
  264TMC3     O 3998   1.594   4.005  11.091 -0.1241  0.0515  0.2564
  264TMC3     H 3999   1.351   4.272  11.121  1.3803  1.4014  0.1151
  264TMC3    H1 4000   1.542   4.012  10.854 -2.2830  0.1623 -2.3270
  264TMC3    H2 4001   1.404   4.378  10.710 -2.5478 -1.4753 -0.7658
  264TMC3    C7 4002   1.619   4.217  10.707  0.2404  0.5516  0.2857
  264TMC3    C8 4003   1.409   4.468  10.950  0.6419 -0.3128 -0.7964
  264TMC3    O1 4004   1.656   4.125  10.635  0.4857  0.6538  0.0970
  264TMC3    O2 4005   1.501   4.513  10.884  0.0538  0.3211 -0.3616
  265MPD2     C 4006   3.485   3.957  15.932 -0.3702  0.9118  0.2494
  265MPD2    C1 4007   3.503   4.060  15.834 -0.2374  0.0639 -0.2432
  265MPD2    C2 4008   3.570   4.030  15.712  0.1652  0.6273  0.3290
  265MPD2    C3 4009   3.592   3.893  15.683 -0.0112 -0.0420  0.2057
  265MPD2    C4 4010   3.556   3.790  15.769  0.6091  0.2529 -0.1294
  265MPD2    C5 4011   3.508   3.822  15.897  0.1609 -0.2102  0.5086
  265MPD2     H 4012   3.588   4.106  15.637  0.4457  0.8281  0.6007
  265MPD2    H1 4013   3.566   3.686  15.742  0.0607  0.6474 -1.8743
  265MPD2    H2 4014   3.447   3.972  16.032  0.5838 -0.2695  0.7909
  265MPD2    H3 4015   3.479   3.745  15.966 -0.0067 -0.5578  0.0516
  265MPD2     N 4016   3.658   3.850  15.560 -0.1570 -0.3674 -0.6308
  265MPD2    H5 4017   3.641   3.754  15.533  2.8270 -0.8608 -0.8160
  265MPD2    N1 4018   3.474   4.200  15.852  0.3637 -0.7136  0.4455
  265MPD2    H7 4019   3.499   4.260  15.775  4.4103 -1.3377  1.2676
  266TMC3    C1 4020   3.410   4.395  15.966  0.2344  0.6431  0.1908
  266TMC3    C2 4021   3.520   4.459  16.017  0.1479  0.4137  0.1687
  266TMC3    C3 4022   3.504   4.576  16.086 -0.4180 -0.4798 -0.1489
  266TMC3    C4 4023   3.287   4.449  15.980 -0.0895 -0.2351  0.1716
  266TMC3    C5 4024   3.275   4.572  16.043  0.1834 -0.0659  0.2092
  266TMC3    C6 4025   3.375   4.636  16.101  0.2894  0.0012 -0.2891
  266TMC3     C 4026   3.417   4.251  15.966 -0.1017  0.2777 -0.2166
  266TMC3     O 4027   3.364   4.190  16.061 -0.3768  0.2327 -0.1704
  266TMC3     H 4028   3.613   4.404  16.016  0.9721  1.7549  1.9261
  266TMC3    H1 4029   3.204   4.382  15.961  1.2573 -0.8702 -3.2784
  266TMC3    H2 4030   3.359   4.712  16.176 -1.2188 -0.6286  0.0258
  266TMC3    C7 4031   3.144   4.626  16.066  0.0793 -0.4188 -0.1704
  266TMC3    C8 4032   3.624   4.633  16.152 -0.0698 -0.2754 -0.1320
  266TMC3    O1 4033   3.049   4.552  16.059 -0.0109  0.1121 -0.2908
  266TMC3    O2 4034   3.723   4.559  16.157 -0.0524  0.3122  0.2151
  267MPD2     C 4035   1.157   1.287   0.656 -0.2600  0.2952  0.5249
  267MPD2    C1 4036   1.226   1.377   0.579  0.0077  0.4522 -0.6837
  267MPD2    C2 4037   1.173   1.414   0.455  0.1297 -0.2706  0.0831
  267MPD2    C3 4038   1.045   1.371   0.417 -1.2534 -0.0608 -0.4351
  267MPD2    C4 4039   0.976   1.288   0.504 -0.7784 -0.2342  0.0525
  267MPD2    C5 4040   1.034   1.248   0.619  0.3760 -0.1002 -0.6834
  267MPD2     H 4041   1.220   1.481   0.384 -0.6006  1.6054  1.3730
  267MPD2    H1 4042   0.882   1.248   0.469 -1.3433  1.9694 -0.9292
  267MPD2    H2 4043   1.195   1.261   0.754 -1.2609 -0.1107  0.8020
  267MPD2    H3 4044   0.971   1.187   0.682  0.0867  0.6996 -0.1994
  267MPD2     N 4045   0.979   1.393   0.294 -0.6462 -0.1087 -0.1502
  267MPD2    H5 4046   0.886   1.356   0.281 -1.0060  0.3523  1.1832
  267MPD2    N1 4047   1.341   1.433   0.642 -0.6280 -0.0522  0.5022
  267MPD2    H7 4048   1.355   1.401   0.737  1.6034 -1.0356 -0.1518
  268TMC3    C1 4049   1.569   1.501   0.631 -0.2815  0.4505  0.3560
  268TMC3    C2 4050   1.657   1.604   0.598 -0.7319 -0.7215 -0.5064
  268TMC3    C3 4051   1.756   1.633   0.686  0.2130 -0.2097  0.0524
  268TMC3    C4 4052   1.573   1.436   0.753 -0.6666  0.0514 -0.4521
  268TMC3    C5 4053   1.677   1.462   0.832  0.6363 -0.8303  0.0679
  268TMC3    C6 4054   1.776   1.557   0.798  0.1848 -0.3258 -0.7867
  268TMC3     C 4055   1.436   1.508   0.576  0.3109  0.8968  0.0738
  268TMC3     O 4056   1.436   1.558   0.464  0.1955  0.1688 -0.5053
  268TMC3     H 4057   1.660   1.647   0.499 -1.1471  0.5869  0.0587
  268TMC3    H1 4058   1.508   1.355   0.782  0.7844 -0.8851  0.1569
  268TMC3    H2 4059   1.872   1.559   0.849 -0.7423  2.2813  0.8939
  268TMC3    C7 4060   1.717   1.360   0.927  0.4667 -0.1820  0.0753
  268TMC3    C8 4061   1.861   1.708   0.644 -0.6359 -0.2468  0.0953
  268TMC3    O1 4062   1.635   1.284   0.965  0.4727  0.0993  0.3907
  268TMC3    O2 4063   1.923   1.776   0.718  0.2868 -0.4952 -0.6319
  269MPD2     C 4064   1.597   0.009  15.674 -0.1024 -0.3866 -0.0312
  269MPD2    C1 4065   1.474   0.043  15.727 -0.0227 -0.8479  0.1651
  269MPD2    C2 4066   1.433   0.174  15.698 -0.1347 -0.2532  0.4886
  269MPD2    C3 4067   1.499   0.257  15.610 -0.2080  0.6276 -0.4888
  269MPD2    C4 4068   1.615   0.219  15.558 -0.2334  0.3335  0.8389
  269MPD2    C5 4069   1.671   0.095  15.592 -0.0179  0.9275  0.1897
  269MPD2     H 4070   1.344   0.216  15.743  0.4478  2.2004 -0.6353
  269MPD2    H1 4071   1.669   0.290  15.496  0.1726 -1.1565 -0.5321
  269MPD2    H2 4072   1.642   4.633  15.679 -0.8663 -0.7004  0.7432
  269MPD2    H3 4073   1.756   0.048  15.543  0.6765  2.8019 -0.4293
  269MPD2     N 4074   1.443   0.383  15.581  0.6864  0.8007 -0.4927
  269MPD2    H5 4075   1.357   0.404  15.630  0.5652 -0.7107 -0.0481
  269MPD2    N1 4076   1.407   4.660  15.796 -0.2008  0.1144 -0.3423
  269MPD2    H7 4077   1.448   4.567  15.797  0.7298  0.5196 -0.5456
  270TMC3    C1 4078   1.237   4.530  15.900  1.6303  0.3023 -0.0627
  270TMC3    C2 4079   1.108   4.494  15.875  0.2173  0.4660  0.6935
  270TMC3    C3 4080   1.072   4.370  15.917  0.2056 -0.4219  0.5667
  270TMC3    C4 4081   1.329   4.453  15.957  0.6719  0.3313  0.3374
  270TMC3    C5 4082   1.297   4.327  15.986 -0.4651  0.2561  0.4884
  270TMC3    C6 4083   1.165   4.286  15.972 -0.2345 -0.2585  0.1787
  270TMC3     C 4084   1.279   4.661  15.847  0.0978  0.2657  0.0527
  270TMC3     O 4085   1.200   0.030  15.835  0.1047  0.3209  0.2796
  270TMC3     H 4086   1.041   4.557  15.819 -0.0952  1.2645  1.9638
  270TMC3    H1 4087   1.428   4.494  15.977  0.8919 -1.2134  2.3106
  270TMC3    H2 4088   1.129   4.185  15.986 -1.9114  0.4630  1.0356
  270TMC3    C7 4089   1.406   4.232  16.011 -0.1221  0.8962 -0.1703
  270TMC3    C8 4090   0.965   4.304  15.844 -0.1081 -0.4007 -0.6577
  270TMC3    O1 4091   1.519   4.277  16.022  0.6673 -0.1545  0.2769
  270TMC3    O2 4092   0.880   4.244  15.907  0.0790 -0.2851  0.5436
  271MPD2     C 4093   0.519   4.370  14.138 -0.0481 -0.0131  0.1803
  271MPD2    C1 4094   0.442   4.270  14.198 -0.4968 -0.2577  0.0801
  271MPD2    C2 4095   0.305   4.266  14.187  0.6784 -0.2045 -1.0912
  271MPD2    C3 4096   0.241   4.364  14.113 -0.0178 -0.5252 -0.6386
  271MPD2    C4 4097   0.317   4.472  14.063  0.0504  0.3214  0.0447
  271MPD2    C5 4098   0.457   4.471  14.067 -0.6173 -0.2573  0.1946
  271MPD2     H 4099   0.256   4.178  14.228  0.2343  0.6507  0.2098
  271MPD2    H1 4100   0.262   4.544  14.004  0.3298  0.5171  0.0219
  271MPD2    H2 4101   0.626   4.381  14.148  0.4415 -3.1353 -1.4139
  271MPD2    H3 4102   0.510   4.552  14.018  0.6191 -0.9968  0.3037
  271MPD2     N 4103   0.107   4.356  14.066  0.3276  0.5628 -0.3952
  271MPD2    H5 4104   0.066   4.444  14.038  1.0397  0.4479 -1.8134
  271MPD2    N1 4105   0.503   4.162  14.271 -0.2433  0.0293  0.1568
  271MPD2    H7 4106   0.454   4.093  14.327 -0.5747 -0.2370 -0.4585
  272TMC3    C1 4107   0.687   4.063  14.387 -0.3338  0.3896 -0.0257
  272TMC3    C2 4108   0.817   4.019  14.384 -0.1007 -0.6621  0.0843
  272TMC3    C3 4109   0.877   3.993  14.502 -0.2080  0.2466 -0.1835
  272TMC3    C4 4110   0.619   4.081  14.505  0.1468 -0.0596 -0.0005
  272TMC3    C5 4111   0.689   4.064  14.620  0.2883  0.2121  0.4290
  272TMC3    C6 4112   0.818   4.012  14.623 -0.2402 -1.3684  0.7020
  272TMC3     C 4113   0.648   4.145  14.275  0.1449  0.2231 -0.5412
  272TMC3     O 4114   0.730   4.194  14.205  0.1961 -0.0981 -0.2581
  272TMC3     H 4115   0.869   4.006  14.290 -0.7693 -0.3164 -0.3305
  272TMC3    H1 4116   0.522   4.129  14.500  0.7254  0.8930 -2.1125
  272TMC3    H2 4117   0.869   4.014  14.718 -1.7938  0.2085  1.5077
  272TMC3    C7 4118   0.618   4.114  14.736 -0.3757 -0.2785 -0.0092
  272TMC3    C8 4119   1.004   3.925  14.498  0.9337  0.1112  0.0866
  272TMC3    O1 4120   0.497   4.129  14.737  0.1982 -0.2499 -0.2704
  272TMC3    O2 4121   1.061   3.923  14.392 -0.4663  0.1225 -0.1757
  273MPD2     C 4122   1.869   2.466  12.005  0.0344 -0.3266  0.0517
  273MPD2    C1 4123   1.997   2.482  11.952  0.6125 -0.2139 -0.2742
  273MPD2    C2 4124   2.009   2.569  11.847 -0.5010  0.4398 -0.0299
  273MPD2    C3 4125   1.898   2.633  11.795  0.3216 -0.2727 -0.4620
  273MPD2    C4 4126   1.776   2.615  11.849  0.8252 -0.3621  0.2248
  273MPD2    C5 4127   1.763   2.538  11.960 -0.1940  0.6959  0.1259
  273MPD2     H 4128   2.112   2.587  11.819 -0.7641 -0.7783 -1.7480
  273MPD2    H1 4129   1.687   2.658  11.804  1.3088 -0.1985 -0.5755
  273MPD2    H2 4130   1.857   2.413  12.098  0.8011  0.5075  0.6217
  273MPD2    H3 4131   1.663   2.529  12.001 -0.5480  1.0714 -0.6654
  273MPD2     N 4132   1.910   2.718  11.680  0.4213 -0.0151  0.7712
  273MPD2    H5 4133   1.823   2.761  11.651  0.6611  0.0955  0.2244
  273MPD2    N1 4134   2.102   2.411  12.013 -0.2854 -0.3952 -0.8525
  273MPD2    H7 4135   2.078   2.338  12.080  2.2255 -1.5928 -1.2779
  274TMC3    C1 4136   2.012   2.844  11.501 -0.8819  0.6481  0.3809
  274TMC3    C2 4137   1.942   2.782  11.400 -0.5271  0.8171  0.9989
  274TMC3    C3 4138   1.943   2.842  11.277  0.8373 -1.1663 -0.1861
  274TMC3    C4 4139   2.105   2.934  11.461 -0.3529 -0.6352  0.0409
  274TMC3    C5 4140   2.107   2.988  11.336 -0.3721 -1.1131 -0.3010
  274TMC3    C6 4141   2.018   2.947  11.245  0.3730 -0.8022  0.6202
  274TMC3     C 4142   2.030   2.767  11.628 -0.7695 -0.1761 -0.3067
  274TMC3     O 4143   2.148   2.747  11.655  0.3399 -0.5510  0.3479
  274TMC3     H 4144   1.886   2.691  11.417 -0.7078  0.7608  0.1024
  274TMC3    H1 4145   2.157   2.982  11.543  0.9452 -0.3572 -0.9244
  274TMC3    H2 4146   2.037   2.993  11.149 -0.4022 -0.3124  0.7036
  274TMC3    C7 4147   2.171   3.118  11.309  1.0698  0.6151 -0.6551
  274TMC3    C8 4148   1.810   2.830  11.212  0.0406 -0.4602  0.3593
  274TMC3    O1 4149   2.103   3.211  11.263 -0.0377  0.5409 -0.5532
  274TMC3    O2 4150   1.723   2.770  11.271  0.0456 -0.1312  0.2760
  275MPD2     C 4151   2.221   0.065  14.083  0.1051  0.4471  0.3270
  275MPD2    C1 4152   2.164   0.040  14.205  0.6086 -0.4092  0.5017
  275MPD2    C2 4153   2.027   0.022  14.217  0.3305  0.9682  0.6631
  275MPD2    C3 4154   1.945   0.033  14.111  0.7707 -0.3416 -0.1575
  275MPD2    C4 4155   2.002   0.056  13.987  0.4644  0.3889  0.3940
  275MPD2    C5 4156   2.139   0.067  13.971  0.4744  0.8117  0.0175
  275MPD2     H 4157   1.998   0.003  14.320  2.2241 -2.5945  0.5530
  275MPD2    H1 4158   1.939   0.070  13.900  0.4252  1.4878  0.6023
  275MPD2    H2 4159   2.327   0.078  14.064 -0.3901  0.7162 -2.3393
  275MPD2    H3 4160   2.186   0.080  13.875  3.4955 -0.4363  1.3038
  275MPD2     N 4161   1.805   0.049  14.132 -0.2828 -0.7169 -0.1503
  275MPD2    H5 4162   1.744   0.025  14.055  0.7494 -2.2922 -0.4628
  275MPD2    N1 4163   2.235   0.020  14.325 -0.1841 -0.3485  0.3961
  275MPD2    H7 4164   2.189   4.680  14.392 -0.4356  0.4393  0.9491
  276TMC3    C1 4165   2.423   0.031  14.470 -0.1223  0.0066  0.3168
  276TMC3    C2 4166   2.364   4.649  14.541  1.6968 -0.2847  0.8535
  276TMC3    C3 4167   2.405   4.619  14.672  0.1434 -0.0202  0.1269
  276TMC3    C4 4168   2.518   0.104  14.526  0.4037 -0.4747  0.1721
  276TMC3    C5 4169   2.543   0.077  14.657 -0.2561 -0.6903  0.4801
  276TMC3    C6 4170   2.491   4.699  14.738  0.4162  0.1963 -0.2710
  276TMC3     C 4171   2.361   0.073  14.346 -0.3945  0.4286 -0.1332
  276TMC3     O 4172   2.426   0.160  14.287  0.3206 -0.9021  0.8190
  276TMC3     H 4173   2.299   4.584  14.483  0.2256  0.6123  1.4898
  276TMC3    H1 4174   2.558   0.189  14.471 -0.7337 -1.4683 -2.1828
  276TMC3    H2 4175   2.504   4.693  14.845 -0.1677 -0.4602 -0.2373
  276TMC3    C7 4176   2.619   0.177  14.735  0.0697  0.2382  0.4603
  276TMC3    C8 4177   2.346   4.507  14.741 -0.1313  1.1010  0.8003
  276TMC3    O1 4178   2.641   0.145  14.852 -0.2878 -0.0176 -0.1880
  276TMC3    O2 4179   2.374   4.489  14.860 -0.1823  0.1174  0.5885
  277MPD2     C 4180   4.139   4.621  13.419 -0.2457  0.3397  0.0302
  277MPD2    C1 4181   3.999   4.611  13.410  0.0284  0.8512 -0.5984
  277MPD2    C2 4182   3.943   4.498  13.465 -0.3186 -0.1752 -0.0235
  277MPD2    C3 4183   4.010   4.398  13.539 -0.9429 -0.2012  0.2840
  277MPD2    C4 4184   4.140   4.427  13.563  0.6915  0.1499 -0.1184
  277MPD2    C5 4185   4.200   4.527  13.492  0.4391  0.0003 -0.3555
  277MPD2     H 4186   3.845   4.472  13.427 -0.4165  0.6078 -0.3046
  277MPD2    H1 4187   4.207   4.364  13.621  2.1838  0.1254 -1.8754
  277MPD2    H2 4188   4.188   4.704  13.370 -3.3565  0.8750 -2.1317
  277MPD2    H3 4189   4.307   4.532  13.510  0.4775 -0.2170 -0.5204
  277MPD2     N 4190   3.944   4.283  13.590 -0.5939  0.2742  0.4052
  277MPD2    H5 4191   3.843   4.284  13.582 -0.6010  0.2881  0.4990
  277MPD2    N1 4192   3.935   4.718  13.339  0.5831 -0.1037  0.6318
  277MPD2    H7 4193   3.995   0.053  13.280 -0.8012  1.0613  0.3402
  278TMC3    C1 4194   3.915   4.075  13.696  0.5465  0.0480 -1.0053
  278TMC3    C2 4195   3.920   3.943  13.660  0.7717 -0.5374 -0.1311
  278TMC3    C3 4196   3.807   3.864  13.658 -0.5435  0.4836 -0.4191
  278TMC3    C4 4197   3.793   4.118  13.741 -0.0950 -0.1710 -0.5311
  278TMC3    C5 4198   3.689   4.029  13.753 -0.4205  0.6886 -0.8980
  278TMC3    C6 4199   3.691   3.893  13.729 -0.1908 -0.3498  0.3064
  278TMC3     C 4200   4.008   4.172  13.639 -0.6681  0.5960 -0.7179
  278TMC3     O 4201   4.129   4.142  13.634 -0.1304 -0.5008  0.6443
  278TMC3     H 4202   3.999   3.897  13.603  0.3184  0.1830 -1.3318
  278TMC3    H1 4203   3.783   4.221  13.774 -1.7620  0.0257 -1.6348
  278TMC3    H2 4204   3.609   3.825  13.748 -0.7382  0.3021  0.2995
  278TMC3    C7 4205   3.552   4.083  13.752  0.1143  0.1253  0.4864
  278TMC3    C8 4206   3.818   3.729  13.603 -0.3948  0.0777  0.0766
  278TMC3    O1 4207   3.547   4.199  13.802 -0.7390  1.0787 -0.1299
  278TMC3    O2 4208   3.905   3.655  13.636  0.4740 -0.0466  0.0320
  279MPD2     C 4209   3.534   0.148   0.268 -0.0182 -0.4724  0.7994
  279MPD2    C1 4210   3.419   0.112   0.213 -0.2371 -0.0089 -0.0496
  279MPD2    C2 4211   3.399   0.104   0.080 -0.5607 -0.4623 -0.0653
  279MPD2    C3 4212   3.499   0.134  17.683 -0.8620  0.3194  0.6824
  279MPD2    C4 4213   3.619   0.183   0.047 -0.0572 -0.7408  0.5261
  279MPD2    C5 4214   3.634   0.190   0.186 -0.4312  0.2221 -0.2255
  279MPD2     H 4215   3.307   0.064   0.038 -0.7842  0.3652 -0.3716
  279MPD2    H1 4216   3.706   0.220  17.685 -1.0138  1.9896  0.8685
  279MPD2    H2 4217   3.546   0.152   0.376  1.5643  0.0525  0.6106
  279MPD2    H3 4218   3.718   0.248   0.225 -0.8042 -0.6202  1.8155
  279MPD2     N 4219   3.489   0.147  17.546 -0.4569  0.6879 -0.2570
  279MPD2    H5 4220   3.566   0.191  17.497  1.0498 -0.4710  1.0678
  279MPD2    N1 4221   3.312   0.071   0.298 -0.2194 -0.2270  0.6845
  279MPD2    H7 4222   3.244   0.013   0.250 -0.7911  0.8381  0.2020
  280TMC3    C1 4223   3.177   0.044   0.478 -0.1016  0.3586  0.1697
  280TMC3    C2 4224   3.132   4.649   0.428  0.6944 -0.4338  0.2721
  280TMC3    C3 4225   2.997   4.627   0.407  0.2678 -0.1985  0.2953
  280TMC3    C4 4226   3.090   0.135   0.524  0.0201  0.4054  0.6940
  280TMC3    C5 4227   2.959   0.127   0.484  0.0390 -0.5708 -0.2362
  280TMC3    C6 4228   2.908   0.011   0.435  0.1324  0.1174  0.2040
  280TMC3     C 4229   3.306   0.081   0.437 -0.0406 -0.3761  0.9739
  280TMC3     O 4230   3.372   0.168   0.494  0.3833 -0.6800 -0.2176
  280TMC3     H 4231   3.203   4.569   0.406 -0.0701 -1.0796  0.1478
  280TMC3    H1 4232   3.131   0.213   0.587  0.2342  0.5072  0.4290
  280TMC3    H2 4233   2.801   4.715   0.422 -0.0503 -0.0616  2.0245
  280TMC3    C7 4234   2.889   0.249   0.466 -0.5042  0.8224 -0.6643
  280TMC3    C8 4235   2.943   4.490   0.388  0.3216  0.3453 -0.4173
  280TMC3    O1 4236   2.955   0.350   0.463 -0.3237  0.2113  0.1045
  280TMC3    O2 4237   2.821   4.474   0.402  0.3050 -0.2376 -0.0274
  281TMC3    C1 4238   1.714   0.278  13.670  0.8703  0.7766  1.0451
  281TMC3    C2 4239   1.696   0.269  13.540 -0.1412 -0.1981 -0.0977
  281TMC3    C3 4240   1.724   0.145  13.487 -0.2626  0.2713 -0.1116
  281TMC3    C4 4241   1.743   0.170  13.749  0.0935 -0.2389  0.1586
  281TMC3    C5 4242   1.779   0.053  13.691  0.2268  0.5309 -0.2507
  281TMC3    C6 4243   1.773   0.037  13.558 -0.7675 -0.2249 -0.0867
  281TMC3     C 4244   1.633   0.379  13.740  0.1083  0.2902  0.6454
  281TMC3     O 4245   1.675   0.419  13.849  0.2826  0.0102 -0.1694
  281TMC3     H 4246   1.663   0.351  13.478  1.6010  0.8914  0.4287
  281TMC3    H1 4247   1.764   0.189  13.853  0.0913 -2.7374  0.6130
  281TMC3    H2 4248   1.803   4.675  13.496 -1.1530  0.0615 -0.6652
  281TMC3    C7 4249   1.720   4.668  13.763  0.1881  0.8065  0.4497
  281TMC3    C8 4250   1.705   0.119  13.344  0.5036  0.2482 -0.2892
  281TMC3    O1 4251   1.672   4.686  13.873 -0.0198  0.6063  1.3623
  281TMC3    O2 4252   1.685   0.003  13.304  0.1256 -0.1742  0.4821
  282MPD2     C 4253   3.314   0.996  14.928 -0.3066  0.0271  0.9555
  282MPD2    C1 4254   3.287   1.117  14.994 -0.0258 -0.5884 -0.7996
  282MPD2    C2 4255   3.235   1.221  14.919  0.0225  0.0841  0.2947
  282MPD2    C3 4256   3.234   1.211  14.786 -0.0629 -0.3095 -0.8486
  282MPD2    C4 4257   3.275   1.095  14.720 -0.3377 -0.0177 -1.0895
  282MPD2    C5 4258   3.307   0.983  14.792 -0.6368  0.5630 -0.2886
  282MPD2     H 4259   3.203   1.310  14.971  0.0771  1.0476 -1.3217
  282MPD2    H1 4260   3.271   1.077  14.613 -4.5668 -0.9433 -0.7665
  282MPD2    H2 4261   3.345   0.910  14.986 -1.8569 -0.0161  1.7243
  282MPD2    H3 4262   3.328   0.891  14.740  1.2257  0.1974  1.1092
  282MPD2     N 4263   3.190   1.326  14.716 -0.1945 -0.2574 -0.2146
  282MPD2    H5 4264   3.154   1.405  14.768 -1.3881  0.1185 -1.6040
  282MPD2    N1 4265   3.281   1.121  15.140  0.2493  1.0537  0.2409
  282MPD2    H7 4266   3.255   1.211  15.178 -0.6147 -0.1181  2.3869
  283TMC3    C1 4267   3.294   1.046  15.357 -0.3272  0.6698  0.3765
  283TMC3    C2 4268   3.308   1.175  15.402  0.0441  0.0542 -0.0884
  283TMC3    C3 4269   3.294   1.204  15.537 -0.1647  0.0458 -0.1699
  283TMC3    C4 4270   3.271   0.944  15.447 -0.0535 -0.1819 -0.7288
  283TMC3    C5 4271   3.271   0.975  15.581 -0.6415 -0.5720  0.5724
  283TMC3    C6 4272   3.273   1.103  15.630 -0.2573  0.2263  0.1863
  283TMC3     C 4273   3.302   1.008  15.218 -0.3034  0.1779  0.0042
  283TMC3     O 4274   3.288   0.889  15.191  0.0925 -0.1845 -0.1318
  283TMC3     H 4275   3.362   1.250  15.345 -0.1418 -0.1264 -0.5045
  283TMC3    H1 4276   3.254   0.841  15.419  2.5360 -1.2300  1.5403
  283TMC3    H2 4277   3.266   1.117  15.737  1.7344  2.4899  0.0022
  283TMC3    C7 4278   3.221   0.873  15.672 -0.0687  0.3302 -0.0372
  283TMC3    C8 4279   3.289   1.342  15.586  0.2424  0.1132 -0.5001
  283TMC3    O1 4280   3.160   0.910  15.768 -1.2144  0.7206 -0.8051
  283TMC3    O2 4281   3.306   1.351  15.706  0.9043 -0.4510 -0.0015
  284MPD2     C 4282   1.493   0.822  11.391 -0.4848  0.1386  0.2789
  284MPD2    C1 4283   1.560   0.900  11.483 -0.7473  0.0760  0.4484
  284MPD2    C2 4284   1.576   0.854  11.609  0.2640 -0.8423  0.2494
  284MPD2    C3 4285   1.520   0.737  11.653 -1.1590  0.0762 -0.0417
  284MPD2    C4 4286   1.445   0.659  11.566  0.4113 -0.4049 -0.6246
  284MPD2    C5 4287   1.431   0.706  11.435  0.5411  0.6816 -0.2294
  284MPD2     H 4288   1.646   0.906  11.675 -0.9287 -0.3438  1.1164
  284MPD2    H1 4289   1.391   0.568  11.589 -1.3855  0.6718 -0.5829
  284MPD2    H2 4290   1.483   0.843  11.285  0.5215 -1.3900 -0.1165
  284MPD2    H3 4291   1.377   0.644  11.365  0.8433  1.6537 -1.3243
  284MPD2     N 4292   1.551   0.692  11.782 -0.0315  0.7322 -0.2536
  284MPD2    H5 4293   1.612   0.753  11.837  0.3892 -0.1543  0.2544
  284MPD2    N1 4294   1.655   0.995  11.444 -0.4654  0.1210 -0.7650
  284MPD2    H7 4295   1.720   1.035  11.511 -0.6048 -0.0550 -0.5278
  285TMC3    C1 4296   1.801   1.099  11.296 -0.4861  0.6555 -0.4432
  285TMC3    C2 4297   1.897   1.013  11.336 -0.3090  0.7051  0.2995
  285TMC3    C3 4298   2.023   1.015  11.281  0.4334  0.6688  0.0256
  285TMC3    C4 4299   1.822   1.169  11.178  0.9238  1.0596 -0.1830
  285TMC3    C5 4300   1.942   1.159  11.117 -0.0517  0.4977 -0.3935
  285TMC3    C6 4301   2.052   1.084  11.164  0.0212 -0.2051  0.1185
  285TMC3     C 4302   1.669   1.040  11.315  0.1148  0.3660 -0.0401
  285TMC3     O 4303   1.579   1.054  11.234  0.6308 -0.1910 -0.3604
  285TMC3     H 4304   1.896   0.955  11.428 -0.8172  1.8491  1.0043
  285TMC3    H1 4305   1.737   1.214  11.129  0.0822  1.6491  1.8000
  285TMC3    H2 4306   2.150   1.098  11.119  0.2202  0.2261  0.6982
  285TMC3    C7 4307   1.982   1.267  11.029  0.5447  0.0574 -0.6337
  285TMC3    C8 4308   2.109   0.900  11.305 -0.3960 -0.5585  0.5071
  285TMC3    O1 4309   2.102   1.300  11.028 -0.1497 -0.3120 -0.2723
  285TMC3    O2 4310   2.056   0.812  11.368 -0.4393 -0.4902  0.1934
  286MPD2     C 4311   2.013   4.131   1.871  0.1937 -0.0512  1.1931
  286MPD2    C1 4312   2.039   4.116   1.738  0.7829 -0.3604 -0.0079
  286MPD2    C2 4313   2.129   4.014   1.703 -0.1516  0.4021 -0.1998
  286MPD2    C3 4314   2.198   3.941   1.797  0.2072 -0.2617  0.4644
  286MPD2    C4 4315   2.165   3.955   1.932  0.3841  0.1148  0.0429
  286MPD2    C5 4316   2.065   4.047   1.963 -0.3259 -0.0349  0.1180
  286MPD2     H 4317   2.152   3.999   1.598 -0.9714 -0.0736 -0.3063
  286MPD2    H1 4318   2.200   3.890   2.010 -0.4862 -0.7849 -0.3067
  286MPD2    H2 4319   1.948   4.209   1.909 -0.0945  0.7823 -1.0470
  286MPD2    H3 4320   2.033   4.053   2.066 -2.3774 -2.2384 -0.3922
  286MPD2     N 4321   2.300   3.844   1.757  0.1393 -0.1707 -0.2747
  286MPD2    H5 4322   2.345   3.795   1.834  0.4375 -0.4544 -0.6302
  286MPD2    N1 4323   1.972   4.190   1.639  0.1134  0.0128  0.0153
  286MPD2    H7 4324   1.999   4.175   1.543 -0.3417  3.9722 -0.7356
  287TMC3    C1 4325   2.409   3.687   1.630 -0.4579  0.3449 -1.0202
  287TMC3    C2 4326   2.432   3.626   1.514  0.5597  0.9342  0.3084
  287TMC3    C3 4327   2.495   3.507   1.517  0.5901  0.1114  0.1370
  287TMC3    C4 4328   2.452   3.632   1.749 -0.8459 -0.1542 -0.3618
  287TMC3    C5 4329   2.530   3.513   1.743  0.0314  0.2479  0.6197
  287TMC3    C6 4330   2.549   3.446   1.624 -0.0329  0.8410  0.1296
  287TMC3     C 4331   2.325   3.804   1.626 -0.8717  0.3448  0.1489
  287TMC3     O 4332   2.280   3.849   1.522 -0.1625  0.3112  0.2785
  287TMC3     H 4333   2.382   3.652   1.422  0.8261  0.9138  0.1588
  287TMC3    H1 4334   2.451   3.687   1.842 -0.2845 -1.6907  0.5717
  287TMC3    H2 4335   2.603   3.354   1.602 -0.5378 -0.9810  6.4676
  287TMC3    C7 4336   2.650   3.522   1.830 -0.1791 -0.5066 -0.3206
  287TMC3    C8 4337   2.519   3.442   1.384  1.3662  0.1518  0.6133
  287TMC3    O1 4338   2.691   3.623   1.889  0.3636 -0.3703 -0.1571
  287TMC3    O2 4339   2.572   3.332   1.379 -0.4451  0.8844  0.3475
  288TMC3    C1 4340   3.351   3.752  15.104 -0.0784 -0.1562  0.2061
  288TMC3    C2 4341   3.272   3.694  15.198 -0.1475 -0.2318  0.2783
  288TMC3    C3 4342   3.228   3.567  15.181  0.0348  1.0716 -0.0982
  288TMC3    C4 4343   3.391   3.686  14.990  0.1331 -0.6680 -0.2635
  288TMC3    C5 4344   3.332   3.558  14.975  0.0582 -0.3628  0.0415
  288TMC3    C6 4345   3.257   3.495  15.070  0.2837 -0.4573  0.8878
  288TMC3     C 4346   3.427   3.869  15.144  0.2364 -0.0016 -0.1899
  288TMC3     O 4347   3.437   3.876  15.268 -0.2347  0.3518 -0.3575
  288TMC3     H 4348   3.250   3.746  15.291 -0.3135 -3.2657  1.9360
  288TMC3    H1 4349   3.466   3.729  14.924  1.5307  1.2475  2.5572
  288TMC3    H2 4350   3.238   3.388  15.063  0.4099 -0.5905  2.4593
  288TMC3    C7 4351   3.353   3.480  14.854  0.8642  0.7487 -0.2686
  288TMC3    C8 4352   3.201   3.497  15.308  0.3555 -0.3667 -0.1964
  288TMC3    O1 4353   3.323   3.364  14.858 -0.0102  0.2220  0.0698
  288TMC3    O2 4354   3.217   3.563  15.411  0.0670  0.2505 -0.0491
  289MPD2     C 4355   3.752   2.898  14.803  0.6813  0.0196 -0.3056
  289MPD2    C1 4356   3.782   3.012  14.736 -0.3470 -0.2123 -0.3710
  289MPD2    C2 4357   3.740   3.020  14.606 -0.0663 -0.6066  0.2385
  289MPD2    C3 4358   3.685   2.909  14.539 -0.6987 -0.0856  0.9296
  289MPD2    C4 4359   3.654   2.800  14.613 -0.0620 -0.3918 -0.2857
  289MPD2    C5 4360   3.683   2.795  14.748 -0.6881 -0.2108  0.6761
  289MPD2     H 4361   3.764   3.112  14.554  2.4793 -1.8932 -0.8751
  289MPD2    H1 4362   3.617   2.706  14.573  0.4918  0.2359 -2.2328
  289MPD2    H2 4363   3.773   2.888  14.908  1.2577 -0.0860 -0.4317
  289MPD2    H3 4364   3.663   2.702  14.800 -0.0029 -0.3130  0.7581
  289MPD2     N 4365   3.670   2.905  14.402  0.8062 -0.6967  0.8922
  289MPD2    H5 4366   3.626   2.823  14.360  1.9479  0.2819 -2.2315
  289MPD2    N1 4367   3.839   3.124  14.795 -0.5103 -0.1143 -0.2389
  289MPD2    H7 4368   3.831   3.208  14.739 -1.1237  0.7459  1.1346
  290TMC3    C1 4369   3.622   2.980  14.190 -0.2099 -0.9474 -0.4940
  290TMC3    C2 4370   3.564   3.090  14.139  0.6697 -0.5479  0.3062
  290TMC3    C3 4371   3.563   3.110  14.003 -0.4815  0.8113 -0.7499
  290TMC3    C4 4372   3.687   2.884  14.111 -0.7060 -0.7528 -0.9496
  290TMC3    C5 4373   3.680   2.902  13.976  0.2767 -0.1939 -0.1902
  290TMC3    C6 4374   3.627   3.016  13.920 -0.1610 -0.0410  0.3003
  290TMC3     C 4375   3.681   3.011  14.319 -0.9110  0.1009  0.2038
  290TMC3     O 4376   3.706   3.129  14.334 -0.6303 -0.2958  0.2612
  290TMC3     H 4377   3.520   3.162  14.208  1.1634 -1.5073  1.6203
  290TMC3    H1 4378   3.730   2.793  14.152  1.1724  0.4514 -0.2796
  290TMC3    H2 4379   3.644   3.039  13.815  0.4361  1.4724  0.7265
  290TMC3    C7 4380   3.690   2.797  13.876  0.5835 -0.3151  1.0289
  290TMC3    C8 4381   3.545   3.251  13.950 -1.3399 -0.2286  0.3004
  290TMC3    O1 4382   3.738   2.833  13.765 -0.7333 -0.1273  0.5776
  290TMC3    O2 4383   3.615   3.289  13.861  0.1573  0.4396  0.0316
  291MPD2     C 4384   3.039   3.358   0.040  0.5235  0.5326 -0.1758
  291MPD2    C1 4385   3.090   3.290   0.150 -0.5119 -0.3165 -0.2150
  291MPD2    C2 4386   3.171   3.359   0.239 -0.1883  0.1296 -0.5232
  291MPD2    C3 4387   3.215   3.491   0.213 -0.3281 -0.2827 -0.6847
  291MPD2    C4 4388   3.163   3.551   0.102 -0.0962  0.2131  0.4372
  291MPD2    C5 4389   3.083   3.481   0.018 -0.2444 -0.0773 -0.3809
  291MPD2     H 4390   3.205   3.307   0.328 -2.2568 -0.5293 -0.1208
  291MPD2    H1 4391   3.196   3.651   0.076  0.9425 -0.3948 -0.5992
  291MPD2    H2 4392   2.966   3.313  17.664  0.5406 -1.8157  1.3886
  291MPD2    H3 4393   3.050   3.529  17.616 -0.2002 -0.3235 -0.5248
  291MPD2     N 4394   3.313   3.561   0.281  0.2846 -0.0618 -0.2986
  291MPD2    H5 4395   3.343   3.649   0.239 -0.1438  0.1840 -0.0959
  291MPD2    N1 4396   3.049   3.166   0.199  0.0567  0.2486 -0.1025
  291MPD2    H7 4397   3.083   3.141   0.291 -2.0506  0.7074  0.7964
  292TMC3    C1 4398   2.954   2.965   0.214  0.0933  0.3034  0.2311
  292TMC3    C2 4399   2.993   2.971   0.347  0.4708  0.4867 -0.3700
  292TMC3    C3 4400   2.996   2.849   0.412 -0.4838 -0.1175  0.1793
  292TMC3    C4 4401   2.929   2.849   0.142 -0.5682 -0.3009 -0.6630
  292TMC3    C5 4402   2.943   2.730   0.206 -0.7720  0.3788 -0.0349
  292TMC3    C6 4403   2.972   2.730   0.346  0.1028  0.3388  0.1798
  292TMC3     C 4404   2.962   3.082   0.137  0.0484 -0.2230  0.3947
  292TMC3     O 4405   2.919   3.082   0.023  0.3717 -0.2860 -0.1096
  292TMC3     H 4406   3.001   3.062   0.404  0.6451  0.3505 -0.1767
  292TMC3    H1 4407   2.891   2.849   0.041  0.5923  0.0661 -1.0973
  292TMC3    H2 4408   2.976   2.630   0.386 -1.3914 -0.5913 -2.0283
  292TMC3    C7 4409   2.909   2.606   0.144 -0.2640 -0.3956  0.1790
  292TMC3    C8 4410   3.009   2.861   0.557 -1.1336 -0.4916  0.0779
  292TMC3    O1 4411   2.923   2.507   0.217 -0.1234 -0.0276 -0.3085
  292TMC3    O2 4412   3.034   2.974   0.597 -0.4682 -0.3473  0.3590
  293MPD2     C 4413   4.644   3.879  12.942 -0.1854  0.3182 -0.5276
  293MPD2    C1 4414   4.565   3.967  13.011 -0.2365  0.4903  0.1136
  293MPD2    C2 4415   4.613   4.021  13.132  0.0459  0.8493 -0.3442
  293MPD2    C3 4416   0.013   3.984  13.186 -0.2651 -0.1295 -0.4256
  293MPD2    C4 4417   0.093   3.896  13.117 -0.1297  0.8855 -0.1835
  293MPD2    C5 4418   0.042   3.842  12.998 -0.8016  0.6668  0.3779
  293MPD2     H 4419   4.553   4.099  13.179  0.0024 -0.6550  2.0955
  293MPD2    H1 4420   0.194   3.870  13.145 -0.9716 -0.8738  1.1942
  293MPD2    H2 4421   4.615   3.829  12.850  1.1449 -1.3818 -0.0364
  293MPD2    H3 4422   0.101   3.771  12.941 -1.9092  0.0853 -0.0499
  293MPD2     N 4423   0.059   4.043  13.311  0.1847  0.6269 -0.7279
  293MPD2    H5 4424   0.009   4.120  13.354  1.8782  2.3401 -1.8456
  293MPD2    N1 4425   4.444   4.010  12.961  0.3693 -0.5509 -0.2908
  293MPD2    H7 4426   4.409   3.970  12.874 -0.4675 -2.5849  1.0008
  294TMC3    C1 4427   4.235   4.093  12.936 -0.1457 -0.3527 -0.2522
  294TMC3    C2 4428   4.109   4.063  12.985 -0.1940 -0.3451  0.1161
  294TMC3    C3 4429   4.002   4.078  12.907  0.4735 -0.1364  1.0612
  294TMC3    C4 4430   4.257   4.145  12.804  0.4727 -0.7237 -0.4308
  294TMC3    C5 4431   4.140   4.175  12.736  0.2297  0.0781  0.4066
  294TMC3    C6 4432   4.013   4.135  12.785 -0.1817 -0.2585 -0.5803
  294TMC3     C 4433   4.350   4.094  13.025  0.7418 -0.3705  0.3031
  294TMC3     O 4434   4.330   4.116  13.143  0.0585 -0.2337 -0.2842
  294TMC3     H 4435   4.105   4.019  13.085 -1.7209 -0.2197  0.1005
  294TMC3    H1 4436   4.356   4.168  12.767  0.6632  1.0131  1.1702
  294TMC3    H2 4437   3.932   4.158  12.717  0.2258  0.5097 -0.8110
  294TMC3    C7 4438   4.139   4.210  12.593 -0.7768 -0.1079  0.9378
  294TMC3    C8 4439   3.907   3.964  12.908 -0.1871 -0.7971 -0.1609
  294TMC3    O1 4440   4.036   4.204  12.531 -1.0429  1.0705 -0.1648
  294TMC3    O2 4441   3.899   3.903  13.013 -0.0217 -0.6416  0.3553
  295MPD2     C 4442   1.007   2.634   0.958 -1.0738 -0.1506  0.2147
  295MPD2    C1 4443   1.062   2.517   0.924 -0.0259 -0.0027  0.5841
  295MPD2    C2 4444   1.119   2.446   1.026  0.0079  0.0594  0.0483
  295MPD2    C3 4445   1.115   2.483   1.160 -0.2295  0.3873 -0.3428
  295MPD2    C4 4446   1.069   2.607   1.192  0.1817  0.4872 -0.1825
  295MPD2    C5 4447   1.015   2.676   1.088  0.3259  0.2133 -0.0382
  295MPD2     H 4448   1.158   2.354   0.984 -1.7576 -0.4145 -0.5660
  295MPD2    H1 4449   1.074   2.657   1.288  0.5152 -0.3599  0.2411
  295MPD2    H2 4450   0.953   2.698   0.890  1.6990  2.7853  0.7367
  295MPD2    H3 4451   0.975   2.775   1.108 -1.2038 -0.3494 -0.3500
  295MPD2     N 4452   1.161   2.400   1.270  0.4447 -0.5244  1.0512
  295MPD2    H5 4453   1.150   2.440   1.363  0.2214  1.1338  0.3011
  295MPD2    N1 4454   1.062   2.459   0.797  0.7606 -0.1868 -0.2662
  295MPD2    H7 4455   1.095   2.364   0.786 -0.2334 -0.6531  0.8171
  296TMC3    C1 4456   1.200   2.202   1.385 -0.1817  0.4952  0.5793
  296TMC3    C2 4457   1.200   2.285   1.496 -0.3732 -0.4105 -0.8576
  296TMC3    C3 4458   1.164   2.223   1.608  0.9037  0.2799 -0.7732
  296TMC3    C4 4459   1.160   2.073   1.374 -0.2542 -0.3368  0.4255
  296TMC3    C5 4460   1.125   2.021   1.496  0.0608  0.4942  0.4627
  296TMC3    C6 4461   1.121   2.096   1.611  0.0859  1.1427 -0.6143
  296TMC3     C 4462   1.192   2.268   1.261 -0.1363 -1.0822  0.2238
  296TMC3     O 4463   1.194   2.199   1.160  0.2984 -0.1155 -0.4224
  296TMC3     H 4464   1.256   2.378   1.495 -2.2100  0.7130 -0.8741
  296TMC3    H1 4465   1.183   2.006   1.292  2.1655  2.1607 -0.9671
  296TMC3    H2 4466   1.112   2.048   1.708  0.0341  0.3903 -0.9975
  296TMC3    C7 4467   1.125   1.869   1.502 -0.3188  0.1082  0.5714
  296TMC3    C8 4468   1.214   2.271   1.736 -0.2852  0.4137  0.0991
  296TMC3    O1 4469   1.171   1.810   1.404  0.1147  0.4059 -0.1206
  296TMC3    O2 4470   1.227   2.192   1.831  0.3276 -0.2554 -0.2481
  297MPD2     C 4471   2.817   0.080  16.732 -0.2760  0.0228 -0.4362
  297MPD2    C1 4472   2.716   0.137  16.659 -0.5432  0.2751 -0.2565
  297MPD2    C2 4473   2.745   0.251  16.589 -0.6164 -0.3100 -0.9866
  297MPD2    C3 4474   2.874   0.312  16.590  1.1918 -0.1286 -0.3455
  297MPD2    C4 4475   2.975   0.245  16.655 -0.2792 -0.3194 -0.1818
  297MPD2    C5 4476   2.941   0.133  16.726 -0.1256 -0.6415 -0.5084
  297MPD2     H 4477   2.670   0.287  16.520 -2.0074 -1.0080  0.1514
  297MPD2    H1 4478   3.080   0.272  16.654 -0.3365 -0.2405 -4.1541
  297MPD2    H2 4479   2.805   4.709  16.786  1.2688 -1.9140 -3.3995
  297MPD2    H3 4480   3.012   0.062  16.766 -1.0566 -2.2842 -1.7153
  297MPD2     N 4481   2.899   0.426  16.504 -0.6517  0.0163 -0.1083
  297MPD2    H5 4482   2.828   0.464  16.442  0.5993 -0.3741 -1.7833
  297MPD2    N1 4483   2.582   0.091  16.657 -0.3396 -0.3089 -0.8164
  297MPD2    H7 4484   2.519   0.151  16.604  0.6945  1.7443  0.2888
  298TMC3    C1 4485   2.404   4.672  16.652  0.0210  0.6262  0.0331
  298TMC3    C2 4486   2.424   4.657  16.518 -0.4374 -0.5668 -0.2300
  298TMC3    C3 4487   2.323   4.692  16.430  0.6434 -0.2599 -0.6479
  298TMC3    C4 4488   2.290   4.717  16.701 -0.6158  0.4566 -0.0208
  298TMC3    C5 4489   2.193   0.049  16.618  0.1577  0.1941  0.2201
  298TMC3    C6 4490   2.210   0.032  16.481  0.8883  0.4551  0.7729
  298TMC3     C 4491   2.525   4.709  16.728 -0.0215 -0.5258  0.0164
  298TMC3     O 4492   2.577   4.629  16.804  0.0108 -0.4143  0.6922
  298TMC3     H 4493   2.512   4.603  16.484 -1.1903 -2.1999  0.3823
  298TMC3    H1 4494   2.281   0.016  16.808  0.8598  0.2635  0.1453
  298TMC3    H2 4495   2.136   0.072  16.412  0.3156 -1.1206  0.4868
  298TMC3    C7 4496   2.121   0.159  16.672  0.0080  0.2110  0.5211
  298TMC3    C8 4497   2.344   4.700  16.284  0.7433 -0.1115 -0.0295
  298TMC3    O1 4498   2.145   0.198  16.785 -0.0995 -0.0395 -0.3752
  298TMC3    O2 4499   2.266   0.042  16.213 -0.4870 -0.0130  0.0647
  299MPD2     C 4500   3.347   4.473  10.970  0.1203 -0.4756  0.1534
  299MPD2    C1 4501   3.329   4.591  10.898 -0.3318  0.3142  0.1803
  299MPD2    C2 4502   3.250   4.575  10.786  0.0612 -0.2308  0.0354
  299MPD2    C3 4503   3.190   4.452  10.753 -0.2351 -0.0754 -0.0431
  299MPD2    C4 4504   3.199   4.344  10.834  1.0497  0.4003  0.1862
  299MPD2    C5 4505   3.276   4.355  10.947  0.2095 -0.1651 -0.0414
  299MPD2     H 4506   3.244   4.649  10.707  1.4483 -1.3132 -1.0923
  299MPD2    H1 4507   3.146   4.252  10.811  2.5607 -0.3369 -0.2987
  299MPD2    H2 4508   3.406   4.486  11.059  1.4493  0.0358 -0.7962
  299MPD2    H3 4509   3.281   4.273  11.017  0.5304 -0.3556 -0.2861
  299MPD2     N 4510   3.105   4.433  10.642 -0.0965  0.0869 -0.2021
  299MPD2    H5 4511   3.041   4.356  10.658  0.0191 -0.0043 -0.1724
  299MPD2    N1 4512   3.396   4.710  10.936 -0.0083 -0.1802  0.2780
  299MPD2    H7 4513   3.452   4.704  11.021  1.2857  0.1132 -0.5426
  300TMC3    C1 4514   2.983   4.494  10.449 -0.5823 -0.6753 -0.5103
  300TMC3    C2 4515   2.950   4.605  10.380  0.1670 -0.7771 -0.1176
  300TMC3    C3 4516   2.821   4.641  10.363 -0.4902  0.4300 -0.1086
  300TMC3    C4 4517   2.885   4.423  10.506 -0.0262 -0.1244 -0.4930
  300TMC3    C5 4518   2.759   4.471  10.498 -0.5750  0.1463 -0.3430
  300TMC3    C6 4519   2.718   4.580  10.428 -0.3006  0.4411 -0.4592
  300TMC3     C 4520   3.109   4.506  10.520  0.6217 -0.1166 -0.6926
  300TMC3     O 4521   3.196   4.577  10.470  0.3026 -0.2830 -0.0185
  300TMC3     H 4522   3.024   4.674  10.342 -0.0201  0.1856  1.2703
  300TMC3    H1 4523   2.910   4.322  10.538 -1.7542 -0.7420 -1.0817
  300TMC3    H2 4524   2.617   4.619  10.428 -0.2305  0.6417  0.4437
  300TMC3    C7 4525   2.665   4.390  10.566 -0.2651  0.4031 -0.7237
  300TMC3    C8 4526   2.796   0.063  10.336 -0.0234 -0.3648 -0.0235
  300TMC3    O1 4527   2.685   4.271  10.571  0.0098  0.2283  0.3717
  300TMC3    O2 4528   2.889   0.142  10.350  0.1812 -0.4273 -0.0372
  301MPD2     C 4529   1.074   0.793   1.325 -0.1265 -0.4032 -0.6285
  301MPD2    C1 4530   0.965   0.874   1.294  0.0902 -0.5994  0.1430
  301MPD2    C2 4531   0.855   0.811   1.246  0.1987  0.6857  0.3548
  301MPD2    C3 4532   0.854   0.681   1.206 -0.6936 -0.1138  0.1873
  301MPD2    C4 4533   0.970   0.606   1.227  0.1845  0.3764 -0.1034
  301MPD2    C5 4534   1.075   0.659   1.295 -0.6502 -0.6465 -0.1623
  301MPD2     H 4535   0.768   0.875   1.237 -0.9167 -0.8935 -0.1046
  301MPD2    H1 4536   0.970   0.502   1.196 -2.1945  0.0521  0.9581
  301MPD2    H2 4537   1.163   0.840   1.365 -2.0120  2.2079  0.4589
  301MPD2    H3 4538   1.161   0.596   1.310 -2.3700 -2.8384  0.4859
  301MPD2     N 4539   0.740   0.614   1.155 -0.2989 -0.5600  0.2406
  301MPD2    H5 4540   0.748   0.513   1.150  3.3724 -0.2353  0.2542
  301MPD2    N1 4541   0.954   1.010   1.325 -0.6234 -0.0439 -0.5145
  301MPD2    H7 4542   0.866   1.061   1.330  0.2622  1.4436 -0.1566
  302TMC3    C1 4543   0.540   0.570   1.057  0.2197 -0.5372 -0.4120
  302TMC3    C2 4544   0.596   0.460   0.995  0.2717  0.0514  0.0727
  302TMC3    C3 4545   0.508   0.389   0.912  0.1205 -0.6254  0.3859
  302TMC3    C4 4546   0.404   0.598   1.050  0.2051 -0.3539  0.0570
  302TMC3    C5 4547   0.324   0.522   0.972 -0.0891  0.2740 -0.2871
  302TMC3    C6 4548   0.372   0.411   0.908  0.0362 -0.2529 -0.7479
  302TMC3     C 4549   0.623   0.670   1.113  0.8545 -0.0196 -0.1344
  302TMC3     O 4550   0.588   0.786   1.101 -0.3062  0.1141  0.9278
  302TMC3     H 4551   0.703   0.443   1.000  0.1633  0.0563  2.5366
  302TMC3    H1 4552   0.368   0.677   1.114 -0.1782 -0.0768 -0.4961
  302TMC3    H2 4553   0.305   0.352   0.846 -0.5963 -1.1305  0.7658
  302TMC3    C7 4554   0.181   0.555   0.949  0.2378  0.7375 -0.2962
  302TMC3    C8 4555   0.568   0.283   0.842 -0.3774  0.2374 -0.6487
  302TMC3    O1 4556   0.120   0.482   0.878  0.1619  0.3723  0.4243
  302TMC3    O2 4557   0.694   0.274   0.857 -0.5076 -0.1447 -0.2611
  303MPD2     C 4558   0.865   0.136  10.639 -0.0376 -0.1148  0.5192
  303MPD2    C1 4559   0.791   0.022  10.658 -0.4393 -0.2866 -0.3093
  303MPD2    C2 4560   0.724   4.673  10.557  0.5381  0.4423  0.3244
  303MPD2    C3 4561   0.733   0.004  10.427 -0.3790 -0.0509  0.0177
  303MPD2    C4 4562   0.808   0.120  10.406 -0.1048  0.4006 -0.2276
  303MPD2    C5 4563   0.872   0.183  10.506 -0.0577 -0.4874 -0.0662
  303MPD2     H 4564   0.668   4.584  10.583 -1.1088  1.2831 -0.3753
  303MPD2    H1 4565   0.820   0.164  10.308  0.5205 -0.8618 -0.7158
  303MPD2    H2 4566   0.921   0.187  10.717  0.2027 -0.0658  0.3136
  303MPD2    H3 4567   0.938   0.268  10.489  1.1048 -1.2799  0.5415
  303MPD2     N 4568   0.677   4.672  10.309  0.0066 -0.0018 -0.1192
  303MPD2    H5 4569   0.693   0.011  10.229  1.1195  1.6223  1.3638
  303MPD2    N1 4570   0.793   4.702  10.791  0.7176  0.6854 -0.0988
  303MPD2    H7 4571   0.853   0.029  10.856  0.8954  1.4581 -0.8467
  304TMC3    C1 4572   0.670   4.665  10.967 -0.1221 -0.3440  0.2347
  304TMC3    C2 4573   0.591   0.057  10.941  0.5999 -0.2699 -0.4928
  304TMC3    C3 4574   0.474   0.080  11.015  0.2991 -0.1248  0.1270
  304TMC3    C4 4575   0.617   4.567  11.058 -0.1495 -0.1781 -0.6134
  304TMC3    C5 4576   0.509   4.602  11.136 -0.1302  0.3482  0.1292
  304TMC3    C6 4577   0.440   0.002  11.127  0.0092  0.3291 -0.0632
  304TMC3     C 4578   0.720   4.604  10.847 -0.2800  0.5361  1.2074
  304TMC3     O 4579   0.648   4.518  10.793 -0.0947  0.3366  0.3381
  304TMC3     H 4580   0.622   0.130  10.867 -0.1677  0.6116  0.0485
  304TMC3    H1 4581   0.654   4.465  11.053  2.0434  0.6299 -0.6121
  304TMC3    H2 4582   0.359   0.034  11.192 -0.8861  1.1356 -1.5578
  304TMC3    C7 4583   0.412   4.493  11.176 -0.4086  0.0067 -0.6268
  304TMC3    C8 4584   0.346   0.083  10.941 -0.7989  0.4829  0.1392
  304TMC3    O1 4585   0.463   4.386  11.213  0.1067 -0.4269  0.2833
  304TMC3    O2 4586   0.247   0.034  10.998 -0.4331 -0.1563 -0.3319
  305MPD2     C 4587   4.160   1.372  13.812  0.2504 -0.0679  0.2298
  305MPD2    C1 4588   4.025   1.354  13.785  0.9750  0.1539 -0.0377
  305MPD2    C2 4589   3.974   1.364  13.660  0.6891  0.6325 -0.3014
  305MPD2    C3 4590   4.060   1.389  13.559 -0.0924 -1.0776  0.1709
  305MPD2    C4 4591   4.193   1.424  13.575 -0.5003  0.0669 -0.0589
  305MPD2    C5 4592   4.244   1.400  13.699  0.6527 -0.0665  0.1184
  305MPD2     H 4593   3.870   1.339  13.643  0.8144  0.7338 -1.1923
  305MPD2    H1 4594   4.259   1.449  13.492 -1.6089  3.2001  0.0034
  305MPD2    H2 4595   4.189   1.355  13.915  2.2594  1.6198 -0.0605
  305MPD2    H3 4596   4.352   1.398  13.713  0.8994 -0.9945 -2.0151
  305MPD2     N 4597   4.014   1.382  13.422  0.2058  0.1135  0.1861
  305MPD2    H5 4598   4.087   1.391  13.352  1.9880 -0.8485  1.9277
  305MPD2    N1 4599   3.945   1.318  13.898 -0.2787 -0.2883  0.2574
  305MPD2    H7 4600   3.995   1.302  13.984 -0.6516  1.6521  0.8361
  306TMC3    C1 4601   3.777   1.293  14.053  0.1259 -0.6072  0.6593
  306TMC3    C2 4602   3.825   1.178  14.117  0.2240 -0.6438 -0.2847
  306TMC3    C3 4603   3.794   1.165  14.246 -0.5473 -0.5073 -1.1938
  306TMC3    C4 4604   3.697   1.384  14.111 -0.0233 -0.3007  0.6204
  306TMC3    C5 4605   3.685   1.366  14.247 -0.0896 -0.1501 -0.1038
  306TMC3    C6 4606   3.741   1.265  14.318  0.1063  0.2522 -0.4594
  306TMC3     C 4607   3.810   1.313  13.911  0.1158  0.0226  0.3071
  306TMC3     O 4608   3.726   1.350  13.831 -0.3007 -0.1746 -0.3456
  306TMC3     H 4609   3.887   1.102  14.071 -0.0985 -2.5990  2.4889
  306TMC3    H1 4610   3.642   1.464  14.062 -1.4129 -0.7061  1.5095
  306TMC3    H2 4611   3.730   1.261  14.426  1.0875 -0.8390 -0.3956
  306TMC3    C7 4612   3.633   1.475  14.321 -0.2119 -0.6647 -0.2290
  306TMC3    C8 4613   3.822   1.046  14.317  0.2307  0.2854  0.2077
  306TMC3    O1 4614   3.532   1.526  14.280  0.2240 -0.0049 -0.0296
  306TMC3    O2 4615   3.901   0.971  14.261 -0.2227  0.2096  0.2125
  307MPD2     C 4616   2.108   3.771   0.147  0.4715 -0.0026 -0.0159
  307MPD2    C1 4617   2.005   3.850   0.095  0.6583 -0.0361  0.7824
  307MPD2    C2 4618   1.938   3.933   0.192 -0.0124  0.3715 -0.6935
  307MPD2    C3 4619   1.984   3.941   0.319  0.8479 -0.1516 -0.2383
  307MPD2    C4 4620   2.068   3.845   0.371  0.1094 -0.5781 -0.4314
  307MPD2    C5 4621   2.135   3.764   0.284 -0.1294 -0.1189 -0.3210
  307MPD2     H 4622   1.848   3.985   0.162  1.0403  0.4490 -3.7868
  307MPD2    H1 4623   2.089   3.841   0.477  0.4498  0.7552 -0.4457
  307MPD2    H2 4624   2.166   3.697   0.092  1.8634  0.6274  0.6130
  307MPD2    H3 4625   2.214   3.695   0.313  0.6094  1.6190  1.7975
  307MPD2     N 4626   1.911   4.024   0.405  0.3213  0.1824  0.1283
  307MPD2    H5 4627   1.919   4.009   0.505  1.4846 -1.7667 -0.2495
  307MPD2    N1 4628   1.950   3.836  17.660  0.1613  0.1188  0.4312
  307MPD2    H7 4629   1.880   3.906  17.635 -2.2544 -1.8525  1.7600
  308TMC3    C1 4630   1.563   4.157   0.594  0.0119 -0.3076  0.3008
  308TMC3    C2 4631   1.533   4.293   0.592  0.3203 -0.3466 -0.2802
  308TMC3    C3 4632   1.626   4.370   0.544 -1.0570  0.5893  0.1704
  308TMC3    C4 4633   1.678   4.102   0.533 -0.3450  0.3027 -0.8112
  308TMC3    C5 4634   1.762   4.191   0.477  0.1621 -0.2646  0.0404
  308TMC3    C6 4635   1.743   4.329   0.488 -0.1550 -0.3669  0.4124
  308TMC3     C 4636   1.464   4.065   0.643 -0.2061 -0.6996  0.1627
  308TMC3     O 4637   1.514   3.956   0.668 -0.2614 -0.2015  0.5033
  308TMC3     H 4638   1.454   4.329   0.657  0.1367 -0.9824 -0.1496
  308TMC3    H1 4639   1.696   3.998   0.555 -0.1935  0.5161  0.1109
  308TMC3    H2 4640   1.820   4.393   0.446 -1.0797 -2.4227 -4.3155
  308TMC3    C7 4641   1.856   4.146   0.377 -0.4361 -0.4790 -0.5600
  308TMC3    C8 4642   1.577   4.497   0.497 -0.4526  0.3405 -0.2711
  308TMC3    O1 4643   1.889   4.217   0.285 -0.0171  0.8563 -0.0408
  308TMC3    O2 4644   1.497   4.553   0.573 -0.6513  0.2361 -0.0220
  309MPD2     C 4645   0.372   4.336  16.815  0.4091 -0.6704  0.1246
  309MPD2    C1 4646   0.395   4.468  16.845 -0.1203  0.1304  0.0099
  309MPD2    C2 4647   0.305   4.532  16.938 -0.8848  0.3809 -0.9016
  309MPD2    C3 4648   0.200   4.461  16.994 -0.3424 -0.2758 -0.0974
  309MPD2    C4 4649   0.177   4.330  16.957 -0.2604  0.0837  0.0576
  309MPD2    C5 4650   0.264   4.270  16.866  0.0653 -0.2288  0.5191
  309MPD2     H 4651   0.328   4.633  16.973 -3.6674  1.0596 -1.0513
  309MPD2    H1 4652   0.103   4.270  17.010  0.7108 -2.6345 -1.6826
  309MPD2    H2 4653   0.436   4.281  16.748  0.0572  1.1579 -1.7088
  309MPD2    H3 4654   0.269   4.162  16.852 -2.3826 -0.3996  0.9919
  309MPD2     N 4655   0.117   4.505  17.098  0.8905 -0.1606 -0.4340
  309MPD2    H5 4656   0.045   4.440  17.130  1.4413 -0.0008  1.1665
  309MPD2    N1 4657   0.506   4.542  16.793 -0.0378 -0.3130 -0.0416
  309MPD2    H7 4658   0.501   4.642  16.809  1.3454 -0.2499  0.0092
  310TMC3    C1 4659   0.724   4.588  16.725  0.2052  0.7057 -0.2114
  310TMC3    C2 4660   0.684   4.714  16.697  0.2504 -0.1990 -0.1060
  310TMC3    C3 4661   0.778   0.091  16.673 -0.0055 -0.6022  0.2500
  310TMC3    C4 4662   0.852   4.542  16.721  0.8785  0.2318 -0.5233
  310TMC3    C5 4663   0.944   4.644  16.693  0.1926 -0.5196  0.4093
  310TMC3    C6 4664   0.912   0.051  16.672 -0.4368 -0.3620  0.1910
  310TMC3     C 4665   0.618   4.489  16.734 -0.2456  0.0840 -1.0879
  310TMC3     O 4666   0.646   4.376  16.697 -0.5120 -0.2918 -0.0681
  310TMC3     H 4667   0.579   0.011  16.679  0.5183  1.0990 -0.2768
  310TMC3    H1 4668   0.878   4.446  16.764 -0.1731 -0.2623 -0.9803
  310TMC3    H2 4669   0.996   0.114  16.646 -0.4408 -0.0979  0.8013
  310TMC3    C7 4670   1.080   4.622  16.740  0.0248 -0.3467 -0.5227
  310TMC3    C8 4671   0.747   0.190  16.578  0.1458  0.2929  0.7075
  310TMC3    O1 4672   1.136   4.520  16.710  0.2740 -0.0395  0.2785
  310TMC3    O2 4673   0.633   0.183  16.529  0.0880 -0.1362  0.0304
  311MPD2     C 4674   2.431   1.392  12.424 -0.3248  0.3645 -0.7715
  311MPD2    C1 4675   2.430   1.428  12.557 -0.3864  0.4778 -0.1240
  311MPD2    C2 4676   2.333   1.378  12.645  0.3257 -0.6127 -0.2754
  311MPD2    C3 4677   2.231   1.302  12.601  0.2771 -0.4289 -0.1441
  311MPD2    C4 4678   2.241   1.259  12.467  0.1503 -0.0631  0.0886
  311MPD2    C5 4679   2.340   1.300  12.378 -0.6779 -0.2057  0.2148
  311MPD2     H 4680   2.326   1.410  12.748 -2.7926 -2.0088 -0.0471
  311MPD2    H1 4681   2.161   1.197  12.428  2.9636 -2.4241 -1.8640
  311MPD2    H2 4682   2.495   1.432  12.345  1.5217 -2.0186 -0.4928
  311MPD2    H3 4683   2.350   1.269  12.275  1.5109 -0.9672  0.6330
  311MPD2     N 4684   2.133   1.251  12.689 -0.7377  0.6290  0.1042
  311MPD2    H5 4685   2.133   1.275  12.788  1.8804 -1.2507  0.5690
  311MPD2    N1 4686   2.538   1.498  12.613 -0.3112 -0.4246  0.1661
  311MPD2    H7 4687   2.528   1.511  12.713  0.5081 -1.2027  0.3480
  312TMC3    C1 4688   1.936   1.150  12.767 -0.1201  0.4659 -0.3006
  312TMC3    C2 4689   1.800   1.149  12.737 -0.7662  0.3731 -0.3287
  312TMC3    C3 4690   1.718   1.089  12.827  0.7773  0.6258 -0.3766
  312TMC3    C4 4691   1.989   1.096  12.880 -0.1561  1.0051 -0.1101
  312TMC3    C5 4692   1.902   1.045  12.968 -0.2666  0.1612  0.1888
  312TMC3    C6 4693   1.765   1.036  12.946 -0.3991 -0.0166 -0.1038
  312TMC3     C 4694   2.021   1.178  12.654 -0.6425 -0.2104  0.1273
  312TMC3     O 4695   1.984   1.155  12.540  0.1912  0.0527  0.2249
  312TMC3     H 4696   1.762   1.190  12.644 -0.2666 -0.6052 -0.9716
  312TMC3    H1 4697   2.093   1.069  12.896 -0.2397  0.2265 -0.9013
  312TMC3    H2 4698   1.694   0.995  13.017  0.8272 -0.2318  0.9971
  312TMC3    C7 4699   1.966   0.929  13.032 -0.2176  0.4200 -0.5334
  312TMC3    C8 4700   1.576   1.074  12.800  0.2349  0.0131  0.3747
  312TMC3    O1 4701   1.892   0.833  13.055 -0.1984 -0.3361 -0.1017
  312TMC3    O2 4702   1.507   1.026  12.889 -0.1298  0.3934  0.1289
  313MPD2     C 4703   2.001   0.251  10.771  0.5282  0.7289 -0.3398
  313MPD2    C1 4704   1.873   0.276  10.717 -0.1668 -0.3624 -0.6815
  313MPD2    C2 4705   1.855   0.257  10.585 -0.0769  0.0687 -0.1672
  313MPD2    C3 4706   1.958   0.212  10.504  0.4570 -1.0221 -0.2563
  313MPD2    C4 4707   2.085   0.186  10.556 -0.1828 -0.3459  0.4455
  313MPD2    C5 4708   2.101   0.203  10.694 -0.1761 -0.3091  0.0466
  313MPD2     H 4709   1.757   0.267  10.540 -0.6237  4.1226  1.8633
  313MPD2    H1 4710   2.170   0.152  10.498 -0.8005 -1.8877  0.4491
  313MPD2    H2 4711   2.015   0.269  10.877  0.3986 -0.4676 -0.1148
  313MPD2    H3 4712   2.201   0.187  10.731 -0.2913  1.1070  0.9883
  313MPD2     N 4713   1.937   0.191  10.364 -0.5809  0.1178  0.4092
  313MPD2    H5 4714   1.859   0.237  10.318  0.0828 -0.2663 -1.0888
  313MPD2    N1 4715   1.771   0.330  10.794  0.1891 -0.4722  0.3494
  313MPD2    H7 4716   1.679   0.338  10.752 -0.2614  0.0073  1.4353
  314TMC3    C1 4717   1.675   0.483  10.936 -0.0361  0.3921  0.3799
  314TMC3    C2 4718   1.709   0.593  11.011 -0.4056  0.4305  0.2083
  314TMC3    C3 4719   1.680   0.715  10.949 -0.1641  0.4703  0.3217
  314TMC3    C4 4720   1.591   0.483  10.822  0.3939 -0.4307 -0.4035
  314TMC3    C5 4721   1.554   0.611  10.775 -0.1221 -0.2615  0.7809
  314TMC3    C6 4722   1.601   0.728  10.835 -0.6167 -0.3355 -0.5950
  314TMC3     C 4723   1.782   0.384  10.921  0.0335  0.8005 -0.1805
  314TMC3     O 4724   1.881   0.407  10.991 -0.2454  0.5780  0.0732
  314TMC3     H 4725   1.779   0.595  11.093  1.2322  4.2337 -1.2397
  314TMC3    H1 4726   1.548   0.394  10.778 -0.7018 -0.3786  0.5614
  314TMC3    H2 4727   1.584   0.822  10.784  0.8726  0.2065 -0.1087
  314TMC3    C7 4728   1.474   0.616  10.661 -0.4950 -0.4493 -0.1232
  314TMC3    C8 4729   1.797   0.798  10.932  0.1476  0.1000 -0.2125
  314TMC3    O1 4730   1.391   0.531  10.641  0.4515  0.1983 -0.0372
  314TMC3    O2 4731   1.774   0.910  10.888  0.1922 -0.4029 -0.3249
  315MPD2     C 4732   1.989   4.382   0.788  0.0628  0.0320 -0.1360
  315MPD2    C1 4733   2.057   4.403   0.671 -0.4118  0.1568 -0.1212
  315MPD2    C2 4734   2.040   4.514   0.594  0.0143 -0.0788 -0.1046
  315MPD2    C3 4735   1.947   4.609   0.633  0.1256  0.0192  0.1502
  315MPD2    C4 4736   1.870   4.584   0.746 -0.6140  0.3237 -0.2377
  315MPD2    C5 4737   1.892   4.478   0.824  0.2266 -0.2201  0.0892
  315MPD2     H 4738   2.081   4.521   0.494  1.7133 -1.2816  0.5107
  315MPD2    H1 4739   1.799   4.658   0.782 -1.2715  0.6687 -2.2601
  315MPD2    H2 4740   2.002   4.297   0.854  0.6525  0.4284  0.2608
  315MPD2    H3 4741   1.835   4.469   0.916  0.6797  1.6849  0.5569
  315MPD2     N 4742   1.952   0.009   0.560  0.3517  0.3065  0.3098
  315MPD2    H5 4743   2.017   0.009   0.482 -0.5251  1.8979 -0.4264
  315MPD2    N1 4744   2.152   4.310   0.616  0.5410  0.1591 -0.4526
  315MPD2    H7 4745   2.201   4.343   0.533  2.7307 -1.2663  0.2802
  316TMC3    C1 4746   1.891   0.220   0.472 -0.8935  0.2734 -0.3112
  316TMC3    C2 4747   2.022   0.253   0.451 -0.1585  0.0067  0.1960
  316TMC3    C3 4748   2.056   0.342   0.349  0.1797  0.9905  0.6115
  316TMC3    C4 4749   1.798   0.275   0.393 -0.1409  0.3049  0.1892
  316TMC3    C5 4750   1.833   0.358   0.296 -0.1846 -0.6395  0.0983
  316TMC3    C6 4751   1.962   0.403   0.274 -0.1727  0.6520 -0.2097
  316TMC3     C 4752   1.857   0.108   0.564 -0.4044 -0.5298  0.0473
  316TMC3     O 4753   1.741   0.107   0.609  0.2130 -0.2852  0.1960
  316TMC3     H 4754   2.095   0.231   0.527 -0.9136  0.6482  1.1108
  316TMC3    H1 4755   1.693   0.254   0.406  0.2092 -0.0418  2.4718
  316TMC3    H2 4756   1.981   0.476   0.196 -1.1231  0.7947 -0.3044
  316TMC3    C7 4757   1.724   0.424   0.230 -0.0341 -0.2489 -0.7083
  316TMC3    C8 4758   2.177   0.418   0.357 -0.3070 -0.2584 -0.8139
  316TMC3    O1 4759   1.609   0.422   0.265  0.5137  0.1650  0.1409
  316TMC3    O2 4760   2.169   0.534   0.312  0.4126 -0.2569  0.0362
  317MPD2     C 4761   3.808   3.158  12.599 -0.1044  0.5371 -0.5164
  317MPD2    C1 4762   3.885   3.052  12.568 -0.2551 -0.3061 -0.5291
  317MPD2    C2 4763   3.941   2.984  12.680  1.0222  0.2830 -0.2057
  317MPD2    C3 4764   3.918   3.037  12.806  0.3426  0.4205  0.2704
  317MPD2    C4 4765   3.825   3.130  12.827  0.3156  0.1272 -0.5452
  317MPD2    C5 4766   3.764   3.188  12.721  0.8797 -0.0578 -0.5336
  317MPD2     H 4767   4.018   2.909  12.661  0.4870 -1.0381  2.8540
  317MPD2    H1 4768   3.800   3.167  12.926  2.1094 -1.6243  0.5676
  317MPD2    H2 4769   3.779   3.229  12.523 -0.1173 -1.5484 -2.4591
  317MPD2    H3 4770   3.715   3.283  12.736  2.0328  0.3555  0.6054
  317MPD2     N 4771   3.986   2.981  12.923  0.2449 -0.4162  0.4524
  317MPD2    H5 4772   4.050   2.905  12.904 -1.9873 -1.9556 -0.9331
  317MPD2    N1 4773   3.922   3.010  12.442 -0.3211  0.3987 -0.1276
  317MPD2    H7 4774   3.999   2.945  12.436  1.2043  2.1460  0.5534
  318TMC3    C1 4775   4.063   2.925  13.131 -0.0383 -0.7188  0.0659
  318TMC3    C2 4776   4.020   2.792  13.129 -0.3071  0.2589  0.1620
  318TMC3    C3 4777   4.088   2.707  13.212 -0.2458  0.1736 -0.3869
  318TMC3    C4 4778   4.169   2.968  13.204  0.6955 -0.5829 -0.7180
  318TMC3    C5 4779   4.236   2.878  13.281 -0.2024  0.9451  0.1928
  318TMC3    C6 4780   4.192   2.750  13.293 -0.4012  1.1998  0.5484
  318TMC3     C 4781   3.986   3.025  13.052  0.3691  0.3162  0.5127
  318TMC3     O 4782   3.944   3.127  13.102  0.0809 -0.4589  0.5531
  318TMC3     H 4783   3.942   2.762  13.060 -1.6292  2.3168  0.7496
  318TMC3    H1 4784   4.189   3.073  13.184  0.8718 -0.0651  2.2711
  318TMC3    H2 4785   4.242   2.681  13.360 -2.7664  0.8384  1.9242
  318TMC3    C7 4786   4.348   2.923  13.352  0.0332  0.2609 -0.0082
  318TMC3    C8 4787   4.034   2.572  13.240 -0.5437  0.8892 -0.0801
  318TMC3    O1 4788   4.372   3.041  13.342 -0.6369 -0.2075 -0.1139
  318TMC3    O2 4789   4.115   2.500  13.293 -0.2729  0.2075 -0.3939
  319MPD2     C 4790   0.098   3.687  16.850  0.6537  0.0266  0.2693
  319MPD2    C1 4791   0.026   3.803  16.865 -0.0313 -0.2588 -0.1649
  319MPD2    C2 4792   4.661   3.837  16.762 -0.0881 -0.1503  0.6112
  319MPD2    C3 4793   4.644   3.745  16.656 -0.8165 -0.2303  0.8021
  319MPD2    C4 4794   4.705   3.621  16.659 -0.3528 -0.3505  0.7893
  319MPD2    C5 4795   0.072   3.588  16.759 -0.6238  0.4703  0.2067
  319MPD2     H 4796   4.617   3.936  16.756  0.5072  0.0647 -0.2113
  319MPD2    H1 4797   4.684   3.552  16.578 -0.8590  0.3978  0.2860
  319MPD2    H2 4798   0.177   3.661  16.920  0.6658 -1.8627 -0.4349
  319MPD2    H3 4799   0.133   3.499  16.747 -2.4142 -0.6482 -0.6148
  319MPD2     N 4800   4.567   3.778  16.543 -0.3619 -0.1756 -0.1245
  319MPD2    H5 4801   4.557   3.702  16.476  1.5403 -0.0527 -0.5530
  319MPD2    N1 4802   0.033   3.873  16.988  0.6616  0.3440  0.3783
  319MPD2    H7 4803   4.687   3.947  17.001 -1.5315 -1.2523 -1.9323
  320TMC3    C1 4804   4.403   3.895  16.419  0.1282  0.5701 -0.1735
  320TMC3    C2 4805   4.350   4.011  16.365  0.0942  0.3287 -0.2312
  320TMC3    C3 4806   4.234   4.002  16.295  0.1789  0.0853  0.5459
  320TMC3    C4 4807   4.345   3.770  16.397 -0.4088 -0.3822  0.1989
  320TMC3    C5 4808   4.213   3.766  16.346  0.3846 -0.6632  0.2713
  320TMC3    C6 4809   4.157   3.880  16.290  0.1890 -0.0722 -0.6422
  320TMC3     C 4810   4.513   3.903  16.513 -0.6806 -0.0525 -0.0808
  320TMC3     O 4811   4.548   4.019  16.541 -0.1642  0.1831 -0.5560
  320TMC3     H 4812   4.398   4.108  16.365 -2.6402  1.6679  1.3515
  320TMC3    H1 4813   4.392   3.677  16.426  0.4797  0.3514  1.0855
  320TMC3    H2 4814   4.068   3.869  16.230 -1.3278 -1.0043  1.7702
  320TMC3    C7 4815   4.144   3.640  16.329 -0.1034  0.2656 -0.2920
  320TMC3    C8 4816   4.220   4.096  16.189 -0.5056 -0.1272 -0.1274
  320TMC3    O1 4817   4.205   3.538  16.319 -0.1792  0.5422 -0.9863
  320TMC3    O2 4818   4.254   4.215  16.202  0.7392 -0.0704  0.0797
  321TMC3    C1 4819   0.099   3.945  17.204  0.4237 -0.3855 -0.1269
  321TMC3    C2 4820   4.702   3.920  17.265 -0.6102 -0.0518 -0.3961
  321TMC3    C3 4821   4.701   3.915  17.401 -0.4604  0.6820  0.2088
  321TMC3    C4 4822   0.208   3.964  17.279 -0.1635 -0.2241 -0.2839
  321TMC3    C5 4823   0.201   3.974  17.420 -0.1435  0.9581 -0.2892
  321TMC3    C6 4824   0.086   3.948  17.478  0.3165 -0.2621 -0.5251
  321TMC3     C 4825   0.121   3.855  17.086 -0.3969  0.1710 -0.1958
  321TMC3     O 4826   0.223   3.788  17.087 -0.3402  0.1205 -0.1116
  321TMC3     H 4827   4.623   3.870  17.209 -0.1130 -0.4317 -0.7596
  321TMC3    H1 4828   0.305   3.943  17.236 -0.8333 -0.7171 -1.5727
  321TMC3    H2 4829   0.080   3.950  17.586  0.1642  1.0739 -0.5540
  321TMC3    C7 4830   0.294   3.894  17.493  0.4587  0.1783 -0.0026
  321TMC3    C8 4831   4.637   3.792  17.446  0.2621 -0.6301 -0.7429
  321TMC3    O1 4832   0.260   3.822  17.587  0.3850  0.2665  0.1128
  321TMC3    O2 4833   4.523   3.760  17.405 -0.5386 -0.1840  0.4933
  322MPD2     C 4834   3.422   0.259  13.770  0.3496 -0.6372 -0.1728
  322MPD2    C1 4835   3.393   0.269  13.906 -0.2886  0.2005  0.0545
  322MPD2    C2 4836   3.349   0.162  13.974  0.2955 -0.3918  0.6476
  322MPD2    C3 4837   3.326   0.041  13.913  0.1659 -0.8150  0.2279
  322MPD2    C4 4838   3.344   0.037  13.774  0.5267 -0.1118 -0.4893
  322MPD2    C5 4839   3.391   0.142  13.706  0.4181 -0.7737 -0.2094
  322MPD2     H 4840   3.350   0.167  14.083  1.4759 -0.5188  0.6428
  322MPD2    H1 4841   3.318   4.668  13.721 -2.9488  0.7265 -0.2651
  322MPD2    H2 4842   3.465   0.341  13.714  1.0628 -2.4628 -2.2513
  322MPD2    H3 4843   3.416   0.135  13.600  1.4730  0.9674 -0.0799
  322MPD2     N 4844   3.304   4.652  13.997  0.2515  0.1732  0.1718
  322MPD2    H5 4845   3.315   4.664  14.097 -1.9530  0.4711  0.3822
  322MPD2    N1 4846   3.439   0.391  13.970 -0.0770 -0.3462 -0.3275
  322MPD2    H7 4847   3.501   0.453  13.920  2.0360 -0.7905  1.7583
  323TMC3    C1 4848   3.507   0.527  14.156  0.4350  0.0896 -0.1636
  323TMC3    C2 4849   3.559   0.617  14.069 -0.3340 -0.0385  0.3728
  323TMC3    C3 4850   3.634   0.716  14.118  0.1894  0.5498  0.2750
  323TMC3    C4 4851   3.523   0.524  14.290  0.5386  0.0109 -0.6684
  323TMC3    C5 4852   3.618   0.619  14.335 -0.4234 -0.3889  0.3928
  323TMC3    C6 4853   3.664   0.715  14.254  0.2544  0.2767  0.9273
  323TMC3     C 4854   3.422   0.417  14.106  0.1506  0.0741 -0.1093
  323TMC3     O 4855   3.347   0.375  14.192 -0.0537  0.2493  0.0510
  323TMC3     H 4856   3.554   0.619  13.960  3.0585 -2.0825  0.1807
  323TMC3    H1 4857   3.503   0.433  14.345  0.6708  0.0826 -0.5048
  323TMC3    H2 4858   3.742   0.782  14.289 -0.2036  0.7215  1.1004
  323TMC3    C7 4859   3.720   0.556  14.410  0.4109 -0.1141  0.3597
  323TMC3    C8 4860   3.752   0.753  14.048  0.8242 -0.0401  0.0608
  323TMC3    O1 4861   3.696   0.478  14.499 -0.5407 -0.3364 -0.5539
  323TMC3    O2 4862   3.854   0.703  14.099  0.5720  0.3898 -0.5196
  324MPD2     C 4863   0.569   2.121  14.169  0.4629 -0.5078  0.0116
  324MPD2    C1 4864   0.607   2.258  14.158 -0.5814  0.2822 -0.0276
  324MPD2    C2 4865   0.508   2.347  14.116 -1.2624 -0.2777  0.0516
  324MPD2    C3 4866   0.375   2.310  14.095 -0.0131  0.0833  0.3416
  324MPD2    C4 4867   0.341   2.178  14.108  0.2354  0.1497  0.2350
  324MPD2    C5 4868   0.441   2.085  14.146  0.0299  0.2911  0.1120
  324MPD2     H 4869   0.538   2.450  14.102  0.6624 -0.6658  1.2357
  324MPD2    H1 4870   0.240   2.144  14.088 -0.1707  1.1404  0.6319
  324MPD2    H2 4871   0.640   2.042  14.191  0.6100 -0.5911 -0.7373
  324MPD2    H3 4872   0.423   1.980  14.162 -2.5420  0.8172  0.6060
  324MPD2     N 4873   0.273   2.407  14.060  0.1175  0.0364 -0.1247
  324MPD2    H5 4874   0.176   2.377  14.056  0.2396 -0.2061 -1.4608
  324MPD2    N1 4875   0.736   2.303  14.184 -0.0810  0.4589 -1.0236
  324MPD2    H7 4876   0.753   2.403  14.180  0.1949  0.4519  0.1094
  325TMC3    C1 4877   0.165   2.609  14.013 -0.7125  0.6370 -0.4885
  325TMC3    C2 4878   0.058   2.532  13.984  0.0344 -0.3177  0.0771
  325TMC3    C3 4879   4.659   2.573  14.024 -0.1276 -0.0991 -0.4118
  325TMC3    C4 4880   0.153   2.729  14.081  0.1032  0.6479 -0.2227
  325TMC3    C5 4881   0.033   2.765  14.126  0.3902 -0.4560  0.5681
  325TMC3    C6 4882   4.642   2.687  14.093 -0.4771  0.1738  0.3510
  325TMC3     C 4883   0.290   2.541  14.048  0.7945 -0.7003  0.0015
  325TMC3     O 4884   0.390   2.609  14.073 -0.2835  0.0601 -0.2880
  325TMC3     H 4885   0.077   2.435  13.939 -0.3245 -0.5230  0.3670
  325TMC3    H1 4886   0.243   2.778  14.115 -0.1445  1.8657 -1.3166
  325TMC3    H2 4887   4.540   2.723  14.092 -0.3975  0.4173  1.1264
  325TMC3    C7 4888   0.018   2.878  14.219  0.1591  1.3287 -0.4447
  325TMC3    C8 4889   4.546   2.479  14.022 -0.2574 -0.0551 -0.1383
  325TMC3    O1 4890   0.106   2.961  14.224 -0.0002 -0.0332  0.8702
  325TMC3    O2 4891   4.531   2.401  13.932 -0.0758  0.5773 -0.1132
  326MPD2     C 4892   1.529   3.152  11.452  0.0049  0.1027  1.1826
  326MPD2    C1 4893   1.500   3.163  11.319 -0.4299 -0.4183  0.3184
  326MPD2    C2 4894   1.595   3.178  11.227  0.0637  0.3074 -0.2512
  326MPD2    C3 4895   1.727   3.196  11.267  0.2278 -0.0920  0.2932
  326MPD2    C4 4896   1.758   3.190  11.401  0.3495  0.1587 -1.1572
  326MPD2    C5 4897   1.659   3.165  11.497 -0.0112  0.7899  0.2032
  326MPD2     H 4898   1.568   3.177  11.122 -3.1450 -0.7753  0.5798
  326MPD2    H1 4899   1.865   3.191  11.421  0.1085 -1.0994  0.1853
  326MPD2    H2 4900   1.457   3.131  11.530  1.0202  0.6094  2.2691
  326MPD2    H3 4901   1.678   3.152  11.603 -1.5572 -1.2139  0.2358
  326MPD2     N 4902   1.833   3.216  11.178 -0.1647  0.2695 -0.3116
  326MPD2    H5 4903   1.920   3.236  11.228 -0.2401 -1.4965  0.5622
  326MPD2    N1 4904   1.372   3.142  11.268  0.4915 -0.3909  0.4964
  326MPD2    H7 4905   1.360   3.123  11.169 -0.0946  1.5264  0.1905
  327TMC3    C1 4906   1.149   3.112  11.260  0.4903 -0.1976 -0.6969
  327TMC3    C2 4907   1.076   3.215  11.205  0.1694 -0.2455 -0.5200
  327TMC3    C3 4908   1.026   3.200  11.076  0.3627 -0.7390 -0.0277
  327TMC3    C4 4909   1.164   2.989  11.198  0.7199 -0.1750 -0.7146
  327TMC3    C5 4910   1.125   2.983  11.070  0.2204 -0.1700  0.3896
  327TMC3    C6 4911   1.054   3.086  11.005 -0.6557  0.0718  0.0014
  327TMC3     C 4912   1.260   3.157  11.341  0.5621  0.2052  0.1075
  327TMC3     O 4913   1.247   3.214  11.443  0.2759  0.4154  0.6165
  327TMC3     H 4914   1.090   3.315  11.246 -0.8111 -0.8574  1.2833
  327TMC3    H1 4915   1.207   2.900  11.241  1.6387  0.3337 -0.5811
  327TMC3    H2 4916   1.010   3.068  10.908  1.1616 -0.5826 -0.7141
  327TMC3    C7 4917   1.223   2.928  10.980 -0.3524  0.3144  0.1416
  327TMC3    C8 4918   0.955   3.309  11.008  1.0534 -0.3040  0.5972
  327TMC3    O1 4919   1.192   2.934  10.862 -0.4034  0.0690 -0.0925
  327TMC3    O2 4920   0.943   3.317  10.885  0.6878  0.7571 -0.1046
  328MPD2     C 4921   3.947   3.048  17.274 -0.7617  0.0505  0.3068
  328MPD2    C1 4922   3.886   2.928  17.298  0.1468 -0.6975 -0.2098
  328MPD2    C2 4923   3.786   2.884  17.209 -0.4199  0.0473  0.2638
  328MPD2    C3 4924   3.738   2.972  17.108 -0.2987 -0.2261 -0.3788
  328MPD2    C4 4925   3.807   3.090  17.087 -0.2973 -0.0960 -0.2502
  328MPD2    C5 4926   3.905   3.128  17.173 -0.3927  0.8820 -0.5110
  328MPD2     H 4927   3.723   2.798  17.228  0.8590 -1.0846 -0.5866
  328MPD2    H1 4928   3.769   3.162  17.015 -0.3310  0.3896  0.2529
  328MPD2    H2 4929   4.029   3.088  17.332  0.6422 -3.0799  0.4704
  328MPD2    H3 4930   3.964   3.217  17.152 -2.0415  1.9708 -0.5838
  328MPD2     N 4931   3.628   2.943  17.016 -0.0810 -0.2875 -0.2108
  328MPD2    H5 4932   3.599   3.022  16.960 -0.0619  0.3820  0.7129
  328MPD2    N1 4933   3.930   2.856  17.410  0.1066  0.0266  0.3061
  328MPD2    H7 4934   3.996   2.910  17.466  2.6457 -0.1397 -2.5296
  329TMC3    C1 4935   3.986   2.692  17.557  0.3120  0.2718 -0.6268
  329TMC3    C2 4936   3.984   2.783  17.662 -1.6928 -0.7295  0.2657
  329TMC3    C3 4937   4.033   2.731   0.088  0.2881 -0.7604  0.1812
  329TMC3    C4 4938   4.040   2.568  17.563  0.1571  0.1477  0.0809
  329TMC3    C5 4939   4.106   2.534  17.675 -0.6802  0.2409 -0.0312
  329TMC3    C6 4940   4.098   2.609   0.100  0.2937 -0.1227 -0.2234
  329TMC3     C 4941   3.912   2.727  17.439  0.6568 -0.3486  0.2667
  329TMC3     O 4942   3.858   2.647  17.366  0.0055 -0.1032  0.4829
  329TMC3     H 4943   3.936   2.880  17.658 -1.0113 -0.3562  1.2280
  329TMC3    H1 4944   4.047   2.511  17.471  0.4572  0.1852  0.0812
  329TMC3    H2 4945   4.130   2.565   0.194 -1.4456 -0.0965  0.3772
  329TMC3    C7 4946   4.174   2.404  17.687  0.0451  0.2311 -0.0690
  329TMC3    C8 4947   4.076   2.829   0.194 -0.1665 -1.1591 -0.0946
  329TMC3    O1 4948   4.242   2.382   0.095 -0.1847 -0.5782  0.0355
  329TMC3    O2 4949   4.172   2.797   0.264  0.6054  0.3710  0.6187
  330TMC3    C1 4950   1.484   2.981   9.479 -0.1283 -0.0022  0.1556
  330TMC3    C2 4951   1.414   2.894   9.403  0.1640 -0.4992  0.9540
  330TMC3    C3 4952   1.464   2.766   9.397  0.1124  0.3870 -0.8007
  330TMC3    C4 4953   1.612   2.949   9.526  0.0432 -0.5071 -0.2848
  330TMC3    C5 4954   1.659   2.823   9.515  0.3581 -0.2337 -0.3377
  330TMC3    C6 4955   1.584   2.721   9.450 -0.5409 -0.2967  0.8376
  330TMC3     C 4956   1.428   3.110   9.516 -0.6747  0.7485 -0.1106
  330TMC3     O 4957   1.504   3.191   9.569 -0.6797  0.7176  0.6819
  330TMC3     H 4958   1.321   2.925   9.355  0.0952 -0.1424  1.3172
  330TMC3    H1 4959   1.668   3.025   9.579  0.7677 -2.1597  1.2985
  330TMC3    H2 4960   1.631   2.625   9.435  0.7648  0.3058  1.0523
  330TMC3    C7 4961   1.769   2.785   9.614  0.1610 -0.3498  0.4333
  330TMC3    C8 4962   1.389   2.664   9.312  0.6986 -0.5934 -0.1480
  330TMC3    O1 4963   1.833   2.870   9.674  0.3527  0.1329  0.2503
  330TMC3    O2 4964   1.317   2.716   9.229  0.9207 -0.2057 -0.8805
  331MPD2     C 4965   3.895   1.679  12.281 -0.3207  0.0045 -0.4791
  331MPD2    C1 4966   3.992   1.712  12.186  0.3154  0.7822  0.0370
  331MPD2    C2 4967   4.099   1.624  12.173 -0.4349  0.3576 -0.2198
  331MPD2    C3 4968   4.099   1.510  12.250  0.6472 -0.4436  0.2010
  331MPD2    C4 4969   4.006   1.490  12.351  0.0182 -0.0453  0.6540
  331MPD2    C5 4970   3.901   1.577  12.362  0.3275  0.3185 -0.1191
  331MPD2     H 4971   4.176   1.627  12.097 -0.9092 -3.6513 -0.8961
  331MPD2    H1 4972   4.009   1.405  12.418  1.0825 -0.0076  0.6626
  331MPD2    H2 4973   3.809   1.745  12.286 -1.1011 -1.0636  0.0608
  331MPD2    H3 4974   3.824   1.565  12.438  1.0423 -0.8176  0.4246
  331MPD2     N 4975   4.202   1.411  12.227  0.5839 -1.0887 -0.1761
  331MPD2    H5 4976   4.263   1.422  12.147  2.3367  0.3645  1.3891
  331MPD2    N1 4977   3.988   1.837  12.112 -0.3016 -0.0245 -0.2446
  331MPD2    H7 4978   3.908   1.894  12.137  0.4358 -0.2601  2.6636
  332TMC3    C1 4979   4.364   1.256  12.264  0.0510 -0.1362  0.0248
  332TMC3    C2 4980   4.449   1.334  12.187  0.0183  0.9500 -0.5556
  332TMC3    C3 4981   4.560   1.278  12.134  0.8571 -1.1504 -0.1239
  332TMC3    C4 4982   4.409   1.134  12.306  0.0124 -0.3404  0.3114
  332TMC3    C5 4983   4.538   1.088  12.269  0.9094 -0.2542  0.3375
  332TMC3    C6 4984   4.610   1.156  12.179  0.1709  0.6529 -0.3599
  332TMC3     C 4985   4.245   1.308  12.313  0.1362  0.2202  0.1071
  332TMC3     O 4986   4.191   1.251  12.406 -0.2765  0.4907 -0.7573
  332TMC3     H 4987   4.429   1.436  12.157 -0.3416  0.4241 -2.1073
  332TMC3    H1 4988   4.351   1.077  12.378 -0.2102 -0.6913 -0.1497
  332TMC3    H2 4989   4.708   1.132  12.140  0.3982 -0.3036  0.8221
  332TMC3    C7 4990   4.594   0.969  12.339  0.1770 -0.7043 -1.3520
  332TMC3    C8 4991   4.628   1.363  12.048 -1.5241  0.2143  0.0152
  332TMC3    O1 4992   4.517   0.902  12.404  0.1106  0.8629  0.1655
  332TMC3    O2 4993   4.650   1.475  12.093  0.0830 -0.2048 -0.0943
  333MPD2     C 4994   0.249   1.302  10.911  0.3611 -0.2594  0.2384
  333MPD2    C1 4995   0.178   1.198  10.857 -0.8934 -0.1622 -0.4300
  333MPD2    C2 4996   0.099   1.117  10.934 -0.3556  0.2358  0.2646
  333MPD2    C3 4997   0.093   1.145  11.069 -0.1917  0.3979  0.2923
  333MPD2    C4 4998   0.152   1.257  11.124 -0.4157  0.1805  0.2188
  333MPD2    C5 4999   0.237   1.327  11.050 -0.4555  0.7481 -0.5016
  333MPD2     H 5000   0.046   1.036  10.884 -0.2023  0.6896 -0.6451
  333MPD2    H1 5001   0.143   1.280  11.229  1.4426 -0.5471  0.5429
  333MPD2    H2 5002   0.309   1.363  10.846  2.5864 -0.9766  1.6165
  333MPD2    H3 5003   0.285   1.411  11.100 -1.0020  0.5703  0.3149
  333MPD2     N 5004   0.013   1.063  11.149  0.1348  0.3361 -0.0372
  333MPD2    H5 5005   4.682   0.993  11.098 -1.1782  0.3877  1.2425
  333MPD2    N1 5006   0.197   1.175  10.718  0.2500  0.2401  0.0121
  333MPD2    H7 5007   0.263   1.235  10.670 -1.0621  0.8684 -0.9924
  334TMC3    C1 5008   0.145   1.151  10.506  0.3100 -0.6091 -0.1497
  334TMC3    C2 5009   0.216   1.086  10.411  0.3138 -0.2454 -0.1797
  334TMC3    C3 5010   0.284   1.168  10.323 -0.2741  0.1645  0.2340
  334TMC3    C4 5011   0.138   1.291  10.507 -0.4297 -0.0072 -0.2042
  334TMC3    C5 5012   0.205   1.362  10.412  0.1824  0.9878 -0.1372
  334TMC3    C6 5013   0.279   1.304  10.323 -0.0494  1.3653  0.3989
  334TMC3     C 5014   0.124   1.090  10.634 -0.9135 -0.6107 -1.1141
  334TMC3     O 5015   0.012   1.039  10.655 -0.1011 -0.3899  0.0414
  334TMC3     H 5016   0.246   0.983  10.429 -0.0095 -0.4479 -0.7795
  334TMC3    H1 5017   0.082   1.339  10.586 -1.9844  0.3041 -1.5019
  334TMC3    H2 5018   0.347   1.368  10.267  1.0717  0.4483  0.7076
  334TMC3    C7 5019   0.224   1.501  10.448  0.8911 -0.2066 -0.0365
  334TMC3    C8 5020   0.401   1.106  10.264  0.2895 -0.1828  0.1764
  334TMC3    O1 5021   0.213   1.536  10.565 -0.2387 -0.4500  0.6392
  334TMC3    O2 5022   0.380   0.991  10.219 -0.2012  0.2116 -0.5112
  335TMC3    C1 5023   4.562   3.376  17.291 -0.3912 -0.0237  0.1012
  335TMC3    C2 5024   4.470   3.288  17.342 -0.3851 -0.2446  0.4136
  335TMC3    C3 5025   4.510   3.162  17.380  0.6952 -0.2405  0.2876
  335TMC3    C4 5026   4.685   3.329  17.250  0.6291  0.1029  0.1390
  335TMC3    C5 5027   0.004   3.206  17.293 -0.0296  0.1504  0.7208
  335TMC3    C6 5028   4.636   3.118  17.357  0.2001 -0.3919  0.1557
  335TMC3     C 5029   4.524   3.497  17.223 -0.3293 -0.4075 -0.5932
  335TMC3     O 5030   4.610   3.572  17.183 -0.0202 -0.3935 -0.2141
  335TMC3     H 5031   4.372   3.321  17.375 -0.8557 -2.4090  1.2196
  335TMC3    H1 5032   0.017   3.381  17.172 -0.9982 -1.3668 -1.9283
  335TMC3    H2 5033   4.669   3.015  17.363  0.1187 -0.4847 -0.8982
  335TMC3    C7 5034   0.140   3.172  17.301 -0.8804  0.3316 -1.1073
  335TMC3    C8 5035   4.404   3.062  17.413 -0.6526  0.2576  0.6269
  335TMC3    O1 5036   0.163   3.055  17.334  0.0892 -0.0196 -0.1076
  335TMC3    O2 5037   4.290   3.091  17.374 -0.1296  0.4406  0.3035
  336MPD2     C 5038   4.589   0.671  16.177  0.3950  0.2138  0.5007
  336MPD2    C1 5039   4.598   0.585  16.071 -0.2085 -0.1335 -0.3461
  336MPD2    C2 5040   4.657   0.464  16.089 -0.1969  0.5038  0.4737
  336MPD2    C3 5041   4.714   0.433  16.214 -0.1113 -0.0176 -0.0111
  336MPD2    C4 5042   4.711   0.521  16.316  0.3322 -0.2588 -0.4914
  336MPD2    C5 5043   4.641   0.639  16.297  0.3115  0.3633 -0.3504
  336MPD2     H 5044   4.652   0.396  16.005  1.4182 -0.6071  1.2633
  336MPD2    H1 5045   0.029   0.501  16.415 -1.0812 -0.4818  0.0307
  336MPD2    H2 5046   4.551   0.772  16.167 -0.0284  0.2119  2.0006
  336MPD2    H3 5047   4.644   0.716  16.373 -0.7248  1.2711 -1.2165
  336MPD2     N 5048   0.046   0.309  16.247  0.1792 -0.8965  0.5006
  336MPD2    H5 5049   0.056   0.283  16.344 -0.9893 -0.7137  0.6693
  336MPD2    N1 5050   4.530   0.606  15.947 -0.0607 -0.5112 -0.2146
  336MPD2    H7 5051   4.514   0.523  15.892 -2.2223 -1.5375  1.9428
  337TMC3    C1 5052   4.372   0.715  15.806  0.1319 -0.6295  0.4496
  337TMC3    C2 5053   4.301   0.603  15.781 -0.6979  0.7306  0.5362
  337TMC3    C3 5054   4.213   0.606  15.670  0.8254 -0.5579 -0.6408
  337TMC3    C4 5055   4.357   0.828  15.737 -0.4116 -0.0786  0.3685
  337TMC3    C5 5056   4.260   0.834  15.631  0.3335 -0.4143  0.4217
  337TMC3    C6 5057   4.189   0.719  15.602  0.0193 -0.4046  0.4756
  337TMC3     C 5058   4.472   0.722  15.910 -0.5559  0.3854  0.0462
  337TMC3     O 5059   4.490   0.834  15.956  0.9488  0.2067  0.0864
  337TMC3     H 5060   4.323   0.511  15.834  0.9726  0.1430 -1.2046
  337TMC3    H1 5061   4.396   0.921  15.777  3.3526 -1.7289  0.5046
  337TMC3    H2 5062   4.120   0.721  15.518  0.6859  2.0982 -0.0313
  337TMC3    C7 5063   4.204   0.965  15.602 -0.1359 -0.3566 -0.1410
  337TMC3    C8 5064   4.108   0.506  15.673 -0.7178  0.9590 -0.9076
  337TMC3    O1 5065   4.100   0.966  15.541 -0.8384  0.0044  0.3891
  337TMC3    O2 5066   4.121   0.413  15.753  0.0638 -0.0903  0.3543
  338MPD2     C 5067   0.253   4.462   0.993  0.9237  0.1845 -0.3831
  338MPD2    C1 5068   0.216   4.460   0.860 -0.1402 -0.2385 -0.4804
  338MPD2    C2 5069   0.090   4.511   0.825  0.2953  0.9449  0.8191
  338MPD2    C3 5070   0.005   4.556   0.922 -0.6179 -0.0562 -1.0317
  338MPD2    C4 5071   0.046   4.556   1.051  0.0976  0.0035 -0.3233
  338MPD2    C5 5072   0.172   4.507   1.087  0.1181  0.5747 -0.7632
  338MPD2     H 5073   0.060   4.529   0.722  1.0039  0.8273  0.5916
  338MPD2    H1 5074   4.706   4.587   1.134  2.7402  1.4250  1.1302
  338MPD2    H2 5075   0.357   4.439   1.009  0.8179 -0.8239 -1.1321
  338MPD2    H3 5076   0.199   4.507   1.192 -0.7131  1.5481 -0.5500
  338MPD2     N 5077   4.606   4.616   0.872  0.7543  0.5093  0.2327
  338MPD2    H5 5078   4.587   4.607   0.773  1.6204  1.9884 -0.0593
  338MPD2    N1 5079   0.296   4.400   0.761 -0.6138  0.1458  0.2907
  338MPD2    H7 5080   0.257   4.394   0.668 -1.8479 -0.3611  0.8416
  339TMC3    C1 5081   4.380   4.658   0.872  0.3348 -0.3054  0.1145
  339TMC3    C2 5082   4.259   4.595   0.897  0.1875 -0.0962 -0.0044
  339TMC3    C3 5083   4.157   4.621   0.809 -0.6335 -0.8532  0.6826
  339TMC3    C4 5084   4.396   0.024   0.771 -0.8644 -0.2416  0.1416
  339TMC3    C5 5085   4.295   0.046   0.686  0.1151 -0.1494 -0.2360
  339TMC3    C6 5086   4.170   4.716   0.710 -0.7051 -0.4266 -0.3787
  339TMC3     C 5087   4.495   4.630   0.949 -0.7184  0.6796  0.4409
  339TMC3     O 5088   4.481   4.608   1.068  0.0950  0.0414  0.4355
  339TMC3     H 5089   4.246   4.525   0.978  0.3281  1.5272  1.4341
  339TMC3    H1 5090   4.485   0.083   0.754 -1.2343  0.4410  0.5994
  339TMC3    H2 5091   4.086   0.037   0.657  0.9651  1.6241 -1.3697
  339TMC3    C7 5092   4.332   0.088   0.555  0.4464 -0.0525 -0.0548
  339TMC3    C8 5093   4.044   4.540   0.808  0.2848  0.6631  0.4765
  339TMC3    O1 5094   4.412   0.178   0.539 -0.7939  0.2683  0.8973
  339TMC3    O2 5095   3.938   4.585   0.764  0.2425 -0.2315  0.2431
  340MPD2     C 5096   4.367   2.765   9.646 -0.2098 -0.1097 -0.6520
  340MPD2    C1 5097   4.402   2.657   9.719  0.3876  0.4702 -0.0915
  340MPD2    C2 5098   4.490   2.675   9.826  0.2277  0.0395  0.0099
  340MPD2    C3 5099   4.526   2.800   9.867  0.1932 -0.3259  0.2128
  340MPD2    C4 5100   4.488   2.908   9.786 -0.0640 -0.0825  1.2120
  340MPD2    C5 5101   4.402   2.894   9.681 -0.1094  0.1952 -0.8348
  340MPD2     H 5102   4.512   2.588   9.887 -2.4270 -1.0682 -0.5904
  340MPD2    H1 5103   4.507   3.011   9.811 -1.1061  0.1136  1.1786
  340MPD2    H2 5104   4.294   2.763   9.565  0.9458  2.5602 -1.7748
  340MPD2    H3 5105   4.375   2.984   9.627 -0.0950  0.2764 -0.7069
  340MPD2     N 5106   4.614   2.825   9.978 -0.3753 -0.1383 -0.1305
  340MPD2    H5 5107   4.632   2.922  10.001  0.2863 -1.1846  3.6755
  340MPD2    N1 5108   4.368   2.532   9.661 -0.5302  0.7138  0.4673
  340MPD2    H7 5109   4.315   2.530   9.575 -0.8725  1.7489  0.6604
  341TMC3    C1 5110   4.343   2.301   9.642  0.7359 -0.7352  0.5080
  341TMC3    C2 5111   4.301   2.318   9.507  0.1047 -0.4556  0.7255
  341TMC3    C3 5112   4.270   2.205   9.435 -0.3556 -0.9268  0.0770
  341TMC3    C4 5113   4.345   2.180   9.703  0.3613  0.4673  0.0800
  341TMC3    C5 5114   4.313   2.069   9.630 -0.7352  0.1241  0.2499
  341TMC3    C6 5115   4.274   2.080   9.494 -0.2066  0.2304 -0.2106
  341TMC3     C 5116   4.392   2.413   9.718 -0.1795 -0.0366 -0.0728
  341TMC3     O 5117   4.462   2.391   9.821 -0.1132  0.2267  0.2062
  341TMC3     H 5118   4.319   2.410   9.454  0.4226  0.1551  1.9068
  341TMC3    H1 5119   4.378   2.164   9.805  0.5435  0.3011 -0.0043
  341TMC3    H2 5120   4.256   1.987   9.440  1.0929  0.2778 -0.7192
  341TMC3    C7 5121   4.322   1.936   9.691  0.2462  0.0717  0.6685
  341TMC3    C8 5122   4.197   2.232   9.310 -0.3539 -0.4337  0.8346
  341TMC3    O1 5123   4.395   1.923   9.789  0.0859 -0.3651  0.1424
  341TMC3    O2 5124   4.194   2.349   9.271  0.4187 -0.5057  0.5680
  342MPD2     C 5125   2.661   1.316  17.079  0.3140  0.4960 -0.0199
  342MPD2    C1 5126   2.784   1.288  17.130  0.1618  1.0181 -0.0143
  342MPD2    C2 5127   2.845   1.382  17.219 -0.3028 -0.1219  0.4582
  342MPD2    C3 5128   2.788   1.506  17.244 -0.6227 -0.5471 -0.5388
  342MPD2    C4 5129   2.665   1.535  17.181  0.0790  0.6371 -0.0309
  342MPD2    C5 5130   2.608   1.441  17.100  0.4011 -0.7585  0.1853
  342MPD2     H 5131   2.937   1.346  17.263 -0.4062 -0.0907  0.6974
  342MPD2    H1 5132   2.623   1.635  17.185 -1.8714 -0.1324 -1.2956
  342MPD2    H2 5133   2.600   1.248  17.020  0.5807  1.2622 -1.1892
  342MPD2    H3 5134   2.534   1.466  17.026  0.7248  2.2271  0.8694
  342MPD2     N 5135   2.842   1.594  17.335  0.4363  0.0236 -0.4843
  342MPD2    H5 5136   2.781   1.674  17.350  1.6181  1.3921 -3.0790
  342MPD2    N1 5137   2.840   1.163  17.097  0.1915 -0.9905 -0.1581
  342MPD2    H7 5138   2.774   1.097  17.058 -0.6514 -1.7044  2.4662
  343TMC3    C1 5139   3.003   1.007  17.073  0.8375 -0.4469  0.7321
  343TMC3    C2 5140   3.115   0.973  17.012 -0.1126 -0.3641  0.2065
  343TMC3    C3 5141   3.149   0.838  17.013  1.1404 -0.1469  0.7534
  343TMC3    C4 5142   2.915   0.918  17.131  0.0680 -0.0435  0.0902
  343TMC3    C5 5143   2.950   0.786  17.128  0.7602 -0.1876 -0.5728
  343TMC3    C6 5144   3.063   0.748  17.064  0.8841  0.0322 -0.6465
  343TMC3     C 5145   2.980   1.143  17.113  0.4591 -0.7748 -0.4623
  343TMC3     O 5146   3.071   1.223  17.108  0.9700 -0.3883  0.7570
  343TMC3     H 5147   3.168   1.049  16.957  1.2930 -2.1787 -0.9537
  343TMC3    H1 5148   2.829   0.943  17.192 -1.4054 -1.6097 -1.3569
  343TMC3    H2 5149   3.075   0.642  17.046  1.0240  0.0859 -0.8688
  343TMC3    C7 5150   2.894   0.699  17.225  0.3539  0.1814 -0.1480
  343TMC3    C8 5151   3.269   0.793  16.954  0.7847 -0.2888 -0.7778
  343TMC3    O1 5152   2.785   0.729  17.272  0.0521  0.1588 -0.0519
  343TMC3    O2 5153   3.266   0.691  16.889  0.1739  0.0029  0.5127
  344MPD2     C 5154   3.892   0.690  10.939 -0.6404  1.0186 -0.6420
  344MPD2    C1 5155   3.769   0.670  10.873  0.2218 -0.0952 -0.1802
  344MPD2    C2 5156   3.742   0.747  10.755  0.8059  0.3685 -0.0621
  344MPD2    C3 5157   3.818   0.854  10.724  0.5235  0.1764  0.2164
  344MPD2    C4 5158   3.942   0.867  10.778 -0.4050  0.3561  0.6908
  344MPD2    C5 5159   3.968   0.788  10.887  0.0615  0.7332  0.3361
  344MPD2     H 5160   3.658   0.721  10.692  0.4449 -0.3077  0.7034
  344MPD2    H1 5161   4.014   0.940  10.745 -0.3045 -0.1394 -0.1849
  344MPD2    H2 5162   3.931   0.631  11.021  0.0651  1.8314 -0.3897
  344MPD2    H3 5163   4.054   0.809  10.950  0.6083 -0.6523  0.0467
  344MPD2     N 5164   3.789   0.927  10.609 -0.4698  0.1189  0.5519
  344MPD2    H5 5165   3.856   0.995  10.575  1.3089 -1.0882  1.6809
  344MPD2    N1 5166   3.688   0.556  10.900  0.3820  0.3599  0.5188
  344MPD2    H7 5167   3.619   0.539  10.827  0.7043  1.9591 -0.1551
  345TMC3    C1 5168   3.684   1.015  10.437 -0.6788  0.3565  0.3524
  345TMC3    C2 5169   3.770   1.119  10.442 -0.1449 -0.1222 -0.5452
  345TMC3    C3 5170   3.790   1.196  10.328 -0.6012 -0.6695  0.0080
  345TMC3    C4 5171   3.600   0.996  10.331  0.1698  0.3280 -0.2634
  345TMC3    C5 5172   3.627   1.075  10.216 -0.0637  0.3337 -0.0257
  345TMC3    C6 5173   3.714   1.180  10.218  0.1301  0.7366  0.5672
  345TMC3     C 5174   3.674   0.920  10.540  0.1360 -0.9253 -0.3212
  345TMC3     O 5175   3.569   0.862  10.559  0.0754  0.2065 -0.2052
  345TMC3     H 5176   3.822   1.150  10.532 -0.5374 -1.2236  0.0569
  345TMC3    H1 5177   3.527   0.916  10.335 -1.7294  2.0220 -0.9972
  345TMC3    H2 5178   3.729   1.251  10.138 -1.8715 -1.1480 -1.4490
  345TMC3    C7 5179   3.533   1.055  10.102  0.0997 -0.3343  0.1232
  345TMC3    C8 5180   3.854   1.324  10.342 -0.1636 -0.2828 -0.1842
  345TMC3    O1 5181   3.448   0.974  10.130  0.0372 -0.3673  0.0283
  345TMC3    O2 5182   3.799   1.413  10.286 -0.1996  0.0634 -0.6031
  346MPD2     C 5183   3.802   2.323  14.260  0.5045 -0.0434 -0.4275
  346MPD2    C1 5184   3.900   2.417  14.232 -0.0376 -0.4199  0.1908
  346MPD2    C2 5185   3.938   2.507  14.326 -0.3878 -0.5559  0.8784
  346MPD2    C3 5186   3.896   2.496  14.459  0.1863 -0.0897  0.2825
  346MPD2    C4 5187   3.801   2.398  14.486 -0.2711 -0.0789 -0.3440
  346MPD2    C5 5188   3.759   2.314  14.387 -0.4351  0.2013 -0.0363
  346MPD2     H 5189   4.019   2.573  14.299 -1.4423  0.1076 -0.6754
  346MPD2    H1 5190   3.754   2.397  14.583 -0.6771 -2.3585 -0.5646
  346MPD2    H2 5191   3.760   2.242  14.202 -2.0922  0.3073  0.9482
  346MPD2    H3 5192   3.677   2.246  14.407  0.6392 -0.2253  2.8883
  346MPD2     N 5193   3.948   2.580  14.566  0.0526  0.0854  0.0198
  346MPD2    H5 5194   4.019   2.648  14.539 -0.4479  0.7931  0.4761
  346MPD2    N1 5195   3.956   2.422  14.101 -0.1428 -0.9131 -0.6422
  346MPD2    H7 5196   4.008   2.507  14.083 -0.4335  0.1956  3.8572
  347TMC3    C1 5197   4.008   2.638  14.779  0.3812  0.3866  0.0604
  347TMC3    C2 5198   4.064   2.745  14.717  0.1362  0.3969  0.9832
  347TMC3    C3 5199   4.184   2.794  14.758 -0.9216 -0.0910  0.2651
  347TMC3    C4 5200   4.083   2.573  14.876 -0.8181 -0.0309  0.1651
  347TMC3    C5 5201   4.197   2.632  14.917  0.8316 -0.5230 -0.6084
  347TMC3    C6 5202   4.242   2.752  14.874 -0.1920 -0.0587  0.2780
  347TMC3     C 5203   3.934   2.552  14.696  0.0133 -0.3168  0.5507
  347TMC3     O 5204   3.873   2.461  14.748 -0.0031 -0.5341 -0.2305
  347TMC3     H 5205   4.021   2.803  14.637  0.5247 -1.4995 -0.5838
  347TMC3    H1 5206   4.054   2.473  14.904  0.0242 -0.1551  0.6197
  347TMC3    H2 5207   4.342   2.786  14.897  0.2571 -1.5926  0.6186
  347TMC3    C7 5208   4.295   2.540  14.968  0.1887 -0.1306  0.6808
  347TMC3    C8 5209   4.264   2.842  14.649  0.1353  0.3155  0.2474
  347TMC3    O1 5210   4.279   2.425  14.927 -0.0189 -0.3964 -0.4312
  347TMC3    O2 5211   4.238   2.795  14.539  0.5359 -0.3399 -0.0032
  348MPD2     C 5212   2.214   1.327  11.517 -0.4619  0.0834  0.1609
  348MPD2    C1 5213   2.304   1.419  11.476 -0.6644  0.2546  0.0048
  348MPD2    C2 5214   2.273   1.523  11.404  0.0724 -0.2568 -0.7769
  348MPD2    C3 5215   2.142   1.547  11.367  0.4355  0.7855 -0.0695
  348MPD2    C4 5216   2.045   1.464  11.414 -0.0875 -0.1054  0.1962
  348MPD2    C5 5217   2.083   1.352  11.481 -0.8211  0.6693 -0.1664
  348MPD2     H 5218   2.347   1.585  11.354 -0.5116  0.0107 -1.3207
  348MPD2    H1 5219   1.940   1.471  11.390 -0.1628  3.2328  1.4391
  348MPD2    H2 5220   2.242   1.239  11.575  0.7896 -0.5016 -1.3147
  348MPD2    H3 5221   2.011   1.273  11.500  2.0089 -2.5226 -2.7078
  348MPD2     N 5222   2.113   1.658  11.287  0.3126  0.5880  0.2005
  348MPD2    H5 5223   2.196   1.697  11.243  1.3999 -2.3769 -0.3895
  348MPD2    N1 5224   2.438   1.414  11.512 -0.1042  0.5004  0.0341
  348MPD2    H7 5225   2.496   1.492  11.482  0.6046 -0.5854 -1.4546
  349TMC3    C1 5226   2.647   1.340  11.611 -0.1153  0.2306 -0.2599
  349TMC3    C2 5227   2.712   1.295  11.726  0.1550 -0.5573 -0.2643
  349TMC3    C3 5228   2.830   1.350  11.775 -0.9277 -0.5963  0.8288
  349TMC3    C4 5229   2.712   1.437  11.546  0.2611 -0.5483 -0.1447
  349TMC3    C5 5230   2.833   1.484  11.586 -0.3691 -0.4497 -0.0296
  349TMC3    C6 5231   2.894   1.445  11.706  0.1677  0.3781  0.3332
  349TMC3     C 5232   2.505   1.318  11.590  0.1652  0.1532 -0.2679
  349TMC3     O 5233   2.467   1.226  11.661 -0.5359  0.1306 -0.1206
  349TMC3     H 5234   2.668   1.211  11.779 -0.4407 -0.5822 -0.8055
  349TMC3    H1 5235   2.653   1.482  11.467  2.4640  0.1726 -1.3700
  349TMC3    H2 5236   2.983   1.495  11.742  0.4720  1.8002 -2.4147
  349TMC3    C7 5237   2.853   1.626  11.548 -0.6326  0.3660 -0.0816
  349TMC3    C8 5238   2.887   1.273  11.887 -0.4722  0.4110 -0.4595
  349TMC3    O1 5239   2.901   1.700  11.637  0.8827  0.6119 -0.0990
  349TMC3    O2 5240   2.800   1.217  11.956  0.1040  0.1892  0.0894
  350MPD2     C 5241   1.174   0.117   9.994  0.1663 -0.1518  0.1779
  350MPD2    C1 5242   1.257   0.007  10.008 -0.9207  0.3307 -0.1487
  350MPD2    C2 5243   1.391   0.011   9.995  0.5221 -0.5110 -0.1797
  350MPD2    C3 5244   1.451   0.132   9.976  0.0947 -0.5601 -0.3330
  350MPD2    C4 5245   1.377   0.248   9.974 -0.6567 -0.1512 -0.4547
  350MPD2    C5 5246   1.239   0.238   9.987  0.2614  0.0090 -0.0694
  350MPD2     H 5247   1.447   4.644  10.022  0.8320  0.1536  1.3457
  350MPD2    H1 5248   1.415   0.348   9.956  2.3042 -1.6478 -2.6731
  350MPD2    H2 5249   1.066   0.122   9.996  0.1244 -1.1784  0.3014
  350MPD2    H3 5250   1.181   0.329   9.992 -1.7967 -1.1217 -3.1281
  350MPD2     N 5251   1.593   0.134   9.960 -0.0435 -0.5422  0.5572
  350MPD2    H5 5252   1.635   0.044   9.943  0.6272 -0.1318  0.0213
  350MPD2    N1 5253   1.204   4.604  10.020  0.0674 -0.2339  0.1469
  350MPD2    H7 5254   1.273   4.534  10.047  0.1611  0.1790  0.9952
  351TMC3    C1 5255   1.055   4.429  10.013 -0.6551  0.2395  0.2928
  351TMC3    C2 5256   1.153   4.345   9.965 -0.3237  0.0173  0.2499
  351TMC3    C3 5257   1.117   4.212   9.948 -0.0593  0.4651  0.0681
  351TMC3    C4 5258   0.932   4.381  10.055 -0.1871  0.2494  1.0067
  351TMC3    C5 5259   0.908   4.250  10.040  0.4221  0.0724  0.7976
  351TMC3    C6 5260   0.993   4.163   9.981 -0.4077  0.2510 -0.1721
  351TMC3     C 5261   1.074   4.571  10.029 -0.6238  0.6724  0.5056
  351TMC3     O 5262   0.976   4.645  10.050 -0.0878 -0.1907  0.3057
  351TMC3     H 5263   1.247   4.378   9.923  0.0884 -0.2265  0.9879
  351TMC3    H1 5264   0.856   4.437  10.109 -0.8407  1.1039 -0.7917
  351TMC3    H2 5265   0.970   4.059   9.966 -0.7986  0.6663 -2.4377
  351TMC3    C7 5266   0.777   4.200  10.078  0.2685  0.1810  0.1050
  351TMC3    C8 5267   1.220   4.124   9.910 -0.1738 -0.0037  0.0208
  351TMC3    O1 5268   0.748   4.246  10.189 -0.4115  0.5486  0.1282
  351TMC3    O2 5269   1.187   4.026   9.839 -0.1741  0.0551  0.4398
  352MPD2     C 5270   1.039   1.794   0.826  0.2052 -0.6300 -0.9274
  352MPD2    C1 5271   0.993   1.842   0.941 -0.0112  0.4399  0.0265
  352MPD2    C2 5272   0.993   1.755   1.045  0.5189 -0.0290 -0.1921
  352MPD2    C3 5273   1.022   1.619   1.032 -0.2782 -0.5383  0.0909
  352MPD2    C4 5274   1.064   1.572   0.914  0.3334 -0.4451  0.0042
  352MPD2    C5 5275   1.069   1.662   0.810  0.1867  0.5363 -0.4171
  352MPD2     H 5276   0.974   1.781   1.149 -2.4673 -4.1522  0.3029
  352MPD2    H1 5277   1.087   1.468   0.894  0.0059 -0.1045 -2.1536
  352MPD2    H2 5278   1.032   1.855   0.737  0.9002 -0.8584 -1.1384
  352MPD2    H3 5279   1.106   1.630   0.713  0.3232 -1.4675  0.3036
  352MPD2     N 5280   1.003   1.524   1.135 -0.0161  0.4648 -0.1506
  352MPD2    H5 5281   1.046   1.433   1.117  1.4313  0.6900  2.0948
  352MPD2    N1 5282   0.951   1.973   0.942  0.1251 -0.5215 -0.0237
  352MPD2    H7 5283   0.928   2.018   0.854 -1.5044 -1.2447  0.0257
  353TMC3    C1 5284   0.917   1.426   1.335 -0.2023 -0.0634 -0.6704
  353TMC3    C2 5285   1.017   1.331   1.326 -1.0587  0.5570  0.2161
  353TMC3    C3 5286   1.003   1.220   1.407 -0.1681  0.3796 -0.3365
  353TMC3    C4 5287   0.810   1.420   1.425  0.3536 -0.4621 -0.4089
  353TMC3    C5 5288   0.810   1.310   1.506  0.2858 -0.1942 -0.9910
  353TMC3    C6 5289   0.899   1.207   1.498 -0.0986 -0.5196 -0.0464
  353TMC3     C 5290   0.920   1.537   1.243  0.5406 -0.1246  0.1438
  353TMC3     O 5291   0.851   1.635   1.273 -0.4193 -0.3311  0.7009
  353TMC3     H 5292   1.093   1.333   1.248  0.1079  0.6510  1.3472
  353TMC3    H1 5293   0.740   1.501   1.442 -1.3340 -1.4355 -2.7380
  353TMC3    H2 5294   0.888   1.119   1.561 -2.7586 -0.1668 -0.0144
  353TMC3    C7 5295   0.709   1.297   1.616  0.2086 -0.1939 -0.3001
  353TMC3    C8 5296   1.061   1.090   1.357 -0.0096 -0.6826 -0.3013
  353TMC3    O1 5297   0.720   1.221   1.710 -0.2614  0.8297 -0.2162
  353TMC3    O2 5298   1.176   1.058   1.370 -0.2867  0.2234 -0.7886
  354TMC3    C1 5299   1.312   3.205  13.237  0.0129  0.2992  0.2948
  354TMC3    C2 5300   1.306   3.338  13.222 -0.2175 -0.7021  0.4785
  354TMC3    C3 5301   1.291   3.392  13.097  0.5289 -0.1922  0.0839
  354TMC3    C4 5302   1.270   3.128  13.134 -0.2537 -0.0586 -0.8117
  354TMC3    C5 5303   1.265   3.183  13.010 -0.2379 -0.0753 -0.0420
  354TMC3    C6 5304   1.271   3.315  12.985 -0.2483  0.1736 -0.7829
  354TMC3     C 5305   1.362   3.137  13.358 -0.2699  0.0436 -0.1782
  354TMC3     O 5306   1.382   3.014  13.345  0.2266  0.1024 -0.2103
  354TMC3     H 5307   1.358   3.400  13.294 -0.1276 -0.9954  0.6709
  354TMC3    H1 5308   1.273   3.020  13.126 -3.4823 -0.4025  3.0698
  354TMC3    H2 5309   1.266   3.350  12.883 -0.0037 -1.3957 -1.3211
  354TMC3    C7 5310   1.335   3.099  12.912 -0.0388  0.1472  0.1962
  354TMC3    C8 5311   1.373   3.505  13.071 -0.8935  0.0769  0.0363
  354TMC3    O1 5312   1.301   2.982  12.897 -0.0559 -0.2696 -0.7797
  354TMC3    O2 5313   1.438   3.497  12.966  0.7987  0.3818  0.2696
  355MPD2     C 5314   1.480   4.286  11.816  0.6235  0.6331  0.0423
  355MPD2    C1 5315   1.539   4.279  11.692 -0.8512 -0.3546 -0.7470
  355MPD2    C2 5316   1.675   4.245  11.681 -0.0321 -0.0910 -0.3884
  355MPD2    C3 5317   1.754   4.243  11.793  0.5457  0.4439 -0.2967
  355MPD2    C4 5318   1.689   4.242  11.915  0.2062 -0.1242  0.8080
  355MPD2    C5 5319   1.555   4.263  11.927 -0.2149  0.2390 -0.1044
  355MPD2     H 5320   1.718   4.228  11.582  0.8449 -1.8689  0.2990
  355MPD2    H1 5321   1.746   4.247  12.007  0.8770 -2.0170  0.4899
  355MPD2    H2 5322   1.372   4.277  11.813  0.8753 -2.6210  0.8699
  355MPD2    H3 5323   1.508   4.260  12.024 -1.0049  1.8958 -0.4358
  355MPD2     N 5324   1.890   4.258  11.797  0.0072  0.3105  0.1311
  355MPD2    H5 5325   1.929   4.270  11.890 -0.1694 -2.0792  0.4941
  355MPD2    N1 5326   1.458   4.303  11.574 -0.1823 -0.2468  0.4581
  355MPD2    H7 5327   1.359   4.292  11.589 -0.4064  0.0860 -0.7714
  356TMC3    C1 5328   2.097   4.330  11.709  0.1927 -0.0670 -0.1280
  356TMC3    C2 5329   2.169   4.359  11.597  0.2056 -0.1765 -0.2712
  356TMC3    C3 5330   2.282   4.434  11.610 -0.1901  0.1104  0.5887
  356TMC3    C4 5331   2.135   4.374  11.826 -0.7756  0.3289  0.6701
  356TMC3    C5 5332   2.252   4.446  11.833 -0.1769 -0.1892  0.1159
  356TMC3    C6 5333   2.340   4.468  11.726  0.6170 -0.2450  0.4091
  356TMC3     C 5334   1.971   4.261  11.682  0.7677  0.3315 -0.1167
  356TMC3     O 5335   1.959   4.216  11.569 -0.2394 -0.0452 -0.0478
  356TMC3     H 5336   2.124   4.340  11.500  1.6342 -1.6722 -0.6360
  356TMC3    H1 5337   2.072   4.369  11.914 -0.2058 -0.5300  1.0276
  356TMC3    H2 5338   2.428   4.529  11.738  1.3745 -1.6217  1.8426
  356TMC3    C7 5339   2.294   4.488  11.971  0.2282 -0.2517 -0.3397
  356TMC3    C8 5340   2.349   4.478  11.481  0.4628 -0.1184  0.3135
  356TMC3    O1 5341   2.232   4.421  12.056 -0.6580 -0.2215  0.3740
  356TMC3    O2 5342   2.293   4.439  11.383 -0.4690 -0.3043 -0.9262
  357MPD2     C 5343   1.839   4.100   1.013 -0.2430  0.3722 -0.0533
  357MPD2    C1 5344   1.811   4.021   1.123 -0.1310  0.2485  0.8204
  357MPD2    C2 5345   1.687   4.026   1.183 -0.4974  0.3770  0.7334
  357MPD2    C3 5346   1.587   4.115   1.138 -0.2753 -0.6124  0.1344
  357MPD2    C4 5347   1.619   4.187   1.024 -0.5277  0.5366 -0.5651
  357MPD2    C5 5348   1.738   4.177   0.966  0.5592  0.0092 -0.4069
  357MPD2     H 5349   1.671   3.963   1.270  0.1683  1.0298  1.3236
  357MPD2    H1 5350   1.552   4.258   0.978 -0.1481  1.0019 -0.4002
  357MPD2    H2 5351   1.935   4.104   0.964  0.4786  1.8792  1.4811
  357MPD2    H3 5352   1.769   4.240   0.883  0.7232  0.5138  0.0441
  357MPD2     N 5353   1.457   4.133   1.198 -0.2262  0.3448  0.1733
  357MPD2    H5 5354   1.397   4.199   1.151  0.4334  0.8338  0.0313
  357MPD2    N1 5355   1.918   3.944   1.166  0.5000  0.0702  0.1570
  357MPD2    H7 5356   1.995   3.949   1.099  0.2126  0.9920 -0.1126
  358TMC3    C1 5357   2.039   3.777   1.275  0.0271  0.2760  0.2677
  358TMC3    C2 5358   2.080   3.715   1.156  0.2412  0.8765  0.1149
  358TMC3    C3 5359   2.132   3.587   1.171 -0.1175  0.8962 -1.0040
  358TMC3    C4 5360   2.038   3.711   1.398 -0.3993  0.5592  0.0440
  358TMC3    C5 5361   2.091   3.584   1.405  0.7306  0.0135  0.5664
  358TMC3    C6 5362   2.131   3.529   1.291  0.7422 -0.3419  0.3880
  358TMC3     C 5363   1.918   3.851   1.264 -0.1627 -0.3006 -0.5705
  358TMC3     O 5364   1.830   3.829   1.350 -0.0649  0.1151 -0.8121
  358TMC3     H 5365   2.056   3.758   1.059 -1.0142 -0.4530 -0.1605
  358TMC3    H1 5366   2.030   3.777   1.484 -1.0496  0.4846  0.0449
  358TMC3    H2 5367   2.179   3.433   1.298  1.4468  0.0863  1.3883
  358TMC3    C7 5368   2.122   3.524   1.533  0.0235  0.2198  0.2229
  358TMC3    C8 5369   2.114   3.503   1.055  0.0133  0.2676  0.2822
  358TMC3    O1 5370   2.184   3.416   1.523  0.0294  0.3423  0.0609
  358TMC3    O2 5371   2.142   3.558   0.948 -0.1157 -0.2689  0.2700
  359MPD2     C 5372   2.161   2.081  12.623 -0.2679  0.1591  0.1608
  359MPD2    C1 5373   2.106   2.062  12.503  0.8138 -0.3030  0.6239
  359MPD2    C2 5374   1.993   1.983  12.484  0.4434  0.1971  0.5959
  359MPD2    C3 5375   1.925   1.928  12.598 -0.1599  0.1299  0.2855
  359MPD2    C4 5376   1.982   1.939  12.720  0.7957  0.5371  0.6196
  359MPD2    C5 5377   2.089   2.026  12.731  0.8199 -0.4110  0.1831
  359MPD2     H 5378   1.965   1.952  12.385 -1.0043 -1.5134  1.5410
  359MPD2    H1 5379   1.947   1.894  12.813 -1.7618 -0.5072 -0.8568
  359MPD2    H2 5380   2.252   2.137  12.637  0.1175 -0.8463  1.6051
  359MPD2    H3 5381   2.124   2.048  12.831  0.3374  2.8110 -0.3567
  359MPD2     N 5382   1.806   1.855  12.591  0.0905 -0.3358  1.0149
  359MPD2    H5 5383   1.770   1.804  12.671  0.4347 -2.0230  0.1084
  359MPD2    N1 5384   2.184   2.105  12.388  0.2724  0.5296  0.3171
  359MPD2    H7 5385   2.134   2.086  12.301  0.6093 -0.8218  0.4180
  360TMC3    C1 5386   2.347   2.209  12.254 -0.5690 -0.7881 -0.2472
  360TMC3    C2 5387   2.482   2.200  12.232  0.6260  0.2582  0.0384
  360TMC3    C3 5388   2.522   2.233  12.109  0.3280  0.4121 -0.0788
  360TMC3    C4 5389   2.259   2.270  12.170 -0.3399 -0.1244  0.1106
  360TMC3    C5 5390   2.309   2.312  12.050  0.3290  0.5465 -0.3200
  360TMC3    C6 5391   2.441   2.290  12.018 -0.2028 -0.1747  0.2074
  360TMC3     C 5392   2.304   2.170  12.386 -0.4785  0.1273  0.1582
  360TMC3     O 5393   2.387   2.176  12.476  0.1669 -0.6619  0.4637
  360TMC3     H 5394   2.547   2.140  12.294  0.7091  1.3972  1.0591
  360TMC3    H1 5395   2.162   2.301  12.207 -1.6262 -1.9267 -1.7073
  360TMC3    H2 5396   2.478   2.313  11.918 -3.5453 -0.7334 -1.1675
  360TMC3    C7 5397   2.227   2.397  11.967 -0.0971  0.2495  0.0925
  360TMC3    C8 5398   2.666   2.229  12.090  0.2529  0.4810 -0.2854
  360TMC3    O1 5399   2.286   2.436  11.870  0.5763  0.9015  0.2473
  360TMC3    O2 5400   2.734   2.178  12.181  0.2417  0.2215  0.5966
  361MPD2     C 5401   4.405   1.206  16.679 -1.2676  1.4488  0.0952
  361MPD2    C1 5402   4.351   1.254  16.794  1.1467 -0.1779  0.4203
  361MPD2    C2 5403   4.406   1.209  16.909  0.5951 -0.2770 -0.4777
  361MPD2    C3 5404   4.506   1.117  16.913  0.1025  0.0091  0.4478
  361MPD2    C4 5405   4.557   1.064  16.799 -0.0247 -0.7336 -0.3973
  361MPD2    C5 5406   4.510   1.116  16.681  0.0248 -0.0031 -0.0729
  361MPD2     H 5407   4.360   1.247  17.000  0.1404  1.6914 -1.5266
  361MPD2    H1 5408   4.626   0.980  16.796 -0.3421 -1.0326  0.7354
  361MPD2    H2 5409   4.367   1.224  16.579  0.7121 -0.1957 -0.9598
  361MPD2    H3 5410   4.546   1.085  16.583 -1.1128  1.5808 -0.9868
  361MPD2     N 5411   4.570   1.068  17.028  0.0500  0.4772  0.0825
  361MPD2    H5 5412   4.657   1.017  17.019 -0.0408  0.4702 -0.7520
  361MPD2    N1 5413   4.248   1.354  16.810 -0.1898  0.0079  0.2936
  361MPD2    H7 5414   4.228   1.380  16.906 -1.0849 -0.9138  0.3602
  362TMC3    C1 5415   4.073   1.494  16.743 -0.7374 -0.4648  0.1474
  362TMC3    C2 5416   4.060   1.539  16.874 -0.4117  0.7831  0.0892
  362TMC3    C3 5417   3.944   1.613  16.902 -0.5684  0.0119 -0.2845
  362TMC3    C4 5418   3.975   1.526  16.650  0.2362 -0.8273 -0.2409
  362TMC3    C5 5419   3.860   1.589  16.687 -0.4242 -0.6651 -0.1494
  362TMC3    C6 5420   3.844   1.643  16.814 -0.0425  1.1476 -0.6693
  362TMC3     C 5421   4.177   1.403  16.701 -0.6958  0.0537  0.7617
  362TMC3     O 5422   4.177   1.362  16.585  0.3175  0.1016  0.5733
  362TMC3     H 5423   4.127   1.506  16.953  1.6597  0.7134 -1.7021
  362TMC3    H1 5424   3.973   1.494  16.547 -5.0059 -0.8813 -0.1369
  362TMC3    H2 5425   3.759   1.706  16.838 -0.0740  0.8235  0.0539
  362TMC3    C7 5426   3.746   1.598  16.599  0.1762  0.1586  0.0393
  362TMC3    C8 5427   3.947   1.689  17.029 -0.6622  0.0191 -0.2817
  362TMC3    O1 5428   3.651   1.657  16.652  0.5055 -0.2706 -0.4355
  362TMC3    O2 5429   4.053   1.677  17.084  0.7925 -0.1815 -0.1408
  363TMC3    C1 5430   1.426   4.275   9.202 -0.2255 -0.0056 -0.1096
  363TMC3    C2 5431   1.531   4.225   9.281 -0.6959 -0.0085  0.1211
  363TMC3    C3 5432   1.587   4.308   9.372 -0.0017 -0.8981  0.8312
  363TMC3    C4 5433   1.384   4.405   9.203 -0.0870 -0.0567  0.6730
  363TMC3    C5 5434   1.452   4.482   9.290 -0.3190  0.1615  0.6220
  363TMC3    C6 5435   1.543   4.439   9.381  0.2900  0.2814 -0.5438
  363TMC3     C 5436   1.390   4.210   9.086 -0.4375 -0.1199 -0.1067
  363TMC3     O 5437   1.351   4.274   8.990 -0.0922  0.1866  0.0312
  363TMC3     H 5438   1.561   4.121   9.268  2.6141  1.0892 -1.0252
  363TMC3    H1 5439   1.300   4.441   9.144  0.2730  0.2918  0.3742
  363TMC3    H2 5440   1.597   4.503   9.450  0.7962  0.0298 -0.7072
  363TMC3    C7 5441   1.409   4.620   9.300 -0.0328 -0.2597  0.2903
  363TMC3    C8 5442   1.673   4.259   9.472  0.6752 -0.5846 -0.1547
  363TMC3    O1 5443   1.309   4.651   9.241  0.4458  0.5702 -0.0087
  363TMC3    O2 5444   1.723   4.327   9.558 -0.1748 -0.1361 -0.0189
  364MPD2     C 5445   0.717   3.760  11.031 -0.0575 -0.3861 -0.1681
  364MPD2    C1 5446   0.792   3.704  10.929  0.2683 -0.6460 -0.0083
  364MPD2    C2 5447   0.869   3.588  10.950 -0.0658 -0.1403 -0.7798
  364MPD2    C3 5448   0.861   3.528  11.074 -0.1683 -0.6734 -0.3671
  364MPD2    C4 5449   0.791   3.584  11.178 -0.2736 -0.3742 -0.4204
  364MPD2    C5 5450   0.727   3.699  11.152 -0.3960 -0.5561 -0.2594
  364MPD2     H 5451   0.939   3.553  10.875  0.3781 -3.0349  0.9685
  364MPD2    H1 5452   0.789   3.540  11.277 -1.2789  1.6641  0.4676
  364MPD2    H2 5453   0.660   3.852  11.025 -0.3725 -0.4745  1.4508
  364MPD2    H3 5454   0.685   3.756  11.234  0.8591 -2.0203  1.4124
  364MPD2     N 5455   0.918   3.404  11.104 -0.8092 -0.3535  0.8834
  364MPD2    H5 5456   0.938   3.384  11.201 -0.5843  2.0760  1.3456
  364MPD2    N1 5457   0.788   3.780  10.813  0.1101  0.0191  0.3005
  364MPD2    H7 5458   0.740   3.870  10.808 -1.0183 -0.5270  1.5278
  365TMC3    C1 5459   0.868   3.867  10.614  0.2221 -0.5922  0.4631
  365TMC3    C2 5460   0.886   3.829  10.483  0.1410  0.1338 -0.0725
  365TMC3    C3 5461   0.922   3.928  10.399 -0.0556  0.0995 -0.3302
  365TMC3    C4 5462   0.883   3.996  10.665  0.8691  0.7014  0.0884
  365TMC3    C5 5463   0.915   4.093  10.571  0.5904  0.2943  0.1328
  365TMC3    C6 5464   0.929   4.060  10.434  0.2394 -0.6406 -0.0419
  365TMC3     C 5465   0.872   3.758  10.708 -0.1751 -0.2146  0.2746
  365TMC3     O 5466   0.953   3.669  10.684  0.1550  0.6619  0.0882
  365TMC3     H 5467   0.863   3.728  10.451  0.0245  0.7040 -1.7481
  365TMC3    H1 5468   0.908   4.013  10.770 -0.5974  1.5197  0.2933
  365TMC3    H2 5469   0.948   4.128  10.352  1.5353 -2.6002 -1.3546
  365TMC3    C7 5470   0.960   4.230  10.603  1.1104 -0.3865 -0.2787
  365TMC3    C8 5471   0.980   3.888  10.274 -0.7055 -0.1966 -0.5107
  365TMC3    O1 5472   0.987   4.293  10.505 -0.8356  0.0443  0.2301
  365TMC3    O2 5473   0.996   3.975  10.191  0.5816 -0.4731  0.1692
  366MPD2     C 5474   4.011   4.424  15.447 -1.0331 -0.3054  0.4474
  366MPD2    C1 5475   4.121   4.435  15.364  0.0937  0.1673  0.3292
  366MPD2    C2 5476   4.207   4.321  15.347  0.6499  0.0503  0.3288
  366MPD2    C3 5477   4.193   4.215  15.437 -0.2595  0.3750 -0.5887
  366MPD2    C4 5478   4.088   4.205  15.524 -0.1242 -0.2027 -0.0659
  366MPD2    C5 5479   3.992   4.304  15.517  0.2495  0.2774 -0.4233
  366MPD2     H 5480   4.280   4.303  15.269 -0.8742  0.9023 -1.3061
  366MPD2    H1 5481   4.069   4.126  15.595  0.9309 -0.6119 -0.2382
  366MPD2    H2 5482   3.942   4.505  15.464  0.3465  0.7467  1.0356
  366MPD2    H3 5483   3.902   4.304  15.578 -1.3475  0.9649 -2.7677
  366MPD2     N 5484   4.293   4.107  15.430  0.5267  0.4039 -0.0661
  366MPD2    H5 5485   4.366   4.111  15.359  1.0904 -0.5022  0.4668
  366MPD2    N1 5486   4.134   4.555  15.289  0.6144  0.6770 -0.0237
  366MPD2    H7 5487   4.073   4.633  15.311 -0.3620 -0.2555  0.5840
  367TMC3    C1 5488   4.254   4.716  15.160  0.5448  0.0133  0.2280
  367TMC3    C2 5489   4.376   0.039  15.209 -0.4201 -0.1218  0.3549
  367TMC3    C3 5490   4.386   0.165  15.263  0.3426  0.3699 -0.1328
  367TMC3    C4 5491   4.142   0.062  15.175 -0.2764  0.7579 -0.3146
  367TMC3    C5 5492   4.149   0.180  15.240  0.1575  0.2751 -0.7578
  367TMC3    C6 5493   4.266   0.236  15.286  0.4160  0.0482  0.1474
  367TMC3     C 5494   4.233   4.577  15.190  0.0864  0.8341 -0.6547
  367TMC3     O 5495   4.330   4.503  15.158  0.1757  0.3037 -0.6448
  367TMC3     H 5496   4.463   4.697  15.220 -0.6590 -0.0684  2.5294
  367TMC3    H1 5497   4.045   0.025  15.144 -0.9625  0.8703  1.6574
  367TMC3    H2 5498   4.263   0.326  15.347  1.2494  0.6501 -0.7036
  367TMC3    C7 5499   4.048   0.281  15.209 -0.1916 -0.3254  0.1658
  367TMC3    C8 5500   4.505   0.213  15.330 -0.1799 -0.2719 -0.1313
  367TMC3    O1 5501   3.946   0.232  15.165  0.2475  0.3396 -0.0985
  367TMC3    O2 5502   4.601   0.140  15.328  0.2413 -0.4812 -0.1675
  368MPD2     C 5503   0.178   1.194  13.197  0.2149  0.0907 -0.0034
  368MPD2    C1 5504   0.194   1.281  13.101 -0.2591 -0.2165 -0.6472
  368MPD2    C2 5505   0.311   1.356  13.100 -0.4434  0.2193  0.6335
  368MPD2    C3 5506   0.411   1.336  13.190  1.1293 -0.1270 -0.0336
  368MPD2    C4 5507   0.391   1.241  13.287  0.9870  0.1689  0.2177
  368MPD2    C5 5508   0.270   1.176  13.298 -0.1972 -0.6508  0.4847
  368MPD2     H 5509   0.323   1.428  13.019  0.3198 -0.6998 -0.0725
  368MPD2    H1 5510   0.475   1.226  13.354  0.2614 -3.9360  0.1686
  368MPD2    H2 5511   0.082   1.144  13.208 -1.0467  2.2921 -1.1052
  368MPD2    H3 5512   0.256   1.105  13.378 -1.6536  2.9310  3.4316
  368MPD2     N 5513   0.525   1.423  13.201 -0.1914 -0.4096 -0.1904
  368MPD2    H5 5514   0.597   1.397  13.268 -1.8006 -1.4330  1.1648
  368MPD2    N1 5515   0.094   1.299  13.004 -0.0428  0.1872 -0.6015
  368MPD2    H7 5516   0.008   1.246  13.018  0.1429 -0.5197 -2.1232
  369TMC3    C1 5517   4.694   1.439  12.859  0.2204  0.0690  0.2748
  369TMC3    C2 5518   0.006   1.530  12.763 -0.1679  0.0745  0.1059
  369TMC3    C3 5519   4.662   1.652  12.763  0.7935 -0.0591 -0.4778
  369TMC3    C4 5520   4.607   1.465  12.960 -0.1390  0.2651 -0.0010
  369TMC3    C5 5521   4.548   1.594  12.961  0.6437  0.1238 -0.4197
  369TMC3    C6 5522   4.571   1.688  12.857  0.0924 -0.2558 -0.3217
  369TMC3     C 5523   0.098   1.384  12.894  0.3110 -0.8096 -0.4030
  369TMC3     O 5524   0.189   1.454  12.853  0.0934  0.0658  0.0948
  369TMC3     H 5525   0.072   1.501  12.683  0.2451 -0.3158  0.5876
  369TMC3    H1 5526   4.595   1.397  13.044 -1.3913 -0.6232 -0.9121
  369TMC3    H2 5527   4.543   1.793  12.861  0.8015 -0.0776  0.1977
  369TMC3    C7 5528   4.487   1.633  13.090  0.5349  0.2949  0.0678
  369TMC3    C8 5529   0.036   1.755  12.733 -0.3058 -1.0296  0.0265
  369TMC3    O1 5530   4.517   1.570  13.191 -0.6240  0.4678 -0.0548
  369TMC3    O2 5531   4.712   1.855  12.681 -0.7205 -0.8227  0.4129
  370TMC3    C1 5532   0.027   2.328  16.395 -0.4852 -0.1448 -0.3029
  370TMC3    C2 5533   4.669   2.315  16.510  0.1120 -0.1086  0.4813
  370TMC3    C3 5534   4.585   2.209  16.525  0.3463 -0.3559  0.6934
  370TMC3    C4 5535   0.020   2.235  16.295 -0.0727 -0.1207 -0.7585
  370TMC3    C5 5536   4.657   2.129  16.308 -0.4862  0.4590 -0.5881
  370TMC3    C6 5537   4.574   2.116  16.420  0.1690 -0.1683  0.0667
  370TMC3     C 5538   0.136   2.420  16.411  0.2473  0.3704 -0.7577
  370TMC3     O 5539   0.141   2.484  16.518 -0.1071 -0.2814  0.5103
  370TMC3     H 5540   4.676   2.386  16.592 -0.2504  2.3173 -1.5719
  370TMC3    H1 5541   0.092   2.231  16.214  0.9366  0.2516  0.1194
  370TMC3    H2 5542   4.504   2.033  16.420  1.9725 -1.7068  1.0795
  370TMC3    C7 5543   4.636   2.032  16.201 -0.6349  0.4015  0.1498
  370TMC3    C8 5544   4.610   2.135  16.650 -0.0488 -0.1158  0.3852
  370TMC3    O1 5545   4.520   1.994  16.186 -0.0725  0.0340 -0.0241
  370TMC3    O2 5546   4.619   2.013  16.649  0.8238 -1.1853  0.4689
  371TMC3    C1 5547   1.390   0.582  15.457  1.5448 -0.0917 -0.1363
  371TMC3    C2 5548   1.265   0.570  15.499 -0.9431  0.8170 -0.2301
  371TMC3    C3 5549   1.190   0.686  15.476 -0.3929 -0.5364 -0.3200
  371TMC3    C4 5550   1.446   0.684  15.391  0.2089 -0.2122  0.0185
  371TMC3    C5 5551   1.368   0.792  15.354 -0.1153 -0.3599 -0.8025
  371TMC3    C6 5552   1.235   0.794  15.396 -0.1115  0.5580 -0.6865
  371TMC3     C 5553   1.478   0.466  15.479 -0.0216  0.3359 -0.0335
  371TMC3     O 5554   1.575   0.455  15.403 -0.1291 -0.2617  0.4086
  371TMC3     H 5555   1.219   0.483  15.545  0.6274 -0.0745 -0.3535
  371TMC3    H1 5556   1.554   0.695  15.381 -0.0508 -0.3022 -2.8457
  371TMC3    H2 5557   1.175   0.878  15.364 -0.9016  0.7805  1.4093
  371TMC3    C7 5558   1.422   0.925  15.321 -0.9081  0.5837  0.5512
  371TMC3    C8 5559   1.050   0.691  15.489  0.3029 -0.1530  0.4765
  371TMC3    O1 5560   1.361   1.021  15.363  0.2854  0.0845  0.1176
  371TMC3    O2 5561   0.984   0.599  15.443 -0.2692  0.7129 -0.5032
  372MPD2     C 5562   0.910   1.956  13.246  0.3306  0.0043 -0.7138
  372MPD2    C1 5563   0.972   1.839  13.294 -0.0271 -0.2403 -0.3716
  372MPD2    C2 5564   0.890   1.753  13.370 -0.2256  0.0251  0.2469
  372MPD2    C3 5565   0.763   1.784  13.403  0.4214 -0.5992  0.5039
  372MPD2    C4 5566   0.705   1.887  13.343 -0.2372  0.7341  0.5688
  372MPD2    C5 5567   0.775   1.973  13.268  0.3194 -0.1548  0.4101
  372MPD2     H 5568   0.932   1.667  13.421  0.3330  0.1336 -0.0302
  372MPD2    H1 5569   0.599   1.905  13.358  0.0587  1.9507  1.1617
  372MPD2    H2 5570   0.961   2.034  13.190  2.3816 -0.2867  0.7530
  372MPD2    H3 5571   0.722   2.050  13.212  0.5494 -0.9943 -0.9489
  372MPD2     N 5572   0.691   1.696  13.493 -0.0044 -0.2015 -0.2553
  372MPD2    H5 5573   0.749   1.614  13.510 -0.2895 -0.4654 -0.5651
  372MPD2    N1 5574   1.108   1.813  13.257 -0.1272  0.0650 -0.0947
  372MPD2    H7 5575   1.152   1.731  13.298  1.3608  1.7327  1.6602
  373TMC3    C1 5576   0.525   1.629  13.650 -0.3022 -0.6977  0.2546
  373TMC3    C2 5577   0.492   1.657  13.776 -0.0789 -0.2251  0.6052
  373TMC3    C3 5578   0.448   1.555  13.860 -0.0439  0.3233 -0.4809
  373TMC3    C4 5579   0.535   1.494  13.614 -0.0538 -0.4285 -0.4263
  373TMC3    C5 5580   0.484   1.395  13.695  1.2504 -0.4237 -0.2500
  373TMC3    C6 5581   0.437   1.421  13.821 -0.1188 -0.1650  0.1010
  373TMC3     C 5582   0.576   1.726  13.561  0.0206 -0.3737  1.0023
  373TMC3     O 5583   0.505   1.825  13.562 -0.2045 -0.0175  0.4890
  373TMC3     H 5584   0.480   1.757  13.817  4.1300  0.1758  0.8613
  373TMC3    H1 5585   0.561   1.475  13.511  0.2723 -1.1418 -0.2099
  373TMC3    H2 5586   0.422   1.346  13.898  0.6636 -0.4560 -0.0237
  373TMC3    C7 5587   0.492   1.256  13.660  0.0948 -0.4077  0.1154
  373TMC3    C8 5588   0.462   1.580  13.998 -0.9187 -0.5061  0.0832
  373TMC3    O1 5589   0.588   1.220  13.589  0.4136  0.8578 -0.2375
  373TMC3    O2 5590   0.371   1.534  14.067  0.2710  0.6034  0.0529
  374TMC3    C1 5591   0.935   2.356   9.502 -0.4665  0.1034 -0.1660
  374TMC3    C2 5592   1.022   2.443   9.559  0.0992  0.7447  0.1665
  374TMC3    C3 5593   1.038   2.564   9.496 -0.0182  0.4443  0.2804
  374TMC3    C4 5594   0.871   2.390   9.382 -0.4368 -0.0082 -0.4266
  374TMC3    C5 5595   0.887   2.513   9.323 -0.0109 -0.4051  0.3128
  374TMC3    C6 5596   0.971   2.603   9.383  0.1595 -0.2722  0.6432
  374TMC3     C 5597   0.904   2.219   9.561 -0.2751  0.0518 -0.0558
  374TMC3     O 5598   0.821   2.151   9.499 -0.3330 -0.8989  0.2376
  374TMC3     H 5599   1.070   2.426   9.655 -0.8448  0.2559  0.5517
  374TMC3    H1 5600   0.800   2.317   9.345  1.9037 -3.2187  1.4394
  374TMC3    H2 5601   1.015   2.686   9.329 -0.8233 -1.4176 -1.8787
  374TMC3    C7 5602   0.811   2.546   9.199  0.1644  0.8047 -0.4749
  374TMC3    C8 5603   1.117   2.674   9.552 -0.7179 -0.9140 -0.2099
  374TMC3    O1 5604   0.715   2.472   9.176  0.1203 -0.0435 -0.9514
  374TMC3    O2 5605   1.090   2.790   9.513 -0.6209  0.0711  0.2069
  375MPD2     C 5606   1.417   2.829  17.320  0.1963 -1.1802  0.6879
  375MPD2    C1 5607   1.347   2.733  17.256 -0.2938  0.6541  0.8569
  375MPD2    C2 5608   1.411   2.648  17.167  0.4318  0.0079 -0.4591
  375MPD2    C3 5609   1.549   2.664  17.147 -0.1689  0.3387 -0.3182
  375MPD2    C4 5610   1.613   2.776  17.197 -0.3703 -0.0770  1.0191
  375MPD2    C5 5611   1.552   2.853  17.287  0.2629  0.2234 -0.0749
  375MPD2     H 5612   1.364   2.559  17.125  3.2258 -2.2573  1.1609
  375MPD2    H1 5613   1.710   2.795  17.153 -1.2201  3.5628  0.7422
  375MPD2    H2 5614   1.364   2.905  17.376  1.5212  0.3640 -0.1468
  375MPD2    H3 5615   1.604   2.936  17.333  0.9641 -0.1794 -0.1435
  375MPD2     N 5616   1.622   2.577  17.059 -0.1252  0.8793 -0.6632
  375MPD2    H5 5617   1.723   2.585  17.054 -0.1633  0.3488 -2.4881
  375MPD2    N1 5618   1.208   2.737  17.289 -0.3143 -0.1409  0.0978
  375MPD2    H7 5619   1.179   2.814  17.349 -0.0618  0.0839 -0.0711
  376TMC3    C1 5620   1.679   2.388  16.934 -0.0669  0.2339 -0.6431
  376TMC3    C2 5621   1.767   2.335  17.025 -0.1713 -0.5855 -0.8379
  376TMC3    C3 5622   1.822   2.217  17.007  0.9062 -0.9557  0.3715
  376TMC3    C4 5623   1.652   2.318  16.820  0.0383  0.1528 -0.6257
  376TMC3    C5 5624   1.717   2.193  16.800  0.2771  0.2689  0.0406
  376TMC3    C6 5625   1.798   2.139  16.897 -0.4052  0.7488 -0.6089
  376TMC3     C 5626   1.572   2.479  16.979 -1.0677  0.3061 -0.4949
  376TMC3     O 5627   1.461   2.478  16.923 -0.5402 -0.0444 -0.3844
  376TMC3     H 5628   1.794   2.391  17.114  0.4103 -0.9086 -0.8114
  376TMC3    H1 5629   1.566   2.340  16.758 -0.5481  0.6637  0.3686
  376TMC3    H2 5630   1.847   2.045  16.875  0.7197  1.0159  0.7296
  376TMC3    C7 5631   1.706   2.119  16.670  0.4824  1.0297 -0.1903
  376TMC3    C8 5632   1.960   2.203  17.048 -0.3695  0.0633  0.3264
  376TMC3    O1 5633   1.744   2.004  16.675 -0.0239 -0.0288 -0.2417
  376TMC3    O2 5634   1.983   2.175  17.166 -0.1575  0.4215 -0.0359
  377MPD2     C 5635   4.631   2.407  12.657  0.0039 -0.1533 -0.1792
  377MPD2    C1 5636   4.530   2.457  12.583  0.2342 -0.4526 -0.6722
  377MPD2    C2 5637   4.401   2.467  12.644 -0.2098  0.4016 -0.0100
  377MPD2    C3 5638   4.374   2.418  12.769 -0.4123 -0.5095 -0.4040
  377MPD2    C4 5639   4.476   2.357  12.836 -0.0421 -0.6190  0.0656
  377MPD2    C5 5640   4.607   2.359  12.780 -0.5105 -0.1390  0.5570
  377MPD2     H 5641   4.326   2.516  12.584 -1.0468  0.0243  0.7283
  377MPD2    H1 5642   4.471   2.314  12.935  2.5661 -2.1871 -0.4688
  377MPD2    H2 5643   0.011   2.415  12.621  0.3104 -1.5476  0.3788
  377MPD2    H3 5644   4.688   2.311  12.834  1.1077  1.1236 -0.7941
  377MPD2     N 5645   4.252   2.420  12.833  0.1419  0.5767 -0.0909
  377MPD2    H5 5646   4.242   2.380  12.926  0.4533  2.9136  0.9325
  377MPD2    N1 5647   4.558   2.497  12.451 -0.2280 -0.0116 -0.3708
  377MPD2    H7 5648   4.654   2.488  12.422 -0.0209 -0.1580  0.3513
  378TMC3    C1 5649   4.489   2.600  11.998 -0.3893 -0.0910  0.7462
  378TMC3    C2 5650   4.439   2.584  12.126  0.0880  0.2995  0.0744
  378TMC3    C3 5651   4.527   2.558  12.227 -0.1242  0.7587 -0.5692
  378TMC3    C4 5652   4.622   2.588  11.971  0.5331 -0.5242  0.0685
  378TMC3    C5 5653   4.708   2.553  12.074 -0.2376  0.4372 -0.7139
  378TMC3    C6 5654   4.660   2.540  12.201 -0.2839  0.5987 -0.5078
  378TMC3     C 5655   4.389   2.638  11.890  0.8140 -0.0753 -0.1311
  378TMC3     O 5656   4.271   2.633  11.916  0.0515 -0.5116 -0.7306
  378TMC3     H 5657   4.337   2.612  12.148  0.0398 -0.4867  0.8530
  378TMC3    H1 5658   4.666   2.584  11.872  1.1238 -0.3439  0.3252
  378TMC3    H2 5659   0.011   2.501  12.271 -1.6939  0.2519  0.7514
  378TMC3    C7 5660   0.131   2.537  12.061  0.6917 -0.1785  0.3934
  378TMC3    C8 5661   4.465   2.527  12.358  0.2042  0.7500  0.2608
  378TMC3    O1 5662   0.206   2.562  12.151  0.2406  0.7447 -0.3361
  378TMC3    O2 5663   4.344   2.543  12.367  0.0399  0.4006 -0.1403
  379MPD2     C 5664   0.937   0.449  16.169  0.5365  0.8312 -0.3250
  379MPD2    C1 5665   0.806   0.402  16.196  0.6619  0.8274  0.1185
  379MPD2    C2 5666   0.771   0.352  16.320 -0.0089  0.6588 -0.5896
  379MPD2    C3 5667   0.869   0.343  16.418 -0.7242  0.0441 -0.6302
  379MPD2    C4 5668   0.989   0.408  16.404  0.0013  0.1622 -0.1744
  379MPD2    C5 5669   1.023   0.457  16.278 -0.5464  0.4390 -0.1840
  379MPD2     H 5670   0.671   0.314  16.335  0.0822  0.4283 -0.5660
  379MPD2    H1 5671   1.062   0.415  16.483 -1.2469 -1.6520  1.1273
  379MPD2    H2 5672   0.977   0.476  16.072  0.5336  0.3339 -0.4648
  379MPD2    H3 5673   1.123   0.497  16.269 -0.1688 -0.6389 -0.7934
  379MPD2     N 5674   0.852   0.264  16.537 -0.0757  0.3350 -0.3575
  379MPD2    H5 5675   0.928   0.264  16.604 -0.7916  0.1889  0.4648
  379MPD2    N1 5676   0.717   0.402  16.086 -0.0538 -0.1512  0.3428
  379MPD2    H7 5677   0.767   0.424  16.000 -1.0879  2.0999  0.3047
  380TMC3    C1 5678   0.526   0.368  15.952 -0.5715 -0.1533 -0.6916
  380TMC3    C2 5679   0.602   0.305  15.852 -0.4533  0.4750  0.0192
  380TMC3    C3 5680   0.539   0.275  15.735  0.4865 -0.5032 -0.1315
  380TMC3    C4 5681   0.391   0.391  15.932 -0.3769  0.0333  0.8711
  380TMC3    C5 5682   0.343   0.374  15.807  0.1437 -0.0430  0.1352
  380TMC3    C6 5683   0.413   0.316  15.707 -0.2589  0.4434 -0.0584
  380TMC3     C 5684   0.585   0.366  16.088 -0.6516  0.4628  0.2802
  380TMC3     O 5685   0.508   0.367  16.187  0.2422 -0.1239 -0.5008
  380TMC3     H 5686   0.694   0.251  15.873 -0.7994  0.0336  0.3969
  380TMC3    H1 5687   0.324   0.420  16.012 -2.6499 -1.1151 -0.6344
  380TMC3    H2 5688   0.381   0.312  15.604 -0.6184 -0.8530  0.1052
  380TMC3    C7 5689   0.220   0.444  15.781 -0.1213  0.0633  0.4254
  380TMC3    C8 5690   0.623   0.253  15.610  0.3743  0.2606 -0.5306
  380TMC3    O1 5691   0.192   0.539  15.851  0.2048 -0.3917 -0.2027
  380TMC3    O2 5692   0.583   0.323  15.520 -0.0769 -0.1929  0.2001
  381TMC3    C1 5693   4.450   1.741  16.540  0.3078  0.2828  0.1252
  381TMC3    C2 5694   4.549   1.738  16.444  1.2293  0.6216  0.7484
  381TMC3    C3 5695   4.675   1.698  16.479  0.3410 -0.7747 -0.3233
  381TMC3    C4 5696   4.473   1.695  16.668  0.1845 -0.4736  0.8918
  381TMC3    C5 5697   4.600   1.639  16.684  0.4068  0.4675 -0.0345
  381TMC3    C6 5698   4.700   1.636  16.595 -0.1274  0.4896  0.1175
  381TMC3     C 5699   4.324   1.811  16.516  0.4033 -0.2312 -0.3935
  381TMC3     O 5700   4.280   1.802  16.403  0.3714  0.4358  0.4029
  381TMC3     H 5701   4.539   1.793  16.351 -2.5152  1.0450  1.3798
  381TMC3    H1 5702   4.388   1.689  16.735 -2.5552 -0.1685 -2.5597
  381TMC3    H2 5703   0.075   1.596  16.621  0.2840  0.4264 -1.5496
  381TMC3    C7 5704   4.618   1.574  16.810  0.1587  0.4244 -0.2601
  381TMC3    C8 5705   0.065   1.758  16.410 -0.3058 -1.1683  0.4034
  381TMC3    O1 5706   4.693   1.478  16.809  0.5208 -0.2372  0.5423
  381TMC3    O2 5707   0.079   1.742  16.289  0.1701  0.2510 -0.6939
  382MPD2     C 5708   3.917   4.026  17.109 -0.5006 -0.1387 -0.7562
  382MPD2    C1 5709   3.966   4.003  17.237  0.6075 -0.4354 -0.2295
  382MPD2    C2 5710   3.941   3.880  17.298 -0.1977 -0.8931 -0.6576
  382MPD2    C3 5711   3.868   3.781  17.234 -0.2656  0.4017  0.2794
  382MPD2    C4 5712   3.808   3.815  17.111  0.3817  0.3473  0.1970
  382MPD2    C5 5713   3.832   3.936  17.051  1.3436  0.6401 -0.3259
  382MPD2     H 5714   3.993   3.867  17.393 -3.7582 -0.5442  1.3477
  382MPD2    H1 5715   3.743   3.745  17.058  1.3883  1.0316 -1.9045
  382MPD2    H2 5716   3.922   4.123  17.060 -1.6394 -0.0461 -0.6987
  382MPD2    H3 5717   3.771   3.955  16.963  0.2165 -2.2906 -0.1673
  382MPD2     N 5718   3.851   3.648  17.282 -0.0178 -0.3569  0.2943
  382MPD2    H5 5719   3.798   3.581  17.226 -0.6929 -0.3176  0.8859
  382MPD2    N1 5720   4.050   4.097  17.298  0.3513  0.2272 -0.6405
  382MPD2    H7 5721   4.076   4.072  17.392 -0.9033  2.5009  0.3132
  383TMC3    C1 5722   3.880   3.457  17.408  0.1173 -0.1307 -0.2779
  383TMC3    C2 5723   3.748   3.416  17.387  0.2587  0.8851  0.2187
  383TMC3    C3 5724   3.723   3.285  17.434  0.0044 -0.8611 -0.1949
  383TMC3    C4 5725   3.975   3.389  17.478  0.1892 -0.2428 -0.0579
  383TMC3    C5 5726   3.929   3.278  17.535  0.3621  0.2847  0.0135
  383TMC3    C6 5727   3.809   3.218  17.515 -0.3099 -0.0274 -0.4950
  383TMC3     C 5728   3.917   3.595  17.383  0.3324  0.2829 -0.0730
  383TMC3     O 5729   4.012   3.641  17.452 -0.1579  0.1541 -0.5064
  383TMC3     H 5730   3.689   3.468  17.312 -1.6920 -1.2080  0.3310
  383TMC3    H1 5731   4.071   3.432  17.504  0.3851 -1.5787  1.4525
  383TMC3    H2 5732   3.791   3.120  17.558  1.5735 -1.0375 -1.9813
  383TMC3    C7 5733   4.024   3.200  17.611 -0.4444 -0.1298 -0.1018
  383TMC3    C8 5734   3.597   3.227  17.381  1.2581  0.4778 -0.6745
  383TMC3    O1 5735   4.012   3.080  17.589  0.2350 -0.6297 -0.2639
  383TMC3    O2 5736   3.523   3.294  17.310  0.3827  0.0700 -0.0229
  384MPD2     C 5737   0.849   0.755  12.271 -0.2372 -0.2569 -0.3419
  384MPD2    C1 5738   0.858   0.642  12.350  0.1975 -0.3550  1.2970
  384MPD2    C2 5739   0.981   0.590  12.375  0.3287  0.4805  0.4824
  384MPD2    C3 5740   1.096   0.644  12.323 -0.5179  0.7222  0.0065
  384MPD2    C4 5741   1.083   0.749  12.240 -0.7425  0.1503  0.5494
  384MPD2    C5 5742   0.962   0.805  12.218 -0.0063  0.6203 -0.0111
  384MPD2     H 5743   0.983   0.510  12.448  1.3450  1.2373  1.3044
  384MPD2    H1 5744   1.166   0.793  12.186 -1.1973 -0.8174 -0.9297
  384MPD2    H2 5745   0.749   0.794  12.251 -0.7156 -1.5831 -0.5747
  384MPD2    H3 5746   0.955   0.898  12.163  0.3219 -0.1258 -1.3065
  384MPD2     N 5747   1.219   0.580  12.337 -0.3257 -0.0252  0.3379
  384MPD2    H5 5748   1.293   0.606  12.272  1.8538 -1.3941  2.3073
  384MPD2    N1 5749   0.750   0.573  12.406  0.1336  0.3528 -0.1915
  384MPD2    H7 5750   0.774   0.498  12.469 -0.2644  0.4731  0.1049
  385TMC3    C1 5751   1.357   0.427  12.428  0.0018  0.0007 -0.0179
  385TMC3    C2 5752   1.348   0.361  12.312 -0.0094 -0.5204 -0.1125
  385TMC3    C3 5753   1.394   0.232  12.311 -0.4859 -0.3909 -0.2441
  385TMC3    C4 5754   1.386   0.361  12.541  0.8125 -0.1795 -0.2063
  385TMC3    C5 5755   1.384   0.228  12.538 -0.4117  0.3220  0.0370
  385TMC3    C6 5756   1.401   0.158  12.424  0.2116 -0.1958  0.7696
  385TMC3     C 5757   1.245   0.506  12.449  0.0682 -0.6131  0.1558
  385TMC3     O 5758   1.184   0.502  12.557  0.4633  0.5280 -0.0414
  385TMC3     H 5759   1.344   0.415  12.218 -2.2958 -1.8037 -0.7456
  385TMC3    H1 5760   1.383   0.423  12.630  1.3513 -1.2003  0.5291
  385TMC3    H2 5761   1.437   0.056  12.420 -2.2877 -1.0720  1.0891
  385TMC3    C7 5762   1.267   0.177  12.601  0.2074 -0.3798  1.4139
  385TMC3    C8 5763   1.440   0.163  12.195 -0.3219 -0.7994  0.2671
  385TMC3    O1 5764   1.234   0.223  12.711 -0.4118 -0.7497  0.0025
  385TMC3    O2 5765   1.547   0.107  12.206 -0.1530 -0.1493  0.4413
  386TMC3    C1 5766   1.288   2.378  11.673  0.0917 -0.0140  0.2671
  386TMC3    C2 5767   1.239   2.339  11.551  0.0506 -0.5281 -0.0096
  386TMC3    C3 5768   1.111   2.381  11.526 -0.8152  0.7338  0.1060
  386TMC3    C4 5769   1.220   2.456  11.764  0.2450  0.1918  0.1788
  386TMC3    C5 5770   1.095   2.504  11.729 -0.1995 -0.0425 -0.5700
  386TMC3    C6 5771   1.035   2.462  11.614 -0.2444 -0.3043  0.3026
  386TMC3     C 5772   1.426   2.357  11.701 -0.0071 -0.0392  0.0464
  386TMC3     O 5773   1.472   2.437  11.785  0.4384 -0.0880  0.2152
  386TMC3     H 5774   1.275   2.258  11.487  0.0529 -0.0532 -0.6089
  386TMC3    H1 5775   1.259   2.485  11.861  0.3619 -3.7480  1.3178
  386TMC3    H2 5776   0.931   2.491  11.605 -0.3214 -1.1365 -1.5837
  386TMC3    C7 5777   1.000   2.530  11.837  0.2912 -0.0720  0.8167
  386TMC3    C8 5778   1.036   2.332  11.415  0.4423  0.0044  0.0701
  386TMC3    O1 5779   0.884   2.492  11.825 -0.6493  0.1616 -0.2600
  386TMC3    O2 5780   0.926   2.386  11.405  0.3414 -0.6944  0.2760
  387MPD2     C 5781   3.361   2.561   9.560  0.1525  0.0032  0.3800
  387MPD2    C1 5782   3.488   2.507   9.526  0.2543 -0.2022 -0.5244
  387MPD2    C2 5783   3.496   2.370   9.509 -0.1012  0.0052  0.6098
  387MPD2    C3 5784   3.389   2.294   9.523 -1.5875 -0.4601 -0.4564
  387MPD2    C4 5785   3.272   2.339   9.576 -0.3436 -0.1734  0.2646
  387MPD2    C5 5786   3.254   2.477   9.581 -0.0189 -0.6187 -0.2554
  387MPD2     H 5787   3.586   2.319   9.478  0.3984  1.7688 -0.8981
  387MPD2    H1 5788   3.191   2.273   9.606 -0.8993  0.3375 -0.0961
  387MPD2    H2 5789   3.347   2.668   9.570  0.5551 -0.0597  1.6184
  387MPD2    H3 5790   3.157   2.511   9.616 -0.6013 -0.5560 -1.9233
  387MPD2     N 5791   3.412   2.158   9.517  0.1884  0.1018  0.5522
  387MPD2    H5 5792   3.500   2.123   9.480 -0.2621  1.0364 -1.3624
  387MPD2    N1 5793   3.606   2.583   9.511  0.5311 -0.1052 -0.3285
  387MPD2    H7 5794   3.684   2.534   9.468  1.3117 -0.2432  1.2733
  388TMC3    C1 5795   3.771   2.720   9.620 -0.6613  0.1362  0.4331
  388TMC3    C2 5796   3.829   2.841   9.647  0.0650 -0.2646  0.4547
  388TMC3    C3 5797   3.953   2.847   9.708  0.0668  0.5191  0.2203
  388TMC3    C4 5798   3.838   2.604   9.646 -1.3994 -0.3872  0.2638
  388TMC3    C5 5799   3.965   2.609   9.691  0.4594  0.4839 -0.7711
  388TMC3    C6 5800   4.028   2.729   9.726 -0.2112  0.0947  0.1977
  388TMC3     C 5801   3.624   2.701   9.586  0.1693 -0.5401  0.0827
  388TMC3     O 5802   3.541   2.785   9.621  0.6845 -0.3154  0.5671
  388TMC3     H 5803   3.774   2.932   9.629  1.3442  0.4777  0.2321
  388TMC3    H1 5804   3.780   2.513   9.654 -0.4454 -0.9618  0.7616
  388TMC3    H2 5805   4.123   2.722   9.779  0.1873  0.9041 -0.4036
  388TMC3    C7 5806   4.024   2.483   9.731  0.3380  0.1975 -0.2926
  388TMC3    C8 5807   3.990   2.977   9.768 -0.1204 -0.1096 -0.1629
  388TMC3    O1 5808   4.097   2.491   9.834  0.2069  0.6235 -0.0293
  388TMC3    O2 5809   3.922   3.073   9.734 -0.3946  0.2703 -0.1498
  389MPD2     C 5810   3.019   0.901  11.012  0.2397  0.5104  0.5912
  389MPD2    C1 5811   2.937   0.803  10.962 -0.2184 -0.2464 -0.5170
  389MPD2    C2 5812   2.896   0.709  11.055  0.2008 -0.6974 -0.1076
  389MPD2    C3 5813   2.923   0.716  11.194 -0.1009  0.2539  0.4274
  389MPD2    C4 5814   3.007   0.815  11.237 -0.4150 -0.3625 -0.6681
  389MPD2    C5 5815   3.050   0.906  11.149 -0.2436  0.4896  0.0525
  389MPD2     H 5816   2.833   0.628  11.018 -1.4722  0.5209  0.0550
  389MPD2    H1 5817   3.038   0.835  11.339  1.1332  1.3673 -1.4744
  389MPD2    H2 5818   3.063   0.982  10.955  0.5174 -0.4840 -0.6079
  389MPD2    H3 5819   3.119   0.983  11.182 -0.7940  0.3837  1.4824
  389MPD2     N 5820   2.854   0.643  11.293  0.3794 -0.7371 -0.9170
  389MPD2    H5 5821   2.867   0.666  11.391 -0.4696 -2.9962 -0.2712
  389MPD2    N1 5822   2.900   0.818  10.830  0.1471 -0.2759  0.2599
  389MPD2    H7 5823   2.952   0.887  10.775  0.7020 -0.9063 -0.0090
  390TMC3    C1 5824   2.668   0.525  11.371 -0.0951  0.2749  0.4439
  390TMC3    C2 5825   2.596   0.408  11.364  0.5906 -0.7527  0.3004
  390TMC3    C3 5826   2.504   0.381  11.466  0.1477 -0.1447  0.0964
  390TMC3    C4 5827   2.660   0.611  11.477 -0.2854  0.6222 -0.2738
  390TMC3    C5 5828   2.560   0.591  11.568  0.0536  0.1202 -0.2403
  390TMC3    C6 5829   2.480   0.478  11.558 -0.0056  0.2275 -0.3370
  390TMC3     C 5830   2.766   0.540  11.268 -0.0524  0.8613 -0.3347
  390TMC3     O 5831   2.770   0.471  11.165 -0.0432 -0.3077  0.3248
  390TMC3     H 5832   2.621   0.343  11.281  1.2488  0.0508 -0.1276
  390TMC3    H1 5833   2.715   0.704  11.479  0.0722  0.4153 -0.5224
  390TMC3    H2 5834   2.386   0.487  11.611  0.2226  2.8106 -0.3632
  390TMC3    C7 5835   2.509   0.711  11.628  0.3810 -0.5429 -0.5781
  390TMC3    C8 5836   2.403   0.272  11.461 -0.0212  0.0155  0.1526
  390TMC3    O1 5837   2.544   0.819  11.588  0.2946 -0.3897 -0.4565
  390TMC3    O2 5838   2.394   0.201  11.362  0.2494  0.7752  0.1657
  391MPD2     C 5839   1.673   1.871  10.675  0.6452  0.0567  0.0956
  391MPD2    C1 5840   1.771   1.961  10.713  0.3023 -0.3619  0.1715
  391MPD2    C2 5841   1.797   2.068  10.628  0.5998  0.5609 -0.1028
  391MPD2    C3 5842   1.749   2.068  10.492 -0.5754 -0.0605  0.0634
  391MPD2    C4 5843   1.676   1.960  10.456 -1.2097 -0.0648 -0.0439
  391MPD2    C5 5844   1.632   1.869  10.544  0.1051 -0.3121 -0.1457
  391MPD2     H 5845   1.870   2.144  10.655  1.5379 -0.6345  0.7322
  391MPD2    H1 5846   1.647   1.945  10.353 -2.2392 -0.2160  0.2664
  391MPD2    H2 5847   1.647   1.785  10.736  0.2707  0.6067  0.7108
  391MPD2    H3 5848   1.578   1.780  10.516 -0.1206 -0.2839  0.2066
  391MPD2     N 5849   1.779   2.179  10.403  0.1931 -0.4108  0.4173
  391MPD2    H5 5850   1.861   2.235  10.427 -0.6188  0.9249  0.0450
  391MPD2    N1 5851   1.833   1.954  10.833 -0.3533  0.4787 -0.1942
  391MPD2    H7 5852   1.800   1.890  10.905  2.1584 -0.1901  0.3633
  392TMC3    C1 5853   1.761   2.333  10.217  0.0564  0.5036  0.1025
  392TMC3    C2 5854   1.712   2.357  10.094  0.7810 -0.5154  0.2145
  392TMC3    C3 5855   1.737   2.474  10.029 -0.0247  0.5684  0.3201
  392TMC3    C4 5856   1.853   2.416  10.271 -0.0322 -0.0914  0.0324
  392TMC3    C5 5857   1.890   2.529  10.196  0.5080 -0.7463 -0.1333
  392TMC3    C6 5858   1.824   2.563  10.079  0.1011 -0.2333 -0.4332
  392TMC3     C 5859   1.712   2.215  10.293 -0.8257 -0.5854  0.6341
  392TMC3     O 5860   1.613   2.167  10.239  0.5480  0.7310  0.6247
  392TMC3     H 5861   1.648   2.285  10.046  1.4685 -1.5247  0.8164
  392TMC3    H1 5862   1.904   2.402  10.366 -0.6334 -1.2284  0.1846
  392TMC3    H2 5863   1.856   2.650  10.023 -3.9377  1.8437  0.4362
  392TMC3    C7 5864   2.007   2.595  10.251  0.2623 -0.0961  0.2001
  392TMC3    C8 5865   1.640   2.520   9.924  0.2370 -0.3177 -0.7337
  392TMC3    O1 5866   2.096   2.525  10.291  0.6889  0.7397 -0.1963
  392TMC3    O2 5867   1.594   2.429   9.853  0.4148  0.3113  0.1754
  393TMC3    C1 5868   1.232   0.288  10.445  0.0266  0.9473  0.0179
  393TMC3    C2 5869   1.194   0.316  10.569  0.1108  0.9127  1.0897
  393TMC3    C3 5870   1.233   0.235  10.667  0.5614 -0.4519 -0.2286
  393TMC3    C4 5871   1.317   0.190  10.409 -0.6323 -0.1956 -0.1721
  393TMC3    C5 5872   1.359   0.112  10.511 -0.7865 -0.1747 -0.4843
  393TMC3    C6 5873   1.318   0.136  10.644  0.6031  0.2029  0.3319
  393TMC3     C 5874   1.204   0.392  10.342 -0.9081 -0.3969 -0.3117
  393TMC3     O 5875   1.100   0.457  10.351 -0.2503 -0.3402 -0.4372
  393TMC3     H 5876   1.136   0.407  10.584  0.5316  1.6722 -1.8384
  393TMC3    H1 5877   1.330   0.160  10.306  1.2191  0.5466 -0.1565
  393TMC3    H2 5878   1.353   0.068  10.721 -2.1533 -1.2177  0.3329
  393TMC3    C7 5879   1.425   4.706  10.480 -0.4117 -0.5524 -0.3078
  393TMC3    C8 5880   1.230   0.293  10.802  0.6849  0.3747 -0.6305
  393TMC3    O1 5881   1.386   4.616  10.553  0.1467 -0.1327  0.0980
  393TMC3    O2 5882   1.129   0.355  10.832 -0.4617  0.1614 -0.2605
  394TMC3    C1 5883   2.778   0.784  10.624  0.5468 -0.8850 -0.1787
  394TMC3    C2 5884   2.681   0.712  10.563  0.0278 -0.2588  0.2091
  394TMC3    C3 5885   2.630   0.755  10.443 -0.3175  0.0272 -0.7569
  394TMC3    C4 5886   2.802   0.916  10.581  0.1388  0.6830 -0.2606
  394TMC3    C5 5887   2.739   0.955  10.459 -0.2681  0.4565 -0.1004
  394TMC3    C6 5888   2.666   0.864  10.386 -0.5623 -0.6839  0.3916
  394TMC3     C 5889   2.799   0.749  10.764 -0.2537 -0.1331  0.4754
  394TMC3     O 5890   2.725   0.670  10.817 -0.2464  0.4412 -0.0177
  394TMC3     H 5891   2.638   0.621  10.603 -2.7430  1.6530  1.5152
  394TMC3    H1 5892   2.872   0.982  10.632  0.6733  0.2899 -0.4874
  394TMC3    H2 5893   2.631   0.885  10.285  2.0648  2.1738  0.0552
  394TMC3    C7 5894   2.796   1.070  10.386 -0.7221 -0.3173 -0.3616
  394TMC3    C8 5895   2.537   0.669  10.362  0.4394 -0.0029  0.1340
  394TMC3    O1 5896   2.731   1.109  10.288 -0.1605 -0.1387 -0.1693
  394TMC3    O2 5897   2.463   0.721  10.280 -0.0764 -0.0976 -0.1707
  395TMC3    C1 5898   2.220   2.210  14.273  0.1357 -0.0664  0.7850
  395TMC3    C2 5899   2.085   2.229  14.250  0.1655 -0.2245 -0.3661
  395TMC3    C3 5900   2.022   2.326  14.323  0.0785 -0.1709 -0.0248
  395TMC3    C4 5901   2.293   2.290  14.356  0.3262  0.0746 -0.0008
  395TMC3    C5 5902   2.230   2.402  14.405 -0.2042 -0.3712 -0.2559
  395TMC3    C6 5903   2.097   2.428  14.378  0.0272  0.2193  0.3826
  395TMC3     C 5904   2.249   2.073  14.300 -0.2972 -0.5355 -0.9097
  395TMC3     O 5905   2.328   2.039  14.384  0.6076 -0.3469 -0.2803
  395TMC3     H 5906   2.019   2.172  14.187 -0.0659  0.0849 -0.4037
  395TMC3    H1 5907   2.401   2.283  14.368  0.0109 -0.0044  2.7293
  395TMC3    H2 5908   2.047   2.517  14.413  1.3298  1.4325 -0.8779
  395TMC3    C7 5909   2.298   2.477  14.510 -0.0971 -0.7222 -0.1876
  395TMC3    C8 5910   1.942   2.261  14.428  0.4673 -0.3974  0.5920
  395TMC3    O1 5911   2.380   2.410  14.574  0.4756 -0.1837  0.1117
  395TMC3    O2 5912   1.908   2.319  14.533  0.0887 -0.0714 -0.2308
  396MPD2     C 5913   2.437   3.764  17.669 -0.4415  0.0907 -0.1859
  396MPD2    C1 5914   2.467   3.727  17.541 -0.1907 -0.5780  0.5221
  396MPD2    C2 5915   2.466   3.829  17.450  0.0863  0.0892 -0.0526
  396MPD2    C3 5916   2.441   3.961  17.489  0.0511 -0.2219 -0.4299
  396MPD2    C4 5917   2.404   3.995  17.615 -0.9153  0.9822  0.9548
  396MPD2    C5 5918   2.394   3.893   0.014  0.0347 -0.2704  0.2929
  396MPD2     H 5919   2.490   3.811  17.345 -1.6397 -0.3083 -0.3725
  396MPD2    H1 5920   2.375   4.096  17.643 -0.9165  1.6564 -1.4806
  396MPD2    H2 5921   2.427   3.689   0.057  1.3889  0.1247  0.0654
  396MPD2    H3 5922   2.360   3.913   0.115 -2.2599  0.5851 -0.6663
  396MPD2     N 5923   2.439   4.063  17.387 -0.2549 -0.0360  0.3685
  396MPD2    H5 5924   2.455   4.040  17.290  0.7349  0.9535  0.2956
  396MPD2    N1 5925   2.494   3.588  17.510  0.6186  0.1168 -0.8818
  396MPD2    H7 5926   2.497   3.522  17.587 -3.1666  0.9297 -0.0510
  397TMC3    C1 5927   2.586   3.400  17.397 -0.2612  0.1544  0.2888
  397TMC3    C2 5928   2.620   3.365  17.270  0.1972 -0.2732 -0.1818
  397TMC3    C3 5929   2.584   3.238  17.221  0.5828  0.2640  0.0230
  397TMC3    C4 5930   2.492   3.323  17.464 -0.1670  0.0879 -0.0225
  397TMC3    C5 5931   2.439   3.212  17.405  0.4246 -0.5290 -0.5201
  397TMC3    C6 5932   2.492   3.168  17.291 -0.4745 -0.5668 -0.0823
  397TMC3     C 5933   2.545   3.542  17.391 -0.0039  1.3389 -0.8082
  397TMC3     O 5934   2.575   3.600  17.288  0.0366 -0.1106 -0.2754
  397TMC3     H 5935   2.699   3.423  17.225 -1.3900  2.0396  0.0597
  397TMC3    H1 5936   2.461   3.359  17.562  2.0878 -0.6498  0.9718
  397TMC3    H2 5937   2.459   3.069  17.261 -1.9115  0.4162 -1.7733
  397TMC3    C7 5938   2.330   3.140  17.476  0.5498  0.8788  0.5395
  397TMC3    C8 5939   2.593   3.204  17.078  0.9895  0.0792 -0.2880
  397TMC3    O1 5940   2.244   3.097  17.407 -0.4653  0.4541 -0.1133
  397TMC3    O2 5941   2.551   3.092  17.050  0.6430  0.5316 -0.0314
  398MPD2     C 5942   0.585   4.401  17.599 -0.0181 -0.3750  0.8467
  398MPD2    C1 5943   0.688   4.314  17.592 -0.7179  0.0470  0.0159
  398MPD2    C2 5944   0.808   4.350  17.530 -0.7197  0.5329 -0.1480
  398MPD2    C3 5945   0.830   4.485  17.496  0.3763 -0.1197  0.4510
  398MPD2    C4 5946   0.729   4.572  17.514 -0.0592  0.6153 -0.6828
  398MPD2    C5 5947   0.605   4.528  17.558 -0.2247  0.8297  0.0772
  398MPD2     H 5948   0.888   4.278  17.512 -0.5631  0.5923  0.3153
  398MPD2    H1 5949   0.738   4.679  17.497  1.5405  0.3530 -1.4165
  398MPD2    H2 5950   0.490   4.371  17.642 -1.0124  0.9259 -0.4219
  398MPD2    H3 5951   0.530   4.606  17.569  0.3349  1.1707  1.4208
  398MPD2     N 5952   0.946   4.529  17.434 -0.4897 -0.1891 -0.4727
  398MPD2    H5 5953   1.013   4.453  17.424  0.2528  0.4526 -0.4032
  398MPD2    N1 5954   0.685   4.183  17.653  0.4000  0.3103  0.3299
  398MPD2    H7 5955   0.764   4.120  17.640  0.6073  0.7770 -0.6465
  399TMC3    C1 5956   0.611   4.015   0.105 -0.1705 -0.0442 -0.4077
  399TMC3    C2 5957   0.747   4.007   0.141  0.0452  0.8295  0.0127
  399TMC3    C3 5958   0.786   3.889   0.192  1.0533 -1.0336  0.4743
  399TMC3    C4 5959   0.526   3.911   0.108  0.8240 -0.3798 -1.0556
  399TMC3    C5 5960   0.583   3.794   0.159 -0.0239  0.5922  0.2671
  399TMC3    C6 5961   0.712   3.782   0.195 -0.8614 -0.3845  0.2201
  399TMC3     C 5962   0.573   4.124   0.018 -0.4400  0.1817  0.3521
  399TMC3     O 5963   0.455   4.154   0.009 -0.5506  0.7310 -0.3435
  399TMC3     H 5964   0.796   4.104   0.142 -2.5328  2.1108  1.5741
  399TMC3    H1 5965   0.429   3.905   0.061  0.7444 -0.6185 -0.8595
  399TMC3    H2 5966   0.754   3.690   0.234  1.7202 -1.0185 -4.0953
  399TMC3    C7 5967   0.505   3.666   0.180 -0.6899  0.6406 -0.8662
  399TMC3    C8 5968   0.926   3.866   0.229 -0.7498  0.1211 -0.3582
  399TMC3    O1 5969   0.562   3.566   0.213 -0.3420  0.2416  0.4099
  399TMC3    O2 5970   0.959   3.757   0.275 -0.3070  0.5495  0.3238
  400TMC3    C1 5971   3.439   2.831  16.924  0.3453 -0.1873  0.1211
  400TMC3    C2 5972   3.347   2.731  16.935  0.0221 -0.1284 -0.4187
  400TMC3    C3 5973   3.277   2.690  16.829  0.6180  0.9561  0.7386
  400TMC3    C4 5974   3.445   2.906  16.806 -0.1985 -0.2272  0.1509
  400TMC3    C5 5975   3.362   2.872  16.704 -0.4175 -0.2969  0.0939
  400TMC3    C6 5976   3.287   2.755  16.710  0.5480  0.7518  0.9320
  400TMC3     C 5977   3.555   2.830  17.016  0.7206  0.6892 -0.4275
  400TMC3     O 5978   3.577   2.715  17.055  0.2514  0.3030  1.0972
  400TMC3     H 5979   3.361   2.662  17.017 -0.3763 -0.6159 -0.7631
  400TMC3    H1 5980   3.515   2.987  16.791 -0.6063 -0.1247 -1.1796
  400TMC3    H2 5981   3.210   2.735  16.636  1.8884 -3.6333  0.7658
  400TMC3    C7 5982   3.311   2.981  16.630 -0.3294  1.1188  0.4223
  400TMC3    C8 5983   3.190   2.576  16.833  0.3944 -0.1498  0.0477
  400TMC3    O1 5984   3.246   2.955  16.529  0.7041 -0.3572 -0.0246
  400TMC3    O2 5985   3.150   2.555  16.948  0.9503  0.1557 -0.3227
  401MPD2     C 5986   2.628   2.135   0.561  0.6076 -0.3808  0.8318
  401MPD2    C1 5987   2.558   2.067   0.658  0.3556  0.8583  0.6403
  401MPD2    C2 5988   2.484   1.955   0.618  0.3584  0.1454 -0.4509
  401MPD2    C3 5989   2.481   1.919   0.484 -1.0725 -0.2241  0.1154
  401MPD2    C4 5990   2.540   1.998   0.387  0.2296 -0.5999  0.0750
  401MPD2    C5 5991   2.618   2.099   0.427  0.4010 -0.0001  0.6438
  401MPD2     H 5992   2.446   1.881   0.688 -1.2348  0.2866 -1.1640
  401MPD2    H1 5993   2.521   1.978   0.282  2.1031 -0.6537 -0.2434
  401MPD2    H2 5994   2.696   2.217   0.583  1.0878 -0.4252 -0.4661
  401MPD2    H3 5995   2.666   2.159   0.350 -0.1532 -1.6387 -0.9918
  401MPD2     N 5996   2.410   1.794   0.453  1.0658  0.0998  0.4145
  401MPD2    H5 5997   2.358   1.753   0.530  1.1647  0.3846  0.6297
  401MPD2    N1 5998   2.562   2.117   0.796 -0.8582 -0.1133  0.4535
  401MPD2    H7 5999   2.623   2.195   0.815 -0.9924 -0.0304  0.5465
  402TMC3    C1 6000   2.350   1.599   0.355 -0.0510 -0.0757 -0.2121
  402TMC3    C2 6001   2.377   1.540   0.477  0.1978  0.0532 -0.4636
  402TMC3    C3 6002   2.373   1.401   0.475  0.2306  0.6069 -1.0307
  402TMC3    C4 6003   2.295   1.532   0.251  0.1657 -0.5492 -0.9284
  402TMC3    C5 6004   2.300   1.396   0.255 -0.4106 -0.8856  0.3177
  402TMC3    C6 6005   2.333   1.326   0.367 -0.2792  0.1844  0.5534
  402TMC3     C 6006   2.395   1.734   0.326 -0.3284 -0.0940 -0.2485
  402TMC3     O 6007   2.432   1.767   0.212 -0.0206 -0.2699  0.4979
  402TMC3     H 6008   2.413   1.597   0.562  0.3885 -1.4096  0.4409
  402TMC3    H1 6009   2.261   1.579   0.159  1.4396  0.2298 -0.9971
  402TMC3    H2 6010   2.342   1.219   0.383  0.3873  0.0637 -0.6456
  402TMC3    C7 6011   2.245   1.320   0.149 -0.1558 -0.2689 -0.6246
  402TMC3    C8 6012   2.413   1.329   0.590  0.2122  0.1616  0.1417
  402TMC3    O1 6013   2.161   1.371   0.078 -0.1915  0.1650 -0.0594
  402TMC3    O2 6014   2.496   1.239   0.583 -0.1198 -0.4598 -0.3923
  403MPD2     C 6015   0.233   4.656  13.731 -0.2389  0.4151 -0.3424
  403MPD2    C1 6016   0.319   4.550  13.722 -0.4925 -0.2934  0.1824
  403MPD2    C2 6017   0.456   4.576  13.734  0.4455  0.5972  0.0864
  403MPD2    C3 6018   0.510   4.705  13.761  0.7525  0.1361  0.7938
  403MPD2    C4 6019   0.413   0.075  13.769  0.2653 -0.1448 -0.6758
  403MPD2    C5 6020   0.282   0.061  13.755  0.4669  0.2294 -0.5887
  403MPD2     H 6021   0.522   4.491  13.724  1.3104  1.2212  0.5247
  403MPD2    H1 6022   0.444   0.177  13.788 -0.5725 -0.4935  2.5822
  403MPD2    H2 6023   0.126   4.656  13.712  0.0107  2.1209 -1.7060
  403MPD2    H3 6024   0.215   0.145  13.767 -0.9998 -1.0445  0.1938
  403MPD2     N 6025   0.646   4.718  13.767  1.1938 -0.2820  0.2558
  403MPD2    H5 6026   0.698   4.633  13.750  3.2687  1.3304 -1.5771
  403MPD2    N1 6027   0.268   4.422  13.713  0.1002 -0.1667 -0.1235
  403MPD2    H7 6028   0.341   4.353  13.726 -0.9111 -1.0321  0.9601
  404TMC3    C1 6029   0.130   4.235  13.681 -0.6877 -0.5793 -0.2807
  404TMC3    C2 6030   0.215   4.170  13.775  1.2581 -0.8437  0.1157
  404TMC3    C3 6031   0.258   4.048  13.736  0.0551 -0.4776 -0.3770
  404TMC3    C4 6032   0.112   4.191  13.554  0.7209  0.1017 -0.6392
  404TMC3    C5 6033   0.178   4.073  13.512  0.0475 -0.6982  0.0879
  404TMC3    C6 6034   0.247   3.996  13.607 -0.2314 -0.0353 -0.3446
  404TMC3     C 6035   0.136   4.378  13.696 -0.6884 -0.4571  0.5364
  404TMC3     O 6036   0.036   4.443  13.685 -0.4347  0.0589 -0.0361
  404TMC3     H 6037   0.225   4.217  13.872  1.0604  2.2334 -1.3508
  404TMC3    H1 6038   0.065   4.256  13.481  1.2802  1.3341  0.1048
  404TMC3    H2 6039   0.280   3.898  13.576  3.1665  1.0607 -0.1967
  404TMC3    C7 6040   0.175   4.012  13.377  0.2508  0.9563 -0.2541
  404TMC3    C8 6041   0.341   3.973  13.827  0.0719  0.5255  0.4223
  404TMC3    O1 6042   0.270   3.942  13.345 -0.5070  0.3551 -0.3264
  404TMC3    O2 6043   0.431   3.906  13.776  0.7371  0.4572  0.2732
  405MPD2     C 6044   1.119   0.499  14.592 -0.5752  0.0972 -0.2369
  405MPD2    C1 6045   1.031   0.399  14.550  0.8261  0.1776  0.3786
  405MPD2    C2 6046   0.934   0.437  14.469 -0.1389  0.6660  0.4327
  405MPD2    C3 6047   0.913   0.560  14.425  0.1609 -0.5932  0.0240
  405MPD2    C4 6048   0.990   0.663  14.466 -0.0377 -0.5030 -0.0602
  405MPD2    C5 6049   1.102   0.631  14.542 -0.0167  0.0020  0.3058
  405MPD2     H 6050   0.867   0.362  14.428  0.6093  0.9682 -1.3770
  405MPD2    H1 6051   0.958   0.765  14.446  0.4125 -0.1988  0.7976
  405MPD2    H2 6052   1.205   0.475  14.654 -0.6119  2.3241  0.6965
  405MPD2    H3 6053   1.169   0.708  14.579 -0.9347  1.2662 -0.6596
  405MPD2     N 6054   0.805   0.564  14.328 -0.5462 -0.5865  0.2772
  405MPD2    H5 6055   0.761   0.475  14.307 -1.4984 -0.0667  0.0941
  405MPD2    N1 6056   1.060   0.263  14.596 -0.6939 -0.3408 -0.0194
  405MPD2    H7 6057   1.127   0.253  14.671 -0.2101  1.7140 -0.1984
  406TMC3    C1 6058   0.413   0.696  14.170 -1.2302  0.0706  0.0600
  406TMC3    C2 6059   0.370   0.566  14.166 -0.9571  0.2886 -0.4850
  406TMC3    C3 6060   0.471   0.473  14.171  0.6125  0.2159 -0.1548
  406TMC3    C4 6061   0.539   0.740  14.191 -0.7905 -0.4462 -0.0671
  406TMC3    C5 6062   0.633   0.640  14.202  0.1108 -0.4528  0.7025
  406TMC3    C6 6063   0.600   0.510  14.199 -0.3178 -0.2284 -0.6921
  406TMC3     C 6064   0.307   0.798  14.188  0.3071  0.2196  0.4785
  406TMC3     O 6065   0.335   0.909  14.150 -0.7515  0.2816  0.0690
  406TMC3     H 6066   0.267   0.537  14.151 -1.7149  2.0311  1.4368
  406TMC3    H1 6067   0.552   0.846  14.210  2.2651 -0.1912 -3.6500
  406TMC3    H2 6068   0.670   0.439  14.157  0.2260 -0.2728  0.2787
  406TMC3    C7 6069   0.745   0.676  14.279 -0.1144 -0.2202  0.4009
  406TMC3    C8 6070   0.425   0.335  14.184 -0.1815 -0.0111 -0.0187
  406TMC3    O1 6071   0.761   0.799  14.294 -0.1042  0.1997  0.3428
  406TMC3    O2 6072   0.311   0.313  14.140  0.0302  0.1394 -0.1260
  407MPD2     C 6073   3.259   2.347   9.189  0.6387 -0.7203 -0.2894
  407MPD2    C1 6074   3.213   2.475   9.224 -0.1071  0.0943  0.1609
  407MPD2    C2 6075   3.088   2.478   9.285  0.7100 -0.0561  0.4854
  407MPD2    C3 6076   3.025   2.363   9.333 -0.0592 -0.1454 -0.5816
  407MPD2    C4 6077   3.082   2.239   9.310  0.1085 -0.2501  0.5693
  407MPD2    C5 6078   3.194   2.232   9.232 -0.9054  0.5640  0.2180
  407MPD2     H 6079   3.042   2.573   9.307 -0.6814 -0.4264 -0.8202
  407MPD2    H1 6080   3.035   2.147   9.345 -0.0317 -0.4904 -0.2498
  407MPD2    H2 6081   3.357   2.340   9.142  0.5273  0.4113 -0.6983
  407MPD2    H3 6082   3.233   2.135   9.204  0.6441  0.4421  2.8176
  407MPD2     N 6083   2.911   2.372   9.416  0.2019  0.3983 -0.0190
  407MPD2    H5 6084   2.895   2.285   9.467  1.1244  0.1306 -0.1746
  407MPD2    N1 6085   3.292   2.595   9.204  0.4404 -0.2283  0.3712
  407MPD2    H7 6086   3.246   2.684   9.220  0.8908 -0.3587  2.4365
  408TMC3    C1 6087   3.471   2.733   9.140 -0.4354  1.0064  0.2561
  408TMC3    C2 6088   3.600   2.759   9.169  0.5681 -0.1043  0.9659
  408TMC3    C3 6089   3.635   2.890   9.205 -0.2619  1.0186 -0.1091
  408TMC3    C4 6090   3.382   2.835   9.109 -0.3928  0.9381  0.2486
  408TMC3    C5 6091   3.426   2.966   9.129 -0.1485 -0.9124 -0.2345
  408TMC3    C6 6092   3.550   2.996   9.177 -0.0258  0.4470 -0.5316
  408TMC3     C 6093   3.421   2.596   9.148  0.2781  0.1531 -0.2058
  408TMC3     O 6094   3.505   2.506   9.130  0.1917  0.8639 -0.5197
  408TMC3     H 6095   3.658   2.671   9.195 -0.1006 -0.3654  1.5958
  408TMC3    H1 6096   3.280   2.821   9.077  0.1197 -0.3358 -0.8449
  408TMC3    H2 6097   3.556   3.099   9.208 -0.6357  0.1587  0.5541
  408TMC3    C7 6098   3.330   3.076   9.128  0.7854  0.4834  0.4665
  408TMC3    C8 6099   3.767   2.904   9.267 -0.1274  0.6790 -0.1349
  408TMC3    O1 6100   3.339   3.171   9.200  0.5665  0.2777 -0.4245
  408TMC3    O2 6101   3.813   2.798   9.302 -0.3478 -0.0495  0.1269
  409MPD2     C 6102   2.741   2.295  17.057  1.3967  0.2741  0.4117
  409MPD2    C1 6103   2.856   2.362  17.100  0.2256 -0.6367 -0.2547
  409MPD2    C2 6104   2.868   2.502  17.088 -0.7004 -0.7232  0.8305
  409MPD2    C3 6105   2.779   2.568  17.007 -0.3373  0.5603  0.0448
  409MPD2    C4 6106   2.673   2.504  16.950  0.1428  0.5495 -0.1164
  409MPD2    C5 6107   2.655   2.367  16.970  0.0160 -0.0781  0.2160
  409MPD2     H 6108   2.957   2.540  17.138  0.7548 -2.0920 -0.6929
  409MPD2    H1 6109   2.610   2.546  16.872 -3.1072  0.5806  2.5029
  409MPD2    H2 6110   2.732   2.187  17.068  2.5752  0.2247  0.9003
  409MPD2    H3 6111   2.568   2.325  16.921  0.0477 -0.7134  0.6981
  409MPD2     N 6112   2.786   2.708  16.982  0.0418  0.0861 -0.6465
  409MPD2    H5 6113   2.715   2.753  16.925 -1.3125  2.7106  3.1250
  409MPD2    N1 6114   2.956   2.294  17.175  0.4317  0.2925 -0.0944
  409MPD2    H7 6115   3.034   2.356  17.195  0.5953 -0.2644  0.9661
  410TMC3    C1 6116   2.866   2.931  16.992  0.3487 -1.2161  0.1366
  410TMC3    C2 6117   2.924   3.015  17.079  0.8156  0.0570  0.5157
  410TMC3    C3 6118   3.010   3.114  17.027  0.5962  0.1046 -0.2180
  410TMC3    C4 6119   2.877   2.950  16.854 -0.1545  0.0784 -0.2225
  410TMC3    C5 6120   2.951   3.059  16.812 -0.6070 -0.0362  0.7005
  410TMC3    C6 6121   3.016   3.143  16.895 -0.4085 -0.1482  0.6886
  410TMC3     C 6122   2.882   2.792  17.028  0.3260  0.9054 -0.4656
  410TMC3     O 6123   2.970   2.780  17.120  0.0005 -0.0866  0.1723
  410TMC3     H 6124   2.918   3.000  17.186 -1.0833 -0.6642  0.3064
  410TMC3    H1 6125   2.831   2.883  16.783  0.3729  0.1426 -0.6298
  410TMC3    H2 6126   3.085   3.219  16.862 -1.2231  0.9400  1.4916
  410TMC3    C7 6127   2.940   3.091  16.670  0.5769 -0.5230 -0.5426
  410TMC3    C8 6128   3.136   3.123  17.107 -0.2628  0.5810 -0.4028
  410TMC3    O1 6129   2.930   3.005  16.579 -0.0223  0.5568 -0.2808
  410TMC3    O2 6130   3.219   3.209  17.080 -0.4158 -0.0413  0.5621
  411MPD2     C 6131   3.235   2.906  14.768 -0.2064  0.5232  0.4019
  411MPD2    C1 6132   3.201   2.979  14.659  0.0112  0.0267  0.5417
  411MPD2    C2 6133   3.221   2.925  14.535 -0.1138 -0.0661 -0.0297
  411MPD2    C3 6134   3.272   2.794  14.517  0.1726 -0.0794  0.4341
  411MPD2    C4 6135   3.304   2.720  14.631 -0.3409  0.1419 -0.1423
  411MPD2    C5 6136   3.295   2.787  14.753  0.3442  0.3303  0.1912
  411MPD2     H 6137   3.184   2.977  14.447  3.0088 -1.0179 -1.8763
  411MPD2    H1 6138   3.356   2.625  14.633  1.1660  0.9856  0.7806
  411MPD2    H2 6139   3.228   2.938  14.871 -1.7252  0.8391  0.2018
  411MPD2    H3 6140   3.325   2.724  14.836  0.7525 -1.4530 -1.2893
  411MPD2     N 6141   3.288   2.741  14.390 -0.0294  0.3047 -0.2706
  411MPD2    H5 6142   3.325   2.648  14.377  0.2825  0.5127 -0.8595
  411MPD2    N1 6143   3.129   3.103  14.689 -0.0703 -0.2419 -0.3257
  411MPD2    H7 6144   3.112   3.121  14.788 -1.5972  0.2814 -0.6842
  412TMC3    C1 6145   3.269   2.730  14.160 -0.1699  0.1029  0.3446
  412TMC3    C2 6146   3.156   2.654  14.162  0.6416  0.3127  0.0688
  412TMC3    C3 6147   3.086   2.643  14.042 -0.3653  0.6450  0.4882
  412TMC3    C4 6148   3.315   2.785  14.043  0.3541  0.5096 -0.2350
  412TMC3    C5 6149   3.251   2.765  13.928 -0.4066 -0.2811  0.7488
  412TMC3    C6 6150   3.141   2.689  13.926  0.2100 -0.2167  0.2177
  412TMC3     C 6151   3.284   2.817  14.273  0.4401 -0.9646  0.3332
  412TMC3     O 6152   3.303   2.937  14.253 -0.1212  0.8915  0.4980
  412TMC3     H 6153   3.106   2.620  14.251  0.0846  0.3112 -0.2459
  412TMC3    H1 6154   3.383   2.870  14.050 -0.1631  0.7273  1.9995
  412TMC3    H2 6155   3.097   2.662  13.831 -0.4502 -1.9890  1.0231
  412TMC3    C7 6156   3.248   2.897  13.864 -0.2856 -0.0003 -1.2218
  412TMC3    C8 6157   2.952   2.694  14.044  0.1588 -0.2002 -0.7063
  412TMC3    O1 6158   3.350   2.961  13.835 -0.5000  0.0568  0.1708
  412TMC3    O2 6159   2.931   2.763  13.946  0.4675  0.4995  0.1391
  413MPD2     C 6160   4.527   1.679  15.438  0.4809  0.1105  0.1466
  413MPD2    C1 6161   4.476   1.613  15.328 -0.6421 -0.9459  0.1538
  413MPD2    C2 6162   4.536   1.493  15.285  0.2000  0.3823 -0.2630
  413MPD2    C3 6163   4.643   1.440  15.355 -0.1871  0.1872  0.2128
  413MPD2    C4 6164   4.696   1.513  15.470  0.3798  0.4966 -0.0421
  413MPD2    C5 6165   4.637   1.632  15.507  0.2293 -0.2721  0.0668
  413MPD2     H 6166   4.482   1.433  15.213  0.3747  0.8252 -0.7657
  413MPD2    H1 6167   0.059   1.479  15.528 -1.2255  0.1743  2.1131
  413MPD2    H2 6168   4.480   1.769  15.476 -1.6962 -1.4394  1.1348
  413MPD2    H3 6169   4.671   1.706  15.578 -0.2484  1.7766 -1.8063
  413MPD2     N 6170   4.695   1.318  15.300 -1.2859  0.1788  0.7422
  413MPD2    H5 6171   4.654   1.282  15.214  1.3137 -1.6704  0.2736
  413MPD2    N1 6172   4.359   1.661  15.266 -1.1116 -0.2360  0.2184
  413MPD2    H7 6173   4.320   1.742  15.314 -2.7312 -0.3677 -0.8536
  414TMC3    C1 6174   0.140   1.156  15.234 -0.4350 -0.0692 -0.6784
  414TMC3    C2 6175   0.258   1.093  15.259 -0.0764  0.4606  0.5398
  414TMC3    C3 6176   0.293   0.997  15.174 -0.7282 -0.4532  0.1690
  414TMC3    C4 6177   0.068   1.136  15.117 -0.1442  0.0308  0.3881
  414TMC3    C5 6178   0.116   1.035  15.032  0.0415  1.2363  0.3582
  414TMC3    C6 6179   0.230   0.967  15.058  0.0537 -0.1582 -0.3548
  414TMC3     C 6180   0.098   1.259  15.331  1.1192  0.3844 -0.4241
  414TMC3     O 6181   0.169   1.295  15.423  0.3800 -0.4156 -0.4350
  414TMC3     H 6182   0.302   1.099  15.358  1.4840  2.7619 -0.2861
  414TMC3    H1 6183   4.692   1.176  15.096 -0.5448 -0.8822  0.5224
  414TMC3    H2 6184   0.250   0.883  14.993 -0.8898 -1.7224  1.3802
  414TMC3    C7 6185   0.014   1.003  14.930  0.0983  0.3726 -0.6284
  414TMC3    C8 6186   0.433   0.958  15.165 -0.3508 -0.2489 -0.3520
  414TMC3    O1 6187   4.624   0.986  14.980 -0.4387 -0.4441  0.3042
  414TMC3    O2 6188   0.451   0.843  15.123 -0.4107  0.3659  0.3385
  415TMC3    C1 6189   0.547   4.529  10.173  0.2776 -0.1050 -0.7016
  415TMC3    C2 6190   0.629   4.544  10.065  0.3188 -0.2465 -0.2386
  415TMC3    C3 6191   0.596   4.486   9.949 -0.0346  0.3557 -0.0367
  415TMC3    C4 6192   0.432   4.455  10.171 -0.2396 -0.5163  0.1197
  415TMC3    C5 6193   0.396   4.390  10.054  0.1614 -0.0969  0.5118
  415TMC3    C6 6194   0.477   4.412   9.944  0.3893 -0.0958  0.3439
  415TMC3     C 6195   0.597   4.563  10.305 -0.6058 -0.4681 -0.4953
  415TMC3     O 6196   0.535   4.519  10.401 -0.2276 -0.4629 -0.3677
  415TMC3     H 6197   0.713   4.613  10.069  0.5019 -0.4773 -0.0153
  415TMC3    H1 6198   0.378   4.436  10.263 -2.1735  1.7975 -0.5635
  415TMC3    H2 6199   0.461   4.352   9.856 -1.4660 -0.4924  0.9634
  415TMC3    C7 6200   0.266   4.328  10.028  0.0306  0.7101 -0.3914
  415TMC3    C8 6201   0.693   4.477   9.840  0.3107  0.5258 -0.0980
  415TMC3    O1 6202   0.235   4.320   9.907 -0.5025  0.1055  0.1483
  415TMC3    O2 6203   0.691   4.369   9.781  0.1657  0.1459 -0.0996
  416MPD2     C 6204   2.506   3.428  11.537 -0.7360  0.7654 -0.8888
  416MPD2    C1 6205   2.379   3.458  11.497 -0.2272 -0.4501  0.0526
  416MPD2    C2 6206   2.316   3.361  11.414 -0.8056 -0.7748  0.2326
  416MPD2    C3 6207   2.373   3.236  11.388  0.6566  0.3026  0.0574
  416MPD2    C4 6208   2.503   3.218  11.434 -0.1619 -0.2461  0.3098
  416MPD2    C5 6209   2.569   3.322  11.491 -0.5506  0.2713  0.0020
  416MPD2     H 6210   2.213   3.371  11.382 -0.4679 -0.7196 -0.8434
  416MPD2    H1 6211   2.560   3.127  11.425 -1.1586 -0.8624  0.1814
  416MPD2    H2 6212   2.564   3.505  11.586  1.2187  0.4854 -2.7665
  416MPD2    H3 6213   2.672   3.311  11.522 -0.2152  1.1920 -0.7883
  416MPD2     N 6214   2.297   3.126  11.352 -0.1815  0.0617  0.5304
  416MPD2    H5 6215   2.339   3.034  11.367  0.6109  0.5008  0.9872
  416MPD2    N1 6216   2.316   3.577  11.547 -0.1158  0.0216  0.2418
  416MPD2    H7 6217   2.373   3.641  11.600 -0.3336 -0.2758  0.8372
  417TMC3    C1 6218   2.133   3.739  11.566  0.3853 -0.2747 -1.3217
  417TMC3    C2 6219   2.127   3.750  11.706  0.5029  0.2053 -1.0246
  417TMC3    C3 6220   2.039   3.836  11.766 -0.9878 -0.4546  0.2060
  417TMC3    C4 6221   2.041   3.808  11.484  0.7540  0.3309 -0.1852
  417TMC3    C5 6222   1.950   3.884  11.550  0.5352  0.5474 -0.3758
  417TMC3    C6 6223   1.946   3.892  11.688  0.3711  0.2509  0.5976
  417TMC3     C 6224   2.183   3.614  11.514 -0.3295  1.0286  0.1182
  417TMC3     O 6225   2.097   3.551  11.450  0.5849  0.1149  0.0979
  417TMC3     H 6226   2.200   3.704  11.772  1.5219 -0.8173 -2.8535
  417TMC3    H1 6227   2.034   3.771  11.382  2.7228 -2.0648  0.5354
  417TMC3    H2 6228   1.868   3.956  11.729  0.0647  0.7656 -0.7905
  417TMC3    C7 6229   1.827   3.914  11.477 -0.0134  0.7738  0.7736
  417TMC3    C8 6230   2.036   3.867  11.908 -0.0375  1.2978 -0.6002
  417TMC3    O1 6231   1.826   3.884  11.358  0.2122  0.5306 -0.7141
  417TMC3    O2 6232   1.946   3.937  11.951  0.2129 -0.6030  0.2341
  418TMC3    C1 6233   1.263   4.503  17.262 -0.0897  0.4126 -0.0605
  418TMC3    C2 6234   1.144   4.558  17.274 -0.1302  0.4410 -0.6643
  418TMC3    C3 6235   1.121   4.659  17.364 -0.3489 -0.1583  0.3234
  418TMC3    C4 6236   1.364   4.536  17.351  0.5327 -0.7150 -0.3052
  418TMC3    C5 6237   1.332   4.623  17.444  0.5471  0.5367  0.5416
  418TMC3    C6 6238   1.220   4.694  17.448 -0.4538 -0.2275  0.3055
  418TMC3     C 6239   1.277   4.401  17.165 -0.2154  0.4455  0.4654
  418TMC3     O 6240   1.179   4.385  17.092 -0.0167 -0.7204 -0.4428
  418TMC3     H 6241   1.056   4.521  17.222 -1.3840 -1.4206  2.7152
  418TMC3    H1 6242   1.465   4.496  17.345  0.6374 -0.4640 -0.1998
  418TMC3    H2 6243   1.184   0.022  17.537  2.1182  0.8887  0.7192
  418TMC3    C7 6244   1.408   4.614  17.566 -0.2621 -0.2144  0.1935
  418TMC3    C8 6245   0.989   4.654  17.422  0.4180 -0.8675 -0.6031
  418TMC3    O1 6246   1.463   4.508  17.582  0.1295 -0.0610  0.1158
  418TMC3    O2 6247   0.940   0.036  17.457 -0.0569  0.3440  0.2280
  419MPD2     C 6248   4.301   3.154  12.596  0.1198  0.9457  0.1075
  419MPD2    C1 6249   4.228   3.276  12.596  0.1588 -0.3255 -0.0129
  419MPD2    C2 6250   4.197   3.334  12.717 -0.3766  0.5834  0.1871
  419MPD2    C3 6251   4.250   3.284  12.829  0.1154 -0.6052  0.0340
  419MPD2    C4 6252   4.345   3.179  12.827 -0.3168  0.5619  0.2756
  419MPD2    C5 6253   4.362   3.111  12.708  0.1119  0.3439  0.6489
  419MPD2     H 6254   4.125   3.415  12.709  0.4686  1.6233  3.0675
  419MPD2    H1 6255   4.385   3.136  12.917 -2.0568 -1.0455  0.2637
  419MPD2    H2 6256   4.309   3.096  12.505  2.0050  4.0569 -1.6822
  419MPD2    H3 6257   4.425   3.023  12.700  1.4274  1.3565 -0.1090
  419MPD2     N 6258   4.210   3.346  12.947  0.8004  0.3215 -0.4566
  419MPD2    H5 6259   4.142   3.422  12.944 -0.1259 -0.5694 -2.3383
  419MPD2    N1 6260   4.161   3.340  12.487 -0.2664  0.0428  0.1582
  419MPD2    H7 6261   4.134   3.436  12.504 -0.1386 -0.0372  0.7880
  420TMC3    C1 6262   4.184   3.390  13.169 -0.0312 -0.0598  1.0439
  420TMC3    C2 6263   4.053   3.408  13.135  0.0977  0.7335 -0.2718
  420TMC3    C3 6264   3.981   3.473  13.233 -0.2872 -0.2264  0.0950
  420TMC3    C4 6265   4.233   3.421  13.293  0.1647 -0.0258 -0.0346
  420TMC3    C5 6266   4.157   3.498  13.378 -0.3492  0.1320  0.2518
  420TMC3    C6 6267   4.026   3.524  13.351  0.6973 -0.2164 -0.8428
  420TMC3     C 6268   4.268   3.331  13.070  0.9072 -0.1560  0.1565
  420TMC3     O 6269   4.368   3.277  13.113 -0.1734  0.7905  0.3263
  420TMC3     H 6270   4.003   3.364  13.050 -0.4007  1.5100 -0.3858
  420TMC3    H1 6271   4.333   3.389  13.321 -0.1579 -0.5061  0.5947
  420TMC3    H2 6272   3.962   3.561  13.430  1.8160  0.2739 -0.1713
  420TMC3    C7 6273   4.209   3.507  13.517 -0.9766  0.1834 -0.6774
  420TMC3    C8 6274   3.836   3.473  13.223 -0.5469 -0.0889  0.1753
  420TMC3    O1 6275   4.260   3.406  13.561 -0.2466 -0.0567  0.0336
  420TMC3    O2 6276   3.793   3.587  13.237  1.4283 -0.0762  0.3410
  421TMC3    C1 6277   0.867   0.080  13.807 -0.5360  0.0684 -0.2240
  421TMC3    C2 6278   0.942   0.188  13.850  0.0948  0.0389  0.1169
  421TMC3    C3 6279   1.061   0.165  13.908 -0.5252  0.3911 -0.9339
  421TMC3    C4 6280   0.916   4.672  13.816  0.8803  0.5404 -0.6474
  421TMC3    C5 6281   1.041   4.657  13.859 -0.4113  0.9325 -0.0231
  421TMC3    C6 6282   1.112   0.037  13.909  0.0195  0.5016 -0.7031
  421TMC3     C 6283   0.725   0.105  13.779 -0.2049  0.1005  0.0356
  421TMC3     O 6284   0.682   0.217  13.805  0.1521  0.4754  0.5022
  421TMC3     H 6285   0.894   0.285  13.848 -0.6452 -0.2885  2.2339
  421TMC3    H1 6286   0.864   4.582  13.785  0.9232  0.5758 -0.8200
  421TMC3    H2 6287   1.209   0.026  13.955 -0.7085  0.5937  0.8543
  421TMC3    C7 6288   1.089   4.521  13.884  0.1466  0.1866  0.1199
  421TMC3    C8 6289   1.112   0.265  14.002 -0.0710 -0.7330  0.5013
  421TMC3    O1 6290   1.179   4.503  13.961 -0.6963 -0.6598 -0.4642
  421TMC3    O2 6291   1.035   0.349  14.044 -0.2081 -0.2047 -0.2049
  422TMC3    C1 6292   2.984   1.641  12.600  0.1346 -0.2109  0.2243
  422TMC3    C2 6293   2.997   1.614  12.731  0.5941  0.1582 -0.3318
  422TMC3    C3 6294   2.888   1.581  12.809 -0.0325 -0.5376 -0.1305
  422TMC3    C4 6295   2.864   1.636  12.541  0.0637 -0.0321 -0.3719
  422TMC3    C5 6296   2.754   1.603  12.623 -0.4370  0.4813  0.2996
  422TMC3    C6 6297   2.765   1.574  12.751  0.1973 -0.0074  0.6355
  422TMC3     C 6298   3.101   1.689  12.524  0.8277 -0.6148 -0.2831
  422TMC3     O 6299   3.210   1.641  12.563 -0.1769 -0.0952  0.4971
  422TMC3     H 6300   3.095   1.624  12.776  1.5529 -0.2749 -2.3038
  422TMC3    H1 6301   2.858   1.663  12.436  1.6226 -0.8912 -0.6763
  422TMC3    H2 6302   2.674   1.548  12.805  0.0139 -0.5635  0.0643
  422TMC3    C7 6303   2.640   1.555  12.546 -0.3916  0.2991  0.6852
  422TMC3    C8 6304   2.897   1.652  12.946  0.3416 -0.1727 -0.4686
  422TMC3    O1 6305   2.658   1.566  12.427 -0.0751 -0.0940 -0.2736
  422TMC3    O2 6306   3.011   1.698  12.971 -0.3590  0.4581 -0.1054
  423MPD2     C 6307   0.611   2.382   0.491 -0.2209 -0.0453  0.1978
  423MPD2    C1 6308   0.579   2.274   0.564 -0.0557 -0.1301  0.6865
  423MPD2    C2 6309   0.515   2.174   0.494 -0.6234  0.4748 -0.3901
  423MPD2    C3 6310   0.496   2.177   0.356 -0.2232 -0.6833 -0.0240
  423MPD2    C4 6311   0.535   2.291   0.284 -1.3169 -0.3981  0.1932
  423MPD2    C5 6312   0.591   2.392   0.355  0.1809  0.0275  0.7780
  423MPD2     H 6313   0.485   2.089   0.553  1.7175 -0.4757 -0.5683
  423MPD2    H1 6314   0.517   2.290   0.177 -1.6863  0.1084  0.2546
  423MPD2    H2 6315   0.650   2.472   0.537  1.3516  0.1151 -1.4231
  423MPD2    H3 6316   0.620   2.486   0.308  2.4165 -0.2869  1.5185
  423MPD2     N 6317   0.444   2.063   0.286  0.2391 -0.1589 -0.3079
  423MPD2    H5 6318   0.401   1.997   0.350  0.6479  0.2474  0.3853
  423MPD2    N1 6319   0.601   2.260   0.702  0.1192  0.0297 -0.0497
  423MPD2    H7 6320   0.586   2.168   0.740 -3.0321  0.4986 -0.1955
  424TMC3    C1 6321   0.712   2.310   0.911 -0.3908 -0.1630  0.3432
  424TMC3    C2 6322   0.785   2.194   0.914 -0.2414  0.5167  0.0028
  424TMC3    C3 6323   0.862   2.176   1.028  0.9680 -0.2035 -0.8017
  424TMC3    C4 6324   0.706   2.405   1.006 -0.4173 -0.4679 -0.1541
  424TMC3    C5 6325   0.782   2.386   1.120 -0.1809  0.7505  0.8707
  424TMC3    C6 6326   0.854   2.270   1.129 -0.0701  0.1182  0.4923
  424TMC3     C 6327   0.654   2.358   0.781 -0.3432 -0.2851  0.7786
  424TMC3     O 6328   0.675   2.476   0.752  0.1748 -0.1638  0.2822
  424TMC3     H 6329   0.773   2.129   0.828 -0.1485  2.1233 -1.2323
  424TMC3    H1 6330   0.628   2.481   1.008  0.6921  0.6907 -0.9785
  424TMC3    H2 6331   0.892   2.237   1.225  1.1916  0.2777  0.0466
  424TMC3    C7 6332   0.700   2.419   1.233 -0.0518 -0.2646  0.4648
  424TMC3    C8 6333   0.929   2.051   1.060  0.1848  0.1207 -0.5906
  424TMC3    O1 6334   0.582   2.398   1.224 -0.0613  0.7938  0.0540
  424TMC3    O2 6335   0.943   2.019   1.179 -0.1085  0.0791  0.1224
  425MPD2     C 6336   3.746   1.652  17.664  0.0089  0.0270 -0.3367
  425MPD2    C1 6337   3.689   1.602  17.545  0.0411  0.6683 -0.5125
  425MPD2    C2 6338   3.557   1.645  17.519 -0.3353  0.0748  0.4703
  425MPD2    C3 6339   3.488   1.740  17.595 -0.0168 -0.4076 -0.3517
  425MPD2    C4 6340   3.547   1.778   0.027  0.2217  0.6450 -0.3192
  425MPD2    C5 6341   3.674   1.741   0.058 -0.1849 -0.3267  0.8303
  425MPD2     H 6342   3.510   1.607  17.429 -0.6558  0.8650  0.3049
  425MPD2    H1 6343   3.490   1.831   0.102 -1.8887 -2.3343  0.1951
  425MPD2    H2 6344   3.844   1.623   0.009 -0.6507 -0.1177  1.3829
  425MPD2    H3 6345   3.701   1.753   0.162  1.9700 -2.8581  0.5821
  425MPD2     N 6346   3.358   1.775  17.557  0.0223  0.0086 -0.1611
  425MPD2    H5 6347   3.332   1.718  17.477 -1.4860 -2.0471  1.8349
  425MPD2    N1 6348   3.775   1.524  17.463 -0.1745  0.4915 -0.3163
  425MPD2    H7 6349   3.874   1.513  17.481 -0.7702 -0.8162  2.2245
  426TMC3    C1 6350   3.818   1.386  17.274 -0.1694 -0.2003 -0.4780
  426TMC3    C2 6351   3.786   1.366  17.141 -0.1455 -0.0370 -0.3502
  426TMC3    C3 6352   3.879   1.311  17.058 -0.0121 -0.4957  0.2997
  426TMC3    C4 6353   3.940   1.341  17.328 -0.0096  0.4736 -0.2636
  426TMC3    C5 6354   4.009   1.255  17.241  0.0283  0.4871 -0.0920
  426TMC3    C6 6355   3.992   1.255  17.105  0.2455 -0.5899  1.1420
  426TMC3     C 6356   3.720   1.447  17.363 -0.0190 -0.2141  0.1597
  426TMC3     O 6357   3.612   1.445  17.314  0.4633  0.4486 -0.3266
  426TMC3     H 6358   3.689   1.401  17.107 -0.6818 -0.4277  0.8001
  426TMC3    H1 6359   3.952   1.350  17.435 -0.4972 -0.4169 -0.1323
  426TMC3    H2 6360   4.075   1.218  17.047  0.0550 -0.6235  0.8924
  426TMC3    C7 6361   4.120   1.180  17.287  0.3659 -0.6975  0.5603
  426TMC3    C8 6362   3.840   1.272  16.924  0.1641 -0.3626  0.3136
  426TMC3    O1 6363   4.191   1.111  17.206 -0.4467 -0.1133 -0.3191
  426TMC3    O2 6364   3.925   1.203  16.863 -0.0540 -0.3789  0.1123
  427MPD2     C 6365   1.633   2.781  14.710  0.3803 -0.2390  0.0169
  427MPD2    C1 6366   1.613   2.770  14.850  0.6859 -0.0299  0.9981
  427MPD2    C2 6367   1.568   2.878  14.912 -0.4917  1.0246 -1.4364
  427MPD2    C3 6368   1.533   2.999  14.850  0.7109  0.5205 -0.8999
  427MPD2    C4 6369   1.559   3.010  14.714  0.1427  0.4543 -0.7561
  427MPD2    C5 6370   1.608   2.907  14.642  0.1003  0.4324  0.6233
  427MPD2     H 6371   1.552   2.862  15.018  0.0440  0.2253 -1.4757
  427MPD2    H1 6372   1.544   3.103  14.661  0.3855  1.4786  0.9927
  427MPD2    H2 6373   1.666   2.701  14.644  1.3119 -0.7390  1.0780
  427MPD2    H3 6374   1.626   2.918  14.535  0.0691  1.4659  0.7276
  427MPD2     N 6375   1.479   3.113  14.915  0.0591 -0.6092 -0.5133
  427MPD2    H5 6376   1.464   3.196  14.858 -0.3908 -0.1977  0.2027
  427MPD2    N1 6377   1.673   2.671  14.928  0.0567 -0.2604 -1.0018
  427MPD2    H7 6378   1.664   2.666  15.028 -0.6712  0.7035 -1.0208
  428TMC3    C1 6379   1.801   2.499  14.994 -0.1244  0.2182 -0.5085
  428TMC3    C2 6380   1.812   2.362  14.994 -0.1901 -0.4287  0.4360
  428TMC3    C3 6381   1.903   2.313  15.085 -0.1623 -0.9861 -0.9061
  428TMC3    C4 6382   1.889   2.587  15.062  1.1277 -0.1661  1.0591
  428TMC3    C5 6383   1.983   2.525  15.141 -0.3428 -0.0439  0.0452
  428TMC3    C6 6384   1.983   2.389  15.167  0.3358  0.1501  0.3106
  428TMC3     C 6385   1.736   2.550  14.882 -0.3169  0.0300  0.2404
  428TMC3     O 6386   1.732   2.506  14.769  0.6882 -0.1955  0.5977
  428TMC3     H 6387   1.745   2.295  14.942 -0.8160 -0.3005  1.0925
  428TMC3    H1 6388   1.889   2.694  15.044 -0.8932 -0.4601 -0.6934
  428TMC3    H2 6389   2.072   2.343  15.208 -0.3606 -1.5124 -0.0433
  428TMC3    C7 6390   2.102   2.592  15.151  0.5388 -0.2913 -0.3675
  428TMC3    C8 6391   1.903   2.173  15.099 -0.2979  0.3991  0.7528
  428TMC3    O1 6392   2.170   2.580  15.252  0.0231 -0.4862  0.0713
  428TMC3    O2 6393   1.867   2.101  15.007  0.0330  0.1711 -0.1790
  429MPD2     C 6394   3.647   3.541  17.687 -0.1419  0.9062  0.7755
  429MPD2    C1 6395   3.538   3.465  17.649  0.2674  0.3712 -0.9042
  429MPD2    C2 6396   3.467   3.514  17.540  0.4244  0.3513 -0.2483
  429MPD2    C3 6397   3.495   3.642  17.485 -0.2782  0.8754  1.0006
  429MPD2    C4 6398   3.593   3.721  17.534 -0.0758 -0.4762 -0.5521
  429MPD2    C5 6399   3.679   3.667  17.626 -0.1859  0.6180  0.4520
  429MPD2     H 6400   3.387   3.458  17.494  0.0279  0.2093  0.6103
  429MPD2    H1 6401   3.632   3.811  17.489  0.2993  0.1337  0.9814
  429MPD2    H2 6402   3.718   3.499   0.067 -0.2747 -2.1593 -0.9486
  429MPD2    H3 6403   3.775   3.711  17.650 -0.8930  1.3112  1.9918
  429MPD2     N 6404   3.426   3.670  17.371  0.0097 -0.8721  0.3050
  429MPD2    H5 6405   3.372   3.596  17.326 -1.3009 -1.0789  2.1964
  429MPD2    N1 6406   3.501   3.337   0.012  0.4166 -0.6771  0.1928
  429MPD2    H7 6407   3.410   3.309  17.666  0.2724  0.5773 -0.4067
  430TMC3    C1 6408   3.379   3.794  17.173  0.1689 -0.1064  0.3517
  430TMC3    C2 6409   3.349   3.917  17.119  0.5055 -0.0732 -0.9990
  430TMC3    C3 6410   3.342   3.924  16.981  0.1101  0.3551 -0.6033
  430TMC3    C4 6411   3.408   3.683  17.091 -0.0860 -0.0075 -0.2901
  430TMC3    C5 6412   3.413   3.698  16.954  0.4566 -0.2666 -0.1251
  430TMC3    C6 6413   3.375   3.820  16.902 -0.9426 -0.4598 -0.5360
  430TMC3     C 6414   3.409   3.799  17.314 -0.4466  0.0066  0.8377
  430TMC3     O 6415   3.439   3.909  17.364  0.9467 -0.0756 -0.2555
  430TMC3     H 6416   3.318   3.994  17.189 -1.9567 -1.1878 -0.8661
  430TMC3    H1 6417   3.447   3.593  17.139 -0.5084 -1.1805 -2.1478
  430TMC3    H2 6418   3.364   3.819  16.795 -1.3466 -0.6091 -0.4962
  430TMC3    C7 6419   3.414   3.570  16.886 -0.8614  0.1623  0.1819
  430TMC3    C8 6420   3.254   4.022  16.921 -0.3411  0.1761 -0.4038
  430TMC3    O1 6421   3.447   3.471  16.951  0.3944  0.3565 -0.0826
  430TMC3    O2 6422   3.249   4.020  16.799 -0.6738  0.4914 -0.6513
  431MPD2     C 6423   3.766   3.713  12.832  0.2226 -0.1663  0.4015
  431MPD2    C1 6424   3.846   3.790  12.750  0.0149  0.2231  0.4581
  431MPD2    C2 6425   3.850   3.761  12.614 -0.1849  0.5518 -0.4940
  431MPD2    C3 6426   3.792   3.645  12.566  0.1450  0.1665 -0.5893
  431MPD2    C4 6427   3.726   3.559  12.654 -0.8657 -0.1240  0.0058
  431MPD2    C5 6428   3.719   3.590  12.789  0.2948  0.0333 -0.2955
  431MPD2     H 6429   3.906   3.830  12.552  0.6519 -0.6854 -1.1241
  431MPD2    H1 6430   3.682   3.465  12.622 -0.0260  0.2665 -2.2411
  431MPD2    H2 6431   3.740   3.731  12.936 -0.8292 -0.2958  0.1642
  431MPD2    H3 6432   3.662   3.527  12.856  0.0956 -0.4990 -0.9724
  431MPD2     N 6433   3.801   3.601  12.435  0.2389  0.0400 -0.2798
  431MPD2    H5 6434   3.771   3.506  12.415 -2.3351  0.6101  0.8694
  431MPD2    N1 6435   3.902   3.911  12.786 -0.5835  0.3235 -0.3483
  431MPD2    H7 6436   3.956   3.959  12.714  1.7636  0.1160  1.2777
  432TMC3    C1 6437   3.974   3.576  12.263  0.0671  0.2326 -0.6145
  432TMC3    C2 6438   4.059   3.636  12.167  0.0182  0.2726  0.2541
  432TMC3    C3 6439   4.158   3.554  12.117 -0.5762  0.7289  0.3089
  432TMC3    C4 6440   4.006   3.453  12.311  0.4920 -0.6746 -0.2569
  432TMC3    C5 6441   4.109   3.383  12.266 -0.7998  0.2780  0.2005
  432TMC3    C6 6442   4.184   3.427  12.167  0.0299 -0.7644  0.0427
  432TMC3     C 6443   3.882   3.669  12.339  0.4133  0.4208 -0.1652
  432TMC3     O 6444   3.902   3.791  12.328 -0.0812  0.0016 -0.2806
  432TMC3     H 6445   4.046   3.734  12.124 -0.9898  0.2872  0.5966
  432TMC3    H1 6446   3.946   3.411  12.391 -0.2289 -1.9011 -1.4402
  432TMC3    H2 6447   4.260   3.359  12.131  1.4451  0.6649  0.3420
  432TMC3    C7 6448   4.166   3.292  12.356  0.4649  0.8963 -0.5067
  432TMC3    C8 6449   4.286   3.616  12.074  0.3915  0.6866 -0.2193
  432TMC3    O1 6450   4.234   3.204  12.312 -0.4272  0.2274  0.5169
  432TMC3    O2 6451   4.382   3.543  12.055  0.3323  0.2597  0.0090
  433MPD2     C 6452   2.768   2.466  10.503  0.5576 -0.0621 -0.8487
  433MPD2    C1 6453   2.730   2.349  10.549  0.1813  0.7684  0.2920
  433MPD2    C2 6454   2.731   2.315  10.685  0.6562  0.2171  0.1489
  433MPD2    C3 6455   2.779   2.408  10.783  0.3538  0.0299 -0.0125
  433MPD2    C4 6456   2.823   2.532  10.729 -0.0815  0.0316 -0.0422
  433MPD2    C5 6457   2.823   2.555  10.592 -0.1512 -0.1162  0.1391
  433MPD2     H 6458   2.703   2.216  10.719  1.1525 -0.0576 -0.2466
  433MPD2    H1 6459   2.871   2.606  10.792 -1.0000 -0.5941  1.3679
  433MPD2    H2 6460   2.760   2.487  10.397 -0.2890  0.6710 -0.6437
  433MPD2    H3 6461   2.862   2.647  10.550 -1.0832  0.4757  0.5763
  433MPD2     N 6462   2.785   2.373  10.924  0.2016  0.0701 -0.4958
  433MPD2    H5 6463   2.738   2.287  10.948  0.7453  0.1176  0.7401
  433MPD2    N1 6464   2.706   2.246  10.456  0.5759 -0.0101  0.6492
  433MPD2    H7 6465   2.698   2.274  10.359  1.9105 -0.3238  0.4477
  434TMC3    C1 6466   2.720   2.051  10.343 -0.1486  0.3426  1.0280
  434TMC3    C2 6467   2.828   1.967  10.347  0.2099 -0.2306 -0.5498
  434TMC3    C3 6468   2.918   1.971  10.244 -0.2954 -0.8022  0.2671
  434TMC3    C4 6469   2.705   2.136  10.234 -0.1307 -0.6145  0.0613
  434TMC3    C5 6470   2.793   2.126  10.126  0.0008  0.0181  0.4489
  434TMC3    C6 6471   2.903   2.052  10.137 -0.1300  0.6641 -0.0509
  434TMC3     C 6472   2.708   2.109  10.476 -0.6469  0.5570 -0.5503
  434TMC3     O 6473   2.749   2.042  10.572  0.4790 -0.4771  0.0771
  434TMC3     H 6474   2.842   1.894  10.427 -0.6173 -0.5586 -0.7007
  434TMC3    H1 6475   2.609   2.183  10.217 -0.3267 -1.6205 -1.6803
  434TMC3    H2 6476   2.978   2.051  10.059  1.3364  0.8251  1.3676
  434TMC3    C7 6477   2.754   2.176  10.002 -0.3692 -0.4299 -0.1613
  434TMC3    C8 6478   3.055   1.936  10.289  0.5704 -1.1612  0.2625
  434TMC3    O1 6479   2.816   2.267   9.947 -0.1642 -0.4595 -0.2293
  434TMC3    O2 6480   3.057   1.854  10.378  0.1355 -0.0756  0.6819
  435MPD2     C 6481   4.600   2.034  15.517 -0.5309 -0.3542 -0.2820
  435MPD2    C1 6482   4.621   2.090  15.642 -0.2703 -0.9641  0.6208
  435MPD2    C2 6483   0.022   2.085  15.705  0.6433  0.2029  0.4508
  435MPD2    C3 6484   0.131   2.029  15.645  0.1207 -0.2290  0.0521
  435MPD2    C4 6485   0.110   1.970  15.525 -0.1956 -0.2396 -0.3966
  435MPD2    C5 6486   4.709   1.971  15.460  0.0226  0.3611  0.6346
  435MPD2     H 6487   0.018   2.143  15.797 -0.4473  0.2265  0.3984
  435MPD2    H1 6488   0.189   1.917  15.474 -0.8051 -0.4042 -1.1710
  435MPD2    H2 6489   4.505   2.037  15.465 -1.6780  2.7239  1.9658
  435MPD2    H3 6490   4.704   1.919  15.365 -0.5775  2.2532 -0.3892
  435MPD2     N 6491   0.256   2.043  15.712 -0.2532 -0.2040  0.2775
  435MPD2    H5 6492   0.255   2.094  15.800  0.7096 -0.0693  0.2096
  435MPD2    N1 6493   4.514   2.145  15.721  0.8199  0.2556  0.3593
  435MPD2    H7 6494   4.535   2.185  15.812  2.9216  0.5830 -0.2767
  436TMC3    C1 6495   4.285   2.319  15.995  0.7895 -0.7769  0.5759
  436TMC3    C2 6496   4.360   2.296  15.880  0.5456 -0.8241 -0.0734
  436TMC3    C3 6497   4.307   2.214  15.790 -0.2058 -0.6989 -0.1801
  436TMC3    C4 6498   4.156   2.277  16.012 -0.0075 -0.3378  0.5112
  436TMC3    C5 6499   4.097   2.221  15.898 -0.4673  0.3750 -0.4175
  436TMC3    C6 6500   4.171   2.179  15.788  0.5350  0.1540 -0.1519
  436TMC3     C 6501   4.345   2.390  16.103  0.2190 -0.0631 -0.3115
  436TMC3     O 6502   4.468   2.383  16.099 -0.3078  0.3621  0.1016
  436TMC3     H 6503   4.454   2.350  15.874  0.0109  0.3432  1.7927
  436TMC3    H1 6504   4.096   2.294  16.101 -0.8125 -1.5342  0.1935
  436TMC3    H2 6505   4.132   2.116  15.709  1.6344 -1.7049  0.7675
  436TMC3    C7 6506   3.959   2.180  15.912 -0.6030 -0.3821 -0.3367
  436TMC3    C8 6507   4.385   2.150  15.690  0.0547  0.1503 -0.2535
  436TMC3    O1 6508   3.900   2.205  16.017  0.1294 -0.5398  0.0614
  436TMC3    O2 6509   4.331   2.105  15.594  0.0070  0.1330  0.5003
  437TMC3    C1 6510   3.256   0.236  12.713  0.1276  0.0191 -0.6774
  437TMC3    C2 6511   3.341   0.299  12.799 -0.7200 -0.7768 -0.4666
  437TMC3    C3 6512   3.469   0.335  12.769  0.5674 -0.6512 -0.4370
  437TMC3    C4 6513   3.302   0.196  12.594 -0.7276 -0.4050 -0.3505
  437TMC3    C5 6514   3.434   0.224  12.568 -0.7346 -0.1442  0.7227
  437TMC3    C6 6515   3.525   0.287  12.649 -0.1453 -0.7118  0.1461
  437TMC3     C 6516   3.112   0.229  12.741  0.0671  1.0142  0.2588
  437TMC3     O 6517   3.045   0.155  12.671  0.2259 -0.0937 -0.4560
  437TMC3     H 6518   3.305   0.337  12.893 -1.0024 -1.7474 -0.1805
  437TMC3    H1 6519   3.240   0.136  12.529 -0.3507  0.2956 -1.3503
  437TMC3    H2 6520   3.630   0.299  12.626 -0.4312  1.4455  0.0446
  437TMC3    C7 6521   3.484   0.160  12.447 -0.9147  0.0575  0.3055
  437TMC3    C8 6522   3.563   0.382  12.872  0.0641  0.1469  0.1221
  437TMC3    O1 6523   3.412   0.154  12.345 -0.1627 -0.4273  0.4398
  437TMC3    O2 6524   3.519   0.353  12.984  0.0744  0.7412 -0.1039
  438MPD2     C 6525   1.038   0.604  16.957 -0.2074  0.4235  0.1295
  438MPD2    C1 6526   1.055   0.489  16.893  0.0337 -0.5150  0.0949
  438MPD2    C2 6527   0.964   0.387  16.916  0.2980 -0.6416 -0.5728
  438MPD2    C3 6528   0.857   0.397  17.002 -0.0962  0.2781 -0.0495
  438MPD2    C4 6529   0.835   0.526  17.048  0.0893  0.3777 -0.6342
  438MPD2    C5 6530   0.924   0.624  17.024  0.3433 -0.3193  0.0878
  438MPD2     H 6531   0.979   0.295  16.860  0.3600  0.4068 -2.2878
  438MPD2    H1 6532   0.746   0.552  17.104  0.6995 -0.1087  0.5541
  438MPD2    H2 6533   1.108   0.685  16.940  0.2023  0.0341 -0.0458
  438MPD2    H3 6534   0.905   0.727  17.052 -1.6990  0.4491 -4.0886
  438MPD2     N 6535   0.770   0.290  17.034  1.1181  0.4911  0.3643
  438MPD2    H5 6536   0.685   0.314  17.083 -0.2498 -0.9062 -1.3209
  438MPD2    N1 6537   1.180   0.463  16.836  0.1048  0.7278 -0.0053
  438MPD2    H7 6538   1.254   0.527  16.863 -0.6347  1.9579 -0.8479
  439TMC3    C1 6539   1.350   0.336  16.736  0.3265 -0.2721  0.6712
  439TMC3    C2 6540   1.392   0.273  16.622  0.3723 -0.1095 -1.1560
  439TMC3    C3 6541   1.522   0.229  16.614 -0.0740 -0.6808 -0.3998
  439TMC3    C4 6542   1.435   0.334  16.844 -0.0493 -0.4440  0.2562
  439TMC3    C5 6543   1.568   0.288  16.834  0.4779  0.4232  0.2233
  439TMC3    C6 6544   1.617   0.235  16.719 -0.4614  0.2445  0.0343
  439TMC3     C 6545   1.212   0.360  16.748 -0.2885 -0.0595 -0.1298
  439TMC3     O 6546   1.131   0.293  16.683 -0.2041  0.2610  0.0176
  439TMC3     H 6547   1.319   0.267  16.542 -2.2657  1.2984  1.1430
  439TMC3    H1 6548   1.405   0.383  16.935  0.7118 -1.7270  1.1924
  439TMC3    H2 6549   1.718   0.196  16.717  0.0284  1.5672 -0.4546
  439TMC3    C7 6550   1.658   0.277  16.947  0.0026 -0.3872 -0.4096
  439TMC3    C8 6551   1.561   0.135  16.511 -0.5321 -0.5309 -0.5112
  439TMC3    O1 6552   1.762   0.220  16.931  0.2117  0.1350 -0.5154
  439TMC3    O2 6553   1.623   0.039  16.558  0.1778  0.2048 -0.5903
  440MPD2     C 6554   0.355   0.314  15.105 -0.4192 -1.1338 -0.2639
  440MPD2    C1 6555   0.405   0.445  15.104  0.1294  0.1123  0.0556
  440MPD2    C2 6556   0.516   0.483  15.037  0.0414  0.4548  0.5121
  440MPD2    C3 6557   0.583   0.396  14.960  0.5112  0.0163  0.5472
  440MPD2    C4 6558   0.533   0.265  14.958  0.7685 -0.1746 -0.6323
  440MPD2    C5 6559   0.419   0.226  15.025 -0.6464 -0.3909 -0.4719
  440MPD2     H 6560   0.546   0.587  15.032  0.5031  0.1906 -2.4196
  440MPD2    H1 6561   0.589   0.185  14.910  3.9542  2.2645 -0.9815
  440MPD2    H2 6562   0.265   0.288  15.159  0.0916  0.9461  1.5880
  440MPD2    H3 6563   0.389   0.122  15.012  1.3166 -0.9024 -0.9247
  440MPD2     N 6564   0.703   0.419  14.890  0.1879  0.4673 -0.4293
  440MPD2    H5 6565   0.742   0.340  14.840 -0.3920 -1.0707  1.5675
  440MPD2    N1 6566   0.350   0.539  15.193  0.2480  0.1404 -0.2974
  440MPD2    H7 6567   0.407   0.623  15.203  1.8599 -0.8899 -0.9532
  441TMC3    C1 6568   0.920   0.512  14.894 -0.1542  0.3632 -0.5012
  441TMC3    C2 6569   0.978   0.645  14.884  0.5766 -1.0015 -0.6732
  441TMC3    C3 6570   1.085   0.683  14.971 -0.1191 -0.2063 -0.4148
  441TMC3    C4 6571   0.968   0.425  14.984  0.7344 -0.1634  0.3478
  441TMC3    C5 6572   1.075   0.469  15.064 -1.2775  0.1489  0.3003
  441TMC3    C6 6573   1.136   0.593  15.053  0.6297  0.2637  0.5933
  441TMC3     C 6574   0.778   0.529  14.916  0.1391 -0.4159  0.5632
  441TMC3     O 6575   0.754   0.635  14.971 -0.3958 -0.3400  0.0004
  441TMC3     H 6576   0.928   0.721  14.826  1.6761  0.1853 -0.0628
  441TMC3    H1 6577   0.916   0.334  15.014  0.9447 -0.5418 -0.4337
  441TMC3    H2 6578   1.178   0.627  15.148  1.6570 -1.7995  0.8763
  441TMC3    C7 6579   1.111   0.395  15.184 -0.5446 -0.7614 -0.5642
  441TMC3    C8 6580   1.068   0.804  15.042 -0.2099  0.0916  0.3167
  441TMC3    O1 6581   1.228   0.400  15.218  0.4723 -0.1578  0.6415
  441TMC3    O2 6582   1.169   0.858  15.092  0.2328 -0.4384  0.2359
  442MPD2     C 6583   2.685   1.292  16.332 -0.2724  0.2145  0.0102
  442MPD2    C1 6584   2.708   1.236  16.205  1.1210  0.8620  0.2296
  442MPD2    C2 6585   2.751   1.110  16.199  0.1604  0.2013  0.1891
  442MPD2    C3 6586   2.786   1.033  16.313 -0.6409  0.1671  0.7955
  442MPD2    C4 6587   2.761   1.091  16.434 -0.4072 -0.4668  0.3738
  442MPD2    C5 6588   2.716   1.220  16.441 -0.3333 -0.1141 -0.5395
  442MPD2     H 6589   2.772   1.074  16.099 -0.4492 -0.9190  0.4638
  442MPD2    H1 6590   2.781   1.047  16.531 -2.5426  1.0578  1.5101
  442MPD2    H2 6591   2.651   1.394  16.340 -0.1318  0.2283  0.4454
  442MPD2    H3 6592   2.710   1.265  16.540  1.4921  2.5825 -1.6818
  442MPD2     N 6593   2.851   0.906  16.311  0.3341  0.5089 -0.1096
  442MPD2    H5 6594   2.874   0.862  16.399 -1.5102  0.9525  0.5787
  442MPD2    N1 6595   2.677   1.299  16.084  0.1286 -0.4099 -0.6834
  442MPD2    H7 6596   2.684   1.243  16.000  2.6545 -1.2483  0.0895
  443TMC3    C1 6597   2.609   1.480  15.943 -0.0496 -0.1016  0.3644
  443TMC3    C2 6598   2.561   1.396  15.852 -0.0563 -0.1638  0.5168
  443TMC3    C3 6599   2.481   1.447  15.749 -0.0014 -0.2192  0.3549
  443TMC3    C4 6600   2.581   1.613  15.936  0.3911  0.2426  0.2970
  443TMC3    C5 6601   2.500   1.661  15.835 -0.1783 -0.0140 -0.5871
  443TMC3    C6 6602   2.447   1.576  15.743 -0.3597  0.0428 -0.4732
  443TMC3     C 6603   2.634   1.432  16.075 -0.2956 -0.0175 -0.7034
  443TMC3     O 6604   2.609   1.518  16.159 -0.8130  0.2513  0.2692
  443TMC3     H 6605   2.590   1.292  15.850 -1.2432 -0.5153  1.4462
  443TMC3    H1 6606   2.637   1.680  15.999  1.1324 -1.5731  1.5693
  443TMC3    H2 6607   2.376   1.606  15.667  0.1794  0.2129 -0.9099
  443TMC3    C7 6608   2.394   1.733  15.907 -0.9109  0.1849  0.2639
  443TMC3    C8 6609   2.435   1.349  15.645  0.5202 -0.1882 -0.1738
  443TMC3    O1 6610   2.329   1.823  15.852  0.1479 -0.0503  0.3931
  443TMC3    O2 6611   2.433   1.378  15.528 -0.0989  0.0735 -0.4721
  444MPD2     C 6612   3.607   0.944  16.992 -0.4692 -0.0743  0.0647
  444MPD2    C1 6613   3.507   0.858  16.940  0.1210 -0.2427 -0.4187
  444MPD2    C2 6614   3.548   0.744  16.869  0.4218 -0.2388 -0.2215
  444MPD2    C3 6615   3.684   0.718  16.845 -0.3700 -0.1579 -0.4596
  444MPD2    C4 6616   3.779   0.808  16.888  0.4396  0.1422 -0.3432
  444MPD2    C5 6617   3.741   0.917  16.966 -0.2664  0.5763 -0.1343
  444MPD2     H 6618   3.482   0.667  16.832 -0.8947  0.8273 -0.1027
  444MPD2    H1 6619   3.882   0.773  16.881  1.1617  2.1562  0.3868
  444MPD2    H2 6620   3.577   1.031  17.050  0.1900  0.4443 -0.3631
  444MPD2    H3 6621   3.825   0.978  16.996  0.8137 -1.7133  1.5057
  444MPD2     N 6622   3.719   0.600  16.778 -0.4751 -0.2371  0.0512
  444MPD2    H5 6623   3.637   0.551  16.743 -0.3308 -1.0248  0.8169
  444MPD2    N1 6624   3.372   0.878  16.987  1.0986  0.2245 -0.7690
  444MPD2    H7 6625   3.347   0.940  17.063  1.4683 -2.0434  1.1831
  445TMC3    C1 6626   3.847   0.412  16.717 -0.5065 -0.1522  0.2812
  445TMC3    C2 6627   3.730   0.335  16.705  0.8828  0.3442  0.0079
  445TMC3    C3 6628   3.744   0.211  16.659 -0.3666  0.1744 -0.2613
  445TMC3    C4 6629   3.970   0.354  16.689  0.4643  0.3192 -0.0865
  445TMC3    C5 6630   3.976   0.219  16.657  0.3651 -0.8513  0.9746
  445TMC3    C6 6631   3.863   0.146  16.640 -0.1577 -0.1002 -0.7497
  445TMC3     C 6632   3.846   0.560  16.745 -0.0061  0.8334  0.4907
  445TMC3     O 6633   3.954   0.615  16.732 -0.5484 -0.6986 -0.7138
  445TMC3     H 6634   3.634   0.371  16.740  1.0862  2.1353 -1.2802
  445TMC3    H1 6635   4.060   0.414  16.693  0.1703  0.7047  0.8039
  445TMC3    H2 6636   3.846   0.053  16.587  1.2722 -0.1107 -1.2009
  445TMC3    C7 6637   4.100   0.159  16.624 -0.2111 -0.8002  0.0318
  445TMC3    C8 6638   3.626   0.136  16.620 -0.0640  0.6160 -0.2627
  445TMC3    O1 6639   4.200   0.231  16.614 -0.4181 -0.0589 -0.5025
  445TMC3    O2 6640   3.626   0.017  16.636 -0.6030  0.0272 -0.3719
  446MPD2     C 6641   2.745   1.606  10.907  0.2838 -0.0702  0.1749
  446MPD2    C1 6642   2.698   1.634  10.780 -0.1751 -0.0937  0.0831
  446MPD2    C2 6643   2.764   1.729  10.706 -0.1442 -0.1168 -0.3880
  446MPD2    C3 6644   2.884   1.782  10.756 -0.2002 -0.5812 -0.0440
  446MPD2    C4 6645   2.933   1.741  10.884  0.3282 -0.5802  0.2028
  446MPD2    C5 6646   2.860   1.661  10.963 -0.9826 -0.1843 -0.2795
  446MPD2     H 6647   2.731   1.768  10.610 -1.2385 -1.1971 -0.4448
  446MPD2    H1 6648   3.023   1.775  10.933 -0.1726  0.4447  0.4013
  446MPD2    H2 6649   2.698   1.529  10.968 -1.6652  1.2583  0.3376
  446MPD2    H3 6650   2.898   1.617  11.054  1.2116 -0.7639 -1.4832
  446MPD2     N 6651   2.945   1.890  10.684  0.0001 -0.6268  0.0536
  446MPD2    H5 6652   2.883   1.937  10.619  2.1035 -0.4654 -1.8512
  446MPD2    N1 6653   2.581   1.570  10.724 -0.1469 -0.7324  0.4384
  446MPD2    H7 6654   2.556   1.600  10.630  0.4569  0.4371  0.6609
  447TMC3    C1 6655   3.110   2.060  10.683  0.7537 -0.6418  0.3855
  447TMC3    C2 6656   3.056   2.131  10.586 -0.5546 -0.2296  0.0614
  447TMC3    C3 6657   3.100   2.256  10.568  0.2222 -0.3567  0.0944
  447TMC3    C4 6658   3.202   2.105  10.763 -0.1175 -0.2709 -0.2843
  447TMC3    C5 6659   3.246   2.233  10.741  0.6448  0.5867  0.0157
  447TMC3    C6 6660   3.198   2.313  10.645 -0.0030  0.5088 -0.1168
  447TMC3     C 6661   3.075   1.916  10.700  0.5357  0.4651 -0.3120
  447TMC3     O 6662   3.159   1.844  10.749 -0.5678  0.0790  0.6303
  447TMC3     H 6663   2.978   2.095  10.520  1.8278 -1.4272 -2.1107
  447TMC3    H1 6664   3.245   2.040  10.839 -1.0798  2.2948  2.4377
  447TMC3    H2 6665   3.232   2.414  10.625  0.9976  0.3398  0.7359
  447TMC3    C7 6666   3.357   2.274  10.824 -0.4078  0.1831 -0.0844
  447TMC3    C8 6667   3.067   2.315  10.432  0.2971 -0.3871  0.1465
  447TMC3    O1 6668   3.429   2.368  10.785  0.0960 -0.3568  0.8503
  447TMC3    O2 6669   2.977   2.268  10.363  0.6296  0.0436 -0.1542
  448TMC3    C1 6670   1.855   1.951  17.410  0.0107 -0.0619 -0.4558
  448TMC3    C2 6671   1.827   1.824  17.365  0.0201 -0.1940 -0.1509
  448TMC3    C3 6672   1.901   1.718  17.418 -0.3624 -1.0857  0.2808
  448TMC3    C4 6673   1.938   1.975  17.513  0.3030 -0.4258 -0.6899
  448TMC3    C5 6674   2.002   1.873  17.560  0.3199 -0.0154 -0.0410
  448TMC3    C6 6675   1.989   1.741  17.522 -0.1709 -0.0269  0.1598
  448TMC3     C 6676   1.758   2.057  17.382 -0.0490 -0.4510 -0.1604
  448TMC3     O 6677   1.735   2.129  17.475  0.6379 -0.0852  0.0004
  448TMC3     H 6678   1.752   1.808  17.288 -0.4232 -1.6255  0.5852
  448TMC3    H1 6679   1.956   2.071  17.559  0.0177 -0.4095 -0.6132
  448TMC3    H2 6680   2.055   1.666  17.564 -0.2095  0.0197  0.3039
  448TMC3    C7 6681   2.070   1.904  17.683 -0.5839 -0.1229  0.4877
  448TMC3    C8 6682   1.885   1.582  17.354 -0.6003  0.4616  0.8560
  448TMC3    O1 6683   2.107   2.019   0.016 -0.3337  0.7384 -0.3035
  448TMC3    O2 6684   1.903   1.480  17.417 -0.4076  0.6314  0.2791
  449MPD2     C 6685   2.904   0.058  13.855 -0.1225  0.2892 -0.8756
  449MPD2    C1 6686   2.832   4.692  13.784 -0.0448  0.1454  0.3642
  449MPD2    C2 6687   2.807   4.557  13.823  0.4119 -0.0242  0.1552
  449MPD2    C3 6688   2.864   4.521  13.940 -0.1153  0.1242 -0.4495
  449MPD2    C4 6689   2.935   4.609  14.016  0.2262  0.1279  0.0313
  449MPD2    C5 6690   2.949   0.017  13.979 -0.5587 -0.4387  0.2198
  449MPD2     H 6691   2.751   4.493  13.755 -0.7895  1.8877 -0.6576
  449MPD2    H1 6692   2.984   4.589  14.111 -1.8468 -0.5728  0.9404
  449MPD2    H2 6693   2.923   0.160  13.824 -2.2213  1.2330  0.9613
  449MPD2    H3 6694   3.001   0.084  14.046 -2.6859  2.0852 -0.6302
  449MPD2     N 6695   2.836   4.389  13.981  0.1564  0.0777  0.1690
  449MPD2    H5 6696   2.781   4.335  13.914  0.0638  0.7073 -0.2563
  449MPD2    N1 6697   2.767   0.013  13.668  0.3999  0.5010 -0.0225
  449MPD2    H7 6698   2.705   4.670  13.621  0.1176 -0.1652  1.2789
  450TMC3    C1 6699   2.684   0.119  13.483 -0.4727  0.1373  0.2414
  450TMC3    C2 6700   2.768   0.145  13.379 -0.1138 -0.5069  0.3942
  450TMC3    C3 6701   2.767   0.054  13.275 -0.6415  0.0408  0.0571
  450TMC3    C4 6702   2.602   0.012  13.490  0.5649  0.2289  0.4482
  450TMC3    C5 6703   2.593   4.651  13.382 -0.1845 -0.0883 -0.5100
  450TMC3    C6 6704   2.683   4.668  13.277 -0.1257 -0.5664 -0.6236
  450TMC3     C 6705   2.762   0.136  13.602  0.0247  0.3296 -0.4788
  450TMC3     O 6706   2.834   0.235  13.623  0.5357 -0.4127  0.1468
  450TMC3     H 6707   2.822   0.239  13.377  1.4473 -1.4137  0.2293
  450TMC3    H1 6708   2.529   0.003  13.570 -0.0534  1.1711 -0.0127
  450TMC3    H2 6709   2.696   4.588  13.204 -1.1307 -0.4140 -0.9739
  450TMC3    C7 6710   2.594   4.530  13.446  0.0225 -0.2966 -0.4314
  450TMC3    C8 6711   2.894   0.052  13.207  0.6809  0.3748 -0.2348
  450TMC3    O1 6712   2.643   4.533  13.557 -0.3803  0.0648  0.2464
  450TMC3    O2 6713   2.983   0.115  13.265 -0.6877  0.1680 -0.3384
  451MPD2     C 6714   4.083   2.986   1.792  0.3108  0.2142 -0.6930
  451MPD2    C1 6715   4.116   3.010   1.658  0.0635  0.4859  0.4827
  451MPD2    C2 6716   4.228   2.947   1.608  0.8577  0.0017  0.2557
  451MPD2    C3 6717   4.310   2.865   1.679  0.4461 -0.4331 -0.1714
  451MPD2    C4 6718   4.273   2.846   1.811 -0.5206 -0.2312  0.9678
  451MPD2    C5 6719   4.164   2.906   1.869 -0.1815  0.6734 -0.1273
  451MPD2     H 6720   4.246   2.973   1.504 -1.9555 -0.6316 -0.3802
  451MPD2    H1 6721   4.329   2.769   1.863 -0.0860 -0.1808  0.5729
  451MPD2    H2 6722   3.997   3.037   1.834 -0.2720 -2.3758  1.2515
  451MPD2    H3 6723   4.157   2.892   1.976  0.1819 -0.8047 -0.2892
  451MPD2     N 6724   4.430   2.803   1.628  0.5787 -0.8650  0.3843
  451MPD2    H5 6725   4.481   2.742   1.692 -1.3510  1.0680  3.7300
  451MPD2    N1 6726   4.028   3.095   1.590 -0.4468 -0.0278  0.2189
  451MPD2    H7 6727   3.949   3.135   1.639 -0.8082  1.8151 -1.8675
  452TMC3    C1 6728   4.602   2.771   1.469 -0.4880 -0.1497 -0.7084
  452TMC3    C2 6729   4.704   2.785   1.564 -0.4455  0.3321 -0.5426
  452TMC3    C3 6730   0.112   2.779   1.531 -0.2766 -0.0296  0.2597
  452TMC3    C4 6731   4.630   2.755   1.335  0.4017  0.3235 -0.3909
  452TMC3    C5 6732   0.047   2.760   1.309 -0.6110  0.8987 -0.3673
  452TMC3    C6 6733   0.144   2.763   1.404  0.2003 -0.4748  0.2147
  452TMC3     C 6734   4.463   2.808   1.498  0.1057  0.9457 -0.0395
  452TMC3     O 6735   4.389   2.831   1.405  0.1402 -0.5935  0.1076
  452TMC3     H 6736   4.671   2.802   1.666  0.2582 -3.8872  0.4008
  452TMC3    H1 6737   4.552   2.745   1.260  0.4426  0.9771 -0.5180
  452TMC3    H2 6738   0.248   2.757   1.375  0.3802 -0.0680  0.7566
  452TMC3    C7 6739   0.085   2.840   1.190  0.1070 -0.3845 -0.2781
  452TMC3    C8 6740   0.200   2.850   1.615 -0.0354  0.1420 -0.1298
  452TMC3    O1 6741   0.006   2.858   1.099 -0.0905  0.1881 -0.8490
  452TMC3    O2 6742   0.277   2.934   1.560  0.3173  0.5909  0.3723
  453TMC3    C1 6743   0.483   1.028  11.724  0.0491 -0.6127  0.0507
  453TMC3    C2 6744   0.402   0.941  11.791 -0.2841 -0.0707  0.8041
  453TMC3    C3 6745   0.293   0.901  11.716  0.2226 -0.6626  0.1579
  453TMC3    C4 6746   0.473   1.076  11.597  0.2532  0.0001 -0.5182
  453TMC3    C5 6747   0.352   1.043  11.530  0.3066  0.0158  0.2206
  453TMC3    C6 6748   0.262   0.958  11.591 -0.7513 -0.2042 -0.3115
  453TMC3     C 6749   0.606   1.070  11.796  0.0108  0.1437  0.8570
  453TMC3     O 6750   0.697   1.112  11.723  0.4710 -0.5502 -0.5183
  453TMC3     H 6751   0.428   0.910  11.892 -1.0140  2.8049  1.8704
  453TMC3    H1 6752   0.556   1.132  11.555  2.0950 -1.8225  0.6954
  453TMC3    H2 6753   0.178   0.914  11.538 -0.2976 -2.7324  1.0776
  453TMC3    C7 6754   0.356   1.035  11.384  0.8499 -0.7904  0.6573
  453TMC3    C8 6755   0.222   0.785  11.759  0.2733 -0.7395  0.2223
  453TMC3    O1 6756   0.288   0.942  11.342  0.8473  0.6753 -0.0117
  453TMC3    O2 6757   0.107   0.770  11.716  0.0627  0.3836  0.0155
  454MPD2     C 6758   4.270   0.313  16.205 -0.3766  0.2825 -0.1633
  454MPD2    C1 6759   4.197   0.364  16.103 -0.3156  0.2016 -0.0633
  454MPD2    C2 6760   4.149   0.491  16.100  1.0093 -0.4385  0.4953
  454MPD2    C3 6761   4.152   0.572  16.209  0.8934  0.6006 -0.4612
  454MPD2    C4 6762   4.211   0.507  16.318 -0.0222  0.1563 -0.0045
  454MPD2    C5 6763   4.277   0.388  16.319  0.2834  0.6705  0.0809
  454MPD2     H 6764   4.107   0.526  16.007 -1.3236 -1.3585  1.2212
  454MPD2    H1 6765   4.217   0.563  16.411 -2.0410 -0.5273  0.5255
  454MPD2    H2 6766   4.313   0.214  16.203 -0.5105  0.2290 -0.3572
  454MPD2    H3 6767   4.318   0.344  16.410 -1.6052 -0.2953  0.4587
  454MPD2     N 6768   4.061   0.681  16.229 -0.2086 -0.2379  0.5436
  454MPD2    H5 6769   4.035   0.710  16.323 -1.5226  1.3056 -0.3172
  454MPD2    N1 6770   4.175   0.288  15.983 -0.0959 -1.1881  0.9708
  454MPD2    H7 6771   4.139   0.329  15.897  0.9786 -0.6043  0.8005
  455TMC3    C1 6772   3.863   0.795  16.178  0.3739 -0.1904  0.1022
  455TMC3    C2 6773   3.876   0.864  16.294  0.2009  0.3558  0.1640
  455TMC3    C3 6774   3.778   0.858  16.390 -0.0283  0.5153  0.2026
  455TMC3    C4 6775   3.754   0.711  16.164 -0.3421 -0.3998  0.4811
  455TMC3    C5 6776   3.655   0.704  16.258  0.5500  0.8091  0.1478
  455TMC3    C6 6777   3.666   0.778  16.371 -0.0349 -0.1339  0.8133
  455TMC3     C 6778   3.988   0.743  16.131 -0.4543  0.4013  0.4896
  455TMC3     O 6779   3.991   0.727  16.011 -0.4594 -0.2456 -0.0178
  455TMC3     H 6780   3.963   0.926  16.314 -1.4019  2.4489  0.7289
  455TMC3    H1 6781   3.744   0.650  16.074 -1.8975  1.9382 -0.9378
  455TMC3    H2 6782   3.589   0.770  16.447 -1.6454 -1.0300 -0.9106
  455TMC3    C7 6783   3.625   0.567  16.289  0.3678  0.6531 -0.0396
  455TMC3    C8 6784   3.772   0.955  16.494 -0.2664  0.3103 -0.0899
  455TMC3    O1 6785   3.512   0.536  16.326  0.5119 -0.1443 -0.6070
  455TMC3    O2 6786   3.875   1.018  16.513 -0.1816 -0.5524  0.0423
  456MPD2     C 6787   1.881   0.366  16.502  0.0588 -0.4548  0.2002
  456MPD2    C1 6788   1.948   0.318  16.603  0.5098  0.3235 -0.2396
  456MPD2    C2 6789   1.933   0.392  16.718 -0.3318  0.1012 -0.4967
  456MPD2    C3 6790   1.868   0.517  16.725  0.0723  0.4522  0.1022
  456MPD2    C4 6791   1.782   0.553  16.623 -0.0669 -0.4202 -0.1450
  456MPD2    C5 6792   1.796   0.474  16.507  0.2570  0.0268  0.3311
  456MPD2     H 6793   1.995   0.371  16.805  1.8368  0.8483 -1.8469
  456MPD2    H1 6794   1.730   0.647  16.609 -0.4414 -0.7089 -0.6931
  456MPD2    H2 6795   1.882   0.315  16.406  0.1050 -0.7459  0.3550
  456MPD2    H3 6796   1.733   0.510  16.426  0.5963 -0.6666 -0.2313
  456MPD2     N 6797   1.878   0.592  16.842  0.3822  0.1737  0.5482
  456MPD2    H5 6798   1.928   0.557  16.923 -0.1357 -1.0040  0.3662
  456MPD2    N1 6799   2.035   0.210  16.580  0.6076 -0.5296 -0.0346
  456MPD2    H7 6800   2.033   0.165  16.489  0.5920  0.8628 -0.7234
  457TMC3    C1 6801   1.842   0.768  16.987 -0.7752 -0.9789  0.1495
  457TMC3    C2 6802   1.873   0.899  17.000 -0.3039 -0.9068 -0.2344
  457TMC3    C3 6803   1.931   0.936  17.121  0.4287  0.1375 -0.4757
  457TMC3    C4 6804   1.847   0.678  17.094  0.0118  0.6037 -0.0204
  457TMC3    C5 6805   1.924   0.717  17.212  0.1418  0.4062  0.1702
  457TMC3    C6 6806   1.956   0.849  17.227  0.4976 -0.2232  0.0071
  457TMC3     C 6807   1.824   0.714  16.858  0.5994 -0.3706  0.3540
  457TMC3     O 6808   1.779   0.794  16.771  0.0973 -0.2392  0.6626
  457TMC3     H 6809   1.858   0.960  16.911  0.8109 -0.6177 -0.2341
  457TMC3    H1 6810   1.808   0.578  17.081  1.4658  0.1690 -1.0790
  457TMC3    H2 6811   1.994   0.884  17.322  0.6783 -2.9350  0.9427
  457TMC3    C7 6812   1.888   0.649  17.336 -0.8732 -0.0760  0.4049
  457TMC3    C8 6813   1.924   1.080  17.148  1.1329 -0.2406 -0.2934
  457TMC3    O1 6814   1.978   0.643  17.416  0.1529  0.0736  0.4980
  457TMC3    O2 6815   1.900   1.103  17.264 -0.5536  0.1141  0.6086
  458MPD2     C 6816   3.925   4.716  12.234 -0.3189  0.3882 -0.0773
  458MPD2    C1 6817   3.937   4.703  12.371 -0.2684 -0.1836 -0.2591
  458MPD2    C2 6818   3.828   0.016  12.454 -0.6101 -0.0399 -0.0668
  458MPD2    C3 6819   3.707   0.062  12.397 -0.0856 -0.0976 -0.4232
  458MPD2    C4 6820   3.699   0.064  12.262  0.1117 -0.4835 -0.0017
  458MPD2    C5 6821   3.807   0.036  12.181 -0.5238  0.2434 -0.2459
  458MPD2     H 6822   3.828   4.716  12.560 -0.1666 -5.0791 -1.1183
  458MPD2    H1 6823   3.608   0.093  12.211  0.7124 -0.6570 -1.1507
  458MPD2    H2 6824   4.006   4.683  12.169  0.4814  1.0404  0.5880
  458MPD2    H3 6825   3.786   0.038  12.075 -0.2683 -1.6223 -0.3256
  458MPD2     N 6826   3.606   0.110  12.482  0.4270 -0.3751 -0.4445
  458MPD2    H5 6827   3.626   0.113  12.581  2.9294  1.3942 -0.9949
  458MPD2    N1 6828   4.060   4.651  12.419 -0.1592  0.1532  0.2693
  458MPD2    H7 6829   4.143   4.672  12.364 -0.6887  1.7446  0.0696
  459TMC3    C1 6830   4.215   4.586  12.583  0.1031 -0.9956  0.1299
  459TMC3    C2 6831   4.324   4.637  12.520 -0.4423 -0.3974  0.8983
  459TMC3    C3 6832   4.434   4.668  12.592 -0.0700  0.1628  0.5923
  459TMC3    C4 6833   4.230   4.537  12.707  0.3981  0.3287 -0.4389
  459TMC3    C5 6834   4.345   4.560  12.776  0.5239  0.4898 -0.1395
  459TMC3    C6 6835   4.442   4.628  12.724  0.2617  0.5233 -0.1855
  459TMC3     C 6836   4.076   4.611  12.548 -0.3092 -0.0169  0.0550
  459TMC3     O 6837   3.997   4.578  12.635 -0.2976 -0.7798 -0.2751
  459TMC3     H 6838   4.319   4.669  12.416  0.9805  2.0300  1.5876
  459TMC3    H1 6839   4.150   4.476  12.747 -0.2702  0.5231 -1.4874
  459TMC3    H2 6840   4.533   4.657  12.775  1.3497 -1.3545 -1.0498
  459TMC3    C7 6841   4.353   4.509  12.913  0.1223 -0.1309  0.0527
  459TMC3    C8 6842   4.533   0.038  12.538 -0.4896 -0.0627  0.3150
  459TMC3    O1 6843   4.269   4.429  12.942 -0.2627 -0.4545 -0.1975
  459TMC3    O2 6844   4.637   0.036  12.601 -0.1112  0.0542  0.0369
  460MPD2     C 6845   3.260   2.545  10.235 -0.7478  0.1566  0.1516
  460MPD2    C1 6846   3.147   2.473  10.269  0.4869  0.2878  0.2243
  460MPD2    C2 6847   3.040   2.471  10.184 -0.9422  0.5539 -0.1267
  460MPD2    C3 6848   3.055   2.513  10.053 -0.5651 -0.4283  0.1546
  460MPD2    C4 6849   3.176   2.568  10.009  0.0166  0.1275  0.6630
  460MPD2    C5 6850   3.273   2.585  10.104  0.4518 -0.4338 -0.4102
  460MPD2     H 6851   2.945   2.438  10.223 -0.4919 -1.3810 -0.6816
  460MPD2    H1 6852   3.186   2.606   9.908  1.5128  1.0715  1.1649
  460MPD2    H2 6853   3.345   2.566  10.299 -1.3591  1.9168  0.3682
  460MPD2    H3 6854   3.364   2.635  10.073  0.6108  0.4711  1.4854
  460MPD2     N 6855   2.942   2.506   9.978 -0.7344 -0.1254 -0.5386
  460MPD2    H5 6856   2.855   2.463  10.008 -0.7736  0.3196 -0.0026
  460MPD2    N1 6857   3.160   2.407  10.386  0.7075  0.0785 -0.0426
  460MPD2    H7 6858   3.241   2.422  10.446  0.5700  1.1268 -0.1221
  461TMC3    C1 6859   2.807   2.527   9.784  0.4267  0.3081  0.4989
  461TMC3    C2 6860   2.827   2.464   9.665 -0.2492  0.4571  0.9316
  461TMC3    C3 6861   2.769   2.513   9.547 -0.9802  0.1632  0.5491
  461TMC3    C4 6862   2.733   2.641   9.786  0.4402  0.0818  0.2004
  461TMC3    C5 6863   2.681   2.689   9.671 -0.0874 -1.3729  0.6745
  461TMC3    C6 6864   2.686   2.617   9.553 -0.0403 -0.0317  0.1461
  461TMC3     C 6865   2.933   2.546   9.846  0.3544 -0.3090  0.3588
  461TMC3     O 6866   3.010   2.609   9.774 -0.1734  0.0853  0.3037
  461TMC3     H 6867   2.901   2.386   9.670 -1.0523 -0.3560  0.1781
  461TMC3    H1 6868   2.732   2.695   9.880  1.6170  0.7411 -0.1696
  461TMC3    H2 6869   2.639   2.661   9.466 -4.4495  0.3587  2.6996
  461TMC3    C7 6870   2.634   2.823   9.660  0.1700  0.7456  0.1193
  461TMC3    C8 6871   2.821   2.475   9.420 -0.1194  0.0716 -0.5798
  461TMC3    O1 6872   2.605   2.869   9.549  0.0665  0.0527  0.1815
  461TMC3    O2 6873   2.796   2.548   9.325  0.0132  0.1825 -0.4382
  462TMC3    C1 6874   3.630   3.783   0.355  0.2592 -0.7848 -0.2783
  462TMC3    C2 6875   3.752   3.719   0.383 -0.3868  0.2938  0.1175
  462TMC3    C3 6876   3.749   3.584   0.398  0.0091 -0.7413 -0.4245
  462TMC3    C4 6877   3.510   3.716   0.369  0.3647  0.1826 -0.2896
  462TMC3    C5 6878   3.515   3.583   0.397  0.1721  0.0950 -0.5478
  462TMC3    C6 6879   3.632   3.514   0.419  0.5148  0.4505 -0.2388
  462TMC3     C 6880   3.640   3.911   0.294  0.7515 -0.0299 -0.3451
  462TMC3     O 6881   3.743   3.943   0.242 -0.4942  0.5144 -0.1912
  462TMC3     H 6882   3.846   3.772   0.375  0.1596 -0.7743 -0.5031
  462TMC3    H1 6883   3.418   3.767   0.341  0.1640 -1.2686 -2.2773
  462TMC3    H2 6884   3.644   3.424   0.478  0.1566  1.1790  0.9560
  462TMC3    C7 6885   3.396   3.510   0.384  0.1079  0.9622 -0.1002
  462TMC3    C8 6886   3.879   3.519   0.394  0.3361 -0.0135 -0.3413
  462TMC3    O1 6887   3.386   3.405   0.443 -0.2469 -0.2358 -0.1216
  462TMC3    O2 6888   3.986   3.572   0.417 -1.2395  0.0594 -0.5729
  463MPD2     C 6889   4.646   1.584   2.264 -0.1854 -0.0940 -0.2062
  463MPD2    C1 6890   0.003   1.666   2.182 -0.7064 -0.8927  0.7817
  463MPD2    C2 6891   0.131   1.626   2.159  0.0569 -0.0734 -0.2079
  463MPD2    C3 6892   0.181   1.516   2.222 -1.4333 -0.6872  0.0582
  463MPD2    C4 6893   0.105   1.433   2.297  0.0575  0.4925  1.0232
  463MPD2    C5 6894   4.695   1.465   2.318  0.1282 -0.2444 -0.7250
  463MPD2     H 6895   0.193   1.689   2.095  1.1429 -0.4499  0.4785
  463MPD2    H1 6896   0.142   1.347   2.352 -0.3314 -0.1452  0.2906
  463MPD2    H2 6897   4.540   1.601   2.281  0.5447  2.6410  1.6208
  463MPD2    H3 6898   4.626   1.400   2.371  0.6523 -0.1459  0.0829
  463MPD2     N 6899   0.313   1.466   2.200  0.1308  0.1071  0.0274
  463MPD2    H5 6900   0.335   1.402   2.275 -2.3754 -1.1307 -0.3179
  463MPD2    N1 6901   4.682   1.789   2.122 -0.0551 -0.0309 -0.4370
  463MPD2    H7 6902   0.031   1.846   2.077 -0.5684  3.1175  2.7082
  464TMC3    C1 6903   4.553   1.978   2.067 -0.9235 -0.0909  0.6608
  464TMC3    C2 6904   4.656   2.061   2.082 -0.4688 -0.5727 -0.0959
  464TMC3    C3 6905   4.631   2.194   2.044 -0.0070 -0.6663  0.1568
  464TMC3    C4 6906   4.426   2.016   2.030  0.5079  0.4802 -0.1724
  464TMC3    C5 6907   4.411   2.139   1.983 -0.3394  0.2543  0.1039
  464TMC3    C6 6908   4.512   2.231   1.985  0.2396  0.2199  1.0573
  464TMC3     C 6909   4.565   1.853   2.143  0.0184 -0.4308  0.2833
  464TMC3     O 6910   4.468   1.816   2.209 -0.0136 -0.2030  0.4096
  464TMC3     H 6911   0.024   2.030   2.134  2.0333  2.1091 -2.7559
  464TMC3    H1 6912   4.347   1.942   2.033  1.5468 -0.6410 -0.5416
  464TMC3    H2 6913   4.492   2.330   1.947  0.3807  0.3520  1.3271
  464TMC3    C7 6914   4.286   2.179   1.923 -0.4217  0.1872  0.7616
  464TMC3    C8 6915   0.023   2.286   2.022 -0.2718  0.5173  0.5499
  464TMC3    O1 6916   4.262   2.297   1.910  0.0081 -0.1856  0.0023
  464TMC3    O2 6917   0.009   2.374   1.939  0.2537  0.6348 -0.1025
  465MPD2     C 6918   1.458   0.720  16.814  0.0795  0.3080  0.1242
  465MPD2    C1 6919   1.375   0.821  16.865  0.1939 -0.0046  0.0598
  465MPD2    C2 6920   1.255   0.849  16.792  0.3613 -0.1535  0.2809
  465MPD2    C3 6921   1.219   0.784  16.674 -0.3986 -0.3548 -0.0255
  465MPD2    C4 6922   1.310   0.698  16.626  0.2441  0.1290  0.2867
  465MPD2    C5 6923   1.422   0.666  16.692 -0.3587 -0.3230  0.2895
  465MPD2     H 6924   1.183   0.917  16.835  0.1998 -1.1933  1.6428
  465MPD2    H1 6925   1.297   0.640  16.535  0.6434  1.2730 -0.4985
  465MPD2    H2 6926   1.542   0.668  16.860  0.7274  0.3134 -1.0479
  465MPD2    H3 6927   1.485   0.592  16.644 -2.0754 -2.4699  1.3966
  465MPD2     N 6928   1.086   0.799  16.620  0.0431  0.5151 -0.2050
  465MPD2    H5 6929   1.020   0.860  16.667 -0.1155  1.0737 -1.1464
  465MPD2    N1 6930   1.393   0.891  16.993 -0.2424 -0.1104  0.2291
  465MPD2    H7 6931   1.316   0.942  17.034  1.7204  1.6145  1.7390
  466TMC3    C1 6932   0.691   0.681  16.544  0.3635  0.8496  0.2641
  466TMC3    C2 6933   0.640   0.768  16.450  0.6871  0.2887  0.8740
  466TMC3    C3 6934   0.721   0.836  16.359  1.0203 -0.3494 -0.0923
  466TMC3    C4 6935   0.826   0.686  16.569 -0.4592 -0.2255 -0.2173
  466TMC3    C5 6936   0.902   0.754  16.475 -0.8158 -0.3256 -1.3882
  466TMC3    C6 6937   0.856   0.819  16.367 -0.6181  0.4052  0.7222
  466TMC3     C 6938   0.612   0.603  16.643  0.7824 -0.9382  0.3352
  466TMC3     O 6939   0.678   0.568  16.739  0.1590  0.3857 -0.5119
  466TMC3     H 6940   0.533   0.785  16.442  1.1116  2.3696 -0.3372
  466TMC3    H1 6941   0.868   0.623  16.646 -1.2223  0.6983  0.9507
  466TMC3    H2 6942   0.919   0.881  16.304 -1.7351  1.1597  0.3342
  466TMC3    C7 6943   1.050   0.749  16.498  0.1128  0.2356 -0.8348
  466TMC3    C8 6944   0.670   0.965  16.324  0.2423  0.2178  0.2398
  466TMC3    O1 6945   1.125   0.717  16.405 -0.5243 -0.4175  0.5074
  466TMC3    O2 6946   0.697   0.994  16.208  0.4273  0.5720  0.1112
  467TMC3    C1 6947   1.780   3.727  13.453  0.6298 -0.4999 -0.0816
  467TMC3    C2 6948   1.769   3.867  13.450  0.2841  0.3679  0.5600
  467TMC3    C3 6949   1.655   3.917  13.506 -0.6430  0.6118 -0.0605
  467TMC3    C4 6950   1.679   3.652  13.505  0.2166  0.2466  0.2917
  467TMC3    C5 6951   1.562   3.708  13.537 -0.0133  0.2232 -0.2319
  467TMC3    C6 6952   1.551   3.839  13.548  0.3688 -0.0066  0.0401
  467TMC3     C 6953   1.915   3.684  13.472  0.1171 -0.3721 -0.2064
  467TMC3     O 6954   1.992   3.661  13.379  0.5747 -0.3975 -0.5885
  467TMC3     H 6955   1.851   3.932  13.422 -0.2838  0.2908 -1.3086
  467TMC3    H1 6956   1.688   3.545  13.490  0.7468  0.2448  0.6155
  467TMC3    H2 6957   1.458   3.889  13.572 -0.7596 -2.2695  0.4435
  467TMC3    C7 6958   1.442   3.625  13.529  0.2708 -0.8176  0.0782
  467TMC3    C8 6959   1.645   4.061  13.519  0.4832  0.0689  0.4985
  467TMC3    O1 6960   1.454   3.526  13.455 -0.1824 -0.5038  0.0773
  467TMC3    O2 6961   1.690   4.127  13.426  0.3689  0.3000 -0.1392
  468MPD2     C 6962   0.284   1.985  10.351 -0.5243 -0.1568  0.0973
  468MPD2    C1 6963   0.319   1.916  10.465 -0.3161  0.7831 -0.6875
  468MPD2    C2 6964   0.319   1.781  10.460 -0.3431  0.8964  0.1950
  468MPD2    C3 6965   0.283   1.710  10.344  0.2304  0.0458  0.1633
  468MPD2    C4 6966   0.256   1.783  10.227  0.6383 -0.7397 -0.6407
  468MPD2    C5 6967   0.256   1.921  10.236 -0.1130 -0.1565  0.1067
  468MPD2     H 6968   0.344   1.725  10.550 -0.1372 -0.7631 -0.8998
  468MPD2    H1 6969   0.206   1.736  10.144 -0.2581  0.9102 -1.0343
  468MPD2    H2 6970   0.292   2.093  10.347 -0.3997 -0.2096 -1.1728
  468MPD2    H3 6971   0.221   1.977  10.149  2.1704  1.3511  0.1893
  468MPD2     N 6972   0.262   1.571  10.342 -0.1120  0.3874 -0.0648
  468MPD2    H5 6973   0.245   1.521  10.256 -2.4911 -0.6106  0.9937
  468MPD2    N1 6974   0.356   1.981  10.588  0.1806 -0.1511 -0.2078
  468MPD2    H7 6975   0.380   1.923  10.668 -1.0187  0.7116  0.7836
  469TMC3    C1 6976   0.387   2.144  10.750  0.0012  0.2750  0.2070
  469TMC3    C2 6977   0.489   2.078  10.808 -0.3234 -0.0873  0.5599
  469TMC3    C3 6978   0.549   2.129  10.920  0.1623  0.0499 -0.1382
  469TMC3    C4 6979   0.345   2.270  10.802  0.4366 -0.0056  0.1245
  469TMC3    C5 6980   0.407   2.319  10.912 -0.0369  0.2761 -0.5364
  469TMC3    C6 6981   0.507   2.244  10.979  0.1097  0.1134  0.2777
  469TMC3     C 6982   0.331   2.107  10.622 -0.0794  0.0897 -0.3024
  469TMC3     O 6983   0.258   2.191  10.572  0.2150  0.0185 -0.0529
  469TMC3     H 6984   0.529   1.989  10.760 -0.6687 -1.2232  2.3837
  469TMC3    H1 6985   0.279   2.336  10.747 -1.4854 -2.1619 -0.1073
  469TMC3    H2 6986   0.548   2.282  11.072  0.6276 -0.0299  0.1057
  469TMC3    C7 6987   0.376   2.456  10.942  0.2253  0.4551  0.1786
  469TMC3    C8 6988   0.637   2.039  10.996 -0.1233 -0.2622  1.0501
  469TMC3    O1 6989   0.266   2.501  10.908  0.2593 -0.0511  0.0340
  469TMC3    O2 6990   0.644   1.922  10.964  0.5710 -0.2874  0.2309
  470TMC3    C1 6991   2.680   2.882   0.657 -0.2235 -0.3471  0.1292
  470TMC3    C2 6992   2.736   3.002   0.695 -0.7985 -0.0595  0.0251
  470TMC3    C3 6993   2.724   3.036   0.828  0.7811  0.7978 -0.0946
  470TMC3    C4 6994   2.599   2.808   0.736  0.1180  0.0920  0.7342
  470TMC3    C5 6995   2.595   2.849   0.867 -0.3388 -0.5353 -0.2492
  470TMC3    C6 6996   2.655   2.956   0.916 -0.2489 -0.1469  0.5648
  470TMC3     C 6997   2.662   2.869   0.506  0.2729  0.0214 -0.0306
  470TMC3     O 6998   2.666   2.976   0.453 -0.0518  0.8897 -0.0225
  470TMC3     H 6999   2.795   3.067   0.632 -0.6344 -0.2489 -0.0165
  470TMC3    H1 7000   2.543   2.720   0.705 -1.2008  0.9252  0.7385
  470TMC3    H2 7001   2.652   2.981   1.021  2.3141 -0.3699  0.7047
  470TMC3    C7 7002   2.521   2.755   0.954  0.6164 -0.3337  0.3110
  470TMC3    C8 7003   2.797   3.147   0.886 -0.5290 -0.8041  0.4068
  470TMC3    O1 7004   2.442   2.678   0.895  0.2377 -0.0534 -0.1347
  470TMC3    O2 7005   2.766   3.187   0.997  0.7597  0.1876  0.2881
  471MPD2     C 7006   2.752   4.124  16.976 -0.1087  0.8994 -0.7629
  471MPD2    C1 7007   2.834   4.089  16.864  0.0331  0.2067 -0.3778
  471MPD2    C2 7008   2.971   4.077  16.879  0.0115 -0.4524  0.4252
  471MPD2    C3 7009   3.034   4.113  16.994 -0.0646  1.1338  0.0688
  471MPD2    C4 7010   2.958   4.148  17.104 -0.3666  0.4361 -0.2407
  471MPD2    C5 7011   2.823   4.149  17.090 -0.0154 -0.2589  0.2611
  471MPD2     H 7012   3.029   4.052  16.791  0.5644 -2.3891  1.3390
  471MPD2    H1 7013   3.002   4.159  17.203  1.4148 -1.6246 -0.7902
  471MPD2    H2 7014   2.643   4.124  16.971 -0.1203  1.1583 -0.5271
  471MPD2    H3 7015   2.769   4.182  17.179 -0.0866 -1.8266  0.7978
  471MPD2     N 7016   3.170   4.080  17.013  0.3878  0.2204  0.6280
  471MPD2    H5 7017   3.206   4.103  17.105  0.5446 -0.8223  0.8238
  471MPD2    N1 7018   2.785   4.077  16.729 -0.4099  0.9514 -0.1633
  471MPD2    H7 7019   2.856   4.085  16.657  0.2225  1.8295  0.5509
  472TMC3    C1 7020   2.652   3.974  16.557  0.0708  0.5121  0.1653
  472TMC3    C2 7021   2.526   3.939  16.511  0.6651  0.4662  0.2353
  472TMC3    C3 7022   2.523   3.836  16.416 -0.8555  1.3384 -0.3687
  472TMC3    C4 7023   2.771   3.931  16.500  0.6176 -0.3258 -0.6342
  472TMC3    C5 7024   2.758   3.825  16.414  0.3787  0.0062  0.8003
  472TMC3    C6 7025   2.635   3.776  16.375  0.1811 -0.1480  0.1110
  472TMC3     C 7026   2.662   4.019  16.696  0.1512  0.8921 -0.2361
  472TMC3     O 7027   2.576   3.986  16.773 -0.0261 -0.0939 -0.2672
  472TMC3     H 7028   2.438   3.983  16.556 -0.4493  0.9774 -2.4247
  472TMC3    H1 7029   2.868   3.976  16.519  0.9674 -0.0313 -3.1588
  472TMC3    H2 7030   2.634   3.700  16.298  1.3558  0.3500 -0.4056
  472TMC3    C7 7031   2.829   3.715  16.473  0.0049 -0.3251 -1.2041
  472TMC3    C8 7032   2.396   3.774  16.408  0.2678 -0.6835 -0.2058
  472TMC3    O1 7033   2.863   3.721  16.592 -0.7103  0.2416  0.2924
  472TMC3    O2 7034   2.308   3.832  16.479 -0.1115 -0.4145  0.4763
  473MPD2     C 7035   3.161   1.177  14.049  0.8335 -0.0794 -0.6785
  473MPD2    C1 7036   3.143   1.268  13.942  0.6292  0.0555  0.4251
  473MPD2    C2 7037   3.206   1.396  13.950  0.1088 -0.4811  0.2791
  473MPD2    C3 7038   3.284   1.429  14.058  0.3500  0.1175 -0.8103
  473MPD2    C4 7039   3.314   1.329  14.152  0.2795 -0.5017  0.1177
  473MPD2    C5 7040   3.253   1.209  14.151 -0.1793 -0.5847 -0.1716
  473MPD2     H 7041   3.183   1.465  13.870 -1.8355  0.8379  1.9953
  473MPD2    H1 7042   3.396   1.347  14.221  0.3737 -0.4998  0.0068
  473MPD2    H2 7043   3.116   1.078  14.052 -2.0225  1.1954 -2.2926
  473MPD2    H3 7044   3.276   1.132  14.223  1.6947 -0.3385 -0.5035
  473MPD2     N 7045   3.334   1.561  14.089 -0.1627 -0.2820  0.2061
  473MPD2    H5 7046   3.396   1.570  14.169  0.6736 -0.7394 -0.3878
  473MPD2    N1 7047   3.054   1.250  13.837  0.2910  0.1258 -0.1182
  473MPD2    H7 7048   3.050   1.324  13.767  1.4778 -1.1494 -1.5157
  474TMC3    C1 7049   3.395   1.788  14.048 -0.1974  0.0594 -0.4965
  474TMC3    C2 7050   3.426   1.877  13.945  0.3191  0.7972  0.6500
  474TMC3    C3 7051   3.494   1.988  13.981 -0.1762 -0.5671  0.4472
  474TMC3    C4 7052   3.438   1.808  14.172  0.1338 -0.9025  0.0388
  474TMC3    C5 7053   3.510   1.922  14.208 -0.7643 -0.7055 -0.1931
  474TMC3    C6 7054   3.544   2.011  14.108 -0.4827  0.4895 -0.6712
  474TMC3     C 7055   3.338   1.665  13.999  0.5779 -1.2338  0.6408
  474TMC3     O 7056   3.308   1.656  13.880 -0.0395 -0.7527 -0.1215
  474TMC3     H 7057   3.412   1.866  13.838 -2.0232  0.8106  0.9582
  474TMC3    H1 7058   3.420   1.743  14.257 -2.7177 -0.3758 -0.1379
  474TMC3    H2 7059   3.612   2.092  14.134  0.1804 -0.3197  0.1255
  474TMC3    C7 7060   3.624   1.899  14.286 -0.3158 -0.5823  0.1131
  474TMC3    C8 7061   3.541   2.083  13.872 -0.5241 -0.6993  0.1774
  474TMC3    O1 7062   3.729   1.903  14.221 -0.1404  0.3985  0.0048
  474TMC3    O2 7063   3.521   2.055  13.752 -0.0385 -0.3750 -0.1667
  475MPD2     C 7064   1.734   4.369  10.267 -0.6302  0.3529 -0.8419
  475MPD2    C1 7065   1.739   4.483  10.197 -0.3004  0.1140  0.3433
  475MPD2    C2 7066   1.662   4.594  10.232 -0.2184 -0.0675  0.4134
  475MPD2    C3 7067   1.582   4.586  10.341 -0.2702 -0.4261 -0.4463
  475MPD2    C4 7068   1.578   4.470  10.412  0.4925  0.3201  0.4828
  475MPD2    C5 7069   1.654   4.362  10.377 -0.0193  0.3341 -0.1487
  475MPD2     H 7070   1.669   4.686  10.175  0.0897 -1.4401 -1.7593
  475MPD2    H1 7071   1.523   4.447  10.503  0.9801  0.6637  0.8706
  475MPD2    H2 7072   1.798   4.284  10.244 -0.5413 -0.0500  0.8453
  475MPD2    H3 7073   1.650   4.275  10.442  0.9468  1.2291  1.1054
  475MPD2     N 7074   1.517   4.706  10.384  0.1815 -0.1483  0.1720
  475MPD2    H5 7075   1.542   0.073  10.342  1.4608 -0.4422  0.3031
  475MPD2    N1 7076   1.833   4.494  10.084 -0.7666 -0.0699 -0.7905
  475MPD2    H7 7077   1.914   4.433  10.074 -1.3992 -0.9135 -0.7979
  476TMC3    C1 7078   1.912   4.695   9.971  0.8776 -1.0908 -0.1074
  476TMC3    C2 7079   1.846   0.083   9.916 -0.1515  0.0220 -0.0506
  476TMC3    C3 7080   1.822   0.200   9.981  0.2410  0.5815  0.3186
  476TMC3    C4 7081   1.974   4.703  10.094 -0.4535  0.7142 -0.1128
  476TMC3    C5 7082   1.956   0.103  10.152  0.0952 -0.5162 -0.6072
  476TMC3    C6 7083   1.881   0.208  10.098  0.5432  0.1804 -0.0938
  476TMC3     C 7084   1.807   4.586   9.986 -0.3493 -0.3311  0.9918
  476TMC3     O 7085   1.696   4.621   9.943  0.6907 -0.0660  0.2796
  476TMC3     H 7086   1.806   0.075   9.816  0.8019  0.5831 -0.4709
  476TMC3    H1 7087   2.036   4.623  10.131 -2.1669 -0.1932  0.8259
  476TMC3    H2 7088   1.887   0.306  10.143 -0.7987 -1.3612  3.4626
  476TMC3    C7 7089   2.017   0.118  10.287 -0.1669 -0.3035  0.2911
  476TMC3    C8 7090   1.679   0.242   9.969 -0.3112  0.1501  0.1390
  476TMC3    O1 7091   2.102   0.031  10.322  0.2750  0.0161 -0.1251
  476TMC3    O2 7092   1.649   0.347  10.016 -0.4600  0.0688 -0.3503
  477MPD2     C 7093   3.982   1.979  11.200  0.4400  0.2400 -0.0294
  477MPD2    C1 7094   3.891   1.882  11.206 -0.1972 -0.2120 -0.1859
  477MPD2    C2 7095   3.852   1.837  11.330 -0.3788 -0.3764 -0.1117
  477MPD2    C3 7096   3.921   1.875  11.447 -0.9322 -0.6785  0.4092
  477MPD2    C4 7097   4.009   1.985  11.440 -0.3214 -0.4570 -0.3921
  477MPD2    C5 7098   4.037   2.030  11.316  0.4656 -0.3059  0.2265
  477MPD2     H 7099   3.783   1.755  11.350 -0.5221 -0.8620 -2.5374
  477MPD2    H1 7100   4.064   2.032  11.520  0.8091 -2.7867  0.2075
  477MPD2    H2 7101   4.005   2.034  11.110  0.7049 -0.3562 -0.3246
  477MPD2    H3 7102   4.105   2.114  11.305  1.0679 -0.6112  1.5798
  477MPD2     N 7103   3.890   1.811  11.566  0.0811 -0.0196  0.3835
  477MPD2    H5 7104   3.796   1.775  11.568  0.0252  0.0911 -0.5298
  477MPD2    N1 7105   3.848   1.835  11.084 -0.1846  0.2711  0.3999
  477MPD2    H7 7106   3.866   1.894  11.003 -0.2006 -1.1809 -0.6542
  478TMC3    C1 7107   3.714   1.708  10.938 -0.3989  0.0850  0.0928
  478TMC3    C2 7108   3.644   1.589  10.917 -0.2573 -0.8644 -0.9520
  478TMC3    C3 7109   3.523   1.599  10.855 -0.3895 -0.1908  0.4811
  478TMC3    C4 7110   3.672   1.825  10.880  0.4951 -0.0653  0.0350
  478TMC3    C5 7111   3.561   1.823  10.800  0.5247  0.7294 -0.3085
  478TMC3    C6 7112   3.483   1.711  10.785  0.3544  0.2731  0.0021
  478TMC3     C 7113   3.775   1.723  11.072  0.1998  0.3984  0.3610
  478TMC3     O 7114   3.765   1.629  11.146 -0.3976 -0.2700 -0.1441
  478TMC3     H 7115   3.657   1.500  10.976 -1.8791 -0.7576 -0.4373
  478TMC3    H1 7116   3.718   1.921  10.902 -1.7361  0.2055  3.4711
  478TMC3    H2 7117   3.412   1.691  10.705  0.8835 -0.4586 -0.2831
  478TMC3    C7 7118   3.546   1.927  10.705  0.3872  0.3515  0.3964
  478TMC3    C8 7119   3.414   1.542  10.940  0.3202 -0.5331 -0.3096
  478TMC3    O1 7120   3.627   2.018  10.713  0.3040  0.9746 -0.0340
  478TMC3    O2 7121   3.443   1.442  11.003 -0.4524 -0.6179  0.6667
  479MPD2     C 7122   2.170   2.900  14.972 -0.0657 -0.0098 -0.3636
  479MPD2    C1 7123   2.190   2.810  15.070 -0.1911  0.0957  0.1735
  479MPD2    C2 7124   2.270   2.846  15.177  0.0705  0.0447 -0.4596
  479MPD2    C3 7125   2.337   2.965  15.183  0.1295  0.5781  0.5778
  479MPD2    C4 7126   2.304   3.063  15.086 -0.0559 -0.4416  0.0046
  479MPD2    C5 7127   2.223   3.025  14.985  0.3969  0.1443  0.0609
  479MPD2     H 7128   2.287   2.775  15.258 -1.7281 -1.7297 -1.6474
  479MPD2    H1 7129   2.333   3.167  15.092  1.5945 -0.9338  0.7555
  479MPD2    H2 7130   2.095   2.883  14.895 -0.4247 -1.1419  0.2314
  479MPD2    H3 7131   2.199   3.103  14.914 -1.2669 -0.2802  0.1755
  479MPD2     N 7132   2.415   3.008  15.296  0.3310  0.0468  0.9865
  479MPD2    H5 7133   2.458   3.100  15.291  0.5217 -0.0418  0.9704
  479MPD2    N1 7134   2.114   2.687  15.058  0.1575  0.0565  0.1233
  479MPD2    H7 7135   2.053   2.689  14.977 -0.4825  0.8110  0.6186
  480TMC3    C1 7136   2.570   3.034  15.736  0.2277 -0.5054 -0.3683
  480TMC3    C2 7137   2.620   3.159  15.722 -0.1611  1.0656  0.5912
  480TMC3    C3 7138   2.624   3.213  15.595 -0.9501  1.1622  0.5861
  480TMC3    C4 7139   2.536   2.957  15.627 -0.7112 -0.1094  0.1189
  480TMC3    C5 7140   2.523   3.019  15.507  0.8913  0.5025 -0.0408
  480TMC3    C6 7141   2.568   3.149  15.488 -0.3662  0.2483 -0.4878
  480TMC3     C 7142   2.605   2.965  15.860  0.5276 -0.1216  0.0950
  480TMC3     O 7143   2.616   2.843  15.850 -0.4846 -0.1591  0.1778
  480TMC3     H 7144   2.670   3.219  15.797 -0.1824  1.3577  0.3745
  480TMC3    H1 7145   2.497   2.857  15.641 -0.4051 -0.1107  1.0166
  480TMC3    H2 7146   2.560   3.197  15.391  1.6087 -1.7022 -1.6397
  480TMC3    C7 7147   2.431   2.944  15.414  0.1273 -0.4363 -0.6931
  480TMC3    C8 7148   2.683   3.345  15.578  0.0974 -0.3120 -0.3063
  480TMC3    O1 7149   2.384   2.841  15.449  0.1152  0.2122 -0.1477
  480TMC3    O2 7150   2.705   3.416  15.680 -0.7116  0.3435 -0.6502
  481MPD2     C 7151   4.508   3.522  14.831  0.0921  0.9069 -0.6094
  481MPD2    C1 7152   4.425   3.429  14.775  0.8018  0.3751  0.3634
  481MPD2    C2 7153   4.375   3.329  14.860  0.1617  0.3920 -0.3619
  481MPD2    C3 7154   4.394   3.338  14.995  0.0890 -0.5745  0.3267
  481MPD2    C4 7155   4.467   3.438  15.053 -0.7029  0.4035 -0.1036
  481MPD2    C5 7156   4.519   3.534  14.967 -0.4145 -0.0516  1.1370
  481MPD2     H 7157   4.313   3.252  14.815 -0.0532  0.6439 -0.4987
  481MPD2    H1 7158   4.479   3.444  15.160 -1.9213 -0.7546  0.0978
  481MPD2    H2 7159   4.554   3.600  14.772  1.7873  0.8699  0.6727
  481MPD2    H3 7160   4.585   3.614  14.998 -0.5942 -0.0513  1.5197
  481MPD2     N 7161   4.360   3.233  15.086 -0.5941  0.0691  0.6767
  481MPD2    H5 7162   4.366   3.245  15.186 -2.3163  1.1022  0.6630
  481MPD2    N1 7163   4.398   3.428  14.636 -0.8593 -0.1426  0.2901
  481MPD2    H7 7164   4.457   3.481  14.573 -0.0726 -1.2646  0.0936
  482TMC3    C1 7165   4.333   3.356  14.423 -0.1744 -0.6658 -0.5885
  482TMC3    C2 7166   4.330   3.230  14.370 -0.1011  0.5282  0.6144
  482TMC3    C3 7167   4.388   3.216  14.247  0.1645  0.0945 -1.0085
  482TMC3    C4 7168   4.375   3.469  14.360  0.5181 -0.2744  0.2294
  482TMC3    C5 7169   4.427   3.453  14.235  0.2535  1.0104 -0.3063
  482TMC3    C6 7170   4.433   3.329  14.178  0.0744 -0.9385  0.2064
  482TMC3     C 7171   4.299   3.364  14.569  0.4828 -0.1006 -0.5298
  482TMC3     O 7172   4.216   3.284  14.615 -0.1206 -0.1403 -0.0502
  482TMC3     H 7173   4.283   3.144  14.417  0.4825  0.5839  1.3006
  482TMC3    H1 7174   4.355   3.565  14.406 -0.9870 -0.7423  0.5312
  482TMC3    H2 7175   4.478   3.316  14.080 -0.3661  0.7947 -0.2213
  482TMC3    C7 7176   4.389   3.566  14.146  0.0590  0.5472  0.1276
  482TMC3    C8 7177   4.365   3.100  14.169 -0.2256  0.4419 -0.0597
  482TMC3    O1 7178   4.383   3.670  14.209 -0.1516  0.7314 -0.2029
  482TMC3    O2 7179   4.292   3.016  14.223  0.0357 -0.3344  1.0476
  483TMC3    C1 7180   2.536   2.131   1.031  0.0058 -0.2599 -0.0249
  483TMC3    C2 7181   2.578   2.258   1.006  0.1479 -0.3531  0.1863
  483TMC3    C3 7182   2.692   2.308   1.060 -0.4074  1.0206  0.3423
  483TMC3    C4 7183   2.613   2.045   1.100  0.0465 -0.9480 -0.2512
  483TMC3    C5 7184   2.730   2.088   1.149 -0.2727  0.1695  0.0741
  483TMC3    C6 7185   2.771   2.220   1.129 -0.2977  0.6961  1.2929
  483TMC3     C 7186   2.497   2.061   0.903 -1.1065  0.2678 -0.3660
  483TMC3     O 7187   2.424   1.961   0.917  0.1529 -0.1916  0.4122
  483TMC3     H 7188   2.523   2.321   0.936 -1.1591  1.4464  2.8662
  483TMC3    H1 7189   2.594   1.940   1.081 -0.6391 -1.1681  1.6197
  483TMC3    H2 7190   2.868   2.256   1.161 -0.6886  1.5164  1.5687
  483TMC3    C7 7191   2.843   1.996   1.133  0.5686  0.1467 -0.1300
  483TMC3    C8 7192   2.763   2.404   0.971  0.2228  0.4430 -0.5119
  483TMC3    O1 7193   2.954   2.047   1.152  0.0499 -0.1220  0.4735
  483TMC3    O2 7194   2.741   2.394   0.851  0.7829  0.1734  0.0330
  484MPD2     C 7195   4.523   0.232  12.224 -1.0719 -0.2191 -0.0205
  484MPD2    C1 7196   4.577   0.180  12.339  0.6586  0.7158 -0.1365
  484MPD2    C2 7197   4.705   0.208  12.375 -0.0021 -0.2709  0.4566
  484MPD2    C3 7198   0.059   0.306  12.305 -0.2024 -0.7024 -0.0360
  484MPD2    C4 7199   4.719   0.366  12.197  0.2167  0.0401 -0.3381
  484MPD2    C5 7200   4.595   0.332  12.158 -0.1866 -0.1682 -0.1434
  484MPD2     H 7201   0.032   0.177  12.466 -0.5904 -1.5947  0.3267
  484MPD2    H1 7202   0.053   0.444  12.146  0.0701  0.8209  0.7083
  484MPD2    H2 7203   4.428   0.206  12.178 -0.4819  0.1348 -1.4692
  484MPD2    H3 7204   4.556   0.380  12.069 -0.4865  0.0885  0.1290
  484MPD2     N 7205   0.191   0.340  12.336  0.2325 -0.1449 -0.8195
  484MPD2    H5 7206   0.221   0.422  12.283  0.0114 -0.2697 -1.1404
  484MPD2    N1 7207   4.501   0.091  12.416 -0.6281 -0.6820  0.3519
  484MPD2    H7 7208   4.414   0.071  12.367 -0.0335 -1.1537 -0.5234
  485TMC3    C1 7209   0.417   0.319  12.424 -0.8414 -0.4389 -0.9869
  485TMC3    C2 7210   0.498   0.252  12.511  0.9554  0.6475  0.4050
  485TMC3    C3 7211   0.597   0.317  12.575 -0.1332  0.1292 -0.1184
  485TMC3    C4 7212   0.441   0.448  12.404  0.2429  0.2571  0.0443
  485TMC3    C5 7213   0.540   0.510  12.466 -0.1705  0.0139  0.9238
  485TMC3    C6 7214   0.623   0.447  12.549  0.0522 -0.0653 -0.1096
  485TMC3     C 7215   0.280   0.268  12.412  0.0708  0.1347 -0.1866
  485TMC3     O 7216   0.256   0.168  12.477  0.1293 -0.0497  0.3712
  485TMC3     H 7217   0.470   0.151  12.537  1.5523  0.0121 -1.3880
  485TMC3    H1 7218   0.382   0.504  12.332 -0.8082 -3.3408 -1.8926
  485TMC3    H2 7219   0.680   0.507  12.618 -1.3253  0.8553  0.2279
  485TMC3    C7 7220   0.617   0.609  12.393 -0.6122  0.4031 -1.3918
  485TMC3    C8 7221   0.715   0.242  12.614 -0.1823  0.5090  0.8668
  485TMC3    O1 7222   0.553   0.692  12.325  0.2312  0.0122 -0.3068
  485TMC3    O2 7223   0.807   0.301  12.673  0.5066 -0.8129 -0.0460
  486MPD2     C 7224   1.922   3.981  13.091 -0.0518 -0.5064  0.3904
  486MPD2    C1 7225   1.994   3.958  12.972 -0.3973  0.6330  0.4737
  486MPD2    C2 7226   2.010   4.067  12.885  0.0905  0.8738  0.0039
  486MPD2    C3 7227   1.965   4.190  12.919 -0.3090  0.5079 -0.1345
  486MPD2    C4 7228   1.903   4.215  13.042 -0.9219 -0.2692  0.5302
  486MPD2    C5 7229   1.868   4.106  13.119  0.5577  0.3755  0.2797
  486MPD2     H 7230   2.060   4.055  12.790 -1.1485  1.8742 -0.7832
  486MPD2    H1 7231   1.862   4.308  13.080  0.8407  1.4454 -1.7211
  486MPD2    H2 7232   1.889   3.902  13.158  1.0835 -1.2152  0.0981
  486MPD2    H3 7233   1.812   4.117  13.211 -0.9608  2.7901 -0.9297
  486MPD2     N 7234   2.008   4.297  12.829  0.4663 -0.3500  0.7821
  486MPD2    H5 7235   2.047   4.258  12.743 -0.4750 -1.6344  0.9338
  486MPD2    N1 7236   2.024   3.823  12.941 -0.3598  0.2547 -0.3070
  486MPD2    H7 7237   2.008   3.756  13.016  0.5921  0.5276  0.1342
  487TMC3    C1 7238   2.090   3.641  12.816  0.5902 -0.7137  0.0992
  487TMC3    C2 7239   2.020   3.564  12.722  0.3840 -0.0756  0.2088
  487TMC3    C3 7240   2.015   3.428  12.741  0.3446  0.2070  0.2142
  487TMC3    C4 7241   2.144   3.580  12.924  0.0703  0.0307 -0.9706
  487TMC3    C5 7242   2.142   3.448  12.939 -0.1474 -0.3934 -0.6013
  487TMC3    C6 7243   2.075   3.368  12.849  0.2952 -0.2115  0.4988
  487TMC3     C 7244   2.058   3.784  12.816 -0.6425  0.5930 -0.0572
  487TMC3     O 7245   2.058   3.850  12.712 -0.7376  0.2157 -0.1337
  487TMC3     H 7246   1.967   3.603  12.636 -1.2352 -0.4270  1.0322
  487TMC3    H1 7247   2.184   3.632  13.010 -0.5859 -2.3961  0.8384
  487TMC3    H2 7248   2.034   3.269  12.865  0.1253  0.0329  1.5994
  487TMC3    C7 7249   2.157   3.410  13.078 -0.2120  0.3991 -0.0759
  487TMC3    C8 7250   1.879   3.370  12.725  0.2682 -0.1075 -0.5691
  487TMC3    O1 7251   2.267   3.420  13.131  0.1257 -0.3870  0.2188
  487TMC3    O2 7252   1.787   3.450  12.731  0.7284  0.9002  0.0598
  488MPD2     C 7253   2.547   0.687  16.562  0.5212 -0.5187  0.1068
  488MPD2    C1 7254   2.524   0.776  16.458 -0.3402 -0.0573 -0.0656
  488MPD2    C2 7255   2.471   0.901  16.487  0.0489 -0.1801  0.1851
  488MPD2    C3 7256   2.444   0.936  16.620 -0.3942 -0.5715 -0.3716
  488MPD2    C4 7257   2.469   0.850  16.721  0.0278 -0.6371  0.0186
  488MPD2    C5 7258   2.522   0.723  16.695 -0.0496  1.1414 -0.0927
  488MPD2     H 7259   2.465   0.975  16.408 -1.3178 -0.4572  0.0323
  488MPD2    H1 7260   2.432   0.864  16.822  3.1741  0.4190  1.0345
  488MPD2    H2 7261   2.589   0.588  16.546 -2.9494 -2.4210  2.7281
  488MPD2    H3 7262   2.527   0.638  16.763 -0.2373  1.6452  0.5487
  488MPD2     N 7263   2.388   1.061  16.638  0.2792 -0.0502  0.1213
  488MPD2    H5 7264   2.357   1.108  16.554  0.9393  0.5236  0.1941
  488MPD2    N1 7265   2.527   0.751  16.320 -0.2626  0.2548 -0.0533
  488MPD2    H7 7266   2.483   0.821  16.260 -0.8926  0.7736  1.0122
  489TMC3    C1 7267   2.302   1.257  16.752 -0.3498 -0.3697  0.3941
  489TMC3    C2 7268   2.262   1.314  16.633 -0.0963  0.4861 -0.0164
  489TMC3    C3 7269   2.227   1.449  16.633  0.9178 -0.2366  0.2451
  489TMC3    C4 7270   2.296   1.336  16.862  0.0759 -0.6667 -0.0607
  489TMC3    C5 7271   2.247   1.463  16.860  0.2605  0.1195 -0.0665
  489TMC3    C6 7272   2.231   1.527  16.744 -0.7434  0.2293 -0.1293
  489TMC3     C 7273   2.371   1.124  16.758 -0.1145 -0.3420 -0.3346
  489TMC3     O 7274   2.412   1.088  16.869  0.1656  0.2108  0.0885
  489TMC3     H 7275   2.274   1.268  16.535 -0.6778 -2.3017  1.2086
  489TMC3    H1 7276   2.348   1.308  16.953  0.4512 -0.9195 -0.3524
  489TMC3    H2 7277   2.225   1.634  16.732 -0.8467  0.4113  1.6103
  489TMC3    C7 7278   2.272   1.551  16.969 -0.1660 -0.9692  0.4528
  489TMC3    C8 7279   2.258   1.514  16.502  0.2887  0.3959 -0.3729
  489TMC3    O1 7280   2.315   1.658  16.935 -0.0846  0.2334  0.4681
  489TMC3    O2 7281   2.333   1.448  16.430  0.6840  0.4570  0.1817
  490MPD2     C 7282   3.459   0.754  17.307 -0.0178 -0.2605  0.0567
  490MPD2    C1 7283   3.539   0.649  17.255 -0.3661  0.0959 -1.0656
  490MPD2    C2 7284   3.676   0.650  17.262  0.7622 -0.3007  0.5595
  490MPD2    C3 7285   3.743   0.765  17.314  0.5340 -0.2410 -0.0770
  490MPD2    C4 7286   3.659   0.861  17.371  0.3597 -0.2519  0.3150
  490MPD2    C5 7287   3.522   0.860  17.360  0.5243  0.1529  0.1436
  490MPD2     H 7288   3.740   0.567  17.235 -2.4371 -2.8727  0.9014
  490MPD2    H1 7289   3.701   0.943  17.428  1.9784 -1.2321  0.5327
  490MPD2    H2 7290   3.351   0.756  17.298  0.0411  0.5353 -0.4942
  490MPD2    H3 7291   3.469   0.937  17.414  0.9634  1.5505 -1.3885
  490MPD2     N 7292   3.883   0.756  17.355 -0.4905 -0.3745 -0.0235
  490MPD2    H5 7293   3.933   0.677  17.314 -1.1635  0.4919 -2.4932
  490MPD2    N1 7294   3.491   0.521  17.226 -0.0689  0.3407  0.0590
  490MPD2    H7 7295   3.561   0.448  17.213 -1.3143 -1.0002  0.8319
  491TMC3    C1 7296   3.346   0.350  17.246 -0.4857  0.2552 -0.0338
  491TMC3    C2 7297   3.421   0.275  17.325  0.1571 -0.1883 -0.1579
  491TMC3    C3 7298   3.376   0.143  17.338 -0.1413 -0.2001  0.0891
  491TMC3    C4 7299   3.228   0.312  17.190 -0.4004 -0.6848  0.2595
  491TMC3    C5 7300   3.195   0.178  17.198 -0.2239 -0.4427  0.5937
  491TMC3    C6 7301   3.269   0.093  17.277 -0.5943  0.5474  0.6434
  491TMC3     C 7302   3.361   0.486  17.225  0.0540  0.7756 -0.6943
  491TMC3     O 7303   3.261   0.556  17.239  0.1621  0.0265  0.3254
  491TMC3     H 7304   3.506   0.323  17.371 -1.1421  1.8529  0.0800
  491TMC3    H1 7305   3.163   0.379  17.135  2.0166  1.8177  0.4721
  491TMC3    H2 7306   3.235   4.713  17.287 -0.4607  0.4391 -0.0340
  491TMC3    C7 7307   3.055   0.140  17.174 -0.5729  0.0184  0.5815
  491TMC3    C8 7308   3.385   0.088  17.475  1.0596 -0.3138 -1.2648
  491TMC3    O1 7309   3.031   0.025  17.208 -0.4698 -0.0481 -0.7114
  491TMC3    O2 7310   3.303   0.005  17.508  0.6740 -0.4331 -0.0474
  492MPD2     C 7311   3.573   0.330  11.668 -0.5667 -0.4943 -0.2363
  492MPD2    C1 7312   3.483   0.276  11.578  0.2682  0.0135 -0.3962
  492MPD2    C2 7313   3.366   0.227  11.627 -0.4157 -0.3018 -0.6767
  492MPD2    C3 7314   3.340   0.219  11.759 -0.4605  0.5268  0.5464
  492MPD2    C4 7315   3.442   0.247  11.849  0.0741 -0.0975  0.3749
  492MPD2    C5 7316   3.550   0.318  11.802 -0.1433  0.0961 -0.2644
  492MPD2     H 7317   3.283   0.201  11.562 -0.0723  1.1861 -1.7154
  492MPD2    H1 7318   3.439   0.238  11.957 -0.1353  1.8413  0.5326
  492MPD2    H2 7319   3.659   0.393  11.646 -0.5145  0.2908  2.2256
  492MPD2    H3 7320   3.627   0.356  11.867 -0.0247  1.7252 -1.3641
  492MPD2     N 7321   3.224   0.168  11.813  0.0444 -0.0731  0.1042
  492MPD2    H5 7322   3.205   0.187  11.911 -1.0983  0.1711 -0.1603
  492MPD2    N1 7323   3.516   0.279  11.441 -0.4810 -0.0002  0.0426
  492MPD2    H7 7324   3.603   0.324  11.413  0.1922 -2.3358 -1.6722
  493TMC3    C1 7325   3.475   0.255  11.201 -0.7497 -0.1089 -0.0660
  493TMC3    C2 7326   3.560   0.354  11.168  0.1243 -0.1191 -0.0734
  493TMC3    C3 7327   3.595   0.378  11.034 -0.5815 -0.4877 -0.5490
  493TMC3    C4 7328   3.412   0.181  11.105  1.0587  0.3969  0.6692
  493TMC3    C5 7329   3.443   0.207  10.975 -0.5676  0.8471 -0.2386
  493TMC3    C6 7330   3.543   0.302  10.935 -0.2275 -0.2454  0.3473
  493TMC3     C 7331   3.432   0.235  11.337  0.3094 -0.3329 -0.0778
  493TMC3     O 7332   3.318   0.189  11.332 -0.1336  0.4938 -0.0352
  493TMC3     H 7333   3.602   0.423  11.240 -1.6406  0.7649  0.1282
  493TMC3    H1 7334   3.337   0.105  11.120  0.5688  0.9489  0.9963
  493TMC3    H2 7335   3.558   0.323  10.829 -0.3296 -2.8628 -0.1816
  493TMC3    C7 7336   3.384   0.113  10.880  0.7708 -0.0425  0.5820
  493TMC3    C8 7337   3.698   0.477  11.015 -1.2212 -0.2549 -0.1558
  493TMC3    O1 7338   3.304   0.154  10.799 -0.2243 -0.1298 -0.0439
  493TMC3    O2 7339   3.774   0.502  11.113 -0.1048 -0.0253 -0.3170
  494TMC3    C1 7340   0.271   2.422   0.920  0.2756  0.4465  0.4763
  494TMC3    C2 7341   0.239   2.306   0.976 -0.8660  0.2379  0.1389
  494TMC3    C3 7342   0.231   2.206   0.886  0.6888  0.8528 -0.1324
  494TMC3    C4 7343   0.279   2.441   0.785 -0.0805  0.1304  0.7528
  494TMC3    C5 7344   0.258   2.340   0.704 -0.5312  0.4893 -0.8776
  494TMC3    C6 7345   0.241   2.218   0.756  0.7068 -0.5513  0.1247
  494TMC3     C 7346   0.321   2.526   1.016 -1.1263  0.5094 -0.0169
  494TMC3     O 7347   0.286   2.519   1.131  0.1409  0.4426 -0.1112
  494TMC3     H 7348   0.240   2.281   1.081 -2.1686  0.2870  0.1681
  494TMC3    H1 7349   0.299   2.541   0.748  0.7870 -1.2640 -2.5531
  494TMC3    H2 7350   0.196   2.140   0.696 -1.6197 -0.2795  1.5148
  494TMC3    C7 7351   0.233   2.358   0.562 -0.3794 -0.6113 -0.2781
  494TMC3    C8 7352   0.195   2.071   0.941 -0.2630  0.0783 -0.3685
  494TMC3    O1 7353   0.166   2.271   0.512  0.4495 -0.4213 -0.6111
  494TMC3    O2 7354   0.126   2.073   1.043  0.0444  0.8409 -0.0891
  495TMC3    C1 7355   3.054   3.321  14.660  0.0926  0.5451 -0.1736
  495TMC3    C2 7356   2.979   3.402  14.571  0.6042  0.2374  1.3655
  495TMC3    C3 7357   2.890   3.493  14.633 -0.5593  0.1425  0.3431
  495TMC3    C4 7358   3.027   3.325  14.795  0.2125  0.4234 -0.4162
  495TMC3    C5 7359   2.956   3.425  14.845  0.2361  0.5561 -0.6307
  495TMC3    C6 7360   2.879   3.510  14.768 -0.2397  1.1561 -0.0618
  495TMC3     C 7361   3.103   3.200  14.599 -0.5458  0.1202 -0.5627
  495TMC3     O 7362   3.130   3.190  14.482  0.0596  0.1860 -0.7080
  495TMC3     H 7363   2.978   3.374  14.466  0.0182 -3.0585  2.2365
  495TMC3    H1 7364   3.075   3.272  14.877  1.2672 -1.8827 -2.5274
  495TMC3    H2 7365   2.820   3.594  14.802  1.2573  1.4950  1.7189
  495TMC3    C7 7366   2.914   3.419  14.984  0.0521  0.1422 -0.1378
  495TMC3    C8 7367   2.768   3.536  14.561 -0.8207  0.5209 -0.3207
  495TMC3    O1 7368   2.912   3.304  15.027  0.1637  0.6081 -0.2717
  495TMC3    O2 7369   2.661   3.536  14.622  0.1716  0.5408 -0.3336
  496MPD2     C 7370   4.696   3.608  15.315  0.6298 -0.1214 -0.1352
  496MPD2    C1 7371   0.099   3.598  15.372 -0.0339 -0.2349 -0.0901
  496MPD2    C2 7372   0.107   3.639  15.505 -0.1042  0.3355 -0.2556
  496MPD2    C3 7373   4.719   3.679  15.573 -0.0506  0.2820  0.1345
  496MPD2    C4 7374   4.596   3.665  15.522 -0.5701  0.2385  0.1485
  496MPD2    C5 7375   4.588   3.638  15.384 -0.0369 -0.4945 -0.2494
  496MPD2     H 7376   0.212   3.637  15.534 -0.1216 -2.3774 -0.3760
  496MPD2    H1 7377   4.509   3.686  15.583 -0.7023  1.0879 -0.3308
  496MPD2    H2 7378   4.682   3.570  15.214 -0.3759  0.4930 -0.2265
  496MPD2    H3 7379   4.490   3.638  15.337 -0.1253  2.5008 -0.0850
  496MPD2     N 7380   4.718   3.718  15.713  0.5643 -0.1337  0.3405
  496MPD2    H5 7381   4.629   3.709  15.760 -0.6439  1.2415 -1.7000
  496MPD2    N1 7382   0.210   3.550  15.294  0.0659 -0.1883 -0.2702
  496MPD2    H7 7383   0.184   3.526  15.198 -1.0963  0.8213 -0.2023
  497TMC3    C1 7384   0.095   3.755  15.910  0.2728 -0.3296 -0.5065
  497TMC3    C2 7385   0.007   3.664  15.976  0.4170 -0.0125  0.4261
  497TMC3    C3 7386   4.683   3.695  16.104  0.3411 -0.3068  0.1449
  497TMC3    C4 7387   0.135   3.864  15.981 -0.1440 -0.6565  0.0417
  497TMC3    C5 7388   0.077   3.898  16.099 -0.5419 -0.2037 -0.1577
  497TMC3    C6 7389   4.705   3.816  16.156 -0.9388  0.2563  0.0332
  497TMC3     C 7390   0.110   3.749  15.766 -0.4172  0.3474  0.1857
  497TMC3     O 7391   0.206   3.809  15.716 -0.3610  0.0810  0.8359
  497TMC3     H 7392   4.713   3.565  15.934  2.4194 -0.0476 -0.2621
  497TMC3    H1 7393   0.196   3.937  15.928 -0.7699 -0.1674 -0.0034
  497TMC3    H2 7394   4.653   3.847  16.247 -0.6270 -1.5128  0.8171
  497TMC3    C7 7395   0.101   4.019  16.174 -0.2753  0.4420 -0.9468
  497TMC3    C8 7396   4.609   3.593  16.180 -0.3589  0.1553 -0.0361
  497TMC3    O1 7397   0.003   4.061  16.234  0.1559 -0.3438  0.4875
  497TMC3    O2 7398   4.614   3.597  16.299 -0.2638  0.3150  1.0152
  498MPD2     C 7399   1.072   4.654   9.546 -0.3235 -0.3248  0.0318
  498MPD2    C1 7400   1.047   0.017   9.649  0.9603  0.7597 -0.1991
  498MPD2    C2 7401   0.931   0.003   9.728  0.4472 -0.2145  0.2826
  498MPD2    C3 7402   0.860   4.610   9.723 -0.1500  0.1053 -0.2308
  498MPD2    C4 7403   0.879   4.525   9.619 -0.4573 -0.3732 -0.4235
  498MPD2    C5 7404   0.982   4.552   9.532 -0.1129  0.2565 -0.0848
  498MPD2     H 7405   0.924   0.072   9.811 -1.2896 -1.9357  1.5573
  498MPD2    H1 7406   0.824   4.433   9.605  1.0795 -1.3559  0.0198
  498MPD2    H2 7407   1.151   4.669   9.473  1.3976  0.9832  2.1550
  498MPD2    H3 7408   1.004   4.481   9.453  0.2441 -1.4963  1.5890
  498MPD2     N 7409   0.757   4.597   9.815 -0.4660 -0.1226 -0.1165
  498MPD2    H5 7410   0.746   4.674   9.880 -0.8158 -0.9049  0.7608
  498MPD2    N1 7411   1.123   0.130   9.667  0.0564  0.1475 -0.4607
  498MPD2    H7 7412   1.084   0.202   9.727 -3.1677 -1.4456 -0.6435
  499TMC3    C1 7413   1.289   0.282   9.626  0.2984  0.5866  0.2651
  499TMC3    C2 7414   1.419   0.303   9.656  0.5877  0.1922  0.9258
  499TMC3    C3 7415   1.460   0.436   9.658  0.2757 -0.2457  0.0555
  499TMC3    C4 7416   1.197   0.376   9.606  0.3923  0.5767  0.3048
  499TMC3    C5 7417   1.241   0.505   9.632  0.8493  0.1131  0.0160
  499TMC3    C6 7418   1.375   0.537   9.655  0.2993  1.0645 -0.6534
  499TMC3     C 7419   1.252   0.149   9.625 -1.0108  1.0463  0.3761
  499TMC3     O 7420   1.332   0.064   9.585  0.0614  0.5472 -0.0197
  499TMC3     H 7421   1.489   0.222   9.671 -0.7509 -0.9028  1.2760
  499TMC3    H1 7422   1.097   0.350   9.573  0.5917  0.3729 -0.1469
  499TMC3    H2 7423   1.401   0.641   9.673  1.2932  0.8347 -0.7630
  499TMC3    C7 7424   1.153   0.621   9.606 -0.1731 -0.9785 -1.0522
  499TMC3    C8 7425   1.599   0.469   9.677 -1.1133  1.0358 -0.7687
  499TMC3    O1 7426   1.211   0.718   9.564  0.2122 -0.8769  0.7395
  499TMC3    O2 7427   1.619   0.586   9.708 -0.0235 -0.0368 -0.0467
  500MPD2     C 7428   2.334   1.088  10.436  0.0446 -0.7341 -0.3836
  500MPD2    C1 7429   2.331   1.195  10.350  0.5091  0.2209 -0.0626
  500MPD2    C2 7430   2.220   1.216  10.263  0.4898  0.6672  0.4894
  500MPD2    C3 7431   2.117   1.131  10.269  0.4773  0.9601  0.0287
  500MPD2    C4 7432   2.129   1.022  10.355  0.2119  1.2731 -0.4664
  500MPD2    C5 7433   2.231   1.003  10.439  0.4604 -0.3390  0.7331
  500MPD2     H 7434   2.221   1.303  10.198 -0.2494 -0.7713 -1.4225
  500MPD2    H1 7435   2.042   0.963  10.377 -0.1362  1.4124 -1.4374
  500MPD2    H2 7436   2.414   1.060  10.504 -0.6336 -1.6449  0.0281
  500MPD2    H3 7437   2.224   0.936  10.524 -0.9551  0.2129  1.0471
  500MPD2     N 7438   1.998   1.144  10.195  0.0870 -0.3754  0.4841
  500MPD2    H5 7439   1.921   1.088  10.230 -1.0576  0.7340 -0.2842
  500MPD2    N1 7440   2.439   1.294  10.347  0.3261  0.2367  0.9237
  500MPD2    H7 7441   2.425   1.360  10.272  0.2712 -1.8339 -0.8950
  501TMC3    C1 7442   2.654   1.390  10.393  0.7112  0.1776  0.3861
  501TMC3    C2 7443   2.643   1.466  10.279 -0.4554 -0.8451 -0.4475
  501TMC3    C3 7444   2.743   1.561  10.261 -0.1034  0.6706 -0.0344
  501TMC3    C4 7445   2.756   1.402  10.484 -0.4248 -0.3023 -0.3359
  501TMC3    C5 7446   2.856   1.486  10.452 -0.7621 -0.4070  0.6282
  501TMC3    C6 7447   2.850   1.573  10.347  0.0089  0.2387  0.2127
  501TMC3     C 7448   2.552   1.292  10.432 -0.0351  0.0518  0.1339
  501TMC3     O 7449   2.561   1.229  10.539 -0.3244 -0.8444  0.1995
  501TMC3     H 7450   2.556   1.452  10.215 -1.6910 -0.1757  1.0828
  501TMC3    H1 7451   2.766   1.336  10.569 -0.2773  2.0398  1.4406
  501TMC3    H2 7452   2.924   1.648  10.323 -1.1242  1.8276  1.6244
  501TMC3    C7 7453   2.981   1.470  10.527  0.1768 -0.4260 -0.9685
  501TMC3    C8 7454   2.733   1.654  10.146  0.5163 -0.9373 -0.7476
  501TMC3    O1 7455   2.988   1.377  10.605  0.2080  0.1149 -0.5110
  501TMC3    O2 7456   2.840   1.712  10.123 -0.4854 -0.4304  0.3251
  502TMC3    C1 7457   2.139   3.941  15.336  0.5929 -0.6367 -0.0817
  502TMC3    C2 7458   2.165   4.010  15.218 -0.0995 -0.3554  0.4824
  502TMC3    C3 7459   2.055   4.066  15.160  0.7549  0.0778 -0.1950
  502TMC3    C4 7460   2.018   3.932  15.391  0.0333  0.3317 -0.0421
  502TMC3    C5 7461   1.913   4.010  15.338  0.3482 -0.1531  0.4696
  502TMC3    C6 7462   1.929   4.073  15.219  0.3441 -0.2251 -0.7792
  502TMC3     C 7463   2.243   3.974  15.438  0.1560  0.2278 -0.5245
  502TMC3     O 7464   2.356   4.009  15.401  0.1826 -0.0321 -0.1069
  502TMC3     H 7465   2.267   4.021  15.184  0.0182  0.5370  1.1194
  502TMC3    H1 7466   1.995   3.866  15.474  1.9478 -1.8159 -1.2123
  502TMC3    H2 7467   1.848   4.121  15.166 -0.4572  0.1724  0.8090
  502TMC3    C7 7468   1.803   4.031  15.428 -0.1654 -0.2469  0.7242
  502TMC3    C8 7469   2.072   4.134  15.036  0.7239  0.1604 -0.4803
  502TMC3    O1 7470   1.810   3.974  15.537  0.1570  0.0211 -0.6744
  502TMC3    O2 7471   1.992   4.221  15.002 -0.8199 -0.5616 -0.2060
  503MPD2     C 7472   4.616   0.581   0.016 -0.1190  0.1960 -0.3434
  503MPD2    C1 7473   4.662   0.580  17.574  0.0368 -0.0820 -0.5920
  503MPD2    C2 7474   4.674   0.459  17.503  0.2416  0.6812  0.6072
  503MPD2    C3 7475   4.646   0.344  17.566 -0.1071  0.2109  0.2219
  503MPD2    C4 7476   4.627   0.341   0.010  0.5265  1.2094  0.5272
  503MPD2    C5 7477   4.596   0.458   0.072  0.6049 -0.0955  0.2792
  503MPD2     H 7478   4.708   0.462  17.400  2.5366 -2.4267  1.2527
  503MPD2    H1 7479   4.617   0.247   0.064  1.0681  1.6438  1.3770
  503MPD2    H2 7480   4.614   0.674   0.071  0.6171  0.7588 -1.2899
  503MPD2    H3 7481   4.568   0.452   0.177 -1.4586  1.7312 -0.1742
  503MPD2     N 7482   4.649   0.221  17.494  0.5635 -0.2204  0.1661
  503MPD2    H5 7483   4.688   0.231  17.401 -1.2848 -2.1597 -0.8273
  503MPD2    N1 7484   4.682   0.707  17.524 -0.7903  0.6058  0.0376
  503MPD2    H7 7485   4.680   0.788  17.585 -1.7960  0.0642  0.7122
  504TMC3    C1 7486   4.662   4.705  17.468  0.1134  0.1663 -0.0896
  504TMC3    C2 7487   4.656   4.587  17.531  0.2671  0.3467  0.4272
  504TMC3    C3 7488   4.711   4.478  17.468 -0.0307 -0.3831  0.3397
  504TMC3    C4 7489   4.716   0.003  17.344  0.5334  0.9262  0.1819
  504TMC3    C5 7490   0.048   4.614  17.290  0.0770  0.5454  0.2627
  504TMC3    C6 7491   0.048   4.490  17.349 -0.3172  0.6438  0.8933
  504TMC3     C 7492   4.597   0.097  17.539 -0.2560 -0.7630  0.1138
  504TMC3     O 7493   4.543   0.071  17.647 -0.2858 -0.3243  0.0705
  504TMC3     H 7494   4.604   4.582  17.626  1.6575 -1.1386  1.1063
  504TMC3    H1 7495   4.707   0.098  17.293 -0.7014 -0.8792 -2.9014
  504TMC3    H2 7496   0.102   4.403  17.315 -0.9708  2.3451 -4.6050
  504TMC3    C7 7497   0.117   4.628  17.162  0.4805  0.4830 -0.3308
  504TMC3    C8 7498   4.690   4.350  17.529 -0.1788  0.1455  0.6871
  504TMC3    O1 7499   0.158   0.015  17.124 -0.1318  0.0738 -0.3080
  504TMC3    O2 7500   4.628   4.271  17.462  0.6198 -0.1060 -0.6782
  505MPD2     C 7501   0.135   4.701  10.496  0.2368  0.3221  0.2109
  505MPD2    C1 7502   0.078   4.707  10.619 -0.2404 -0.2735 -0.5182
  505MPD2    C2 7503   0.154   0.014  10.726 -0.3842 -0.3212 -0.4729
  505MPD2    C3 7504   0.287   0.062  10.706  0.1018  0.2443 -0.0930
  505MPD2    C4 7505   0.347   0.052  10.583 -0.4297 -0.4349 -0.1904
  505MPD2    C5 7506   0.270   0.015  10.477 -0.5337  0.1475 -1.3213
  505MPD2     H 7507   0.124   0.013  10.830  0.9982 -1.2886 -0.0814
  505MPD2    H1 7508   0.450   0.079  10.563 -0.5265 -0.0525 -0.1850
  505MPD2    H2 7509   0.069   4.668  10.416  2.0833 -3.3103  0.1838
  505MPD2    H3 7510   0.317   4.721  10.380 -0.8526  2.0110 -1.7791
  505MPD2     N 7511   0.375   0.098  10.811 -0.3712  0.1307 -0.6325
  505MPD2    H5 7512   0.474   0.105  10.791 -0.5504  1.2865 -1.0875
  505MPD2    N1 7513   4.658   4.672  10.626 -0.7956 -0.6973 -0.2788
  505MPD2    H7 7514   4.605   4.653  10.542  0.7134 -1.3806 -1.0708
  506TMC3    C1 7515   4.479   4.562  10.720  0.3311 -0.3916  0.4037
  506TMC3    C2 7516   4.480   4.489  10.600 -0.5776  0.4528 -0.3068
  506TMC3    C3 7517   4.443   4.359  10.626  0.5735 -0.3660 -0.6524
  506TMC3    C4 7518   4.429   4.514  10.841  0.1541  0.1356  0.6023
  506TMC3    C5 7519   4.395   4.379  10.850  0.3948 -0.0413 -1.2811
  506TMC3    C6 7520   4.401   4.302  10.740  0.1642 -0.2726 -0.4307
  506TMC3     C 7521   4.583   4.659  10.743 -0.5240  0.0512 -0.1501
  506TMC3     O 7522   4.619   4.680  10.858 -0.4677  0.5892  0.4408
  506TMC3     H 7523   4.524   4.520  10.506  0.4405  2.6470  0.8949
  506TMC3    H1 7524   4.436   4.583  10.924 -4.3062 -1.0744  2.0083
  506TMC3    H2 7525   4.364   4.201  10.728 -0.6403 -0.1919  1.4132
  506TMC3    C7 7526   4.463   4.321  10.957 -0.2264  0.0013 -0.0995
  506TMC3    C8 7527   4.449   4.275  10.513 -0.4092  0.0238 -0.9474
  506TMC3    O1 7528   4.416   4.212  10.996  0.4855  0.5729 -0.1520
  506TMC3    O2 7529   4.345   4.226  10.476 -0.2781  0.7238  0.1806
  507TMC3    C1 7530   0.896   4.692  14.836 -0.1760 -0.3390  0.1620
  507TMC3    C2 7531   0.846   4.575  14.778 -0.4594 -0.5577 -0.8951
  507TMC3    C3 7532   0.859   4.574  14.644  0.4647  0.4556 -0.2146
  507TMC3    C4 7533   0.982   0.056  14.777  0.4246 -0.0531 -0.2645
  507TMC3    C5 7534   1.001   0.039  14.637  0.0281  0.2959  0.1879
  507TMC3    C6 7535   0.948   4.650  14.572  0.1541 -0.5462  0.7532
  507TMC3     C 7536   0.826   0.008  14.957 -0.7367  0.4903  0.4127
  507TMC3     O 7537   0.860   0.114  15.011 -0.5076 -0.1000  0.0774
  507TMC3     H 7538   0.800   4.489  14.824  2.5197 -1.4151  0.4795
  507TMC3    H1 7539   0.993   0.154  14.822  0.6538 -0.1243 -0.1668
  507TMC3    H2 7540   0.954   4.637  14.465  0.5710  3.3347  0.3340
  507TMC3    C7 7541   0.988   0.157  14.556 -0.0370  0.2300  0.2417
  507TMC3    C8 7542   0.737   4.538  14.578 -0.2815  0.6906 -0.4736
  507TMC3    O1 7543   0.912   0.132  14.464  0.6814  0.0192  0.5391
  507TMC3    O2 7544   0.668   4.438  14.605  0.1217  0.0007  0.2651
  508MPD2     C 7545   1.732   2.046  16.381  0.2987  0.1869  0.5587
  508MPD2    C1 7546   1.673   2.160  16.433  0.6381 -0.1129 -0.0046
  508MPD2    C2 7547   1.642   2.259  16.344  0.5783  0.3271 -0.5930
  508MPD2    C3 7548   1.664   2.249  16.208 -0.7329 -0.1053  0.6662
  508MPD2    C4 7549   1.728   2.138  16.160  0.0360 -0.9032  0.2560
  508MPD2    C5 7550   1.760   2.041  16.243  0.5801 -0.3909 -0.2844
  508MPD2     H 7551   1.576   2.335  16.384  2.4036  1.2227  0.7354
  508MPD2    H1 7552   1.744   2.120  16.054  2.0086  0.7830  0.2808
  508MPD2    H2 7553   1.753   1.955  16.436 -0.2379 -0.5090 -0.3895
  508MPD2    H3 7554   1.789   1.943  16.206 -1.1322 -2.0261  2.6520
  508MPD2     N 7555   1.624   2.355  16.117  0.1237  0.4255 -0.1758
  508MPD2    H5 7556   1.643   2.347  16.017 -2.2451  0.3763 -0.6127
  508MPD2    N1 7557   1.660   2.197  16.566  0.2271 -0.6214  0.3703
  508MPD2    H7 7558   1.610   2.282  16.590  0.1492 -0.5493 -0.0534
  509TMC3    C1 7559   1.479   2.762  15.956  0.2015  0.0666  0.3709
  509TMC3    C2 7560   1.609   2.812  15.932 -0.3078 -0.1834 -0.1257
  509TMC3    C3 7561   1.709   2.722  15.935 -0.6365  0.0854  1.2496
  509TMC3    C4 7562   1.462   2.641  16.012 -0.5064  0.4833 -0.4112
  509TMC3    C5 7563   1.568   2.556  16.028 -0.4826  0.0933  0.5565
  509TMC3    C6 7564   1.692   2.594  15.981 -0.9174 -0.3674 -0.0903
  509TMC3     C 7565   1.375   2.860  15.943  0.0415 -0.0909 -0.3378
  509TMC3     O 7566   1.271   2.857  16.009  0.2771  0.1089  0.0418
  509TMC3     H 7567   1.626   2.918  15.919 -1.4530  0.3583  2.6865
  509TMC3    H1 7568   1.362   2.608  16.037 -0.0513 -0.7487 -0.1974
  509TMC3    H2 7569   1.776   2.531  16.006 -1.7192 -1.5728 -0.4234
  509TMC3    C7 7570   1.567   2.473  16.148 -0.5866 -0.3033  0.0115
  509TMC3    C8 7571   1.849   2.761  15.904  0.0297  0.6682 -0.6583
  509TMC3    O1 7572   1.506   2.518  16.240  0.1289 -0.2680 -0.4731
  509TMC3    O2 7573   1.932   2.674  15.890  0.3564  0.9420 -0.9542
  510MPD2     C 7574   4.139   4.144  14.823 -0.6547 -0.8878  0.2045
  510MPD2    C1 7575   4.177   4.059  14.935 -0.0461  0.6082  0.1195
  510MPD2    C2 7576   4.303   4.011  14.941 -0.5248  0.3679  0.0268
  510MPD2    C3 7577   4.404   4.048  14.850  0.1625 -0.8704 -0.0779
  510MPD2    C4 7578   4.371   4.148  14.763 -0.2001  0.0905  0.4887
  510MPD2    C5 7579   4.240   4.187  14.749  0.1080 -0.1800 -0.3190
  510MPD2     H 7580   4.328   3.949  15.026 -0.0467  0.3109 -0.1570
  510MPD2    H1 7581   4.432   4.201  14.691  1.2263 -1.1122  0.8129
  510MPD2    H2 7582   4.047   4.200  14.818 -0.2959 -0.1193  2.2375
  510MPD2    H3 7583   4.221   4.257  14.669  1.2088 -0.7300 -1.0726
  510MPD2     N 7584   4.531   3.987  14.842  0.0050  0.6502 -0.6947
  510MPD2    H5 7585   4.565   3.949  14.930 -0.6298  0.1940 -0.6461
  510MPD2    N1 7586   4.071   4.008  15.013  0.5947  0.0060  0.4854
  510MPD2    H7 7587   3.977   4.018  14.975  1.1728  1.7001 -0.5225
  511TMC3    C1 7588   3.957   3.897  15.187  0.1631  0.3072 -0.3105
  511TMC3    C2 7589   3.920   3.928  15.316 -0.1176  0.0021 -0.2864
  511TMC3    C3 7590   3.805   3.869  15.367  0.3909 -0.0178 -0.0463
  511TMC3    C4 7591   3.886   3.803  15.109 -0.4451  0.5910  0.1389
  511TMC3    C5 7592   3.781   3.743  15.171 -0.1290  0.8151  0.3226
  511TMC3    C6 7593   3.732   3.776  15.296 -0.0355 -0.6148  0.3747
  511TMC3     C 7594   4.088   3.938  15.134 -0.2709  0.1710 -0.1054
  511TMC3     O 7595   4.190   3.907  15.195  0.3194 -0.0640 -0.8784
  511TMC3     H 7596   3.996   3.978  15.376  0.5016  0.0038 -1.0758
  511TMC3    H1 7597   3.926   3.772  15.013 -0.4097  1.5942 -0.1653
  511TMC3    H2 7598   3.638   3.732  15.324 -0.0594 -1.4235 -1.0170
  511TMC3    C7 7599   3.727   3.628  15.108 -0.4900  0.6304 -0.5281
  511TMC3    C8 7600   3.743   3.928  15.485 -0.1902  0.7770 -0.0346
  511TMC3    O1 7601   3.739   3.631  14.984 -0.3320  0.4220 -0.5242
  511TMC3    O2 7602   3.772   4.042  15.508  0.0232 -0.2083  0.3452
  512TMC3    C1 7603   2.972   3.531  13.145  0.5696 -0.6407 -0.5660
  512TMC3    C2 7604   3.082   3.509  13.226 -0.1268 -0.3080 -0.5022
  512TMC3    C3 7605   3.146   3.389  13.219  0.5867 -0.4042  0.7062
  512TMC3    C4 7606   2.924   3.434  13.057  0.0912 -0.1289  0.5206
  512TMC3    C5 7607   2.985   3.311  13.048 -0.5746 -0.1745  0.1034
  512TMC3    C6 7608   3.094   3.289  13.132  0.4312  0.1451 -0.1298
  512TMC3     C 7609   2.916   3.662  13.154 -0.2195  0.1294 -0.6395
  512TMC3     O 7610   2.987   3.752  13.197 -0.2815  0.2186 -0.5411
  512TMC3     H 7611   3.113   3.586  13.296 -1.2703  0.0970 -0.4390
  512TMC3    H1 7612   2.844   3.463  12.990  2.3905 -0.4307 -2.3533
  512TMC3    H2 7613   3.143   3.192  13.123 -1.0798 -0.5536 -0.7483
  512TMC3    C7 7614   2.900   3.208  12.999  0.0904  0.0683 -1.2758
  512TMC3    C8 7615   3.256   3.356  13.307 -0.1514 -0.0252  0.9498
  512TMC3    O1 7616   2.837   3.239  12.897 -0.0809 -0.3011 -0.1272
  512TMC3    O2 7617   3.289   3.235  13.311 -0.4427  0.0453  0.2625
  513MPD2     C 7618   4.617   3.351  13.496  0.1962 -0.2258  0.6022
  513MPD2    C1 7619   4.699   3.300  13.393  0.4187  0.2290 -0.1401
  513MPD2    C2 7620   0.117   3.297  13.407  0.4700  0.4927 -0.2405
  513MPD2    C3 7621   0.176   3.338  13.527 -0.0718  0.6490  0.1610
  513MPD2    C4 7622   0.086   3.377  13.626 -0.0026  0.3457 -0.2090
  513MPD2    C5 7623   4.674   3.378  13.614 -0.6829 -0.1530  0.3847
  513MPD2     H 7624   0.181   3.274  13.323 -2.8952 -2.5857 -2.0043
  513MPD2    H1 7625   0.124   3.413  13.721  0.4391  0.7787 -0.5507
  513MPD2    H2 7626   4.512   3.368  13.478  0.7924  0.7424 -2.0686
  513MPD2    H3 7627   4.621   3.413  13.702 -0.2586 -0.2777  0.6920
  513MPD2     N 7628   0.320   3.341  13.539 -0.0918 -1.0763  0.0698
  513MPD2    H5 7629   0.379   3.311  13.462  1.2166 -0.1585  0.7304
  513MPD2    N1 7630   4.641   3.265  13.270  0.4508  0.0131  0.1615
  513MPD2    H7 7631   4.544   3.287  13.248  0.9275  1.3670 -0.6187
  514TMC3    C1 7632   4.640   3.153  13.059  0.0431  0.6928 -0.0723
  514TMC3    C2 7633   4.642   3.265  12.993  0.2512  0.3078 -0.7388
  514TMC3    C3 7634   4.715   3.273  12.878 -0.6616  0.6506 -0.2078
  514TMC3    C4 7635   4.699   3.040  13.010 -0.8058 -0.0700 -0.1557
  514TMC3    C5 7636   0.045   3.043  12.898  0.1823  0.3301  0.3292
  514TMC3    C6 7637   0.055   3.163  12.834 -0.1671  0.1084  0.1653
  514TMC3     C 7638   4.701   3.171  13.189 -0.6700 -0.1976 -0.3439
  514TMC3     O 7639   0.074   3.095  13.210 -1.0914  0.0045  0.2671
  514TMC3     H 7640   4.613   3.357  13.042  0.6826  0.6809 -1.1855
  514TMC3    H1 7641   4.688   2.946  13.064  0.9449  0.6684  1.4536
  514TMC3    H2 7642   0.130   3.174  12.757  0.2525 -0.1768  0.5354
  514TMC3    C7 7643   0.163   2.965  12.893  1.2414  0.5040 -0.5160
  514TMC3    C8 7644   0.057   3.404  12.861 -0.3678 -0.2081  0.1527
  514TMC3    O1 7645   0.206   2.910  12.796  0.2997  0.0617 -0.3694
  514TMC3    O2 7646   0.043   3.491  12.944  0.1174  0.3988 -0.4524
  515MPD2     C 7647   3.293   0.114  14.497  0.0097 -0.5710 -0.0165
  515MPD2    C1 7648   3.206   0.096  14.601 -0.3324  0.0419 -0.1715
  515MPD2    C2 7649   3.217   0.179  14.713 -0.1430 -0.3808  0.3787
  515MPD2    C3 7650   3.331   0.264  14.726 -0.1182  0.0535 -0.1507
  515MPD2    C4 7651   3.413   0.277  14.617 -0.4728 -0.4678  0.3397
  515MPD2    C5 7652   3.392   0.206  14.509 -1.0220 -0.4850  0.2850
  515MPD2     H 7653   3.143   0.165  14.790  0.0544 -0.9792  0.4599
  515MPD2    H1 7654   3.502   0.339  14.609 -0.0201 -1.1279  0.2581
  515MPD2    H2 7655   3.285   0.055  14.406  0.0366 -1.4415  0.5475
  515MPD2    H3 7656   3.469   0.220  14.433 -1.1875 -1.6731 -0.1093
  515MPD2     N 7657   3.354   0.348  14.837 -0.0222 -0.7658  0.7748
  515MPD2    H5 7658   3.427   0.418  14.832  0.0324 -0.8607  0.3104
  515MPD2    N1 7659   3.090   0.012  14.597  0.3674  0.2128 -0.6231
  515MPD2    H7 7660   3.031   4.722  14.679  0.9014  0.9758 -0.1185
  516TMC3    C1 7661   2.908   4.607  14.503 -1.0561  0.1932 -0.5925
  516TMC3    C2 7662   2.825   4.588  14.395  0.4446  0.9407  0.2248
  516TMC3    C3 7663   2.706   4.524  14.414  0.7190  0.3810  0.3280
  516TMC3    C4 7664   2.871   4.565  14.627 -0.2871  0.3442 -0.6138
  516TMC3    C5 7665   2.751   4.496  14.640 -0.2914  0.9972 -0.3795
  516TMC3    C6 7666   2.666   4.479  14.533  0.5891  0.1268  0.6060
  516TMC3     C 7667   3.042   4.673  14.483 -0.5519  0.3761  0.2840
  516TMC3     O 7668   3.084   4.684  14.370 -0.4225 -0.3756  0.2474
  516TMC3     H 7669   2.869   4.606  14.298  0.2890  0.2969  0.0340
  516TMC3    H1 7670   2.936   4.576  14.714 -0.5950  0.3211 -0.3800
  516TMC3    H2 7671   2.564   4.442  14.539  0.8334 -0.8880 -1.5273
  516TMC3    C7 7672   2.734   4.426  14.766 -0.1480 -0.0225  0.2972
  516TMC3    C8 7673   2.619   4.512  14.295 -0.0887  0.0793 -1.0793
  516TMC3    O1 7674   2.821   4.452  14.849 -0.1112  0.2186 -0.4839
  516TMC3    O2 7675   2.526   4.429  14.304 -0.7680 -0.3308  0.1028
  517MPD2     C 7676   2.742   2.306  17.445 -0.7833 -0.0422 -0.1448
  517MPD2    C1 7677   2.804   2.271  17.562  0.6729 -0.1268  0.1567
  517MPD2    C2 7678   2.842   2.372  17.651  0.5543  1.0790 -0.2489
  517MPD2    C3 7679   2.817   2.507  17.628 -0.2988  0.2596  0.0797
  517MPD2    C4 7680   2.754   2.539  17.508 -0.2972 -0.6170  0.4242
  517MPD2    C5 7681   2.725   2.438  17.418  0.5233 -0.1290 -0.6886
  517MPD2     H 7682   2.897   2.342   0.050 -0.1810  2.9289  0.8232
  517MPD2    H1 7683   2.725   2.636  17.470  2.0753 -0.0488  0.0319
  517MPD2    H2 7684   2.715   2.232  17.370 -0.1933 -0.6233  0.2142
  517MPD2    H3 7685   2.690   2.465  17.319  0.8328  1.5941 -0.3274
  517MPD2     N 7686   2.855   2.617   0.014 -0.2961 -0.3567 -0.1558
  517MPD2    H5 7687   2.830   2.712  17.680 -1.5698 -0.6715 -0.0668
  517MPD2    N1 7688   2.861   2.143  17.582 -0.0994  0.0433  0.3975
  517MPD2    H7 7689   2.897   2.123  17.675 -2.1106  2.2602  1.6680
  518TMC3    C1 7690   2.916   1.915  17.554 -0.2751  0.1420  0.4682
  518TMC3    C2 7691   2.875   1.790  17.516  0.4826 -0.3819  0.4733
  518TMC3    C3 7692   2.967   1.685  17.510  0.5791  0.5192 -1.0003
  518TMC3    C4 7693   3.047   1.935  17.595 -0.4437  0.3117  0.7887
  518TMC3    C5 7694   3.134   1.833  17.581  0.5645 -0.0594 -0.2046
  518TMC3    C6 7695   3.098   1.707  17.543  0.1128  0.3289 -0.2598
  518TMC3     C 7696   2.838   2.030  17.507  0.2972  0.3884  0.6933
  518TMC3     O 7697   2.758   1.993  17.422  0.3639 -0.1105 -0.0136
  518TMC3     H 7698   2.769   1.773  17.507  1.1301 -3.5453 -1.2974
  518TMC3    H1 7699   3.085   2.033  17.621  0.0580  1.0301 -2.5631
  518TMC3    H2 7700   3.169   1.625  17.545 -1.2877 -0.8686  0.7296
  518TMC3    C7 7701   3.272   1.862  17.618 -0.1599  0.2822  0.2924
  518TMC3    C8 7702   2.950   1.578  17.416 -0.8762  0.2689 -0.4039
  518TMC3    O1 7703   3.298   1.952  17.690 -0.6344 -0.2248  0.1393
  518TMC3    O2 7704   3.038   1.489  17.418  0.0415  0.5916  0.0732
  519MPD2     C 7705   4.477   0.291  13.713 -0.4133  0.0254  0.1960
  519MPD2    C1 7706   4.385   0.227  13.797 -1.1077  0.1232 -0.5448
  519MPD2    C2 7707   4.407   0.091  13.817  0.0101  0.0055 -0.9444
  519MPD2    C3 7708   4.499   0.020  13.742 -0.4770  0.3672 -0.1381
  519MPD2    C4 7709   4.591   0.092  13.661  0.6487  0.5597 -0.8805
  519MPD2    C5 7710   4.572   0.221  13.645  0.3396 -0.3920 -0.0029
  519MPD2     H 7711   4.359   0.041  13.899 -0.2507  3.3566  0.9471
  519MPD2    H1 7712   4.673   0.043  13.610  2.3231  0.6957  1.6943
  519MPD2    H2 7713   4.466   0.397  13.691 -1.2196 -0.2626 -0.7950
  519MPD2    H3 7714   4.637   0.273  13.576 -1.3118  1.9430  0.2209
  519MPD2     N 7715   4.520   4.602  13.760  0.1346 -0.1783  0.6504
  519MPD2    H5 7716   4.593   4.543  13.720 -1.4391 -1.8304  0.2080
  519MPD2    N1 7717   4.280   0.303  13.871  0.1550 -0.8619 -0.7438
  519MPD2    H7 7718   4.279   0.404  13.864  0.4304 -0.6755  1.6387
  520TMC3    C1 7719   4.461   4.393  13.877 -0.2435 -0.0626 -0.3951
  520TMC3    C2 7720   4.356   4.319  13.926  0.0941 -0.7150 -0.8253
  520TMC3    C3 7721   4.379   4.221  14.018 -0.4303 -0.0696 -0.3474
  520TMC3    C4 7722   4.587   4.383  13.922  0.1860  0.1302 -0.2888
  520TMC3    C5 7723   4.608   4.282  14.013  0.0519 -0.3278 -0.3095
  520TMC3    C6 7724   4.511   4.200  14.058 -0.4382 -0.2029  0.3648
  520TMC3     C 7725   4.424   4.525  13.826  0.0314 -0.1527  0.0685
  520TMC3     O 7726   4.307   4.555  13.839  0.1409  0.0933  0.6490
  520TMC3     H 7727   4.250   4.336  13.908 -0.0013 -1.2179 -0.7231
  520TMC3    H1 7728   4.669   4.451  13.902  1.1067 -0.6733  0.7100
  520TMC3    H2 7729   4.540   4.121  14.126  2.3449  0.3029 -0.2415
  520TMC3    C7 7730   0.022   4.252  14.064 -0.3356  0.3331 -0.0087
  520TMC3    C8 7731   4.271   4.142  14.076  0.7945  0.1044  1.0183
  520TMC3    O1 7732   0.046   4.139  14.106 -0.0905 -0.5114  0.2431
  520TMC3    O2 7733   4.301   4.046  14.144 -0.0327  0.4595 -0.2348
  521MPD2     C 7734   0.446   3.367  17.250 -0.0758 -0.2174 -0.6440
  521MPD2    C1 7735   0.367   3.252  17.263 -0.1776  0.1162  0.2261
  521MPD2    C2 7736   0.429   3.127  17.264  0.3695 -0.3059 -0.0712
  521MPD2    C3 7737   0.567   3.123  17.263  0.2002 -0.6246  0.3402
  521MPD2    C4 7738   0.642   3.237  17.266  1.3047 -0.1512 -0.2451
  521MPD2    C5 7739   0.586   3.358  17.256  0.3719  0.3359 -0.6061
  521MPD2     H 7740   0.374   3.034  17.273 -0.3860 -0.0420 -1.7823
  521MPD2    H1 7741   0.749   3.236  17.281  1.5426 -2.7574 -1.9725
  521MPD2    H2 7742   0.400   3.464  17.232  0.3890 -0.1524 -1.4906
  521MPD2    H3 7743   0.647   3.448  17.258 -0.8255  1.1608 -0.4143
  521MPD2     N 7744   0.626   2.997  17.271  0.6272  0.6622  0.0891
  521MPD2    H5 7745   0.563   2.920  17.252  3.3099 -1.8718  1.5374
  521MPD2    N1 7746   0.230   3.272  17.276 -0.5245  0.2339  0.2289
  521MPD2    H7 7747   0.197   3.368  17.272  1.1217  0.7064 -1.4691
  522TMC3    C1 7748   0.796   2.828  17.267 -0.8413 -0.4312  0.3312
  522TMC3    C2 7749   0.928   2.793  17.300 -0.5681  0.1799 -0.3027
  522TMC3    C3 7750   0.976   2.666  17.273  0.1457  0.5528  0.3194
  522TMC3    C4 7751   0.713   2.741  17.208 -0.1958 -0.4191  0.0842
  522TMC3    C5 7752   0.760   2.616  17.180 -0.0916  0.7510 -0.1578
  522TMC3    C6 7753   0.891   2.581  17.208  0.1766  0.5861  0.7948
  522TMC3     C 7754   0.757   2.964  17.291 -0.2557 -0.6518  0.7236
  522TMC3     O 7755   0.845   3.035  17.343 -0.3049 -0.1071  0.2130
  522TMC3     H 7756   0.995   2.864  17.347  0.2235 -0.8448  0.1040
  522TMC3    H1 7757   0.611   2.767  17.186  0.0071 -0.0315 -0.4128
  522TMC3    H2 7758   0.922   2.489  17.160  0.6423  1.2479 -0.1636
  522TMC3    C7 7759   0.675   2.519  17.107 -0.5006  0.2684 -0.5362
  522TMC3    C8 7760   1.117   2.647  17.239 -0.4260  0.9440  0.4104
  522TMC3    O1 7761   0.686   2.401  17.130  0.2467  0.1596 -0.5528
  522TMC3    O2 7762   1.140   2.541  17.187 -0.8628  0.8413  0.1031
  523MPD2     C 7763   2.733   3.104   9.879  0.0381  0.4224  0.3082
  523MPD2    C1 7764   2.659   3.040   9.783  0.1486  1.0226  0.2958
  523MPD2    C2 7765   2.572   3.115   9.703  0.2036 -0.9054  0.3802
  523MPD2    C3 7766   2.556   3.248   9.720  0.3218  0.4316 -0.4655
  523MPD2    C4 7767   2.631   3.313   9.813  0.7245  0.0941  0.3564
  523MPD2    C5 7768   2.727   3.240   9.887 -0.6624 -0.3685  0.3694
  523MPD2     H 7769   2.521   3.062   9.623  0.9931  0.9606 -1.3665
  523MPD2    H1 7770   2.616   3.418   9.834 -1.0517  0.2402 -1.7188
  523MPD2    H2 7771   2.807   3.060   9.944 -1.0291 -1.6408  0.1115
  523MPD2    H3 7772   2.779   3.287   9.969  0.5350 -0.5223 -0.3130
  523MPD2     N 7773   2.461   3.319   9.646  0.4533  0.1285 -0.3500
  523MPD2    H5 7774   2.460   3.419   9.665  2.4760  0.1191 -0.1237
  523MPD2    N1 7775   2.676   2.900   9.769  0.0189  0.0906  0.0270
  523MPD2    H7 7776   2.734   2.862   9.842  0.2023  0.9872  0.3457
  524TMC3    C1 7777   2.292   3.377   9.489  0.6053  0.5623 -0.5929
  524TMC3    C2 7778   2.254   3.366   9.358 -0.2865 -0.2276  1.1885
  524TMC3    C3 7779   2.138   3.434   9.326  0.0455 -0.1449 -0.3020
  524TMC3    C4 7780   2.240   3.472   9.572 -0.6234  0.0978 -0.4374
  524TMC3    C5 7781   2.151   3.555   9.513  0.1684  0.1823 -0.2815
  524TMC3    C6 7782   2.086   3.528   9.399 -0.0722  0.2954 -0.1670
  524TMC3     C 7783   2.385   3.278   9.540 -0.7269 -0.6594 -0.3748
  524TMC3     O 7784   2.393   3.177   9.478 -0.7850 -0.2436 -0.2770
  524TMC3     H 7785   2.275   3.276   9.301 -3.9826 -0.2344 -0.1885
  524TMC3    H1 7786   2.267   3.481   9.677  0.3187  2.5413 -0.8834
  524TMC3    H2 7787   2.002   3.586   9.361  0.6359  0.4794 -1.4461
  524TMC3    C7 7788   2.100   3.669   9.590  0.7628 -0.1317 -0.4875
  524TMC3    C8 7789   2.066   3.393   9.209 -0.5215 -0.4860  0.4417
  524TMC3    O1 7790   2.132   3.677   9.709 -0.3343  0.4223  0.0847
  524TMC3    O2 7791   1.945   3.412   9.207  0.1403 -0.3147  0.1405
  525MPD2     C 7792   1.002   4.324  14.501 -0.7198  0.1034  0.3287
  525MPD2    C1 7793   1.139   4.318  14.538  0.2438  0.1406 -0.9577
  525MPD2    C2 7794   1.229   4.382  14.451  0.6024 -0.2399 -0.4350
  525MPD2    C3 7795   1.186   4.421  14.327  0.0702  0.0936  0.3291
  525MPD2    C4 7796   1.053   4.411  14.288 -0.1353  0.7617  0.4157
  525MPD2    C5 7797   0.958   4.363  14.376 -0.3066  0.1459  0.2768
  525MPD2     H 7798   1.325   4.410  14.495  0.9255 -3.1383  0.6736
  525MPD2    H1 7799   1.023   4.439  14.188  1.8059 -1.0984 -0.6943
  525MPD2    H2 7800   0.922   4.284  14.562 -0.4192  2.4919  2.3254
  525MPD2    H3 7801   0.858   4.344  14.339  0.2309  0.0306 -1.1264
  525MPD2     N 7802   1.266   4.483  14.232  0.0190 -0.4301  0.6016
  525MPD2    H5 7803   1.216   4.531  14.158  0.2262 -3.1767 -1.3708
  525MPD2    N1 7804   1.189   4.268  14.661  0.0292 -0.0354 -0.8518
  525MPD2    H7 7805   1.291   4.268  14.665 -0.1336  1.0153  2.8079
  526TMC3    C1 7806   1.191   4.161  14.872  0.3125  0.8588 -0.5676
  526TMC3    C2 7807   1.121   4.168  14.992  0.5210 -0.1357  0.1442
  526TMC3    C3 7808   1.195   4.180  15.103  0.7632  0.1075  0.7686
  526TMC3    C4 7809   1.324   4.148  14.861 -0.3957  1.1154  0.5607
  526TMC3    C5 7810   1.395   4.158  14.977  0.5970  0.4797  0.4489
  526TMC3    C6 7811   1.332   4.197  15.092  0.0832 -0.0636 -0.0329
  526TMC3     C 7812   1.112   4.213  14.759  0.5301 -0.4559  0.7464
  526TMC3     O 7813   0.992   4.226  14.777 -0.1117 -0.2606  0.0878
  526TMC3     H 7814   1.013   4.165  14.992  0.4898  0.7329 -1.4986
  526TMC3    H1 7815   1.373   4.126  14.767 -0.5866 -2.1237  1.2104
  526TMC3    H2 7816   1.393   4.226  15.177  0.5476 -0.7509 -0.1320
  526TMC3    C7 7817   1.515   4.080  15.010  0.1898  0.2628  0.5072
  526TMC3    C8 7818   1.144   4.167  15.235  0.6360  0.6407 -0.5659
  526TMC3    O1 7819   1.529   4.057  15.131 -0.2479 -0.1182 -0.2612
  526TMC3    O2 7820   1.222   4.183  15.327  0.0851 -0.5861 -0.7253
  527MPD2     C 7821   0.701   2.321   1.719  0.4985 -0.0229  0.2972
  527MPD2    C1 7822   0.817   2.395   1.696 -0.7145 -0.6835  0.1551
  527MPD2    C2 7823   0.840   2.451   1.571 -0.3129 -0.4722 -0.3993
  527MPD2    C3 7824   0.757   2.409   1.470  0.3174  0.0497 -0.3751
  527MPD2    C4 7825   0.638   2.345   1.496  0.3295  0.4099 -0.7514
  527MPD2    C5 7826   0.609   2.307   1.623  0.7237 -0.3950  0.1782
  527MPD2     H 7827   0.924   2.511   1.540 -0.6195  0.2006  0.0759
  527MPD2    H1 7828   0.565   2.309   1.424 -0.7679  1.9186 -0.3845
  527MPD2    H2 7829   0.668   2.273   1.811  2.0783  0.4008  1.0737
  527MPD2    H3 7830   0.518   2.254   1.651  0.0630 -0.7584 -2.6725
  527MPD2     N 7831   0.789   2.442   1.332  0.3411 -0.0184  0.6858
  527MPD2    H5 7832   0.881   2.474   1.303  0.2406 -2.1040 -2.0364
  527MPD2    N1 7833   0.900   2.421   1.806 -0.1201 -0.5863 -0.7471
  527MPD2    H7 7834   0.967   2.496   1.794 -1.1515  1.2842  4.8205
  528TMC3    C1 7835   0.970   2.435   2.027 -0.1377 -0.4260  0.0955
  528TMC3    C2 7836   0.952   2.569   2.009 -0.4268  0.4973  0.5351
  528TMC3    C3 7837   0.963   2.645   2.126  0.1195  0.2127 -0.0329
  528TMC3    C4 7838   0.997   2.378   2.150  0.2167 -0.1064 -0.2494
  528TMC3    C5 7839   1.014   2.452   2.264  0.5541  0.2781 -0.0287
  528TMC3    C6 7840   1.000   2.587   2.248 -0.1448  0.3069 -0.4790
  528TMC3     C 7841   0.912   2.351   1.924  0.0536  0.2506 -0.3740
  528TMC3     O 7842   0.870   2.243   1.962 -0.1839  0.1411 -0.0932
  528TMC3     H 7843   0.909   2.621   1.924 -0.0700 -0.6327 -0.3258
  528TMC3    H1 7844   0.993   2.270   2.157 -0.6400  0.0720  2.2864
  528TMC3    H2 7845   0.998   2.655   2.332  3.4893 -1.3610  0.9409
  528TMC3    C7 7846   1.092   2.406   2.379 -0.3618  0.4686 -0.1199
  528TMC3    C8 7847   0.978   2.789   2.106 -0.3462 -0.7595 -0.4360
  528TMC3    O1 7848   1.111   2.488   2.465  0.2806 -0.4279  0.1141
  528TMC3    O2 7849   0.938   2.820   1.997 -0.4588  0.3373  0.2028
  529MPD2     C 7850   2.025   1.133   1.272  0.3243  0.2951  0.0360
  529MPD2    C1 7851   1.934   1.076   1.186 -0.9871 -0.2199 -0.0072
  529MPD2    C2 7852   1.859   1.161   1.102  0.3077 -0.3383  0.5708
  529MPD2    C3 7853   1.890   1.297   1.092 -0.1406 -0.5393  0.0723
  529MPD2    C4 7854   1.992   1.352   1.165  0.2872 -0.1729  0.0767
  529MPD2    C5 7855   2.058   1.263   1.246  0.5673  0.0131 -0.1492
  529MPD2     H 7856   1.781   1.131   1.033  0.3790 -0.1500  0.4087
  529MPD2    H1 7857   2.023   1.452   1.139  0.8288 -0.4152 -0.2128
  529MPD2    H2 7858   2.081   1.077   1.345 -0.2467 -1.6693 -1.0160
  529MPD2    H3 7859   2.145   1.305   1.295 -0.9914  1.0996  1.6643
  529MPD2     N 7860   1.842   1.375   0.987 -0.2678  0.0227 -0.6564
  529MPD2    H5 7861   1.891   1.463   0.973 -0.9891  0.5771  0.3255
  529MPD2    N1 7862   1.912   0.940   1.182  0.5267 -0.1574  0.7902
  529MPD2    H7 7863   1.849   0.915   1.106  1.0307 -2.1370  1.0076
  530TMC3    C1 7864   1.942   0.706   1.190 -0.3135 -0.6414 -0.3355
  530TMC3    C2 7865   2.026   0.600   1.192 -0.2442  0.7145 -0.0919
  530TMC3    C3 7866   1.983   0.475   1.159 -0.8685 -0.1168  0.1345
  530TMC3    C4 7867   1.809   0.693   1.146  0.4344 -0.5298  0.4400
  530TMC3    C5 7868   1.766   0.570   1.123  0.4306 -0.5623  0.5287
  530TMC3    C6 7869   1.848   0.456   1.127 -0.5728 -0.0289  0.3312
  530TMC3     C 7870   1.994   0.834   1.234  0.3156  0.2885  0.6042
  530TMC3     O 7871   2.102   0.849   1.285 -0.5461  0.5628 -0.0811
  530TMC3     H 7872   2.125   0.635   1.220 -0.1603  0.6241 -0.2725
  530TMC3    H1 7873   1.739   0.776   1.143  2.8743  1.5129 -0.2570
  530TMC3    H2 7874   1.809   0.357   1.107  0.4443 -0.4862  0.6224
  530TMC3    C7 7875   1.622   0.562   1.109  0.0716  0.4002  0.2314
  530TMC3    C8 7876   2.066   0.358   1.151 -0.3330 -0.2643  0.8500
  530TMC3    O1 7877   1.556   0.648   1.157 -0.9249 -0.0825 -0.6311
  530TMC3    O2 7878   2.012   0.247   1.157 -0.2833  0.6521  0.2611
  531MPD2     C 7879   0.638   2.945  13.098  0.1296 -0.1762 -0.8009
  531MPD2    C1 7880   0.563   3.026  13.180 -0.7916  0.4544 -0.1706
  531MPD2    C2 7881   0.428   3.027  13.148  0.3412  0.1950 -0.2412
  531MPD2    C3 7882   0.371   2.960  13.044  0.4711 -0.2761  0.6321
  531MPD2    C4 7883   0.450   2.881  12.957 -0.1093  0.6113 -0.2658
  531MPD2    C5 7884   0.582   2.880  12.987  0.0282 -0.1418  0.0164
  531MPD2     H 7885   0.361   3.085  13.210 -0.2175 -0.8120  0.1046
  531MPD2    H1 7886   0.432   2.847  12.856 -2.0621 -0.8113  0.5732
  531MPD2    H2 7887   0.744   2.929  13.116  0.1210  0.5072 -0.1428
  531MPD2    H3 7888   0.648   2.815  12.931 -0.8767  1.3402 -2.7212
  531MPD2     N 7889   0.232   2.983  13.017 -0.0016  0.5969 -0.4523
  531MPD2    H5 7890   0.177   3.030  13.088  0.1382 -0.2855  0.2422
  531MPD2    N1 7891   0.627   3.112  13.271  0.4278  0.1168 -0.1146
  531MPD2    H7 7892   0.728   3.104  13.278  0.2561 -1.4575  0.6541
  532TMC3    C1 7893   0.640   3.274  13.446  0.9657  0.2369  0.1197
  532TMC3    C2 7894   0.558   3.367  13.507  0.6097 -0.7468 -0.0542
  532TMC3    C3 7895   0.530   3.356  13.634  0.3104 -0.0359  0.0760
  532TMC3    C4 7896   0.705   3.185  13.525  0.0406  0.2781  0.8969
  532TMC3    C5 7897   0.685   3.194  13.664  0.2322  0.0397  0.0919
  532TMC3    C6 7898   0.594   3.274  13.725 -0.2290  0.3625 -0.1769
  532TMC3     C 7899   0.565   3.216  13.339 -0.2586 -0.2619 -0.3073
  532TMC3     O 7900   0.457   3.264  13.313  0.3377 -0.7674  0.1517
  532TMC3     H 7901   0.507   3.447  13.455  2.2600  0.2021 -0.1856
  532TMC3    H1 7902   0.754   3.102  13.475  0.0765 -1.2124  3.4303
  532TMC3    H2 7903   0.574   3.271  13.831  1.8756  0.6947  0.2383
  532TMC3    C7 7904   0.783   3.139  13.750 -0.4319  0.2404 -0.8562
  532TMC3    C8 7905   0.388   3.375  13.654  0.0664 -1.1569  0.1277
  532TMC3    O1 7906   0.788   3.169  13.871  0.2103 -0.2237  0.0193
  532TMC3    O2 7907   0.343   3.394  13.767  0.6453 -0.2051  0.4731
  533TMC3    C1 7908   1.431   4.642  14.185  0.8789  0.1979 -1.0448
  533TMC3    C2 7909   1.565   4.668  14.179 -0.0354  0.1244  0.7527
  533TMC3    C3 7910   1.614   0.050  14.252  0.2131  0.8326  0.0065
  533TMC3    C4 7911   1.343   0.010  14.253  0.0427  0.0490  1.3682
  533TMC3    C5 7912   1.408   0.107  14.329  0.5588  0.5655 -0.0322
  533TMC3    C6 7913   1.541   0.132  14.330  0.5584  0.4175 -0.1897
  533TMC3     C 7914   1.399   4.509  14.245 -0.3571 -0.9254  0.1021
  533TMC3     O 7915   1.481   4.455  14.323 -0.0870 -0.4166  0.0106
  533TMC3     H 7916   1.639   4.598  14.141 -2.2707 -1.6803 -0.3178
  533TMC3    H1 7917   1.238   4.718  14.272  0.0977  0.0954  1.7143
  533TMC3    H2 7918   1.588   0.193  14.406  0.5609 -1.5787  1.4303
  533TMC3    C7 7919   1.341   0.129  14.456 -0.5550 -0.1775  0.2269
  533TMC3    C8 7920   1.752   0.080  14.253  0.9774  0.0694  0.1963
  533TMC3    O1 7921   1.266   0.045  14.497  0.0296 -0.4326 -0.2745
  533TMC3    O2 7922   1.802   0.142  14.347 -0.3552 -0.2139  0.3697
  534MPD2     C 7923   4.041   2.180   1.763  0.0717 -0.8554  0.4021
  534MPD2    C1 7924   4.112   2.064   1.789 -0.0865  0.2633 -0.0593
  534MPD2    C2 7925   4.080   1.947   1.726 -0.3061 -0.5215  0.1843
  534MPD2    C3 7926   3.977   1.950   1.630  0.2562 -0.4720  0.7809
  534MPD2    C4 7927   3.901   2.064   1.618  0.2045 -0.1761 -0.3362
  534MPD2    C5 7928   3.932   2.179   1.685 -0.3416  0.9070 -0.1265
  534MPD2     H 7929   4.141   1.859   1.745 -0.1539 -0.7048 -1.1551
  534MPD2    H1 7930   3.815   2.067   1.553 -0.4416  1.6320  0.5964
  534MPD2    H2 7931   4.070   2.275   1.808 -1.0049 -0.2884 -0.0970
  534MPD2    H3 7932   3.875   2.269   1.666 -1.1734  0.5795  0.8275
  534MPD2     N 7933   3.941   1.845   1.550 -0.7618  0.8269  0.0608
  534MPD2    H5 7934   3.863   1.848   1.485  0.2377  2.7540 -1.0534
  534MPD2    N1 7935   4.227   2.065   1.871 -0.4126 -0.0203 -0.1804
  534MPD2    H7 7936   4.266   1.973   1.888 -1.7318 -0.3736  0.9816
  535TMC3    C1 7937   3.969   1.639   1.445 -0.1885 -0.7931 -0.3801
  535TMC3    C2 7938   3.840   1.607   1.445 -0.1894 -0.8117  0.3174
  535TMC3    C3 7939   3.803   1.526   1.337  0.1535 -1.2632  0.0294
  535TMC3    C4 7940   4.061   1.597   1.359 -0.5552  0.0728 -0.0819
  535TMC3    C5 7941   4.012   1.521   1.258 -0.0913 -0.7476 -0.0581
  535TMC3    C6 7942   3.886   1.479   1.244 -0.3400 -0.1532  0.4951
  535TMC3     C 7943   4.013   1.723   1.543  0.2541 -0.8491 -0.1550
  535TMC3     O 7944   4.117   1.685   1.597 -0.4160  0.2051 -0.6546
  535TMC3     H 7945   3.770   1.629   1.525 -1.5000  5.2587 -2.5005
  535TMC3    H1 7946   4.166   1.622   1.371 -0.8321  0.9064  0.6631
  535TMC3    H2 7947   3.853   1.426   1.155 -1.9039  2.4930 -0.5142
  535TMC3    C7 7948   4.112   1.472   1.164 -0.1864  0.3374  0.0469
  535TMC3    C8 7949   3.657   1.492   1.327 -0.6070 -0.2725 -0.0676
  535TMC3    O1 7950   4.085   1.370   1.100 -0.5509  0.8065 -0.8021
  535TMC3    O2 7951   3.623   1.385   1.281  0.1647 -0.2640  0.3074
  536MPD2     C 7952   2.565   4.345  16.643  0.5818  0.9943 -0.1970
  536MPD2    C1 7953   2.456   4.313  16.720  0.8999  0.1001 -0.5169
  536MPD2    C2 7954   2.339   4.284  16.652 -0.5111  0.0136  0.4515
  536MPD2    C3 7955   2.330   4.290  16.517 -0.2514  0.5118  0.6425
  536MPD2    C4 7956   2.441   4.319  16.445  0.6174  0.1416 -0.2633
  536MPD2    C5 7957   2.560   4.343  16.509 -0.2526 -0.6358 -0.5744
  536MPD2     H 7958   2.247   4.260  16.705 -0.7188 -0.3017 -0.0551
  536MPD2    H1 7959   2.437   4.321  16.337  1.0858 -1.8392 -0.3340
  536MPD2    H2 7960   2.660   4.379  16.684  0.4954 -0.3945  1.1419
  536MPD2    H3 7961   2.652   4.358  16.453 -0.2338 -0.8362 -0.5970
  536MPD2     N 7962   2.215   4.263  16.451  0.4693  0.1064  0.0363
  536MPD2    H5 7963   2.216   4.276  16.350  2.0354  0.6982  0.1162
  536MPD2    N1 7964   2.464   4.317  16.861  0.1264  0.0394 -0.2358
  536MPD2    H7 7965   2.538   4.372  16.903  0.2215 -1.2515  1.2870
  537TMC3    C1 7966   2.379   4.320  17.068  0.1218 -0.0436 -0.3608
  537TMC3    C2 7967   2.436   4.448  17.079  0.4109  0.4107  0.5463
  537TMC3    C3 7968   2.500   4.485  17.194 -0.0315  0.2445 -0.3529
  537TMC3    C4 7969   2.394   4.234  17.176 -0.4277  0.5302 -0.0477
  537TMC3    C5 7970   2.446   4.283  17.298 -0.2238 -0.1424 -0.5921
  537TMC3    C6 7971   2.498   4.408  17.303 -0.4457  0.7201 -0.4863
  537TMC3     C 7972   2.369   4.263  16.941  0.3361 -0.0048 -0.3228
  537TMC3     O 7973   2.307   4.161  16.915 -0.1545  0.5559  0.0550
  537TMC3     H 7974   2.424   4.513  16.993 -3.0555  1.9613  2.2224
  537TMC3    H1 7975   2.347   4.137  17.165 -0.7904  0.4821  1.8530
  537TMC3    H2 7976   2.546   4.430  17.397 -0.2301 -1.2477 -0.1382
  537TMC3    C7 7977   2.448   4.200  17.409 -1.0794 -0.0258 -0.0480
  537TMC3    C8 7978   2.582   4.607  17.208 -0.4239 -0.1479  0.3605
  537TMC3    O1 7979   2.479   4.250  17.517  0.1895  0.0564  0.4715
  537TMC3    O2 7980   2.672   4.589  17.287  0.3090  0.3987 -0.4450
  538TMC3    C1 7981   3.410   3.654  10.935  1.0498  0.3985 -0.1979
  538TMC3    C2 7982   3.409   3.782  10.877  0.5186  0.4895  0.0897
  538TMC3    C3 7983   3.291   3.814  10.818  0.1831  0.3238  0.1405
  538TMC3    C4 7984   3.308   3.559  10.929  0.4410  0.8696  0.1214
  538TMC3    C5 7985   3.192   3.599  10.867  0.6790 -0.1274  0.1155
  538TMC3    C6 7986   3.180   3.728  10.821 -0.1763  0.9176 -0.3268
  538TMC3     C 7987   3.535   3.624  11.009 -0.2175  1.0086 -0.9752
  538TMC3     O 7988   3.588   3.722  11.060  0.3895 -0.4340  0.3533
  538TMC3     H 7989   3.493   3.849  10.891 -1.3332  2.4840  1.6329
  538TMC3    H1 7990   3.297   3.471  10.992 -1.5603  0.6984 -0.4752
  538TMC3    H2 7991   3.089   3.762  10.773 -2.1117 -1.9856  1.3330
  538TMC3    C7 7992   3.072   3.510  10.854 -0.2742  0.2447 -0.1202
  538TMC3    C8 7993   3.289   3.927  10.726  0.3465 -0.0569 -0.0027
  538TMC3    O1 7994   3.091   3.388  10.871  0.2171  0.5770 -0.3082
  538TMC3    O2 7995   3.176   3.962  10.694 -0.4520  0.5337 -0.4235
  539MPD2     C 7996   3.236   1.561  11.176  0.5874 -0.7583  0.1543
  539MPD2    C1 7997   3.252   1.661  11.075 -0.0942  0.4235 -0.2859
  539MPD2    C2 7998   3.200   1.785  11.102  0.0087 -0.3137 -0.0993
  539MPD2    C3 7999   3.129   1.815  11.216  0.5910 -0.1788  0.0427
  539MPD2    C4 8000   3.116   1.717  11.311 -0.0146 -0.4066  0.2765
  539MPD2    C5 8001   3.174   1.595  11.292  0.1638  0.4120  0.3620
  539MPD2     H 8002   3.213   1.853  11.019  1.9347  1.2004  1.4425
  539MPD2    H1 8003   3.059   1.737  11.401  0.8666 -0.8397  0.9215
  539MPD2    H2 8004   3.279   1.462  11.179 -2.3390 -2.0282  0.0994
  539MPD2    H3 8005   3.174   1.529  11.378 -2.0915 -0.4368 -0.2931
  539MPD2     N 8006   3.058   1.931  11.223 -0.8072  0.4288 -0.1636
  539MPD2    H5 8007   3.004   1.939  11.309 -0.8125  1.1714 -0.2347
  539MPD2    N1 8008   3.332   1.642  10.964  0.6168  0.3322 -0.3464
  539MPD2    H7 8009   3.317   1.718  10.898  0.8507 -1.4022 -2.3879
  540TMC3    C1 8010   2.977   2.148  11.198 -0.5157  0.1803 -0.2341
  540TMC3    C2 8011   2.916   2.223  11.099 -0.3958 -0.0448 -0.5541
  540TMC3    C3 8012   2.868   2.346  11.132 -0.4676 -0.0771  0.8407
  540TMC3    C4 8013   2.998   2.195  11.319 -0.1337 -0.6273 -0.0794
  540TMC3    C5 8014   2.951   2.320  11.344 -0.0683 -0.2694 -0.0190
  540TMC3    C6 8015   2.892   2.401  11.254 -0.0475  0.3365  0.6412
  540TMC3     C 8016   3.051   2.037  11.138 -0.3750 -0.0212 -0.0013
  540TMC3     O 8017   3.109   2.065  11.034 -0.2251 -0.1476  0.7016
  540TMC3     H 8018   2.896   2.178  11.003  1.6964 -2.1378 -0.0026
  540TMC3    H1 8019   3.055   2.139  11.392 -0.4087  0.9218  1.3236
  540TMC3    H2 8020   2.862   2.504  11.272 -2.5407 -0.1161 -0.9667
  540TMC3    C7 8021   2.909   2.337  11.481  0.2140 -0.0529  0.8093
  540TMC3    C8 8022   2.855   2.440  11.022  0.6407  0.1640  0.4882
  540TMC3    O1 8023   2.796   2.384  11.497 -0.7499 -0.4231  0.0279
  540TMC3    O2 8024   2.904   2.555  11.029 -0.7340 -0.2580 -0.4608
  541MPD2     C 8025   1.388   3.825  13.241  0.4713  0.1053 -0.3724
  541MPD2    C1 8026   1.415   3.733  13.140  0.3942 -0.4418 -0.0417
  541MPD2    C2 8027   1.503   3.780  13.044  0.5296  0.4131 -0.4028
  541MPD2    C3 8028   1.563   3.901  13.044 -0.8150  0.0604  0.5041
  541MPD2    C4 8029   1.549   3.979  13.156  0.1156 -0.6980  0.0283
  541MPD2    C5 8030   1.452   3.944  13.248  0.0960  0.2962  0.2551
  541MPD2     H 8031   1.511   3.706  12.965  0.5871 -1.6850  1.5991
  541MPD2    H1 8032   1.581   4.080  13.178 -0.8363 -0.2966 -0.4240
  541MPD2    H2 8033   1.313   3.806  13.316  0.0418 -0.3266 -0.9127
  541MPD2    H3 8034   1.421   4.018  13.322 -0.7660  1.9175 -1.7226
  541MPD2     N 8035   1.650   3.946  12.945 -0.1638 -0.2020  0.1502
  541MPD2    H5 8036   1.701   4.033  12.956  2.8144 -1.6797 -1.9088
  541MPD2    N1 8037   1.348   3.611  13.149 -0.2364  0.4986 -0.2679
  541MPD2    H7 8038   1.284   3.594  13.226 -0.2860  0.0169 -0.4187
  542TMC3    C1 8039   1.706   3.984  12.724 -0.0593 -0.1340 -0.5688
  542TMC3    C2 8040   1.772   3.936  12.611 -0.4280 -0.3528 -0.4634
  542TMC3    C3 8041   1.812   4.031  12.516 -0.8103 -0.0258 -0.0302
  542TMC3    C4 8042   1.670   4.113  12.744  0.1005  0.2190 -0.5872
  542TMC3    C5 8043   1.698   4.203  12.642  0.3924 -0.3909 -0.2092
  542TMC3    C6 8044   1.773   4.164  12.535  0.0470 -0.6665 -0.1667
  542TMC3     C 8045   1.664   3.890  12.818  1.0206  0.2184 -0.3188
  542TMC3     O 8046   1.623   3.786  12.779  0.0189  0.0020 -0.0656
  542TMC3     H 8047   1.802   3.832  12.615 -1.5199 -0.6989 -1.2601
  542TMC3    H1 8048   1.608   4.146  12.827  1.4819 -0.6675  0.8073
  542TMC3    H2 8049   1.813   4.234  12.462  0.2511 -1.5084 -0.8659
  542TMC3    C7 8050   1.689   4.346  12.678  0.4519 -1.0838 -0.1923
  542TMC3    C8 8051   1.907   4.005  12.412  0.1728  0.0958  0.7446
  542TMC3    O1 8052   1.648   4.368  12.792  0.3779  0.6776  0.3054
  542TMC3    O2 8053   1.892   4.076  12.313 -0.5844  0.0707  0.0600
  543TMC3    C1 8054   0.712   0.063  17.071  0.3227  0.3328 -0.0479
  543TMC3    C2 8055   0.741   4.656  17.053  0.2841 -1.0557 -0.5226
  543TMC3    C3 8056   0.688   4.562  17.135  0.8682 -0.0772 -0.9679
  543TMC3    C4 8057   0.613   0.106  17.159  0.2317  0.1069 -0.4000
  543TMC3    C5 8058   0.547   0.004  17.223  0.5045 -0.2698 -0.0750
  543TMC3    C6 8059   0.584   4.593  17.217 -0.1792  0.3606 -0.3287
  543TMC3     C 8060   0.800   0.160  17.009 -0.0287  0.3041 -0.2259
  543TMC3     O 8061   0.896   0.119  16.940  0.3676 -0.2801 -0.2211
  543TMC3     H 8062   0.818   4.625  16.984 -0.0471 -1.3802 -0.7478
  543TMC3    H1 8063   0.582   0.207  17.182  1.3959 -0.2927  3.1057
  543TMC3    H2 8064   0.538   4.515  17.277 -2.1012  1.4633 -0.3361
  543TMC3    C7 8065   0.461   0.041  17.331  0.1910  0.7491 -0.0866
  543TMC3    C8 8066   0.748   4.433  17.147  0.6282  0.3150  0.4553
  543TMC3    O1 8067   0.378   4.690  17.382  0.3429 -0.1733 -0.1386
  543TMC3    O2 8068   0.853   4.417  17.083  1.0344  0.2278 -0.7234
  544MPD2     C 8069   0.742   3.921  17.140  0.3818  0.2311  0.0968
  544MPD2    C1 8070   0.840   4.009  17.168  0.0637  0.3640 -0.9133
  544MPD2    C2 8071   0.813   4.143  17.184 -0.0956 -0.4393 -0.4453
  544MPD2    C3 8072   0.685   4.194  17.170  0.0989  0.5793 -0.2457
  544MPD2    C4 8073   0.580   4.104  17.148  0.4454  0.1737  0.1278
  544MPD2    C5 8074   0.616   3.971  17.121 -0.4941 -0.1649  0.8281
  544MPD2     H 8075   0.892   4.217  17.192 -1.4513  0.9797 -0.0439
  544MPD2    H1 8076   0.481   4.146  17.129  0.8173  0.6840 -0.6982
  544MPD2    H2 8077   0.756   3.813  17.135  0.3220  0.2954 -1.6163
  544MPD2    H3 8078   0.537   3.901  17.099  0.4872 -0.4609 -1.7231
  544MPD2     N 8079   0.657   4.332  17.176 -0.8937 -0.6195 -0.2029
  544MPD2    H5 8080   0.561   4.365  17.173 -0.9835 -0.9624 -1.0761
  544MPD2    N1 8081   0.965   3.950  17.190  0.1593  0.1695 -0.3278
  544MPD2    H7 8082   0.978   3.854  17.159  2.5380  0.8535 -1.4310
  545TMC3    C1 8083   1.189   3.925  17.267 -0.6899  0.2805 -1.2547
  545TMC3    C2 8084   1.206   3.817  17.191 -0.2443 -0.4489 -0.2752
  545TMC3    C3 8085   1.315   3.741  17.218  0.5021 -0.2669 -0.3125
  545TMC3    C4 8086   1.258   3.944  17.380  0.4004  0.2853 -0.7507
  545TMC3    C5 8087   1.365   3.868  17.404 -0.6857  0.4429 -0.9897
  545TMC3    C6 8088   1.401   3.770  17.316  0.0005 -0.5008  0.7182
  545TMC3     C 8089   1.068   4.011  17.258  0.3467 -0.5458 -0.3052
  545TMC3     O 8090   1.061   4.105  17.333 -0.7504 -0.0201 -0.4836
  545TMC3     H 8091   1.144   3.792  17.105 -0.1850 -0.2414 -0.3782
  545TMC3    H1 8092   1.254   4.027  17.451 -0.3221 -0.5198  0.1422
  545TMC3    H2 8093   1.497   3.720  17.323  0.8595  0.8222 -1.8325
  545TMC3    C7 8094   1.436   3.885  17.529 -0.0774 -0.0792  0.8636
  545TMC3    C8 8095   1.353   3.621  17.137 -0.2262 -0.6142  0.4388
  545TMC3    O1 8096   1.448   3.997  17.580 -0.6330 -0.4802  0.0093
  545TMC3    O2 8097   1.469   3.583  17.146  0.3239  0.0416  0.1653
  546MPD2     C 8098   2.875   0.268  17.493  0.0237 -0.0516 -0.8412
  546MPD2    C1 8099   2.775   0.326  17.412 -0.4732 -0.0882 -0.1848
  546MPD2    C2 8100   2.809   0.445  17.343 -1.4758 -0.8401 -0.1695
  546MPD2    C3 8101   2.940   0.490  17.346 -0.2697  0.5162  0.8508
  546MPD2    C4 8102   3.032   0.434  17.425 -0.7571  0.6923  0.0142
  546MPD2    C5 8103   2.994   0.332  17.511  0.3588 -0.6547  0.1840
  546MPD2     H 8104   2.738   0.501  17.285 -0.2430  0.4401 -0.4423
  546MPD2    H1 8105   3.131   0.477  17.440  0.6227 -2.3938 -0.2105
  546MPD2    H2 8106   2.844   0.186  17.557  0.6900  1.7847  1.8378
  546MPD2    H3 8107   3.061   0.288  17.584  1.0402 -1.5096 -0.9612
  546MPD2     N 8108   2.980   0.604  17.277 -0.3161 -0.1076  0.1035
  546MPD2    H5 8109   3.081   0.616  17.272 -0.4880  1.4276  0.4203
  546MPD2    N1 8110   2.644   0.268  17.417 -0.1831 -0.3317 -0.4561
  546MPD2    H7 8111   2.639   0.189  17.481  0.0867  1.1800  1.4336
  547TMC3    C1 8112   2.426   0.209  17.359 -0.7570 -0.0908 -0.7301
  547TMC3    C2 8113   2.305   0.249  17.304 -0.2861 -0.0453 -0.0516
  547TMC3    C3 8114   2.197   0.181  17.350 -0.9119  0.5836  0.7520
  547TMC3    C4 8115   2.430   0.101  17.441  0.5286  0.1552 -0.3186
  547TMC3    C5 8116   2.324   0.028  17.459 -0.1431 -0.1096  0.6787
  547TMC3    C6 8117   2.197   0.069  17.422  0.3425  0.1717 -0.7644
  547TMC3     C 8118   2.528   0.308  17.349 -0.2887  0.3771  0.5361
  547TMC3     O 8119   2.504   0.420  17.303  0.3066  0.0312 -0.4161
  547TMC3     H 8120   2.287   0.334  17.240 -2.7451 -0.8191 -0.4325
  547TMC3    H1 8121   2.522   0.056  17.478  1.5619  0.1467 -2.9533
  547TMC3    H2 8122   2.105   0.022  17.456  0.3357  1.9786  1.6700
  547TMC3    C7 8123   2.324   4.639  17.557 -0.2454  0.3053 -0.0848
  547TMC3    C8 8124   2.072   0.226  17.290 -0.0628 -0.2628 -0.1813
  547TMC3    O1 8125   2.387   4.643  17.664 -0.2141 -0.0401 -0.4948
  547TMC3    O2 8126   2.077   0.263  17.174 -0.5622  0.1218  0.1585
  548MPD2     C 8127   2.380   1.066  12.076  0.2711 -0.4075  0.5193
  548MPD2    C1 8128   2.346   0.962  12.166  0.4647 -0.4711  0.2894
  548MPD2    C2 8129   2.429   0.853  12.181  1.1676  0.7256  0.0130
  548MPD2    C3 8130   2.551   0.839  12.105  0.2914  0.4433  1.2362
  548MPD2    C4 8131   2.580   0.952  12.024  0.4498  0.1881 -0.4399
  548MPD2    C5 8132   2.491   1.053  12.002  0.2864  0.5019 -0.1936
  548MPD2     H 8133   2.410   0.764  12.240  0.4515  0.7064 -0.2532
  548MPD2    H1 8134   2.665   0.962  11.959  0.2341  0.7885 -0.6302
  548MPD2    H2 8135   2.311   1.149  12.058  1.9008  0.7524 -0.3459
  548MPD2    H3 8136   2.514   1.132  11.931 -0.1202  0.4715 -0.3586
  548MPD2     N 8137   2.643   0.736  12.129  0.5000  0.1961 -0.0020
  548MPD2    H5 8138   2.621   0.675  12.208 -0.2056 -0.5121 -0.7344
  548MPD2    N1 8139   2.212   0.969  12.219  0.3196  0.7444  0.5221
  548MPD2    H7 8140   2.168   1.045  12.168 -0.4857  1.2372  1.9589
  549TMC3    C1 8141   2.031   0.873  12.341  0.1248  0.0950  0.2031
  549TMC3    C2 8142   1.945   0.957  12.281 -0.1412  0.1148 -0.0940
  549TMC3    C3 8143   1.823   0.973  12.344  0.6891  0.5307  0.2145
  549TMC3    C4 8144   1.997   0.781  12.438 -0.0127 -0.0770  0.5139
  549TMC3    C5 8145   1.867   0.801  12.492 -0.8051  0.4772 -0.0353
  549TMC3    C6 8146   1.784   0.894  12.448 -0.1114 -0.1997  0.2576
  549TMC3     C 8147   2.169   0.890  12.313 -0.5658 -0.3133 -0.1451
  549TMC3     O 8148   2.242   0.838  12.395 -0.0266 -0.2579  0.3079
  549TMC3     H 8149   1.966   0.999  12.184  3.8198 -1.7700 -0.0266
  549TMC3    H1 8150   2.069   0.723  12.495 -1.0558 -1.2244  0.6757
  549TMC3    H2 8151   1.689   0.906  12.499 -0.3219  1.6218 -0.5660
  549TMC3    C7 8152   1.850   0.745  12.624 -0.1886  0.4328  0.0414
  549TMC3    C8 8153   1.741   1.084  12.304  0.2943 -0.1500  0.0638
  549TMC3    O1 8154   1.783   0.798  12.712 -0.5438  0.7824  0.1880
  549TMC3    O2 8155   1.626   1.096  12.347  0.7411 -0.1150 -0.0049
  550TMC3    C1 8156   0.295   2.932  11.907  0.1975 -0.7282  0.6373
  550TMC3    C2 8157   0.334   2.878  12.027  0.7211  0.6594  0.3428
  550TMC3    C3 8158   0.463   2.846  12.048 -0.2444 -0.5874  0.5456
  550TMC3    C4 8159   0.380   2.919  11.802 -0.2194  0.1240 -0.4375
  550TMC3    C5 8160   0.514   2.893  11.827  0.3172 -0.3891 -0.0811
  550TMC3    C6 8161   0.561   2.855  11.952 -0.0599  0.3396 -0.2456
  550TMC3     C 8162   0.237   3.068  11.927 -0.1050  0.0919  0.2757
  550TMC3     O 8163   0.197   3.094  12.043 -0.5149  0.3993  0.3245
  550TMC3     H 8164   0.275   2.894  12.116 -2.0521  0.6157 -1.4849
  550TMC3    H1 8165   0.334   2.941  11.707  1.9816 -0.6838 -1.6867
  550TMC3    H2 8166   0.660   2.817  11.974 -0.0692 -0.7514 -2.1330
  550TMC3    C7 8167   0.593   3.012  11.792  0.6206 -0.8203 -0.7470
  550TMC3    C8 8168   0.509   2.897  12.177  0.3810  0.2479 -0.0728
  550TMC3    O1 8169   0.647   3.065  11.887  0.2818 -0.3079  0.4266
  550TMC3    O2 8170   0.461   2.854  12.279 -0.4349 -0.7387 -0.5943
  551TMC3    C1 8171   3.752   1.202  13.073 -0.3713  0.3586 -0.4790
  551TMC3    C2 8172   3.808   1.287  12.980 -0.0171  0.0697 -0.3469
  551TMC3    C3 8173   3.900   1.380  13.015  0.2568  0.4421  0.6100
  551TMC3    C4 8174   3.791   1.215  13.203 -0.2049  0.0710 -0.1506
  551TMC3    C5 8175   3.888   1.309  13.235 -0.8364  0.3987  0.0389
  551TMC3    C6 8176   3.946   1.396  13.142  0.3533  0.8613 -0.0118
  551TMC3     C 8177   3.632   1.126  13.037 -0.1831  0.2868 -0.0282
  551TMC3     O 8178   3.609   1.098  12.913  0.3762  0.0409 -0.1896
  551TMC3     H 8179   3.769   1.291  12.879 -1.6616  1.5437  0.3442
  551TMC3    H1 8180   3.768   1.137  13.275  2.4805 -1.9387 -1.4875
  551TMC3    H2 8181   3.999   1.485  13.174  1.1317  0.3468  0.1205
  551TMC3    C7 8182   3.896   1.334  13.381 -0.4904  0.4722 -0.3376
  551TMC3    C8 8183   3.954   1.469  12.914  0.0925  0.5675 -0.1182
  551TMC3    O1 8184   3.796   1.298  13.444  0.6049 -0.1280  0.0314
  551TMC3    O2 8185   3.946   1.417  12.803 -0.5133  0.2806  0.2249
  552MPD2     C 8186   0.454   3.086  14.178  0.5352 -0.3024  0.0183
  552MPD2    C1 8187   0.576   3.033  14.156 -0.7590  0.2487  0.1561
  552MPD2    C2 8188   0.666   3.031  14.261 -0.1368  0.4116 -0.8482
  552MPD2    C3 8189   0.627   3.077  14.392 -0.2752  0.3746 -0.3172
  552MPD2    C4 8190   0.501   3.129  14.407  0.7285  0.4731  0.0019
  552MPD2    C5 8191   0.411   3.130  14.302  0.6004  0.4053 -0.4077
  552MPD2     H 8192   0.768   2.996  14.252  0.8333  3.1354 -0.4816
  552MPD2    H1 8193   0.470   3.179  14.498 -0.4356  1.3836 -0.8946
  552MPD2    H2 8194   0.382   3.090  14.096  0.3106 -2.1480  0.1149
  552MPD2    H3 8195   0.309   3.167  14.306  0.6595  0.3996  1.2139
  552MPD2     N 8196   0.716   3.081  14.501  0.0122 -0.3902 -0.6391
  552MPD2    H5 8197   0.680   3.099  14.594  0.0012 -0.2884 -0.6631
  552MPD2    N1 8198   0.618   2.974  14.036 -0.3149 -0.6094 -0.1683
  552MPD2    H7 8199   0.709   2.928  14.035 -0.0774 -0.1273 -0.8492
  553TMC3    C1 8200   0.605   2.873  13.827  0.5301 -0.3447  0.6373
  553TMC3    C2 8201   0.565   2.889  13.700  0.6440  0.1351 -0.5713
  553TMC3    C3 8202   0.550   2.779  13.623 -0.9348  0.1042  0.1596
  553TMC3    C4 8203   0.642   2.747  13.870  0.4279  0.1506  0.3735
  553TMC3    C5 8204   0.627   2.640  13.795  0.2271 -0.2704  0.0510
  553TMC3    C6 8205   0.589   2.657  13.668 -0.4306 -0.2041 -0.1472
  553TMC3     C 8206   0.541   2.964  13.921  0.3643  0.4768  0.4893
  553TMC3     O 8207   0.435   3.010  13.892  0.1787  0.0024 -0.6539
  553TMC3     H 8208   0.519   2.981  13.664 -0.4728  0.4622  1.6975
  553TMC3    H1 8209   0.647   2.739  13.978 -0.3194 -2.0835  0.2322
  553TMC3    H2 8210   0.581   2.570  13.603  0.7768  1.1739 -2.1401
  553TMC3    C7 8211   0.705   2.522  13.828 -1.0720 -0.2821 -0.5457
  553TMC3    C8 8212   0.604   2.808  13.492 -0.6704 -0.1508 -0.1574
  553TMC3    O1 8213   0.655   2.415  13.800  0.5718  0.0784 -0.2213
  553TMC3    O2 8214   0.706   2.877  13.494  0.8874  0.0801 -0.3525
  554TMC3    C1 8215   2.019   1.831  11.177 -0.7735 -0.5349 -0.5338
  554TMC3    C2 8216   1.955   1.859  11.060 -0.0279  0.3286 -0.1466
  554TMC3    C3 8217   2.000   1.972  10.994 -0.0494  0.8140  0.4079
  554TMC3    C4 8218   2.119   1.910  11.230  0.2398  0.2574 -0.2731
  554TMC3    C5 8219   2.164   2.018  11.153 -0.5893  0.4904  0.2683
  554TMC3    C6 8220   2.110   2.043  11.034 -0.3110  0.0607  0.0883
  554TMC3     C 8221   1.994   1.704  11.245 -0.3640  0.7417 -0.0162
  554TMC3     O 8222   1.884   1.679  11.291 -0.3770  0.3240  0.0121
  554TMC3     H 8223   1.875   1.796  11.023  0.6929  0.4332 -1.8499
  554TMC3    H1 8224   2.144   1.901  11.335  1.2774 -1.6856 -0.6920
  554TMC3    H2 8225   2.148   2.127  10.977  0.2635 -0.2117  0.0679
  554TMC3    C7 8226   2.247   2.109  11.227  0.1705  0.3151 -0.3668
  554TMC3    C8 8227   1.955   2.007  10.859 -0.2632 -0.2697 -0.2891
  554TMC3    O1 8228   2.262   2.090  11.348 -0.2896  0.1398 -0.0615
  554TMC3    O2 8229   2.028   2.084  10.799  0.2018 -0.5151 -0.2260
  555TMC3    C1 8230   1.326   1.738  15.015 -0.1577 -0.8372 -1.0662
  555TMC3    C2 8231   1.269   1.800  15.129  0.6396  0.0733 -0.0630
  555TMC3    C3 8232   1.300   1.751  15.254 -0.1052  0.5618  0.1121
  555TMC3    C4 8233   1.412   1.628  15.029 -0.0814  0.3019 -0.4938
  555TMC3    C5 8234   1.437   1.587  15.158  0.4418 -0.0401  0.3633
  555TMC3    C6 8235   1.383   1.643  15.270  0.2237  0.5050 -0.6511
  555TMC3     C 8236   1.331   1.821  14.891  0.6085  0.3038 -0.5140
  555TMC3     O 8237   1.252   1.914  14.895  0.3372 -0.0928 -0.0960
  555TMC3     H 8238   1.225   1.898  15.114 -2.0319 -1.0535  0.2933
  555TMC3    H1 8239   1.424   1.559  14.947 -0.3489  0.0654 -0.3338
  555TMC3    H2 8240   1.396   1.591  15.364 -2.9071  1.4032  0.2965
  555TMC3    C7 8241   1.457   1.444  15.179  0.6821 -0.4327  0.1688
  555TMC3    C8 8242   1.288   1.844  15.369 -0.5004 -0.2879  0.5961
  555TMC3    O1 8243   1.395   1.392  15.270 -0.7579  0.7000  0.1081
  555TMC3    O2 8244   1.215   1.934  15.355  0.5839 -0.1314  0.5080
  556MPD2     C 8245   4.084   4.557  11.081 -0.2631 -0.4925  0.1622
  556MPD2    C1 8246   4.122   4.423  11.083  0.5557 -0.2452 -0.3268
  556MPD2    C2 8247   4.101   4.357  10.961  0.5539  0.3481 -0.2114
  556MPD2    C3 8248   4.058   4.427  10.849 -0.0263 -0.1220 -0.1691
  556MPD2    C4 8249   4.009   4.554  10.859 -0.2588  0.3459  0.0615
  556MPD2    C5 8250   4.028   4.622  10.969 -0.5237  0.2870  0.3120
  556MPD2     H 8251   4.138   4.255  10.951  1.0374  0.6234 -1.2314
  556MPD2    H1 8252   3.977   4.610  10.772 -0.4539  1.4150  0.8224
  556MPD2    H2 8253   4.090   4.630  11.160 -2.0919  1.5259 -1.5433
  556MPD2    H3 8254   4.005   0.003  10.991  1.9662  1.3211 -1.9730
  556MPD2     N 8255   4.058   4.366  10.724  0.0162 -0.1289  0.8185
  556MPD2    H5 8256   4.076   4.266  10.721 -0.9708 -0.2531 -0.9827
  556MPD2    N1 8257   4.181   4.353  11.193  0.9399 -0.4967  0.7869
  556MPD2    H7 8258   4.182   4.253  11.179 -2.0827 -0.2094 -1.4474
  557TMC3    C1 8259   4.061   4.333  10.485  0.4116 -0.0409 -0.0768
  557TMC3    C2 8260   4.102   4.377  10.363  0.1156  0.0256  0.0550
  557TMC3    C3 8261   4.085   4.295  10.253  0.4710  0.0491 -0.8605
  557TMC3    C4 8262   3.977   4.226  10.492 -0.2521 -0.1332  0.4774
  557TMC3    C5 8263   3.954   4.152  10.381  0.0259 -0.2033 -0.0013
  557TMC3    C6 8264   4.001   4.188  10.261 -0.6407  0.3196 -0.2359
  557TMC3     C 8265   4.063   4.422  10.600  0.2234 -0.8548 -0.0724
  557TMC3     O 8266   4.062   4.539  10.575 -0.2604  0.3237  0.6803
  557TMC3     H 8267   4.174   4.459  10.360 -1.1987  1.1595 -0.6764
  557TMC3    H1 8268   3.924   4.199  10.582 -0.2089 -0.2648  0.4634
  557TMC3    H2 8269   3.955   4.132  10.180 -0.5660 -1.4360  0.9325
  557TMC3    C7 8270   3.818   4.096  10.383 -0.0600  0.5055  0.1246
  557TMC3    C8 8271   4.157   4.334  10.138  0.2385 -0.2505 -0.5956
  557TMC3    O1 8272   3.803   3.978  10.396 -0.1512  0.6646  0.5220
  557TMC3    O2 8273   4.203   4.446  10.141 -0.2374 -0.0477 -0.1873
  558TMC3    C1 8274   1.848   1.214  10.021  0.2377  0.4849 -0.0172
  558TMC3    C2 8275   1.746   1.166  10.096  0.6897  0.9879 -0.3457
  558TMC3    C3 8276   1.631   1.136  10.031 -0.0232  0.4995  0.4421
  558TMC3    C4 8277   1.832   1.256   9.888  0.9397 -0.0778 -0.0130
  558TMC3    C5 8278   1.704   1.232   9.838  0.0712  0.8130  0.8031
  558TMC3    C6 8279   1.605   1.164   9.899 -0.4999 -0.6808  0.1649
  558TMC3     C 8280   1.982   1.225  10.078 -1.0554 -0.6662 -0.0278
  558TMC3     O 8281   2.065   1.301  10.021  0.5050  0.0922 -0.5707
  558TMC3     H 8282   1.754   1.140  10.201 -0.4046 -0.5405 -0.6338
  558TMC3    H1 8283   1.917   1.302   9.838  1.5610 -0.6771  0.4785
  558TMC3    H2 8284   1.520   1.124   9.845 -1.2696  0.8058  0.2593
  558TMC3    C7 8285   1.704   1.271   9.695 -0.0085 -0.1358  0.0119
  558TMC3    C8 8286   1.518   1.071  10.091 -0.8814  0.0980  0.0644
  558TMC3    O1 8287   1.810   1.302   9.644 -0.7662 -0.2637  0.1200
  558TMC3    O2 8288   1.411   1.073  10.037  0.0438 -0.5387 -0.4054
  559MPD2     C 8289   1.736   1.728  10.212 -0.3061  0.8976  0.0783
  559MPD2    C1 8290   1.702   1.607  10.272  0.0454  0.2672  0.2292
  559MPD2    C2 8291   1.803   1.532  10.329 -0.2554  0.0249 -0.7169
  559MPD2    C3 8292   1.932   1.589  10.348 -0.4219 -0.0610  0.5194
  559MPD2    C4 8293   1.960   1.711  10.289 -0.4031  0.4857  0.0779
  559MPD2    C5 8294   1.866   1.775  10.214 -0.0495  0.4510  0.5501
  559MPD2     H 8295   1.781   1.439  10.379 -1.1118  1.1551  1.0194
  559MPD2    H1 8296   2.061   1.749  10.285  0.3164 -1.3116  1.1906
  559MPD2    H2 8297   1.657   1.794  10.177 -1.8311 -1.0711 -0.1530
  559MPD2    H3 8298   1.892   1.870  10.168  0.7089 -1.1030 -2.2756
  559MPD2     N 8299   2.035   1.520  10.420  0.9662  0.5446  0.0178
  559MPD2    H5 8300   2.007   1.431  10.460  0.1222 -0.3155 -2.4258
  559MPD2    N1 8301   1.564   1.573  10.285  0.0776 -0.3431 -0.2806
  559MPD2    H7 8302   1.491   1.636  10.255 -0.7101  0.2143  2.8286
  560TMC3    C1 8303   2.229   1.460  10.536 -0.1415  0.7279 -0.3873
  560TMC3    C2 8304   2.160   1.351  10.590  0.1737 -0.6647 -0.0114
  560TMC3    C3 8305   2.207   1.289  10.703  0.2397 -0.1272  0.1036
  560TMC3    C4 8306   2.331   1.511  10.605 -0.2635 -1.0032 -0.5898
  560TMC3    C5 8307   2.379   1.438  10.720  0.4489  0.0368  0.8063
  560TMC3    C6 8308   2.314   1.335  10.771  0.4630  0.3248  0.9786
  560TMC3     C 8309   2.159   1.557  10.461 -0.1762 -0.0297  0.3215
  560TMC3     O 8310   2.223   1.657  10.421  0.3808 -0.7482  0.5220
  560TMC3     H 8311   2.094   1.293  10.526  1.4023 -3.6715  1.4908
  560TMC3    H1 8312   2.374   1.610  10.591 -0.1080 -0.9778  0.0614
  560TMC3    H2 8313   2.345   1.275  10.856 -1.1709 -2.5791 -0.4323
  560TMC3    C7 8314   2.501   1.477  10.787 -0.8396 -0.2971  0.2602
  560TMC3    C8 8315   2.141   1.164  10.739 -0.2150 -0.6780 -0.2419
  560TMC3    O1 8316   2.520   1.416  10.893 -0.6632 -0.2820  0.5510
  560TMC3    O2 8317   2.024   1.149  10.707  0.4162  0.3631  0.4995
  561TMC3    C1 8318   4.585   0.736  11.341 -0.1840 -0.1945  0.2860
  561TMC3    C2 8319   4.508   0.751  11.455 -0.6180  0.6680 -0.0055
  561TMC3    C3 8320   4.501   0.878  11.509 -0.2670 -0.3983 -0.1057
  561TMC3    C4 8321   4.631   0.843  11.272 -0.5620 -0.1172 -0.0722
  561TMC3    C5 8322   4.611   0.971  11.327  0.3712  0.3104  0.3030
  561TMC3    C6 8323   4.550   0.986  11.442 -0.2698 -0.0722  0.1150
  561TMC3     C 8324   4.596   0.597  11.282 -0.5275  0.4360 -0.4502
  561TMC3     O 8325   4.516   0.518  11.332  0.5086  0.7315 -0.0539
  561TMC3     H 8326   4.469   0.666  11.511 -1.5194  1.5288  0.6761
  561TMC3    H1 8327   4.694   0.833  11.184 -1.7967  4.3838 -1.4746
  561TMC3    H2 8328   4.553   1.081  11.494  2.7855 -0.1965  0.1891
  561TMC3    C7 8329   4.697   1.083  11.276 -0.3852 -0.0537 -0.5572
  561TMC3    C8 8330   4.426   0.892  11.635  0.8904 -0.3221 -0.0543
  561TMC3    O1 8331   4.687   1.190  11.334 -0.1318  0.3209 -0.0680
  561TMC3    O2 8332   4.414   0.800  11.711 -0.0041  0.0955  0.5189
  562TMC3    C1 8333   1.157   1.603  16.299  0.2929 -0.6400  0.3413
  562TMC3    C2 8334   1.093   1.722  16.278 -0.0117  0.1123  0.6543
  562TMC3    C3 8335   1.073   1.766  16.160 -0.1685 -0.2287  0.5670
  562TMC3    C4 8336   1.192   1.524  16.192 -0.2242  0.0038 -1.4055
  562TMC3    C5 8337   1.156   1.567  16.065  0.9104  0.4268 -0.3986
  562TMC3    C6 8338   1.089   1.687  16.049 -0.3505  0.2905  0.8463
  562TMC3     C 8339   1.199   1.567  16.435 -0.5166  0.4408  0.0141
  562TMC3     O 8340   1.207   1.657  16.513  0.1771  0.6303  0.9670
  562TMC3     H 8341   1.048   1.767  16.366  1.1629 -0.4785  1.5505
  562TMC3    H1 8342   1.261   1.442  16.204  1.6441  1.7630 -0.2408
  562TMC3    H2 8343   1.073   1.730  15.951 -0.3893 -0.7296  0.4105
  562TMC3    C7 8344   1.182   1.493  15.946  0.3623 -0.5882  0.3552
  562TMC3    C8 8345   1.004   1.895  16.143 -0.1289  0.0335 -0.2945
  562TMC3    O1 8346   1.114   1.515  15.849 -0.1184 -0.3841 -0.0817
  562TMC3    O2 8347   0.946   1.934  16.243  0.0012 -0.2429 -0.4103
  563MPD2     C 8348   3.265   2.611  15.751  0.0516 -0.2872  0.1638
  563MPD2    C1 8349   3.272   2.746  15.758 -0.2382 -0.2213  0.3583
  563MPD2    C2 8350   3.388   2.812  15.796  0.0798 -0.1082  0.4790
  563MPD2    C3 8351   3.492   2.726  15.840  0.3663  0.0272  0.0890
  563MPD2    C4 8352   3.480   2.589  15.840 -0.3766 -0.0079 -0.0300
  563MPD2    C5 8353   3.367   2.530  15.796  0.2160  0.1933  0.6025
  563MPD2     H 8354   3.406   2.918  15.810 -0.4176 -0.1682  1.5652
  563MPD2    H1 8355   3.548   2.511  15.871  0.4321  0.1498 -1.3852
  563MPD2    H2 8356   3.175   2.564  15.715  1.5410 -2.1254 -1.1860
  563MPD2    H3 8357   3.337   2.426  15.805 -0.3228  0.2492 -0.5363
  563MPD2     N 8358   3.603   2.793  15.887  0.4612 -0.5207  0.6633
  563MPD2    H5 8359   3.596   2.894  15.884  0.3411 -0.5386  0.2937
  563MPD2    N1 8360   3.151   2.818  15.753 -0.1221 -1.2638 -0.3914
  563MPD2    H7 8361   3.073   2.756  15.769 -0.0213 -0.9943  1.1893
  564TMC3    C1 8362   3.052   3.006  15.829 -0.6850 -0.1900 -0.2849
  564TMC3    C2 8363   2.951   2.917  15.850 -0.5922 -0.7284  0.2454
  564TMC3    C3 8364   2.927   2.867  15.976 -0.4767  0.1080 -0.2965
  564TMC3    C4 8365   3.124   3.051  15.938 -0.3722  0.0627  0.7797
  564TMC3    C5 8366   3.099   3.009  16.061 -0.6382  0.1330 -0.0439
  564TMC3    C6 8367   2.999   2.915  16.085  0.2586  0.3425  0.0458
  564TMC3     C 8368   3.145   2.953  15.733 -0.5473 -0.0955 -0.0501
  564TMC3     O 8369   3.234   3.028  15.693 -0.5500  0.4930 -0.1223
  564TMC3     H 8370   2.908   2.879  15.758  0.8653  0.6226 -0.9979
  564TMC3    H1 8371   3.214   3.110  15.931 -0.3103 -0.0792  0.3479
  564TMC3    H2 8372   2.987   2.866  16.181  2.7004 -1.4883 -0.5837
  564TMC3    C7 8373   3.219   2.979  16.136 -0.7190 -0.2462 -0.3047
  564TMC3    C8 8374   2.928   2.722  15.991 -0.1807 -0.6657  0.4759
  564TMC3    O1 8375   3.302   3.061  16.159  0.1854  0.2291 -0.7686
  564TMC3    O2 8376   3.007   2.684  16.075  0.1854  0.1476  0.1656
  565TMC3    C1 8377   3.556   1.040   9.578 -0.5069 -0.1583 -0.8073
  565TMC3    C2 8378   3.558   0.909   9.624 -0.3132 -0.2059  0.3453
  565TMC3    C3 8379   3.437   0.849   9.644  0.2289  0.2127 -0.1763
  565TMC3    C4 8380   3.446   1.107   9.552 -0.1048  0.0997  0.8173
  565TMC3    C5 8381   3.337   1.043   9.586 -0.4686 -0.5353  0.8602
  565TMC3    C6 8382   3.322   0.910   9.608  0.6434 -0.3789 -0.1140
  565TMC3     C 8383   3.677   1.107   9.533  0.6867  0.8851 -0.5034
  565TMC3     O 8384   3.661   1.197   9.453  0.4652 -0.0500  0.0756
  565TMC3     H 8385   3.643   0.855   9.662  0.6448  0.6980 -0.5182
  565TMC3    H1 8386   3.447   1.210   9.521  2.3983  0.4203  1.9150
  565TMC3    H2 8387   3.230   0.863   9.639 -0.1806 -0.4041 -2.6314
  565TMC3    C7 8388   3.217   1.119   9.551  0.0365 -0.0592  0.7956
  565TMC3    C8 8389   3.438   0.712   9.697  0.0344  0.3142  0.5766
  565TMC3    O1 8390   3.223   1.201   9.465 -0.1719  0.3765 -0.3604
  565TMC3    O2 8391   3.542   0.675   9.745  0.0117  0.1074  0.2445
  566MPD2     C 8392   0.742   1.785  14.388 -0.3868 -0.3758  0.1363
  566MPD2    C1 8393   0.819   1.793  14.267 -0.6462 -0.3390  0.2207
  566MPD2    C2 8394   0.749   1.759  14.153 -0.0828  0.0740 -0.0059
  566MPD2    C3 8395   0.615   1.716  14.151  0.1344  0.0074  0.2744
  566MPD2    C4 8396   0.540   1.709  14.263  0.0985  0.8755 -0.8616
  566MPD2    C5 8397   0.611   1.733  14.382 -0.3875  0.1873  0.0556
  566MPD2     H 8398   0.804   1.755  14.060  0.3860 -1.8934  0.3605
  566MPD2    H1 8399   0.434   1.684  14.266  0.5534 -1.2013 -2.2478
  566MPD2    H2 8400   0.775   1.811  14.488 -0.2723  1.4532 -0.3753
  566MPD2    H3 8401   0.561   1.714  14.476  1.7225  2.2102  1.5989
  566MPD2     N 8402   0.567   1.668  14.025 -0.6764 -0.3672 -0.9300
  566MPD2    H5 8403   0.631   1.674  13.946 -3.3880 -0.2816 -3.1059
  566MPD2    N1 8404   0.956   1.830  14.272  0.4202 -0.4388 -0.7704
  566MPD2    H7 8405   0.999   1.857  14.361 -0.0006 -1.9878 -0.0985
  567TMC3    C1 8406   1.182   1.831  14.202  0.4289  0.2433  0.0110
  567TMC3    C2 8407   1.261   1.849  14.090 -0.6947  0.0368  0.5984
  567TMC3    C3 8408   1.367   1.761  14.074 -0.7563 -0.3348  0.4933
  567TMC3    C4 8409   1.212   1.735  14.300 -0.0289  0.0144 -0.7715
  567TMC3    C5 8410   1.324   1.663  14.282 -0.1629 -0.2424 -0.3678
  567TMC3    C6 8411   1.400   1.666  14.172  0.3426  0.6555 -0.2769
  567TMC3     C 8412   1.044   1.844  14.167 -0.1156 -0.5656 -0.9297
  567TMC3     O 8413   1.014   1.861  14.045  0.2011  0.0662  0.2176
  567TMC3     H 8414   1.237   1.918  14.011  1.7114  0.2920  0.0831
  567TMC3    H1 8415   1.143   1.735  14.384  0.6567  0.0719 -0.2106
  567TMC3    H2 8416   1.480   1.594  14.159  0.5241  0.8735 -0.3593
  567TMC3    C7 8417   1.387   1.581  14.388 -0.6818 -0.3903 -0.3946
  567TMC3    C8 8418   1.393   1.728  13.935  0.1062  0.6740  0.8389
  567TMC3    O1 8419   1.503   1.540  14.376  0.1037  0.1129  0.1830
  567TMC3    O2 8420   1.330   1.784  13.846 -0.3069  0.5363  0.2940
  568MPD2     C 8421   3.642   1.388  16.313 -0.6302 -0.3130  0.1267
  568MPD2    C1 8422   3.641   1.503  16.392  0.4048 -0.0205  0.6744
  568MPD2    C2 8423   3.554   1.599  16.372  0.7877 -0.2568  0.3082
  568MPD2    C3 8424   3.471   1.594  16.262 -0.0124 -0.6879 -0.6675
  568MPD2    C4 8425   3.473   1.486  16.176  0.6728 -0.0228  0.3677
  568MPD2    C5 8426   3.556   1.384  16.210  0.2260 -0.2466  0.6910
  568MPD2     H 8427   3.562   1.690  16.430 -0.5215  0.2755 -0.3705
  568MPD2    H1 8428   3.411   1.465  16.089  1.6487 -0.5175 -0.2058
  568MPD2    H2 8429   3.713   1.308  16.331  1.3937  1.3699 -0.3851
  568MPD2    H3 8430   3.557   1.300  16.143 -0.0620  0.5765 -0.3483
  568MPD2     N 8431   3.380   1.700  16.243 -0.3505 -0.2820 -0.1123
  568MPD2    H5 8432   3.370   1.761  16.323  0.9350 -0.2652  0.0364
  568MPD2    N1 8433   3.743   1.509  16.493  0.3207 -0.3226  0.4908
  568MPD2    H7 8434   3.818   1.442  16.477 -0.0889 -1.1324  2.0152
  569TMC3    C1 8435   3.216   1.832  16.135  0.2587 -0.1636  0.0753
  569TMC3    C2 8436   3.165   1.864  16.257 -1.3649  0.4013  0.2374
  569TMC3    C3 8437   3.113   1.996  16.268 -0.0355 -0.2171 -0.1752
  569TMC3    C4 8438   3.206   1.911  16.028  0.6017  0.3426  0.8225
  569TMC3    C5 8439   3.156   2.035  16.042 -0.1332 -0.4342  0.4533
  569TMC3    C6 8440   3.106   2.079  16.157  0.6269 -0.1765  0.5098
  569TMC3     C 8441   3.314   1.722  16.121 -0.1811 -0.0313  0.0189
  569TMC3     O 8442   3.344   1.685  16.006  0.3477 -0.0337 -0.0225
  569TMC3     H 8443   3.178   1.804  16.347 -0.1104 -2.7539 -2.0689
  569TMC3    H1 8444   3.233   1.867  15.932 -1.1988 -0.4611  0.6644
  569TMC3    H2 8445   3.049   2.171  16.169 -0.0160 -0.1527 -2.7609
  569TMC3    C7 8446   3.087   2.091  15.931 -0.1826  0.2041 -0.2616
  569TMC3    C8 8447   3.028   2.033  16.379  0.5590 -0.7243  0.2960
  569TMC3    O1 8448   3.064   2.012  15.839  0.2220  0.3593 -0.0611
  569TMC3    O2 8449   2.988   1.940  16.451 -0.2019 -0.4685 -0.3604
  570TMC3    C1 8450   2.556   0.612  16.121 -0.6300 -0.4081 -0.6653
  570TMC3    C2 8451   2.677   0.587  16.052  0.8214 -0.2643  0.4837
  570TMC3    C3 8452   2.664   0.620  15.924  0.8593  0.1455  0.2617
  570TMC3    C4 8453   2.433   0.659  16.073 -0.7436 -0.0458  0.2926
  570TMC3    C5 8454   2.428   0.672  15.936 -0.0108 -0.5010  0.0868
  570TMC3    C6 8455   2.549   0.660  15.865 -0.7910  0.0306 -0.3394
  570TMC3     C 8456   2.582   0.633  16.268  0.5977  0.1311 -0.1502
  570TMC3     O 8457   2.658   0.550  16.314 -0.4996 -0.0947 -0.6486
  570TMC3     H 8458   2.776   0.575  16.096  0.5471  0.8515  1.4102
  570TMC3    H1 8459   2.355   0.698  16.137  0.2713  1.6231  0.5248
  570TMC3    H2 8460   2.546   0.683  15.759  4.4246 -2.5038 -1.0384
  570TMC3    C7 8461   2.325   0.757  15.884 -0.0358 -0.4786  0.3065
  570TMC3    C8 8462   2.789   0.632  15.849  0.3364  0.1204  0.2919
  570TMC3    O1 8463   2.281   0.835  15.972 -0.3936  0.3573 -0.0326
  570TMC3    O2 8464   2.798   0.738  15.789 -0.9891  0.2924 -0.2944
  571MPD2     C 8465   0.720   1.631   0.390  0.3806  0.1918  0.4550
  571MPD2    C1 8466   0.731   1.683   0.520 -0.5989 -0.6935 -0.4440
  571MPD2    C2 8467   0.774   1.814   0.526  0.4835 -0.5888 -0.1989
  571MPD2    C3 8468   0.816   1.885   0.409 -0.3593  0.4142  0.2711
  571MPD2    C4 8469   0.816   1.821   0.288  0.0861  0.3177 -0.2092
  571MPD2    C5 8470   0.761   1.698   0.279 -0.2236 -0.2577  0.4291
  571MPD2     H 8471   0.779   1.857   0.625 -1.5078  1.9755 -1.2021
  571MPD2    H1 8472   0.834   1.872   0.194  1.2987  0.0955 -0.0960
  571MPD2    H2 8473   0.706   1.525   0.372  1.5924  0.2631 -0.9366
  571MPD2    H3 8474   0.756   1.645   0.184 -1.2949 -1.3873  1.1084
  571MPD2     N 8475   0.861   2.018   0.416  0.0459 -0.1767  0.0166
  571MPD2    H5 8476   0.867   2.056   0.322  1.9670 -0.2055  0.1345
  571MPD2    N1 8477   0.702   1.611   0.637  0.0924  0.2803  0.6606
  571MPD2    H7 8478   0.697   1.511   0.623 -2.2042  0.3408  1.0535
  572TMC3    C1 8479   0.950   2.227   0.482 -0.2786  0.4728 -0.4690
  572TMC3    C2 8480   0.994   2.299   0.589 -0.7256  0.1966 -0.6578
  572TMC3    C3 8481   0.998   2.433   0.572 -0.7936 -0.1663  0.0841
  572TMC3    C4 8482   0.929   2.277   0.355  0.3177  0.0584  0.0004
  572TMC3    C5 8483   0.948   2.415   0.341  0.0253  0.3176  0.4534
  572TMC3    C6 8484   0.983   2.492   0.453  0.2728 -0.2730  0.9163
  572TMC3     C 8485   0.909   2.090   0.522  0.3470  0.2320 -0.2581
  572TMC3     O 8486   0.917   2.057   0.639 -0.0378  0.0336 -0.1813
  572TMC3     H 8487   0.991   2.262   0.691  0.4439  2.2080  0.1090
  572TMC3    H1 8488   0.897   2.211   0.275 -1.1013 -1.0356  1.4877
  572TMC3    H2 8489   0.983   2.600   0.443  0.8493 -0.6712 -3.3500
  572TMC3    C7 8490   0.905   2.493   0.226 -0.6158 -0.3044 -0.7228
  572TMC3    C8 8491   1.027   2.525   0.683  0.3660 -0.6049  0.4068
  572TMC3    O1 8492   0.924   2.615   0.230 -0.1872 -0.5808 -0.4767
  572TMC3    O2 8493   1.011   2.641   0.655  0.2295 -0.1907 -0.0887
  573MPD2     C 8494   1.847   3.260   1.015  0.3676  0.4652 -0.5648
  573MPD2    C1 8495   1.967   3.317   0.984  0.1740 -0.1366 -0.1431
  573MPD2    C2 8496   2.014   3.307   0.857 -0.4876  0.4173 -0.6450
  573MPD2    C3 8497   1.942   3.231   0.762 -0.0462 -0.3999  0.2669
  573MPD2    C4 8498   1.824   3.162   0.801  1.1398  0.3018 -0.7302
  573MPD2    C5 8499   1.781   3.177   0.928 -0.0890 -0.0881  0.3726
  573MPD2     H 8500   2.109   3.356   0.839 -0.7909  2.1218  2.5489
  573MPD2    H1 8501   1.771   3.098   0.731 -1.1052  1.3345  0.0187
  573MPD2    H2 8502   1.809   3.267   1.116  0.3335 -0.6353 -0.5010
  573MPD2    H3 8503   1.693   3.124   0.962  1.0414 -0.9390  1.9876
  573MPD2     N 8504   1.980   3.221   0.623 -0.5255  0.3624  0.0898
  573MPD2    H5 8505   1.928   3.153   0.569 -0.5702  2.0721 -2.0247
  573MPD2    N1 8506   2.016   3.405   1.080 -0.2303 -0.2447 -0.5697
  573MPD2    H7 8507   1.981   3.400   1.175  0.2381  2.4576 -0.2494
  574TMC3    C1 8508   2.082   3.259   0.411  0.4957  0.1761  0.0903
  574TMC3    C2 8509   1.963   3.288   0.354 -0.1233 -0.8969 -0.1628
  574TMC3    C3 8510   1.962   3.361   0.238 -0.3503 -0.2660  0.1118
  574TMC3    C4 8511   2.197   3.304   0.357  0.3500  0.9324  0.1090
  574TMC3    C5 8512   2.191   3.364   0.233  0.0223 -0.4846 -0.3132
  574TMC3    C6 8513   2.081   3.404   0.173  0.5166 -0.5281 -0.7405
  574TMC3     C 8514   2.082   3.279   0.558 -0.8649  0.1330  0.6532
  574TMC3     O 8515   2.161   3.362   0.606  0.0288  0.0097  0.6688
  574TMC3     H 8516   1.867   3.279   0.403  0.1875  0.7915  0.7284
  574TMC3    H1 8517   2.293   3.291   0.405  1.1634 -0.6322 -1.9646
  574TMC3    H2 8518   2.089   3.473   0.090 -1.0132 -1.1029 -1.3870
  574TMC3    C7 8519   2.321   3.400   0.178 -0.2682  0.2685 -0.0647
  574TMC3    C8 8520   1.860   3.463   0.258 -0.0464  1.0090 -0.9503
  574TMC3    O1 8521   2.322   3.398   0.056 -0.3357 -0.3298  0.2284
  574TMC3    O2 8522   1.854   3.505   0.371 -0.1166 -0.1666 -0.0121
  575TMC3    C1 8523   3.939   0.079   9.848 -0.6550  0.0031 -0.0491
  575TMC3    C2 8524   3.911   4.675   9.899 -0.0233  0.0419 -1.0484
  575TMC3    C3 8525   3.780   4.655   9.935 -0.2062  0.4602 -1.2178
  575TMC3    C4 8526   3.851   0.177   9.833 -0.3806 -0.5011 -0.5075
  575TMC3    C5 8527   3.721   0.144   9.857  0.2878 -0.0326 -0.1756
  575TMC3    C6 8528   3.682   0.030   9.921 -0.6047  0.1862  0.2445
  575TMC3     C 8529   4.078   0.109   9.805 -0.0163 -0.1508 -0.0354
  575TMC3     O 8530   4.101   0.214   9.738  0.1150  0.1199  0.3384
  575TMC3     H 8531   3.976   4.589   9.905  0.8749  0.7614 -0.4484
  575TMC3    H1 8532   3.873   0.276   9.794  0.1165 -1.1590 -1.8907
  575TMC3    H2 8533   3.584   0.010   9.961 -1.3714 -0.0224 -1.7396
  575TMC3    C7 8534   3.622   0.246   9.830  0.8049  0.3212 -0.5560
  575TMC3    C8 8535   3.732   4.523   9.987  0.0873  0.5324 -0.0002
  575TMC3    O1 8536   3.667   0.352   9.783  0.4758  0.4465 -0.4421
  575TMC3    O2 8537   3.632   4.527  10.057  0.0037 -0.5418 -0.3328
  576MPD2     C 8538   3.279   1.684  11.937  0.8742 -0.3305 -0.7382
  576MPD2    C1 8539   3.364   1.605  12.012  0.0656  0.4237  0.0863
  576MPD2    C2 8540   3.323   1.539  12.124 -0.3279  1.1914 -0.7581
  576MPD2    C3 8541   3.188   1.546  12.159  0.4058 -0.0668 -0.8520
  576MPD2    C4 8542   3.100   1.624  12.086  0.5006 -0.0307  0.1009
  576MPD2    C5 8543   3.150   1.695  11.979 -0.1870  0.5890 -0.1909
  576MPD2     H 8544   3.390   1.473  12.178 -2.4728  0.9278  1.5960
  576MPD2    H1 8545   2.993   1.623  12.102  0.3350 -2.9173 -1.1160
  576MPD2    H2 8546   3.298   1.721  11.837  0.0271 -2.4196 -1.6813
  576MPD2    H3 8547   3.081   1.755  11.922  1.7232  2.1613 -0.8580
  576MPD2     N 8548   3.155   1.456  12.259 -0.3942 -0.3527  0.1183
  576MPD2    H5 8549   3.232   1.404  12.300  1.6091  0.9716 -1.9445
  576MPD2    N1 8550   3.505   1.605  11.983 -0.4425  0.3047  0.0868
  576MPD2    H7 8551   3.568   1.554  12.045 -0.0604 -1.6807 -1.9538
  577TMC3    C1 8552   3.712   1.646  11.868 -0.3812  0.1213 -0.8393
  577TMC3    C2 8553   3.765   1.523  11.895  0.4201  0.0214 -0.2565
  577TMC3    C3 8554   3.896   1.508  11.853 -0.2830 -0.6308 -0.1900
  577TMC3    C4 8555   3.776   1.740  11.798 -0.4260 -0.6222 -0.9557
  577TMC3    C5 8556   3.910   1.722  11.774 -0.4260  0.2668  0.1795
  577TMC3    C6 8557   3.976   1.607  11.799 -0.7134 -0.2938  0.3601
  577TMC3     C 8558   3.570   1.675  11.891 -0.0800  0.3767  0.6744
  577TMC3     O 8559   3.530   1.766  11.822  0.6285 -0.3329  0.3010
  577TMC3     H 8560   3.708   1.436  11.924  1.1133 -0.4764 -0.3755
  577TMC3    H1 8561   3.737   1.839  11.775 -0.9337 -0.7764 -0.7700
  577TMC3    H2 8562   4.075   1.580  11.764 -1.0042  0.6686 -1.2267
  577TMC3    C7 8563   3.974   1.797  11.676 -0.8109 -0.0895 -0.0312
  577TMC3    C8 8564   3.956   1.389  11.901 -0.5374 -0.0593  0.0975
  577TMC3    O1 8565   4.086   1.850  11.684 -0.0431 -0.2255  0.4436
  577TMC3    O2 8566   3.925   1.351  12.011 -0.4660 -0.3200  0.0987
  578MPD2     C 8567   2.304   1.425   0.931 -0.2293 -0.5761 -0.1547
  578MPD2    C1 8568   2.383   1.363   0.835  0.5855 -0.0853 -0.1236
  578MPD2    C2 8569   2.492   1.287   0.879  0.0535  0.5246  0.3058
  578MPD2    C3 8570   2.531   1.292   1.013  0.4897 -0.5307  0.9404
  578MPD2    C4 8571   2.440   1.342   1.105  0.1259 -0.0847  0.7876
  578MPD2    C5 8572   2.332   1.404   1.061  0.8486  0.3620 -0.1657
  578MPD2     H 8573   2.557   1.237   0.808 -1.3556  2.3307 -2.2529
  578MPD2    H1 8574   2.443   1.341   1.213 -2.3871 -2.4366  0.8350
  578MPD2    H2 8575   2.218   1.482   0.897 -0.3384 -0.8438 -0.3375
  578MPD2    H3 8576   2.274   1.453   1.138 -0.8120 -0.1048 -1.1212
  578MPD2     N 8577   2.650   1.224   1.046  0.3129  0.4560  0.1076
  578MPD2    H5 8578   2.696   1.172   0.972 -1.6314  0.0700 -0.8256
  578MPD2    N1 8579   2.353   1.388   0.701 -0.1526  0.2061  0.1478
  578MPD2    H7 8580   2.287   1.462   0.680 -0.3956  0.3305  1.3415
  579TMC3    C1 8581   2.827   1.172   1.180  0.4976  0.7849  0.2262
  579TMC3    C2 8582   2.926   1.230   1.251  0.5242  0.0494 -0.0028
  579TMC3    C3 8583   3.049   1.179   1.223  0.4628  0.6529  0.5677
  579TMC3    C4 8584   2.840   1.054   1.111 -0.6495 -0.1352  0.1296
  579TMC3    C5 8585   2.962   0.993   1.111  0.4131 -1.0424 -0.1098
  579TMC3    C6 8586   3.068   1.057   1.168  0.7598  0.3272 -0.2366
  579TMC3     C 8587   2.704   1.245   1.173  0.0063 -0.8231  0.0345
  579TMC3     O 8588   2.682   1.326   1.263 -0.2609 -0.0523 -0.2114
  579TMC3     H 8589   2.911   1.331   1.288 -0.7076  0.5525 -1.8721
  579TMC3    H1 8590   2.754   1.013   1.061 -1.7774 -1.1151  2.8843
  579TMC3    H2 8591   3.168   1.024   1.143  0.7294  2.5540 -3.3754
  579TMC3    C7 8592   2.996   0.870   1.040 -0.4615 -0.0145  0.3729
  579TMC3    C8 8593   3.163   1.252   1.264  0.2565 -0.0217  0.6092
  579TMC3    O1 8594   3.111   0.829   1.048  0.3739 -0.7050  0.5409
  579TMC3    O2 8595   3.268   1.215   1.219  0.0120  0.4948  0.4668
  580TMC3    C1 8596   1.621   0.558  11.958  0.8220 -0.2530 -0.4313
  580TMC3    C2 8597   1.679   0.672  12.001  0.2367  0.3998  0.3565
  580TMC3    C3 8598   1.803   0.670  12.048 -0.6418 -0.1495 -1.1845
  580TMC3    C4 8599   1.680   0.432  11.966 -0.1256  0.3148  0.0088
  580TMC3    C5 8600   1.812   0.438  12.010 -0.1767  0.1687  0.7080
  580TMC3    C6 8601   1.874   0.555  12.043  0.5122 -0.4459 -0.2790
  580TMC3     C 8602   1.533   0.573  11.844 -0.4571  0.1002  0.1186
  580TMC3     O 8603   1.482   0.478  11.792 -0.3801  0.4488 -0.2020
  580TMC3     H 8604   1.615   0.760  11.999  0.1152  0.3014 -0.0578
  580TMC3    H1 8605   1.629   0.348  11.920 -2.8658  1.8064  0.2861
  580TMC3    H2 8606   1.969   0.552  12.096  0.1780 -1.3787  0.2831
  580TMC3    C7 8607   1.870   0.306  12.061  0.0188 -0.0071 -0.0488
  580TMC3    C8 8608   1.882   0.782  11.999 -1.1107 -1.3616  0.5745
  580TMC3    O1 8609   1.955   0.329  12.144 -0.5282  0.1345 -0.1727
  580TMC3    O2 8610   1.826   0.893  11.984 -0.1362 -0.3294  0.1469
  581MPD2     C 8611   0.110   4.266  15.046  0.6806  0.0963 -0.2964
  581MPD2    C1 8612   4.707   4.222  15.089  0.4489 -0.3071 -0.6185
  581MPD2    C2 8613   4.597   4.302  15.056  0.0344 -0.5658  0.3687
  581MPD2    C3 8614   4.616   4.417  14.975  0.0377 -0.3442  0.0933
  581MPD2    C4 8615   0.021   4.453  14.934 -0.2830  0.3819 -0.2621
  581MPD2    C5 8616   0.130   4.371  14.955  0.2866  0.0499  0.1290
  581MPD2     H 8617   4.497   4.269  15.083  0.8136 -2.6710  0.6784
  581MPD2    H1 8618   0.036   4.531  14.861  0.3424 -0.7353 -1.3229
  581MPD2    H2 8619   0.199   4.212  15.077  1.6220 -0.6410 -4.2770
  581MPD2    H3 8620   0.225   4.395  14.909 -0.0666  0.1210 -0.5682
  581MPD2     N 8621   4.505   4.495  14.949 -0.3176 -0.3792  0.8872
  581MPD2    H5 8622   4.413   4.461  14.978 -1.0312 -1.8568 -3.0702
  581MPD2    N1 8623   4.702   4.112  15.182  0.1754 -0.3489  0.0686
  581MPD2    H7 8624   0.064   4.057  15.195 -2.3977 -4.2071  0.4205
  582TMC3    C1 8625   4.611   3.976  15.345  0.6263  0.9550  0.0727
  582TMC3    C2 8626   4.687   4.015  15.449  0.0181  0.0755  0.7183
  582TMC3    C3 8627   4.644   4.007  15.577  0.2182 -0.8370  0.2568
  582TMC3    C4 8628   4.473   3.948  15.375 -0.3812  0.0752  0.1895
  582TMC3    C5 8629   4.432   3.942  15.504  0.0112 -0.3246  0.7192
  582TMC3    C6 8630   4.519   3.963  15.606  0.2354  0.2353  0.1664
  582TMC3     C 8631   4.594   4.086  15.253  0.5989 -0.8384 -0.1023
  582TMC3     O 8632   4.487   4.145  15.260  0.5253 -0.0315 -0.5496
  582TMC3     H 8633   0.052   4.068  15.414 -0.2549 -1.0413 -1.6467
  582TMC3    H1 8634   4.405   3.916  15.298 -1.0553 -1.5592  1.4687
  582TMC3    H2 8635   4.479   3.963  15.707  0.2435  2.0296  0.1572
  582TMC3    C7 8636   4.307   4.002  15.521  0.1603 -0.4722  1.0683
  582TMC3    C8 8637   4.704   4.114  15.666 -0.5409 -0.5291  0.3808
  582TMC3    O1 8638   4.253   3.993  15.634  0.2224  0.5268 -0.0403
  582TMC3    O2 8639   4.627   4.172  15.739 -0.2195 -0.4247  0.3948
  583MPD2     C 8640   4.663   1.525  17.097 -0.2487  0.5609  0.8385
  583MPD2    C1 8641   4.615   1.642  17.044 -0.3657 -0.1488  0.1988
  583MPD2    C2 8642   4.601   1.754  17.123 -1.4935 -0.3534  0.3997
  583MPD2    C3 8643   4.649   1.765  17.251  0.6050  0.0006 -0.3132
  583MPD2    C4 8644   4.710   1.652  17.293 -0.5562 -0.6456 -0.3751
  583MPD2    C5 8645   4.700   1.528  17.227  0.6045 -0.5847 -0.3253
  583MPD2     H 8646   4.578   1.846  17.071 -1.5083 -0.4262  0.2768
  583MPD2    H1 8647   0.044   1.643  17.385  0.5464 -0.6035 -1.0344
  583MPD2    H2 8648   4.653   1.428  17.049  2.0926  0.4783  0.5365
  583MPD2    H3 8649   0.010   1.435  17.271 -1.3096  0.2332  2.8035
  583MPD2     N 8650   4.660   1.892  17.312 -0.2711 -0.0696  0.1877
  583MPD2    H5 8651   4.631   1.968  17.251 -0.1950 -1.6713 -1.8408
  583MPD2    N1 8652   4.574   1.649  16.911 -0.3829 -0.6896 -0.4762
  583MPD2    H7 8653   4.531   1.736  16.881  1.9987  0.2446 -1.1293
  584TMC3    C1 8654   0.008   2.060  17.459 -0.0613  0.3560 -0.4784
  584TMC3    C2 8655   4.629   2.134  17.407 -0.0432 -0.2326 -0.3028
  584TMC3    C3 8656   4.623   2.265  17.448  0.2771  0.4721  0.0123
  584TMC3    C4 8657   0.080   2.105  17.563  0.0513  0.1672 -0.2908
  584TMC3    C5 8658   0.068   2.231  17.608  0.1007 -0.2324  0.6552
  584TMC3    C6 8659   4.693   2.310  17.553 -0.0567  0.1252  0.3841
  584TMC3     C 8660   0.006   1.919  17.431  0.1648  0.0588  0.0338
  584TMC3     O 8661   0.053   1.833  17.508  0.7313 -0.6235 -0.2759
  584TMC3     H 8662   4.562   2.102  17.328 -0.4007  3.7347 -1.6243
  584TMC3    H1 8663   0.150   2.040  17.615 -0.0735  1.1348  1.0767
  584TMC3    H2 8664   4.672   2.399  17.611  0.1669  1.3797 -1.4316
  584TMC3    C7 8665   0.128   2.267   0.045  0.4175  0.2024 -0.7462
  584TMC3    C8 8666   4.530   2.353  17.377  0.6928  0.3209 -0.8172
  584TMC3    O1 8667   0.142   2.181   0.132 -0.9738  0.3892  0.2394
  584TMC3    O2 8668   4.468   2.312  17.280 -0.1880  0.9181  0.1404
  585MPD2     C 8669   4.067   0.949   0.596  0.3659  0.2218  0.4032
  585MPD2    C1 8670   4.194   0.930   0.533  0.6803 -0.2389 -0.0040
  585MPD2    C2 8671   4.207   0.882   0.400  0.3428 -0.4617 -0.2131
  585MPD2    C3 8672   4.089   0.852   0.332  1.0344 -0.2362  0.5911
  585MPD2    C4 8673   3.961   0.866   0.387  0.3908 -0.1024 -0.4121
  585MPD2    C5 8674   3.955   0.918   0.519  0.0300 -0.1470 -0.5853
  585MPD2     H 8675   4.299   0.876   0.344  0.0541  1.4365 -0.8965
  585MPD2    H1 8676   3.867   0.843   0.339  0.0390  1.0908 -0.2742
  585MPD2    H2 8677   4.054   0.995   0.693 -1.6553 -1.6260  0.9911
  585MPD2    H3 8678   3.857   0.942   0.559  0.1901 -0.9340  0.2531
  585MPD2     N 8679   4.087   0.793   0.204  0.4439  0.3721 -0.0240
  585MPD2    H5 8680   3.996   0.776   0.162  0.1016 -1.4086  1.4591
  585MPD2    N1 8681   4.310   0.959   0.607  0.6396  0.3235 -0.0436
  585MPD2    H7 8682   4.305   1.010   0.695 -1.4390  1.3058 -0.7341
  586TMC3    C1 8683   4.165   0.716   0.001 -0.1522  0.8734 -0.1839
  586TMC3    C2 8684   4.258   0.638  17.630 -0.5996 -0.7959  0.5275
  586TMC3    C3 8685   4.244   0.616  17.498 -0.5274 -0.5478 -0.6544
  586TMC3    C4 8686   4.073   0.789  17.622 -0.0775 -0.2455  0.3420
  586TMC3    C5 8687   4.069   0.770  17.490  0.7917  0.2945  0.5229
  586TMC3    C6 8688   4.149   0.684  17.420 -0.5240 -0.0404 -0.5478
  586TMC3     C 8689   4.196   0.751   0.134  0.3090 -0.4084 -0.1940
  586TMC3     O 8690   4.308   0.717   0.167 -0.0104 -0.2985 -0.2380
  586TMC3     H 8691   4.319   0.573   0.002  1.3577  2.5425  2.1142
  586TMC3    H1 8692   4.021   0.872  17.669 -1.1300 -0.2889 -0.7447
  586TMC3    H2 8693   4.154   0.669  17.312 -0.3060  2.0121 -0.8259
  586TMC3    C7 8694   3.964   0.846  17.425  0.3718 -0.3086  0.7774
  586TMC3    C8 8695   4.289   0.485  17.457  0.0617  0.0268 -0.0643
  586TMC3    O1 8696   3.919   0.951  17.470 -0.2380  0.1399  0.5111
  586TMC3    O2 8697   4.273   0.402  17.542 -0.6567  0.8150 -0.0067
  587TMC3    C1 8698   1.747   4.220  16.810  0.9571  0.6663 -0.4936
  587TMC3    C2 8699   1.669   4.317  16.871  0.2814  0.3089 -0.8688
  587TMC3    C3 8700   1.709   4.382  16.985  1.1083 -1.0307  0.4363
  587TMC3    C4 8701   1.863   4.179  16.868  0.4602  0.0991  0.1799
  587TMC3    C5 8702   1.899   4.242  16.982 -0.0327  0.8086  0.3653
  587TMC3    C6 8703   1.826   4.339  17.046  0.5045 -0.0413 -0.0212
  587TMC3     C 8704   1.679   4.132  16.715  1.1332 -0.5168  0.1904
  587TMC3     O 8705   1.723   4.018  16.711  0.2237 -0.4022 -0.1110
  587TMC3     H 8706   1.564   4.315  16.844  0.1925  0.8020 -0.5545
  587TMC3    H1 8707   1.928   4.118  16.805 -2.4302 -1.6852 -1.1022
  587TMC3    H2 8708   1.857   4.389  17.138  1.9123  0.8940 -1.0051
  587TMC3    C7 8709   1.984   4.174  17.078  0.0206 -0.3539  0.3434
  587TMC3    C8 8710   1.649   4.505  17.031 -0.5363  0.0308  0.2253
  587TMC3    O1 8711   2.010   4.241  17.175  0.8155 -0.2384 -0.1608
  587TMC3    O2 8712   1.689   4.556  17.134 -0.4730 -0.2591 -0.2276
  588TMC3    C1 8713   3.394   1.931   9.563 -0.2946 -0.1070  0.2345
  588TMC3    C2 8714   3.323   1.814   9.560 -0.2306  0.1356  0.2080
  588TMC3    C3 8715   3.391   1.697   9.603 -0.7531  0.5503  0.7455
  588TMC3    C4 8716   3.519   1.941   9.606 -0.2771 -0.2025  0.1758
  588TMC3    C5 8717   3.585   1.821   9.620  0.9371 -0.4350 -0.4023
  588TMC3    C6 8718   3.526   1.701   9.622 -0.2312 -0.6180 -0.0890
  588TMC3     C 8719   3.324   2.058   9.547 -0.2375 -0.2037  0.3172
  588TMC3     O 8720   3.202   2.057   9.562  0.2029 -0.0500 -0.6383
  588TMC3     H 8721   3.216   1.817   9.547 -0.3296 -1.6574  0.5744
  588TMC3    H1 8722   3.555   2.038   9.635  0.1917 -0.3285  0.0160
  588TMC3    H2 8723   3.592   1.615   9.622  1.2040  0.4917 -0.4390
  588TMC3    C7 8724   3.722   1.826   9.671  0.0629  0.1187 -0.1726
  588TMC3    C8 8725   3.313   1.588   9.660 -0.3451  0.6511  0.4570
  588TMC3    O1 8726   3.755   1.745   9.752 -0.2409 -0.1919  0.0800
  588TMC3    O2 8727   3.194   1.592   9.647  0.3125  0.1706 -1.3618
  589TMC3    C1 8728   2.831   3.926   1.231  0.3275 -0.0602  0.0715
  589TMC3    C2 8729   2.928   3.942   1.337  0.3328  0.2091 -0.3369
  589TMC3    C3 8730   3.036   3.856   1.331 -0.2967  0.2294 -0.0618
  589TMC3    C4 8731   2.834   3.831   1.141  0.7809  0.4005  0.4207
  589TMC3    C5 8732   2.946   3.752   1.136 -0.2555 -0.0235  0.2049
  589TMC3    C6 8733   3.043   3.756   1.235 -0.8146  0.3365 -0.0132
  589TMC3     C 8734   2.753   4.045   1.198  0.0372 -0.3910 -0.4936
  589TMC3     O 8735   2.687   4.038   1.096  0.6448 -0.4726 -0.2019
  589TMC3     H 8736   2.913   4.010   1.420  0.4311 -2.1807  1.6573
  589TMC3    H1 8737   2.754   3.822   1.068  1.0586  0.5426  0.1011
  589TMC3    H2 8738   3.122   3.682   1.229  0.4039  1.5644  1.0557
  589TMC3    C7 8739   2.939   3.629   1.053  0.7983 -0.4294 -0.2567
  589TMC3    C8 8740   3.068   3.809   1.459  0.7262 -0.3129  0.6103
  589TMC3    O1 8741   2.828   3.587   1.020  0.3793  0.1935  0.0649
  589TMC3    O2 8742   2.994   3.826   1.553 -0.5671 -0.3917  0.1502
  590MPD2     C 8743   2.229   2.085  16.999  0.0861  0.0160  0.1588
  590MPD2    C1 8744   2.180   2.192  16.932 -0.1747 -0.5871 -0.2648
  590MPD2    C2 8745   2.253   2.239  16.825 -0.4965 -0.2512 -0.5569
  590MPD2    C3 8746   2.381   2.192  16.793  0.4019 -0.2862 -0.0150
  590MPD2    C4 8747   2.438   2.097  16.869 -0.2817 -0.1383  0.0731
  590MPD2    C5 8748   2.359   2.049  16.973 -0.1884  0.6584 -0.2416
  590MPD2     H 8749   2.209   2.319  16.767 -0.6985 -1.5275 -2.1780
  590MPD2    H1 8750   2.538   2.056  16.856 -0.9705 -1.7933 -0.0261
  590MPD2    H2 8751   2.165   2.040  17.074 -1.0221  0.2026 -0.6795
  590MPD2    H3 8752   2.404   1.967  17.029 -2.1219 -0.9143 -1.0370
  590MPD2     N 8753   2.459   2.252  16.688  0.1191  0.4261 -0.5595
  590MPD2    H5 8754   2.409   2.325  16.639 -0.3770  0.0978 -0.5436
  590MPD2    N1 8755   2.046   2.234  16.944 -0.2647 -0.3581 -0.0009
  590MPD2    H7 8756   2.010   2.291  16.868 -3.8841 -0.0016  1.9686
  591TMC3    C1 8757   2.622   2.270  16.523 -0.5501 -0.5862 -0.0852
  591TMC3    C2 8758   2.673   2.205  16.410 -0.1198 -0.4492 -0.1485
  591TMC3    C3 8759   2.700   2.288  16.304  0.6126  0.3830  0.5920
  591TMC3    C4 8760   2.611   2.407  16.528 -0.1597 -0.1105  0.6600
  591TMC3    C5 8761   2.636   2.474  16.413  0.5530 -0.2975 -0.1918
  591TMC3    C6 8762   2.673   2.420  16.295 -0.1265  0.4361  0.3263
  591TMC3     C 8763   2.569   2.186  16.630 -0.4294  0.8855  0.3484
  591TMC3     O 8764   2.616   2.073  16.639  0.5007  0.3479 -0.8363
  591TMC3     H 8765   2.685   2.098  16.400  1.2430 -0.1901 -1.3528
  591TMC3    H1 8766   2.589   2.460  16.620  0.0104  1.2074 -0.0550
  591TMC3    H2 8767   2.712   2.476  16.210 -0.2168 -0.3403 -0.2215
  591TMC3    C7 8768   2.621   2.620  16.426 -0.6312  0.0306 -0.7434
  591TMC3    C8 8769   2.713   2.213  16.173 -0.3565  0.3366 -0.7167
  591TMC3    O1 8770   2.618   2.673  16.535  0.3628  0.2167  0.8187
  591TMC3    O2 8771   2.781   2.115  16.168  0.5705 -0.2657 -0.0605
  592MPD2     C 8772   2.675   0.047  11.202  0.3584  0.4886  0.3258
  592MPD2    C1 8773   2.712   0.057  11.333 -0.2427 -0.3323  0.2738
  592MPD2    C2 8774   2.648   4.695  11.426  0.1313 -0.2727 -0.3385
  592MPD2    C3 8775   2.538   4.619  11.387  0.5658  0.0917 -0.1546
  592MPD2    C4 8776   2.503   4.608  11.254  0.0243 -0.2693  0.2960
  592MPD2    C5 8777   2.579   4.679  11.160 -0.5494 -0.5562 -0.7855
  592MPD2     H 8778   2.663   4.713  11.532 -0.3583  2.0419 -0.6722
  592MPD2    H1 8779   2.415   4.551  11.226 -0.4265  0.7263 -0.2899
  592MPD2    H2 8780   2.731   0.100  11.126 -1.7432  1.0520 -0.8312
  592MPD2    H3 8781   2.549   4.653  11.059 -0.9775  1.8504 -1.2740
  592MPD2     N 8782   2.451   4.570  11.495 -0.1394 -0.3334 -0.2541
  592MPD2    H5 8783   2.481   4.604  11.585  0.4451  1.6136 -1.1818
  592MPD2    N1 8784   2.810   0.150  11.369  0.0652  0.2165  0.0763
  592MPD2    H7 8785   2.860   0.192  11.291  0.7564  1.2209  1.0603
  593TMC3    C1 8786   2.938   0.291  11.517  0.0209 -0.1950 -0.4888
  593TMC3    C2 8787   2.938   0.352  11.638 -0.8270  0.9579 -0.0798
  593TMC3    C3 8788   3.042   0.442  11.665 -0.7211  0.4985 -0.0335
  593TMC3    C4 8789   3.018   0.333  11.415  0.7201 -0.1029 -0.5411
  593TMC3    C5 8790   3.107   0.434  11.444 -0.8662 -0.0827 -0.7407
  593TMC3    C6 8791   3.131   0.480  11.571 -0.2126  0.0042 -0.4449
  593TMC3     C 8792   2.833   0.190  11.505  0.7995  0.3101 -0.5804
  593TMC3     O 8793   2.767   0.168  11.606  0.2078 -0.4663  0.4680
  593TMC3     H 8794   2.875   0.313  11.717 -2.6385 -1.3195 -2.6764
  593TMC3    H1 8795   3.006   0.284  11.319 -0.3700  0.1409 -0.5338
  593TMC3    H2 8796   3.195   0.565  11.589  0.4909 -0.5189 -0.5070
  593TMC3    C7 8797   3.178   0.503  11.340 -0.0211 -0.1129  0.2342
  593TMC3    C8 8798   3.063   0.471  11.804 -0.1453  0.2596  0.1059
  593TMC3    O1 8799   3.247   0.602  11.366 -0.0198 -0.2386 -0.5249
  593TMC3    O2 8800   2.970   0.431  11.870 -0.0989  0.3721  0.8696
  594MPD2     C 8801   1.394   3.052  14.274  0.0650 -0.1379  0.3248
  594MPD2    C1 8802   1.394   3.130  14.384 -0.1745  0.4399 -0.9507
  594MPD2    C2 8803   1.498   3.219  14.401  0.1592 -0.5335 -0.3566
  594MPD2    C3 8804   1.597   3.236  14.304  0.0315 -0.5732  0.5371
  594MPD2    C4 8805   1.591   3.161  14.185 -0.1192  0.6283 -0.0451
  594MPD2    C5 8806   1.487   3.073  14.178 -0.6621  0.7568  0.5452
  594MPD2     H 8807   1.492   3.277  14.492  3.5057  0.7840 -0.9663
  594MPD2    H1 8808   1.662   3.163  14.104  0.2698  2.0511  0.3278
  594MPD2    H2 8809   1.323   2.972  14.262  0.1739 -0.2070  0.1460
  594MPD2    H3 8810   1.476   3.012  14.089  2.0205  1.8056 -0.5006
  594MPD2     N 8811   1.689   3.338  14.327 -0.5440 -0.4228  0.0789
  594MPD2    H5 8812   1.679   3.395  14.409 -4.8777 -0.0905 -0.6955
  594MPD2    N1 8813   1.288   3.110  14.475 -0.5314 -0.1376 -0.5133
  594MPD2    H7 8814   1.218   3.042  14.447  1.6901 -2.2234 -1.0057
  595TMC3    C1 8815   2.102   3.527  14.393  0.4820 -0.0147 -0.4804
  595TMC3    C2 8816   2.031   3.440  14.305  0.3493 -0.3476 -0.2747
  595TMC3    C3 8817   1.894   3.448  14.319  0.3898  0.0937  0.4747
  595TMC3    C4 8818   2.044   3.612  14.482  0.2203  0.7800 -0.5273
  595TMC3    C5 8819   1.906   3.628  14.470 -0.5379  0.1463 -0.1809
  595TMC3    C6 8820   1.827   3.549  14.397  0.0878  0.0172 -0.7289
  595TMC3     C 8821   2.244   3.520  14.406 -0.4254  0.2743  0.3810
  595TMC3     O 8822   2.304   3.541  14.510  0.0063  0.2045 -0.2958
  595TMC3     H 8823   2.075   3.359  14.247  1.3156  0.0357 -0.0791
  595TMC3    H1 8824   2.107   3.676  14.543 -0.1394  1.3091 -0.7101
  595TMC3    H2 8825   1.721   3.572  14.395  0.3543  1.2513 -0.2216
  595TMC3    C7 8826   1.835   3.717  14.560  0.7578  0.2043  0.0937
  595TMC3    C8 8827   1.805   3.353  14.253  0.4060  0.4008 -0.1809
  595TMC3    O1 8828   1.722   3.750  14.532 -0.1006 -0.5884 -0.0400
  595TMC3    O2 8829   1.857   3.275  14.171  0.2538  0.0220 -0.2280
  596MPD2     C 8830   0.942   1.297  16.496  0.4495 -0.5703 -0.6758
  596MPD2    C1 8831   0.866   1.413  16.475  0.6249 -0.4155  0.0596
  596MPD2    C2 8832   0.828   1.442  16.344  0.9793  0.4052 -0.5869
  596MPD2    C3 8833   0.854   1.366  16.230 -0.3797 -0.0673 -0.5259
  596MPD2    C4 8834   0.928   1.250  16.257 -0.9550  0.3029  0.0178
  596MPD2    C5 8835   0.955   1.213  16.387  0.5932  0.2988 -0.3527
  596MPD2     H 8836   0.763   1.529  16.338 -2.0588 -1.8407 -0.3341
  596MPD2    H1 8837   0.958   1.181  16.179 -0.4457 -0.1378  0.6132
  596MPD2    H2 8838   0.973   1.266  16.595 -2.4689  1.0432  0.7650
  596MPD2    H3 8839   1.009   1.121  16.401  1.2710 -0.0419 -5.1693
  596MPD2     N 8840   0.797   1.387  16.097 -0.5326  0.2705  0.2511
  596MPD2    H5 8841   0.820   1.322  16.023 -2.3470 -1.3026  1.0799
  596MPD2    N1 8842   0.832   1.502  16.572  0.4912  0.2020 -0.3480
  596MPD2    H7 8843   0.773   1.580  16.547 -2.0921 -0.8945  2.3562
  597TMC3    C1 8844   0.805   1.597  16.788  0.0579 -0.5386  0.3832
  597TMC3    C2 8845   0.778   1.721  16.738 -0.0599  1.5027  0.3309
  597TMC3    C3 8846   0.734   1.814  16.828  0.5794  0.2258  0.1151
  597TMC3    C4 8847   0.781   1.564  16.917  0.2705  0.2768  0.6918
  597TMC3    C5 8848   0.725   1.656  17.001 -0.2721  0.2132  0.9999
  597TMC3    C6 8849   0.700   1.778  16.957 -0.6563  0.4262  0.3603
  597TMC3     C 8850   0.853   1.492  16.710 -0.2575  0.2458  0.9383
  597TMC3     O 8851   0.909   1.398  16.768  0.5396 -0.2534 -0.4738
  597TMC3     H 8852   0.804   1.740  16.635 -1.7765 -2.7192 -0.8888
  597TMC3    H1 8853   0.819   1.468  16.949  2.5344  1.0213  0.2182
  597TMC3    H2 8854   0.669   1.855  17.027 -0.6700  0.1204  0.6948
  597TMC3    C7 8855   0.678   1.632  17.136  0.1348  0.1541  0.1133
  597TMC3    C8 8856   0.720   1.954  16.795 -0.7749  0.1037 -0.6927
  597TMC3    O1 8857   0.602   1.717  17.186 -0.0953 -0.6163 -0.0292
  597TMC3    O2 8858   0.697   2.029  16.887 -0.0596 -0.3523 -0.2913
  598TMC3    C1 8859   3.557   2.776  15.477 -0.4898  0.5371 -0.1070
  598TMC3    C2 8860   3.473   2.672  15.456 -0.1818 -0.5518 -0.4561
  598TMC3    C3 8861   3.344   2.692  15.407 -0.7306 -0.6563 -0.3766
  598TMC3    C4 8862   3.507   2.903  15.442 -0.6429  0.4308  0.3541
  598TMC3    C5 8863   3.376   2.922  15.406 -0.1257  0.3237 -0.0991
  598TMC3    C6 8864   3.293   2.815  15.388  0.2210  0.3008  0.1142
  598TMC3     C 8865   3.685   2.757  15.525  0.0168 -0.3753  0.0021
  598TMC3     O 8866   3.718   2.640  15.516 -0.3808  0.0010  0.0671
  598TMC3     H 8867   3.501   2.568  15.466  1.3574  0.0500  1.5104
  598TMC3    H1 8868   3.560   2.995  15.462 -0.5871  0.7564 -1.3233
  598TMC3    H2 8869   3.189   2.839  15.367  0.2612  0.1730 -0.2226
  598TMC3    C7 8870   3.355   3.025  15.308  0.0994 -0.2036 -0.2834
  598TMC3    C8 8871   3.268   2.577  15.387  0.6901 -0.0190 -0.0000
  598TMC3    O1 8872   3.280   3.005  15.213 -0.2090 -0.2820  0.0065
  598TMC3    O2 8873   3.305   2.480  15.456 -0.6677 -0.2157 -0.1749
  599MPD2     C 8874   3.682   0.626  15.801 -0.3047  0.3380  0.8747
  599MPD2    C1 8875   3.643   0.508  15.868  0.1260  0.2598  0.5618
  599MPD2    C2 8876   3.525   0.517  15.946  0.4201  0.3237  0.4993
  599MPD2    C3 8877   3.447   0.632  15.956  0.2326 -0.1730 -0.0739
  599MPD2    C4 8878   3.494   0.746  15.898  0.0138  0.1105  0.8001
  599MPD2    C5 8879   3.605   0.737  15.814 -0.7491 -0.6774  0.2143
  599MPD2     H 8880   3.497   0.431  16.006 -0.9681  1.1369  1.0256
  599MPD2    H1 8881   3.445   0.843  15.898 -1.2292 -0.5122  2.0849
  599MPD2    H2 8882   3.767   0.629  15.733 -0.9045 -1.7802  0.0196
  599MPD2    H3 8883   3.633   0.825  15.756  0.9880 -0.5953  1.1980
  599MPD2     N 8884   3.328   0.644  16.036 -0.2637  0.1325  0.2398
  599MPD2    H5 8885   3.280   0.732  16.043 -1.6985 -0.9154  3.3440
  599MPD2    N1 8886   3.725   0.389  15.857  0.2643  0.3246  0.3696
  599MPD2    H7 8887   3.818   0.402  15.818  0.3002  0.2581  0.4323
  600TMC3    C1 8888   3.163   0.601  16.199  1.1262  0.0633  0.1835
  600TMC3    C2 8889   3.143   0.536  16.318 -0.1764 -0.3116 -0.1660
  600TMC3    C3 8890   3.030   0.571  16.383 -0.3357  0.5754 -0.2876
  600TMC3    C4 8891   3.072   0.692  16.153  0.5394  0.0086  0.7389
  600TMC3    C5 8892   2.958   0.718  16.223  0.0283 -0.0166  0.2423
  600TMC3    C6 8893   2.934   0.657  16.339 -0.8378 -0.2000 -0.1849
  600TMC3     C 8894   3.275   0.548  16.117 -0.7973 -0.6224  0.7487
  600TMC3     O 8895   3.306   0.434  16.143  0.0559  0.1023  0.2508
  600TMC3     H 8896   3.211   0.456  16.349  3.5309  1.6846 -3.2243
  600TMC3    H1 8897   3.082   0.744  16.058  2.8073 -1.6560  0.0712
  600TMC3    H2 8898   2.840   0.676  16.388 -0.8282 -2.3657  0.6763
  600TMC3    C7 8899   2.894   0.849  16.195  0.3927 -0.7448  0.9240
  600TMC3    C8 8900   3.019   0.497  16.502  0.0088  0.3584 -0.5112
  600TMC3    O1 8901   2.854   0.869  16.077  0.0489 -0.0573 -0.6394
  600TMC3    O2 8902   3.123   0.484  16.565 -0.8910 -0.2145  0.1819
  601MPD2     C 8903   0.562   2.565  17.531  0.2975  0.6120 -0.4169
  601MPD2    C1 8904   0.624   2.658  17.615 -0.7994  0.5203  0.6068
  601MPD2    C2 8905   0.715   2.608   0.022  0.5016 -0.5493  1.1574
  601MPD2    C3 8906   0.745   2.474   0.038  0.6233  0.0289 -0.0745
  601MPD2    C4 8907   0.671   2.386  17.653 -0.0813 -0.2739 -0.2586
  601MPD2    C5 8908   0.593   2.437  17.546 -0.2283 -0.0180  0.1850
  601MPD2     H 8909   0.758   2.685   0.084 -1.1313  1.0006  0.3603
  601MPD2    H1 8910   0.682   2.278  17.656  1.4773 -0.1418 -1.6874
  601MPD2    H2 8911   0.488   2.590  17.455  0.4311 -1.9082 -1.3785
  601MPD2    H3 8912   0.546   2.363  17.483  1.0098  0.4644 -1.3111
  601MPD2     N 8913   0.827   2.419   0.142 -0.2352  0.2846 -0.6823
  601MPD2    H5 8914   0.825   2.318   0.153 -1.1978  0.3209 -0.5424
  601MPD2    N1 8915   0.583   2.795  17.603 -0.7237 -0.0261  0.1209
  601MPD2    H7 8916   0.500   2.795  17.545 -0.7035 -3.0180  0.0920
  602TMC3    C1 8917   0.591   3.024  17.627  0.7930  0.3617 -0.6501
  602TMC3    C2 8918   0.672   3.136  17.634 -0.2282 -0.1680  0.1504
  602TMC3    C3 8919   0.629   3.260  17.654 -0.2792  0.7461  0.1532
  602TMC3    C4 8920   0.456   3.037  17.630  0.5910 -0.1582 -0.2503
  602TMC3    C5 8921   0.412   3.161  17.650  0.4229 -0.0515 -0.1066
  602TMC3    C6 8922   0.493   3.272  17.661  0.2075  0.3789 -0.1221
  602TMC3     C 8923   0.658   2.900  17.651 -0.1524  0.2141 -0.4143
  602TMC3     O 8924   0.766   2.908   0.013 -0.4700 -0.0242 -0.0819
  602TMC3     H 8925   0.777   3.120  17.609 -0.9336  1.9407 -4.2452
  602TMC3    H1 8926   0.381   2.964  17.601  0.8415 -0.7914  0.6743
  602TMC3    H2 8927   0.460   3.347   0.042  1.1820  0.7256 -0.0381
  602TMC3    C7 8928   0.267   3.183  17.632 -0.1329  0.1447 -0.3372
  602TMC3    C8 8929   0.697   3.385  17.614  0.1713 -0.2072  0.4075
  602TMC3    O1 8930   0.190   3.090  17.646  0.5878  0.1503  0.1361
  602TMC3    O2 8931   0.820   3.385  17.615 -0.2551 -0.8466 -0.5930
  603TMC3    C1 8932   3.773   4.242  11.001  0.0123 -0.0189 -0.2725
  603TMC3    C2 8933   3.790   4.248  11.139  0.1172 -0.2159 -0.6348
  603TMC3    C3 8934   3.755   4.363  11.200 -0.2088 -0.2536  0.0816
  603TMC3    C4 8935   3.703   4.345  10.938  0.2157  0.0790  0.3732
  603TMC3    C5 8936   3.682   4.457  11.006 -0.4109 -0.3754 -0.5282
  603TMC3    C6 8937   3.706   4.471  11.136 -0.5564 -0.3151 -0.5439
  603TMC3     C 8938   3.800   4.122  10.924  0.5738 -0.1570  0.2810
  603TMC3     O 8939   3.742   4.106  10.818 -0.1353 -0.2273 -0.1801
  603TMC3     H 8940   3.839   4.172  11.199 -1.9555 -1.5869 -0.6826
  603TMC3    H1 8941   3.681   4.329  10.833  3.1978  0.9640 -0.3796
  603TMC3    H2 8942   3.673   4.563  11.183 -0.8084 -1.1245  0.8690
  603TMC3    C7 8943   3.678   4.585  10.933  0.1902 -0.2244 -0.2099
  603TMC3    C8 8944   3.757   4.372  11.349 -0.6548  0.5611  0.9695
  603TMC3    O1 8945   3.685   4.694  10.989 -0.2763 -0.1096  0.0027
  603TMC3    O2 8946   3.796   4.265  11.401 -0.5568  0.0783 -0.3442
  604MPD2     C 8947   4.338   2.676  16.538  0.0511 -0.0796 -0.7810
  604MPD2    C1 8948   4.212   2.657  16.502  0.2775  0.0232  0.8556
  604MPD2    C2 8949   4.177   2.583  16.382 -0.6469  0.6023 -0.3468
  604MPD2    C3 8950   4.289   2.532  16.304  0.0074 -0.0415 -0.2023
  604MPD2    C4 8951   4.419   2.556  16.347  0.4217 -0.8016  0.0976
  604MPD2    C5 8952   4.444   2.627  16.460  0.6817 -0.1956 -0.1590
  604MPD2     H 8953   4.074   2.571  16.353 -0.8393  2.9057 -0.6479
  604MPD2    H1 8954   4.503   2.524  16.287 -0.7111  1.6802 -2.8395
  604MPD2    H2 8955   4.367   2.733  16.626  0.0114 -0.5665 -0.4537
  604MPD2    H3 8956   4.542   2.636  16.505 -0.1332  0.9524  1.4122
  604MPD2     N 8957   4.253   2.453  16.191  0.1427 -0.7262 -0.1840
  604MPD2    H5 8958   4.156   2.443  16.162 -0.3908  0.8964  1.0342
  604MPD2    N1 8959   4.114   2.722  16.580  0.2211 -0.2521  0.1114
  604MPD2    H7 8960   4.145   2.780  16.657 -0.1098 -0.0748  0.1118
  605TMC3    C1 8961   3.918   2.834  16.638  0.1399 -0.6961 -0.5748
  605TMC3    C2 8962   3.993   2.946  16.668 -0.4723  0.1317  0.0809
  605TMC3    C3 8963   3.922   3.070  16.650  0.6570  0.7801  0.0736
  605TMC3    C4 8964   3.787   2.840  16.600 -0.0065 -0.2892  0.5289
  605TMC3    C5 8965   3.726   2.962  16.580  0.1282 -0.1412 -0.0989
  605TMC3    C6 8966   3.791   3.082  16.607  0.0974 -0.5823  0.4306
  605TMC3     C 8967   3.979   2.735  16.548 -0.3107 -0.2079  0.2020
  605TMC3     O 8968   3.906   2.706  16.451  0.0062  0.2210  0.0841
  605TMC3     H 8969   4.099   2.938  16.689 -0.1731 -0.5736 -1.7377
  605TMC3    H1 8970   3.737   2.744  16.598 -0.1790 -0.1502 -1.7100
  605TMC3    H2 8971   3.745   3.177  16.582 -0.1467 -0.6304  0.6872
  605TMC3    C7 8972   3.629   2.958  16.475  0.2154  0.0584  0.6471
  605TMC3    C8 8973   3.991   3.188  16.703  0.9418 -0.0400  0.9380
  605TMC3    O1 8974   3.552   3.053  16.462  0.0121  0.2142 -0.2460
  605TMC3    O2 8975   3.937   3.285  16.757 -0.6568  1.1598 -0.3252
  606TMC3    C1 8976   1.003   1.542  17.537  0.3254 -0.4710  0.0052
  606TMC3    C2 8977   0.975   1.573  17.672 -0.1453  0.0935  0.0181
  606TMC3    C3 8978   0.955   1.464   0.068 -0.1690 -0.6324  0.3655
  606TMC3    C4 8979   0.994   1.414  17.494 -0.4134 -0.1845 -0.2653
  606TMC3    C5 8980   0.958   1.317  17.581  0.3811  0.4080 -0.4627
  606TMC3    C6 8981   0.938   1.344   0.019 -0.1168  0.3317  0.1376
  606TMC3     C 8982   1.012   1.651  17.442 -0.1560 -0.3636 -0.8735
  606TMC3     O 8983   0.958   1.754  17.482 -0.3145  0.5229  0.2186
  606TMC3     H 8984   0.983   1.670   0.030  0.0052  0.4118 -0.6343
  606TMC3    H1 8985   0.992   1.385  17.390  0.1941  1.1178 -0.6438
  606TMC3    H2 8986   0.927   1.264   0.091 -1.3323  0.1058 -0.2821
  606TMC3    C7 8987   0.957   1.181  17.530 -0.2971 -0.3760 -0.5411
  606TMC3    C8 8988   1.027   1.479   0.195  0.4332  0.9100 -0.3531
  606TMC3    O1 8989   0.935   1.151  17.412  0.0444 -0.1067 -0.2980
  606TMC3    O2 8990   1.115   1.566   0.208 -0.8632 -0.2811 -0.0063
  607MPD2     C 8991   2.602   4.269  11.772  0.0324 -0.3375  0.2657
  607MPD2    C1 8992   2.655   4.325  11.881  0.7140 -0.4331 -0.6414
  607MPD2    C2 8993   2.629   4.268  12.003 -0.2206 -0.2479  0.4721
  607MPD2    C3 8994   2.577   4.145  12.004 -0.4807 -0.3868 -0.0925
  607MPD2    C4 8995   2.518   4.092  11.897 -0.2502 -0.1679  0.5297
  607MPD2    C5 8996   2.535   4.155  11.777  0.0297 -0.1995  0.1015
  607MPD2     H 8997   2.668   4.314  12.093 -2.5634  1.9249  0.3755
  607MPD2    H1 8998   2.458   4.001  11.898 -1.4828  0.6425  0.9053
  607MPD2    H2 8999   2.611   4.317  11.675 -1.7457  0.9761  0.7356
  607MPD2    H3 9000   2.495   4.118  11.683  0.6700  0.8297 -0.5762
  607MPD2     N 9001   2.580   4.078  12.127  0.5932 -0.3211  0.0858
  607MPD2    H5 9002   2.586   4.141  12.207  2.5073  1.2094 -1.2768
  607MPD2    N1 9003   2.725   4.448  11.879  0.3011  0.6554  0.0210
  607MPD2    H7 9004   2.739   4.486  11.972  1.3353 -0.1354  0.1963
  608TMC3    C1 9005   2.836   4.636  11.823 -0.5223 -0.4818  0.2746
  608TMC3    C2 9006   2.808   4.672  11.955  0.1402  0.4785 -0.6086
  608TMC3    C3 9007   2.891   0.040  12.011 -0.1915  0.2231 -0.2189
  608TMC3    C4 9008   2.942   4.675  11.747  0.4230 -0.3202 -0.1372
  608TMC3    C5 9009   3.022   0.044  11.810  0.6818  0.0265 -0.1487
  608TMC3    C6 9010   2.999   0.086  11.941  0.3737  0.1600  1.1447
  608TMC3     C 9011   2.777   4.517  11.771 -0.1917 -0.2562  0.2603
  608TMC3     O 9012   2.773   4.495  11.649  0.3323 -0.2317  0.5678
  608TMC3     H 9013   2.712   4.646  11.997  1.2891 -1.8783  0.5227
  608TMC3    H1 9014   2.966   4.634  11.650  0.2482  1.7706 -1.0580
  608TMC3    H2 9015   3.070   0.158  11.981  1.5960 -1.1296  1.3048
  608TMC3    C7 9016   3.136   0.090  11.739 -0.5490  0.5126  0.4024
  608TMC3    C8 9017   2.915   0.031  12.153  0.6638  0.2732  0.1134
  608TMC3    O1 9018   3.153   0.036  11.629 -0.2828  0.0328  0.2233
  608TMC3    O2 9019   2.977   0.119  12.211  0.0569  0.8623 -0.0835
  609TMC3    C1 9020   1.340   2.968   8.921 -0.0901 -0.3962  0.6782
  609TMC3    C2 9021   1.278   2.900   8.824 -1.0034 -0.5248  0.7945
  609TMC3    C3 9022   1.338   2.782   8.778  0.1733  1.0943  0.5972
  609TMC3    C4 9023   1.461   2.934   8.978 -0.1470 -0.5845  0.0424
  609TMC3    C5 9024   1.498   2.805   8.944 -0.5920 -0.0225 -0.1589
  609TMC3    C6 9025   1.448   2.734   8.842  0.0746 -0.5236  0.3010
  609TMC3     C 9026   1.257   3.049   9.003  0.3013  0.2361 -0.0832
  609TMC3     O 9027   1.136   3.019   9.006  0.1689 -0.2882 -0.2298
  609TMC3     H 9028   1.188   2.942   8.780 -1.7125 -1.9193  0.9127
  609TMC3    H1 9029   1.509   3.007   9.042 -2.2927  0.8532 -0.0046
  609TMC3    H2 9030   1.499   2.650   8.796 -1.1514 -0.0205 -2.0246
  609TMC3    C7 9031   1.597   2.741   9.025  0.1618  0.2262  0.0004
  609TMC3    C8 9032   1.254   2.708   8.684  0.1707  0.1512 -0.1197
  609TMC3    O1 9033   1.675   2.822   9.078  0.0211 -0.4898  0.4441
  609TMC3    O2 9034   1.155   2.769   8.641  0.5830 -0.3841 -0.0067
  610TMC3    C1 9035   3.099   3.736  12.791  0.0898  0.1053  0.2212
  610TMC3    C2 9036   3.136   3.861  12.746  0.5629  0.1230  0.2441
  610TMC3    C3 9037   3.264   3.906  12.772  0.4321 -0.3750 -0.4531
  610TMC3    C4 9038   3.189   3.655  12.841  0.2754  0.4803  0.0159
  610TMC3    C5 9039   3.317   3.694  12.861 -0.4582  0.1508  0.3123
  610TMC3    C6 9040   3.354   3.822  12.830 -0.0869  0.0263 -0.1722
  610TMC3     C 9041   2.970   3.670  12.761 -1.0383 -0.0171  0.1294
  610TMC3     O 9042   2.980   3.556  12.725  0.0955 -0.6944  0.1388
  610TMC3     H 9043   3.068   3.936  12.706 -1.1128 -1.1458  0.7034
  610TMC3    H1 9044   3.151   3.565  12.889  2.7546 -0.0331  1.0267
  610TMC3    H2 9045   3.458   3.843  12.850  0.0886  1.1289 -2.2453
  610TMC3    C7 9046   3.398   3.627  12.960  0.2359 -0.4154 -0.3008
  610TMC3    C8 9047   3.325   4.022  12.713 -0.3087  0.4612 -0.4447
  610TMC3    O1 9048   3.472   3.694  13.027  0.1161 -1.0733 -0.5233
  610TMC3    O2 9049   3.445   4.030  12.724  0.3170 -0.0564 -0.0294
  611MPD2     C 9050   2.959   4.078  10.337 -0.0821  0.8111  0.1301
  611MPD2    C1 9051   2.877   4.173  10.272 -0.2324  0.3264 -0.4348
  611MPD2    C2 9052   2.937   4.275  10.201  0.8792 -0.0474 -0.2081
  611MPD2    C3 9053   3.076   4.290  10.184 -0.7613 -0.1022 -0.6269
  611MPD2    C4 9054   3.154   4.191  10.241  0.3591 -0.0605 -0.6735
  611MPD2    C5 9055   3.094   4.091  10.323 -0.2733  0.5571 -0.1825
  611MPD2     H 9056   2.888   4.348  10.137  1.0764  1.2013  1.0600
  611MPD2    H1 9057   3.261   4.182  10.233  0.3303 -1.7728  0.8983
  611MPD2    H2 9058   2.910   4.004  10.399  0.3813  1.1350  0.8764
  611MPD2    H3 9059   3.164   4.022  10.369 -1.0280  1.1349  1.8062
  611MPD2     N 9060   3.146   4.406  10.133  0.4457 -0.2916 -0.0734
  611MPD2    H5 9061   3.248   4.401  10.131  0.4200 -1.0451  0.9968
  611MPD2    N1 9062   2.738   4.157  10.290  0.0964 -0.1608  0.5471
  611MPD2    H7 9063   2.703   4.074  10.337  0.5706  0.4483  1.9702
  612TMC3    C1 9064   3.165   4.643  10.091 -0.0425  0.6746  0.0832
  612TMC3    C2 9065   3.275   4.652  10.170 -0.2490  0.2520 -0.3437
  612TMC3    C3 9066   3.305   0.061  10.203  0.6022  0.4198 -0.2809
  612TMC3    C4 9067   3.087   0.029  10.055  0.5064 -0.3599  0.1907
  612TMC3    C5 9068   3.123   0.156  10.084  0.1384  0.2998 -0.1444
  612TMC3    C6 9069   3.236   0.173  10.160 -0.6158  0.2569  0.4843
  612TMC3     C 9070   3.087   4.519  10.084 -0.7310 -0.4371 -0.1552
  612TMC3     O 9071   2.973   4.536  10.051 -0.0974  0.4316 -0.4490
  612TMC3     H 9072   3.327   4.562  10.198 -1.6684 -0.7875 -1.0689
  612TMC3    H1 9073   3.015   0.018   9.975 -0.3101 -2.5627  1.2381
  612TMC3    H2 9074   3.252   0.270  10.206 -1.6053  1.1015 -0.9629
  612TMC3    C7 9075   3.037   0.272  10.068  0.2478  0.9396 -0.3294
  612TMC3    C8 9076   3.424   0.083  10.288  0.1362  0.7124  0.6416
  612TMC3    O1 9077   2.925   0.238  10.025  0.1433  0.1393 -0.3346
  612TMC3    O2 9078   3.474   0.193  10.272 -0.1174  0.0321 -0.5390
  613MPD2     C 9079   1.702   1.184  16.574 -0.4545 -0.0427  0.0160
  613MPD2    C1 9080   1.658   1.241  16.453  1.0969 -0.5340 -0.2778
  613MPD2    C2 9081   1.664   1.163  16.337  0.4639  0.1653 -0.5131
  613MPD2    C3 9082   1.715   1.034  16.345 -0.6765  0.6940 -0.1875
  613MPD2    C4 9083   1.757   0.976  16.461  0.7652  0.1306  0.5988
  613MPD2    C5 9084   1.737   1.044  16.578 -0.2363  0.2153  0.3208
  613MPD2     H 9085   1.633   1.198  16.240 -1.8018 -0.8266 -0.1390
  613MPD2    H1 9086   1.764   0.868  16.463 -1.5792 -0.0191 -0.0377
  613MPD2    H2 9087   1.693   1.230  16.672 -0.6041 -1.8825  0.8513
  613MPD2    H3 9088   1.757   1.000  16.675 -1.7905 -1.1631  0.0150
  613MPD2     N 9089   1.740   0.948  16.234 -0.1199  0.1623 -0.3925
  613MPD2    H5 9090   1.799   0.867  16.251  0.0561  0.3867  0.0846
  613MPD2    N1 9091   1.627   1.381  16.443  0.3200  0.4375 -0.0781
  613MPD2    H7 9092   1.665   1.435  16.521  0.0902 -0.8559  0.9254
  614TMC3    C1 9093   1.639   1.577  16.316  1.2114  0.9607  0.1752
  614TMC3    C2 9094   1.775   1.583  16.297  0.4520 -0.7683  0.0898
  614TMC3    C3 9095   1.815   1.641  16.179  0.2845 -0.4648  0.2711
  614TMC3    C4 9096   1.552   1.658  16.249  0.0043  0.2361  0.2240
  614TMC3    C5 9097   1.594   1.711  16.135 -0.9154  0.5812  0.3964
  614TMC3    C6 9098   1.721   1.703  16.094  0.1280  0.5055 -0.3204
  614TMC3     C 9099   1.579   1.445  16.334 -0.6908 -0.0432 -0.0554
  614TMC3     O 9100   1.511   1.398  16.246 -0.0644 -0.3326 -0.3254
  614TMC3     H 9101   1.845   1.527  16.358  2.4401  0.3891 -1.1208
  614TMC3    H1 9102   1.446   1.648  16.267 -0.1475 -3.6248 -2.7354
  614TMC3    H2 9103   1.749   1.736  15.995 -0.5620 -0.0737 -0.7130
  614TMC3    C7 9104   1.490   1.784  16.069 -0.0160  0.2025 -0.8173
  614TMC3    C8 9105   1.893   1.543  16.104 -0.4066  0.1430 -0.1856
  614TMC3    O1 9106   1.411   1.852  16.136  0.3607  0.0123  0.1812
  614TMC3    O2 9107   1.912   1.437  16.157 -0.6623  0.5359  0.2993
  615MPD2     C 9108   1.307   2.262  16.266  0.1102  0.1708  0.5751
  615MPD2    C1 9109   1.223   2.373  16.265 -0.1230  0.1871  0.0753
  615MPD2    C2 9110   1.179   2.404  16.139  0.7091 -0.7949 -0.3790
  615MPD2    C3 9111   1.229   2.348  16.021  0.1040 -0.0741 -0.5646
  615MPD2    C4 9112   1.309   2.240  16.026 -0.3957 -0.7536  0.0678
  615MPD2    C5 9113   1.346   2.195  16.152  0.1121 -0.3387 -0.4898
  615MPD2     H 9114   1.124   2.495  16.119  0.7856 -0.4094  1.1610
  615MPD2    H1 9115   1.341   2.190  15.935  2.0382  0.1161  0.4435
  615MPD2    H2 9116   1.354   2.220  16.353  0.2365  0.6678  0.7486
  615MPD2    H3 9117   1.419   2.116  16.165 -0.1460 -0.2208  1.5937
  615MPD2     N 9118   1.189   2.401  15.900 -0.4157 -0.3931 -0.1499
  615MPD2    H5 9119   1.120   2.475  15.905 -0.3909 -0.3163 -0.9062
  615MPD2    N1 9120   1.195   2.458  16.375  0.3252  0.7992 -0.4927
  615MPD2    H7 9121   1.141   2.543  16.360  0.0883 -0.0990 -4.5717
  616TMC3    C1 9122   1.236   2.558  16.582 -0.3777  0.2802 -0.4154
  616TMC3    C2 9123   1.338   2.630  16.641 -0.2569  0.0274 -0.2253
  616TMC3    C3 9124   1.319   2.753  16.687  0.2333  0.1065  0.3817
  616TMC3    C4 9125   1.114   2.608  16.566  0.2714 -0.4091  0.1269
  616TMC3    C5 9126   1.093   2.730  16.615 -0.3376  0.3302  0.5989
  616TMC3    C6 9127   1.194   2.812  16.663  0.0145 -0.2552 -0.2923
  616TMC3     C 9128   1.272   2.455  16.492 -0.1814 -0.3312 -0.3384
  616TMC3     O 9129   1.371   2.393  16.524  0.5689 -0.3279  0.5798
  616TMC3     H 9130   1.433   2.580  16.651 -0.1283 -0.6221 -5.0342
  616TMC3    H1 9131   1.039   2.534  16.541 -0.7573  0.1834  1.4670
  616TMC3    H2 9132   1.167   2.908  16.706 -0.2080  0.6383 -2.4214
  616TMC3    C7 9133   0.958   2.785  16.584 -0.4615  0.4042  0.7260
  616TMC3    C8 9134   1.423   2.833  16.753  0.0029 -0.0108  0.7452
  616TMC3    O1 9135   0.873   2.698  16.578  0.3733  0.2299 -0.0795
  616TMC3    O2 9136   1.391   2.935  16.808  0.2645 -0.0738  0.8370
  617MPD2     C 9137   4.047   1.015  13.725 -0.2961  0.2328  0.2714
  617MPD2    C1 9138   4.076   0.953  13.850  0.2374 -0.3314  0.0922
  617MPD2    C2 9139   3.974   0.886  13.911 -0.1077 -0.0897 -0.7073
  617MPD2    C3 9140   3.846   0.868  13.858  0.1759  0.1975  0.0144
  617MPD2    C4 9141   3.830   0.912  13.732 -0.1133 -0.0765  0.6808
  617MPD2    C5 9142   3.919   0.996  13.672 -0.0739  0.0574 -0.2133
  617MPD2     H 9143   3.998   0.842  14.008 -0.8842  0.4583 -0.2711
  617MPD2    H1 9144   3.739   0.887  13.679  0.8751 -0.5701 -0.7759
  617MPD2    H2 9145   4.117   1.066  13.660 -1.1440  0.9541 -0.0764
  617MPD2    H3 9146   3.884   1.045  13.582 -0.3869  2.2540  1.1136
  617MPD2     N 9147   3.738   0.808  13.928  0.0514 -0.0106 -0.3095
  617MPD2    H5 9148   3.644   0.817  13.890 -0.2781  1.5481  0.8969
  617MPD2    N1 9149   4.200   0.980  13.910  0.1788  0.0643  0.3757
  617MPD2    H7 9150   4.259   1.045  13.859  1.1247  0.4278  1.9283
  618TMC3    C1 9151   4.379   0.965  14.061 -0.2934 -0.1694  0.7255
  618TMC3    C2 9152   4.467   0.857  14.080 -0.6211 -0.6141 -0.1687
  618TMC3    C3 9153   4.575   0.860  13.996 -0.1474 -0.4037 -0.1786
  618TMC3    C4 9154   4.417   1.081  13.993  0.5489  0.6754  0.8865
  618TMC3    C5 9155   4.534   1.081  13.925  0.2159  0.3559 -0.1211
  618TMC3    C6 9156   4.605   0.971  13.914  0.1485 -0.0975  0.1216
  618TMC3     C 9157   4.251   0.916  14.021  0.8031  0.3858  1.0937
  618TMC3     O 9158   4.216   0.807  14.062  0.2557 -0.4794 -0.1872
  618TMC3     H 9159   4.439   0.762  14.125 -0.6575  0.3545  1.8494
  618TMC3    H1 9160   4.368   1.178  13.997 -1.8206 -0.4602 -0.3790
  618TMC3    H2 9161   4.697   0.976  13.857 -0.5591 -1.2519 -1.1291
  618TMC3    C7 9162   4.504   1.146  13.803 -0.1840 -0.2016  0.5229
  618TMC3    C8 9163   4.632   0.726  13.961  0.2918 -0.4118 -0.0934
  618TMC3    O1 9164   4.389   1.148  13.770  0.1707  0.4052  0.2333
  618TMC3    O2 9165   4.593   0.631  14.034  0.4236 -0.3216 -0.3555
  619MPD2     C 9166   1.064   2.067  13.531 -0.6049  0.5288 -0.2106
  619MPD2    C1 9167   1.018   2.194  13.492 -0.2570 -0.8275  0.0698
  619MPD2    C2 9168   0.882   2.223  13.511 -0.0305  0.3192  0.6214
  619MPD2    C3 9169   0.791   2.137  13.568 -0.3390 -0.0353  0.2036
  619MPD2    C4 9170   0.843   2.024  13.630  0.0817  0.4247 -0.0386
  619MPD2    C5 9171   0.974   1.987  13.601  0.6834  0.7506  0.5476
  619MPD2     H 9172   0.845   2.316  13.470  2.1117  2.6122  3.9287
  619MPD2    H1 9173   0.780   1.947  13.673  1.1890 -0.8135 -0.6357
  619MPD2    H2 9174   1.166   2.036  13.514 -1.1024 -1.5439  0.6575
  619MPD2    H3 9175   1.003   1.885  13.623  0.2939  0.9038  1.7554
  619MPD2     N 9176   0.652   2.164  13.575  0.4237 -0.7497 -0.0537
  619MPD2    H5 9177   0.600   2.094  13.627  0.2256  0.8859  1.9180
  619MPD2    N1 9178   1.103   2.294  13.438 -0.3565 -1.3981  0.3785
  619MPD2    H7 9179   1.047   2.379  13.425 -1.2109 -2.2050 -1.2780
  620TMC3    C1 9180   1.274   2.429  13.363 -0.1686  0.0833 -0.1783
  620TMC3    C2 9181   1.188   2.475  13.268  0.3286 -0.7885 -1.0678
  620TMC3    C3 9182   1.196   2.609  13.249  0.5073 -0.1514 -0.2864
  620TMC3    C4 9183   1.357   2.510  13.442  0.3595 -0.8236  0.2935
  620TMC3    C5 9184   1.358   2.640  13.416  0.1951 -0.5715 -0.4975
  620TMC3    C6 9185   1.281   2.691  13.318  0.1898  0.1836  0.8389
  620TMC3     C 9186   1.240   2.299  13.416 -0.0191  0.7189 -1.0008
  620TMC3     O 9187   1.318   2.215  13.457  0.5518  0.1058  0.2352
  620TMC3     H 9188   1.119   2.415  13.209 -0.6880 -0.9688  0.3070
  620TMC3    H1 9189   1.413   2.479  13.529 -1.2956 -2.3018  0.8371
  620TMC3    H2 9190   1.278   2.798  13.301  0.0861  0.0496  0.0169
  620TMC3    C7 9191   1.341   2.716  13.533  0.6161  0.8007 -0.3420
  620TMC3    C8 9192   1.056   2.671  13.243 -0.6560 -0.1657  0.5033
  620TMC3    O1 9193   1.429   2.717  13.619 -0.1546 -0.2945 -0.3284
  620TMC3    O2 9194   1.036   2.767  13.314 -0.1318 -0.3016 -0.3358
  621MPD2     C 9195   0.816   2.444   9.823 -0.8403 -0.1950  0.2659
  621MPD2    C1 9196   0.874   2.420   9.944 -0.0866 -0.1337 -0.3817
  621MPD2    C2 9197   0.954   2.518  10.002  0.3542 -0.1025 -0.4532
  621MPD2    C3 9198   0.983   2.642   9.947  0.2536 -0.3557  0.1780
  621MPD2    C4 9199   0.923   2.657   9.824  0.6411  0.1632  0.0182
  621MPD2    C5 9200   0.842   2.564   9.767  0.1385 -0.1751 -0.0900
  621MPD2     H 9201   1.008   2.495  10.093 -0.3076  0.4434  0.0850
  621MPD2    H1 9202   0.924   2.755   9.778 -1.8588  0.4293  0.5135
  621MPD2    H2 9203   0.748   2.373   9.778 -0.1338  0.4746 -1.8350
  621MPD2    H3 9204   0.799   2.583   9.670  0.9942 -0.1522 -0.4613
  621MPD2     N 9205   1.072   2.730  10.011 -0.1072  0.0156  0.1740
  621MPD2    H5 9206   1.122   2.707  10.096 -0.9580 -1.4693  0.2619
  621MPD2    N1 9207   0.858   2.297  10.016 -0.8277 -0.0807 -0.4649
  621MPD2    H7 9208   0.918   2.284  10.097 -0.2649 -1.1853 -1.0598
  622TMC3    C1 9209   0.750   2.107  10.109 -0.1287 -0.0399 -0.2758
  622TMC3    C2 9210   0.774   2.144  10.235 -0.2505 -0.4592 -0.0913
  622TMC3    C3 9211   0.725   2.068  10.332  0.1557 -0.6026  0.4454
  622TMC3    C4 9212   0.700   1.980  10.080 -0.1839  0.4327 -0.3486
  622TMC3    C5 9213   0.666   1.897  10.180 -0.5989 -0.2831 -1.1532
  622TMC3    C6 9214   0.685   1.940  10.309  0.1626 -0.4267  0.0259
  622TMC3     C 9215   0.764   2.199   9.998 -0.3079 -0.0691 -0.5876
  622TMC3     O 9216   0.700   2.169   9.899 -0.1642  0.5560  0.1970
  622TMC3     H 9217   0.809   2.245  10.254 -1.4490  0.5033 -2.9529
  622TMC3    H1 9218   0.714   1.936   9.982  1.0050  0.9131 -0.3978
  622TMC3    H2 9219   0.647   1.882  10.392  0.3231 -0.2613  0.2127
  622TMC3    C7 9220   0.680   1.752  10.163  0.3667 -0.1244 -0.1236
  622TMC3    C8 9221   0.694   2.125  10.456 -0.2173  0.0727  0.3522
  622TMC3    O1 9222   0.771   1.692  10.217  0.4695 -0.6197 -0.2276
  622TMC3    O2 9223   0.739   2.078  10.563  0.1226  0.7678  0.2711
  623MPD2     C 9224   4.413   2.728  15.868 -0.0563 -0.2461 -0.3112
  623MPD2    C1 9225   4.351   2.760  15.983 -0.0395  0.9608  0.5469
  623MPD2    C2 9226   4.426   2.767  16.098  0.7022  0.7374 -0.7382
  623MPD2    C3 9227   4.569   2.746  16.102  0.5994 -0.7823 -0.2281
  623MPD2    C4 9228   4.628   2.709  15.982  0.1079 -0.0722 -0.0283
  623MPD2    C5 9229   4.549   2.708  15.871  0.2539  0.2067  0.5855
  623MPD2     H 9230   4.388   2.799  16.194 -1.4796 -0.7068 -1.1331
  623MPD2    H1 9231   0.012   2.688  15.971  0.2883  0.6603  0.3322
  623MPD2    H2 9232   4.355   2.726  15.776  1.0932 -0.3089 -1.0385
  623MPD2    H3 9233   4.603   2.681  15.781 -1.5042  2.1932 -1.0841
  623MPD2     N 9234   4.638   2.781  16.219  0.9732  0.0602 -0.0764
  623MPD2    H5 9235   4.589   2.826  16.296  0.1897 -1.7316  0.4650
  623MPD2    N1 9236   4.212   2.794  15.979 -0.8475  0.3314  0.1872
  623MPD2    H7 9237   4.163   2.784  15.891  2.4372  1.1168 -1.7118
  624TMC3    C1 9238   0.164   2.852  16.604  0.9785  0.2803  0.4334
  624TMC3    C2 9239   0.106   2.975  16.626  0.2343  0.4517 -0.4957
  624TMC3    C3 9240   0.016   3.016  16.531  0.1210 -0.1264 -0.2439
  624TMC3    C4 9241   0.157   2.785  16.482 -0.8410  0.4214  0.6305
  624TMC3    C5 9242   0.072   2.837  16.383  0.4693  0.3620 -0.2039
  624TMC3    C6 9243   0.002   2.951  16.410  0.3773 -0.3343 -0.3724
  624TMC3     C 9244   0.247   2.794  16.710 -0.6857 -0.3792  0.4109
  624TMC3     O 9245   0.303   2.870  16.786  0.2572 -0.6317  0.1095
  624TMC3     H 9246   0.107   3.012  16.728  1.5646  0.3320 -0.4731
  624TMC3    H1 9247   0.217   2.702  16.446 -1.9406  0.7643 -1.9260
  624TMC3    H2 9248   4.667   3.012  16.341  0.5915  0.5461  0.2249
  624TMC3    C7 9249   0.043   2.771  16.253 -0.6399 -0.5425  1.1155
  624TMC3    C8 9250   4.603   3.045  16.586  0.3202 -0.1861 -0.0959
  624TMC3    O1 9251   0.139   2.732  16.190  0.1088 -0.4696  0.0358
  624TMC3    O2 9252   4.519   2.983  16.524  0.4290  0.0766  0.2744
  625MPD2     C 9253   0.979   3.880   0.645  0.8581  0.4866 -0.1803
  625MPD2    C1 9254   0.973   4.018   0.617  0.0422 -0.6048 -0.0627
  625MPD2    C2 9255   1.091   4.093   0.610 -0.5618  0.2639 -0.4131
  625MPD2    C3 9256   1.207   4.029   0.648  0.9441 -0.3273 -0.2904
  625MPD2    C4 9257   1.212   3.893   0.677  0.3946  0.1756  0.4223
  625MPD2    C5 9258   1.099   3.816   0.679  0.6567  0.3848 -0.2735
  625MPD2     H 9259   1.073   4.199   0.601 -1.9192  0.0838  0.2430
  625MPD2    H1 9260   1.307   3.846   0.701  0.7309  2.2203  3.1180
  625MPD2    H2 9261   0.901   3.807   0.663  0.2542  0.3534 -3.2905
  625MPD2    H3 9262   1.114   3.710   0.696  0.0595  0.0682 -1.7547
  625MPD2     N 9263   1.332   4.106   0.657  0.1943  0.0956 -0.2588
  625MPD2    H5 9264   1.307   4.201   0.628  1.2758  0.7207  0.8605
  625MPD2    N1 9265   0.850   4.085   0.599  0.7548  0.0647  1.4530
  625MPD2    H7 9266   0.857   4.186   0.600 -0.8267  0.1500  3.3122
  626TMC3    C1 9267   0.617   4.116   0.563  0.6541 -0.1420 -0.4773
  626TMC3    C2 9268   0.527   4.084   0.464  0.1740 -0.3037  0.0414
  626TMC3    C3 9269   0.404   4.143   0.459 -0.4628  0.1890  0.4095
  626TMC3    C4 9270   0.591   4.202   0.662 -0.4674 -0.4300  0.5127
  626TMC3    C5 9271   0.457   4.257   0.662 -0.1578  0.4169 -0.6233
  626TMC3    C6 9272   0.368   4.232   0.559  0.0124  0.0461 -0.2213
  626TMC3     C 9273   0.729   4.022   0.581  0.5772 -0.6403  0.9139
  626TMC3     O 9274   0.710   3.906   0.542  0.8091 -0.1264  0.1267
  626TMC3     H 9275   0.541   4.005   0.390 -1.3721  0.7097 -1.3371
  626TMC3    H1 9276   0.661   4.227   0.741 -0.6096 -0.8643  0.7718
  626TMC3    H2 9277   0.278   4.291   0.549 -0.1087 -0.4028 -1.8334
  626TMC3    C7 9278   0.420   4.333   0.777  0.3840  0.1248  0.0679
  626TMC3    C8 9279   0.342   4.176   0.334  0.0289  0.2356  0.2847
  626TMC3    O1 9280   0.480   4.305   0.882  0.6148 -0.2649 -0.0992
  626TMC3    O2 9281   0.353   4.295   0.309 -0.1130  1.3810 -0.0965
  627MPD2     C 9282   4.078   4.369  14.470 -0.6437  0.1025  0.0024
  627MPD2    C1 9283   3.992   4.396  14.573  0.1468  0.2553 -0.2660
  627MPD2    C2 9284   3.870   4.327  14.575  0.1167  0.3305  0.2844
  627MPD2    C3 9285   3.834   4.221  14.491 -0.4644 -1.4484  0.3562
  627MPD2    C4 9286   3.938   4.184  14.406 -0.5220 -0.8844 -0.2731
  627MPD2    C5 9287   4.053   4.256  14.398  0.8491  0.4149  0.6360
  627MPD2     H 9288   3.798   4.371  14.643 -1.8434 -0.1935 -1.4510
  627MPD2    H1 9289   3.930   4.094  14.346 -0.6795 -1.2087  0.2260
  627MPD2    H2 9290   4.170   4.424  14.452 -0.0425 -1.9268 -3.1008
  627MPD2    H3 9291   4.128   4.221  14.327  2.1117  4.7501 -0.2213
  627MPD2     N 9292   3.708   4.155  14.502  0.2753  0.2546  0.4095
  627MPD2    H5 9293   3.633   4.195  14.558 -0.2979 -0.0958 -0.1136
  627MPD2    N1 9294   4.017   4.502  14.661  0.4685  0.1437  0.4440
  627MPD2    H7 9295   3.939   4.515  14.723 -1.1083 -3.2808 -0.8068
  628TMC3    C1 9296   4.153   4.655  14.786 -0.0578  0.9359 -0.7389
  628TMC3    C2 9297   4.274   4.600  14.832  0.4154 -0.2031  0.0277
  628TMC3    C3 9298   4.391   4.677  14.834  0.0692  0.0313  0.5581
  628TMC3    C4 9299   4.144   0.069  14.762 -0.0632  0.8911 -0.2823
  628TMC3    C5 9300   4.261   0.145  14.765  0.0181  0.2742  0.7579
  628TMC3    C6 9301   4.381   0.089  14.814 -0.7601  0.2207  0.2956
  628TMC3     C 9302   4.126   4.589  14.665 -0.2347 -0.0475  0.4592
  628TMC3     O 9303   4.186   4.625  14.565 -0.3248  0.0558  0.1216
  628TMC3     H 9304   4.282   4.492  14.839 -0.2454 -0.3091 -0.7134
  628TMC3    H1 9305   4.057   0.095  14.703  0.6408 -1.9333 -2.6024
  628TMC3    H2 9306   4.468   0.152  14.797 -2.5378  2.2514 -1.3187
  628TMC3    C7 9307   4.279   0.252  14.663  0.3297  0.3820 -0.0446
  628TMC3    C8 9308   4.517   4.619  14.890  0.1159 -0.4092 -0.5491
  628TMC3    O1 9309   4.393   0.274  14.623  0.1208  0.1563  0.4008
  628TMC3    O2 9310   4.620   4.689  14.884  0.1517 -0.8247 -0.1884
  629MPD2     C 9311   1.906   2.966  16.831  0.8967  0.3182  0.2681
  629MPD2    C1 9312   1.895   2.925  16.701  0.1072 -0.9201 -0.4657
  629MPD2    C2 9313   1.772   2.878  16.662  0.4477 -0.0651 -0.3560
  629MPD2    C3 9314   1.667   2.869  16.753 -0.0799  0.3190  0.5964
  629MPD2    C4 9315   1.676   2.932  16.881 -0.0083 -0.7907  0.6783
  629MPD2    C5 9316   1.796   2.976  16.914 -0.1012 -0.4216  0.5229
  629MPD2     H 9317   1.755   2.839  16.562 -1.7314 -0.0282  0.0081
  629MPD2    H1 9318   1.596   2.934  16.953 -1.3363  0.7283 -0.8275
  629MPD2    H2 9319   1.995   3.018  16.863  0.9306  0.4770 -0.0907
  629MPD2    H3 9320   1.810   3.027  17.009  1.1365  3.7190 -1.8554
  629MPD2     N 9321   1.551   2.798  16.714 -0.2756 -0.4389 -0.4911
  629MPD2    H5 9322   1.558   2.729  16.640  1.2043 -1.8115  0.9293
  629MPD2    N1 9323   2.009   2.934  16.616 -0.0632  0.8193 -0.3157
  629MPD2    H7 9324   2.096   2.968  16.655  0.2333  0.5529 -0.7539
  630TMC3    C1 9325   2.147   2.909  16.425 -1.0917 -0.3284 -0.1972
  630TMC3    C2 9326   2.150   2.981  16.308 -0.1572  0.0099  0.2196
  630TMC3    C3 9327   2.266   3.036  16.261  0.0759 -0.2719 -0.6956
  630TMC3    C4 9328   2.248   2.904  16.513  0.7895 -0.0901  0.1426
  630TMC3    C5 9329   2.361   2.978  16.483  0.0469  0.3756 -0.4071
  630TMC3    C6 9330   2.371   3.027  16.352 -0.0873  0.1814 -0.2331
  630TMC3     C 9331   2.008   2.907  16.483  0.3999  0.0240 -0.3798
  630TMC3     O 9332   1.910   2.889  16.408  0.7551  0.0341 -0.1268
  630TMC3     H 9333   2.056   2.994  16.256 -0.4706  1.7234  1.2270
  630TMC3    H1 9334   2.243   2.848  16.606  2.3465 -0.5458 -0.0482
  630TMC3    H2 9335   2.466   3.076  16.334  0.4785 -1.3081 -1.1724
  630TMC3    C7 9336   2.442   3.039  16.588  0.8911  0.0425 -0.0379
  630TMC3    C8 9337   2.266   3.162  16.196 -0.0447 -0.2676 -0.0505
  630TMC3    O1 9338   2.438   2.974  16.691 -0.5558  0.3833 -0.0919
  630TMC3    O2 9339   2.377   3.203  16.159  0.7137 -0.6390  0.2094
  631MPD2     C 9340   0.466   2.884  15.511 -0.2964 -0.0297 -0.6603
  631MPD2    C1 9341   0.567   2.933  15.434  0.1660  0.6908  0.0151
  631MPD2    C2 9342   0.680   2.855  15.416 -0.5537 -0.3834 -0.0151
  631MPD2    C3 9343   0.693   2.728  15.474 -0.0651  0.4157  0.3431
  631MPD2    C4 9344   0.592   2.675  15.545  0.2469 -0.6610 -0.0840
  631MPD2    C5 9345   0.478   2.753  15.560 -0.5215 -0.4562 -0.1767
  631MPD2     H 9346   0.760   2.914  15.374  0.7448 -2.2356 -0.1544
  631MPD2    H1 9347   0.600   2.577  15.592 -1.6256 -1.9608 -2.4939
  631MPD2    H2 9348   0.368   2.930  15.521  0.4673  1.4413  0.0665
  631MPD2    H3 9349   0.398   2.709  15.619 -0.6621 -1.1746 -0.9085
  631MPD2     N 9350   0.822   2.675  15.481 -0.2472 -0.3112 -0.0917
  631MPD2    H5 9351   0.888   2.710  15.412 -1.3297  0.6035 -0.6726
  631MPD2    N1 9352   0.538   3.055  15.376  0.5729 -0.9171  0.2328
  631MPD2    H7 9353   0.453   3.104  15.403  0.7459  0.3693 -1.5491
  632TMC3    C1 9354   0.569   3.241  15.232 -0.0993  0.3159  0.1661
  632TMC3    C2 9355   0.476   3.312  15.309  0.4557  0.6081 -0.1868
  632TMC3    C3 9356   0.411   3.425  15.250 -0.1642 -0.1628 -0.0299
  632TMC3    C4 9357   0.605   3.300  15.110 -0.5646 -0.2634  0.5023
  632TMC3    C5 9358   0.540   3.411  15.059 -0.0568 -0.0158  0.2337
  632TMC3    C6 9359   0.434   3.473  15.125 -0.1657 -0.4262  0.5358
  632TMC3     C 9360   0.614   3.113  15.272 -0.1290  0.2810 -0.1736
  632TMC3     O 9361   0.700   3.071  15.201 -0.1014 -0.1784  0.4184
  632TMC3     H 9362   0.446   3.280  15.408 -1.2563  0.9369 -0.5991
  632TMC3    H1 9363   0.656   3.238  15.038 -0.3822 -0.0327  0.4310
  632TMC3    H2 9364   0.387   3.559  15.079  1.8937 -0.3178 -1.3669
  632TMC3    C7 9365   0.592   3.469  14.939 -0.2204  0.0627  0.2233
  632TMC3    C8 9366   0.336   3.506  15.348 -0.1746 -0.8676  0.1107
  632TMC3    O1 9367   0.529   3.541  14.865  0.8965 -0.1456 -0.0567
  632TMC3    O2 9368   0.369   3.494  15.466 -0.0563  0.4205  0.5232
  633MPD2     C 9369   0.293   1.338  17.490  0.5234  0.3053 -1.1630
  633MPD2    C1 9370   0.296   1.278  17.367  0.5267  0.0021  0.0018
  633MPD2    C2 9371   0.297   1.137  17.354  0.2215  0.1639 -0.8968
  633MPD2    C3 9372   0.316   1.055  17.464 -0.2878  0.1946  0.2496
  633MPD2    C4 9373   0.340   1.123  17.583 -0.3427  0.3517  0.7828
  633MPD2    C5 9374   0.324   1.256  17.595  0.0354  0.4141  0.1628
  633MPD2     H 9375   0.267   1.106  17.254 -0.0125 -0.2303 -0.7059
  633MPD2    H1 9376   0.381   1.069  17.668  0.1908  0.0340  0.3239
  633MPD2    H2 9377   0.271   1.442  17.511  3.7534  1.0057 -1.2044
  633MPD2    H3 9378   0.331   1.305   0.001  0.8448 -1.5266  1.0779
  633MPD2     N 9379   0.321   0.914  17.458  0.3553 -0.0317 -0.3623
  633MPD2    H5 9380   0.354   0.864  17.540  0.3777 -0.0246 -0.3668
  633MPD2    N1 9381   0.298   1.351  17.248  0.2851 -0.4969  0.1118
  633MPD2    H7 9382   0.294   1.297  17.162  0.5215 -1.3669  0.6513
  634TMC3    C1 9383   0.325   1.530  17.098 -0.2011  0.5939  0.4439
  634TMC3    C2 9384   0.390   1.457  17.006  0.1923  0.4351  0.1507
  634TMC3    C3 9385   0.385   1.497  16.874  0.5495 -0.1484  0.5265
  634TMC3    C4 9386   0.271   1.648  17.066 -0.1072 -0.1587 -1.1235
  634TMC3    C5 9387   0.282   1.690  16.937  0.3052 -0.3627 -0.1111
  634TMC3    C6 9388   0.321   1.612  16.838  0.4099  0.8190 -0.1931
  634TMC3     C 9389   0.310   1.491  17.236 -0.7610  0.5781 -0.0645
  634TMC3     O 9390   0.303   1.574  17.324  0.8575 -0.5822  0.0354
  634TMC3     H 9391   0.435   1.362  17.031 -0.4052  0.7653  2.4932
  634TMC3    H1 9392   0.213   1.696  17.144 -0.2435 -1.7605 -0.2327
  634TMC3    H2 9393   0.304   1.640  16.734 -0.3904 -0.2297 -0.3507
  634TMC3    C7 9394   0.200   1.803  16.898 -0.3200  0.4773  0.4234
  634TMC3    C8 9395   0.441   1.402  16.779  0.2115  0.5554  0.6601
  634TMC3    O1 9396   0.154   1.808  16.788  0.2513 -0.2333  0.3120
  634TMC3    O2 9397   0.488   1.299  16.828  0.4429 -0.1836 -0.0466
  635TMC3    C1 9398   0.671   1.561   0.865  0.7229 -0.5004 -0.4068
  635TMC3    C2 9399   0.705   1.430   0.839 -0.9066 -0.5340  0.1623
  635TMC3    C3 9400   0.690   1.345   0.949  0.0256 -0.7602 -0.7957
  635TMC3    C4 9401   0.622   1.610   0.989  0.3473 -0.3431 -0.8829
  635TMC3    C5 9402   0.606   1.512   1.089 -0.1458 -0.4475 -0.5776
  635TMC3    C6 9403   0.657   1.386   1.075  0.7663 -0.9176 -0.0501
  635TMC3     C 9404   0.689   1.663   0.766  0.3214  0.1008  0.0575
  635TMC3     O 9405   0.675   1.784   0.799  0.4901  0.0958  0.4406
  635TMC3     H 9406   0.772   1.401   0.760 -2.8222  2.9869 -2.7616
  635TMC3    H1 9407   0.600   1.714   1.010  0.7436 -1.0647  2.9693
  635TMC3    H2 9408   0.643   1.307   1.148  0.0213 -0.5279  0.2257
  635TMC3    C7 9409   0.525   1.535   1.210 -0.3447 -0.3211 -0.2748
  635TMC3    C8 9410   0.745   1.212   0.943  0.6336  0.2740 -0.5233
  635TMC3    O1 9411   0.520   1.454   1.301 -0.1115  0.8386  0.0465
  635TMC3    O2 9412   0.790   1.164   1.047 -0.0386 -0.0125  0.5761
  636MPD2     C 9413   1.318   1.377  15.716  0.4177  0.3414 -0.3156
  636MPD2    C1 9414   1.346   1.339  15.851 -0.1166 -0.3922 -0.2520
  636MPD2    C2 9415   1.413   1.223  15.865 -1.4128  0.1086 -0.3535
  636MPD2    C3 9416   1.461   1.161  15.754 -0.0191  0.3060 -0.3682
  636MPD2    C4 9417   1.437   1.205  15.630 -0.5908 -0.4717  0.2153
  636MPD2    C5 9418   1.366   1.318  15.606  0.0094 -0.0753 -0.7670
  636MPD2     H 9419   1.425   1.171  15.960 -0.3904 -1.8322 -1.5463
  636MPD2    H1 9420   1.481   1.152  15.546  1.4105  0.3201  0.7572
  636MPD2    H2 9421   1.258   1.464  15.691  0.2027  0.6792  1.4147
  636MPD2    H3 9422   1.334   1.353  15.508  2.1545  2.8947 -0.3973
  636MPD2     N 9423   1.551   1.055  15.780  0.1718 -0.8622 -0.3828
  636MPD2    H5 9424   1.565   1.049  15.880 -0.3535 -0.4168 -0.2798
  636MPD2    N1 9425   1.284   1.406  15.961 -0.6050 -1.0243  0.2114
  636MPD2    H7 9426   1.319   1.396  16.056  0.4978  0.2900 -0.0504
  637TMC3    C1 9427   1.732   0.903  15.777  0.7287  1.0092 -0.0318
  637TMC3    C2 9428   1.679   0.866  15.904 -0.3754  0.0887 -0.2436
  637TMC3    C3 9429   1.762   0.867  16.019  0.6833  0.1270  0.4340
  637TMC3    C4 9430   1.854   0.950  15.761  0.3609  0.0921 -0.3449
  637TMC3    C5 9431   1.929   0.958  15.878  0.0869 -0.3231  0.0072
  637TMC3    C6 9432   1.888   0.912  16.001  0.0630 -0.7448  0.0804
  637TMC3     C 9433   1.640   0.983  15.697  0.2039  0.2621 -0.3008
  637TMC3     O 9434   1.665   1.008  15.581  0.3216  0.0290  0.1156
  637TMC3     H 9435   1.574   0.841  15.909 -0.2244 -0.1676  1.4180
  637TMC3    H1 9436   1.901   0.979  15.667 -0.3105  1.9081 -0.1176
  637TMC3    H2 9437   1.954   0.926  16.086 -2.1294  0.5553  1.5844
  637TMC3    C7 9438   2.017   1.075  15.900  0.3644 -0.2649  0.1163
  637TMC3    C8 9439   1.692   0.960  16.107  0.2350  0.4280  0.1810
  637TMC3    O1 9440   2.054   1.099  16.017  0.1949 -0.4384 -0.7540
  637TMC3    O2 9441   1.626   1.048  16.052 -0.0069  0.3290 -0.3656
  638MPD2     C 9442   1.438   0.350  14.723 -0.0091 -0.0762  0.0388
  638MPD2    C1 9443   1.390   0.239  14.670  0.0044 -0.0667 -0.5316
  638MPD2    C2 9444   1.336   0.141  14.748 -0.0654  0.3929  0.3903
  638MPD2    C3 9445   1.330   0.171  14.883  0.1174 -0.3770 -0.3505
  638MPD2    C4 9446   1.354   0.293  14.934 -0.5289  0.5499 -0.6446
  638MPD2    C5 9447   1.418   0.384  14.852 -0.4346 -0.1121 -0.1608
  638MPD2     H 9448   1.316   0.041  14.711 -0.4724  1.0029 -1.0369
  638MPD2    H1 9449   1.353   0.321  15.038 -0.7946 -2.6975  0.2227
  638MPD2    H2 9450   1.491   0.420  14.660 -0.7399  0.5883  0.1605
  638MPD2    H3 9451   1.461   0.477  14.888  0.1784 -1.3788  2.3437
  638MPD2     N 9452   1.283   0.073  14.973  0.1368  0.4696  0.1698
  638MPD2    H5 9453   1.246   4.709  14.935  1.4231  0.7328 -1.7068
  638MPD2    N1 9454   1.398   0.229  14.528 -0.0120  0.7407 -0.7745
  638MPD2    H7 9455   1.464   0.285  14.476  0.1482  0.1805 -1.1790
  639TMC3    C1 9456   1.240   4.695  15.176 -0.6622 -0.3736  0.2262
  639TMC3    C2 9457   1.112   4.661  15.136  0.0792  0.0037 -0.2424
  639TMC3    C3 9458   1.043   4.579  15.218 -0.2129  1.1743  0.0226
  639TMC3    C4 9459   1.288   4.667  15.298 -0.5282 -0.2165  0.3007
  639TMC3    C5 9460   1.205   4.599  15.385 -0.5627  0.0175  0.0700
  639TMC3    C6 9461   1.079   4.565  15.348  0.1504  0.8893 -0.7164
  639TMC3     C 9462   1.314   0.068  15.100 -0.5868 -0.2328  0.2768
  639TMC3     O 9463   1.407   0.124  15.158 -0.0779  0.2647 -0.6843
  639TMC3     H 9464   1.066   4.684  15.041  3.1883  1.3973 -1.4205
  639TMC3    H1 9465   1.389   4.692  15.328 -0.2688  0.1049 -0.8351
  639TMC3    H2 9466   1.013   4.517  15.419  2.4340 -1.3264 -0.1010
  639TMC3    C7 9467   1.256   4.509  15.480 -0.5393  0.3691 -0.9687
  639TMC3    C8 9468   0.972   4.479  15.143  0.0916 -0.1047  0.7987
  639TMC3    O1 9469   1.194   4.482  15.579 -0.5612 -0.1305 -0.4625
  639TMC3    O2 9470   1.017   4.468  15.030  0.0925 -0.0943 -0.0800
  640MPD2     C 9471   1.694   3.918   9.983 -0.1524 -0.2268  0.3428
  640MPD2    C1 9472   1.588   3.889   9.900  0.0609  0.5539 -0.4540
  640MPD2    C2 9473   1.465   3.962   9.900 -0.4657  0.6505  0.3526
  640MPD2    C3 9474   1.453   4.070   9.987  0.6433  1.2024  0.1046
  640MPD2    C4 9475   1.561   4.103  10.062 -0.1433  0.2356 -0.5136
  640MPD2    C5 9476   1.678   4.026  10.066  0.2854 -0.5038 -0.3298
  640MPD2     H 9477   1.389   3.934   9.828 -0.7346  2.2508  0.0166
  640MPD2    H1 9478   1.554   4.178  10.139  1.0290 -1.8758  1.6280
  640MPD2    H2 9479   1.793   3.874   9.975 -0.4432 -0.4597 -1.8255
  640MPD2    H3 9480   1.758   4.056  10.133 -0.4975  1.9992 -0.5277
  640MPD2     N 9481   1.334   4.148   9.992  0.0006 -0.5378  0.5526
  640MPD2    H5 9482   1.340   4.240  10.035  2.7983 -0.7705  0.6288
  640MPD2    N1 9483   1.609   3.781   9.803  0.3310 -0.0567  0.1679
  640MPD2    H7 9484   1.690   3.720   9.808 -2.1232 -3.3075 -0.0755
  641TMC3    C1 9485   1.606   3.668   9.592  0.8939 -0.0009 -0.2159
  641TMC3    C2 9486   1.683   3.564   9.637  0.6679 -0.4224  0.2663
  641TMC3    C3 9487   1.738   3.483   9.538  0.2703  0.3731  0.4783
  641TMC3    C4 9488   1.595   3.705   9.458 -0.0032 -0.4378  0.5379
  641TMC3    C5 9489   1.665   3.628   9.366  0.3866 -0.5393 -0.8280
  641TMC3    C6 9490   1.718   3.508   9.406 -0.6662 -0.3264  0.1295
  641TMC3     C 9491   1.539   3.757   9.683  0.9233  1.1308  0.4091
  641TMC3     O 9492   1.452   3.823   9.627  0.0689 -0.1840  0.1180
  641TMC3     H 9493   1.686   3.539   9.742  2.5033 -0.4107  0.2116
  641TMC3    H1 9494   1.553   3.803   9.439  2.3574  0.2328 -1.2969
  641TMC3    H2 9495   1.752   3.430   9.338  0.5170  0.4630 -0.1937
  641TMC3    C7 9496   1.643   3.661   9.224  0.6016 -0.5529  0.5758
  641TMC3    C8 9497   1.818   3.368   9.579 -0.4746  0.5580 -0.5571
  641TMC3    O1 9498   1.562   3.747   9.187 -0.2606  0.0905 -0.4388
  641TMC3    O2 9499   1.835   3.291   9.485  0.0355  0.1291  0.3120
  642TMC3    C1 9500   2.839   0.604  12.103 -0.2647  0.6234 -0.1848
  642TMC3    C2 9501   2.918   0.610  12.216 -0.3512  0.2669  0.2860
  642TMC3    C3 9502   2.905   0.511  12.310 -0.4896 -0.2652  0.5945
  642TMC3    C4 9503   2.750   0.501  12.079 -0.2718  0.2093 -0.0535
  642TMC3    C5 9504   2.737   0.401  12.179  0.6576  0.2131 -0.1964
  642TMC3    C6 9505   2.806   0.412  12.297 -0.5744 -0.1535  0.0492
  642TMC3     C 9506   2.773   0.735  12.081  0.2618  0.3255 -0.0487
  642TMC3     O 9507   2.851   0.825  12.048 -0.3346  0.6068  0.1459
  642TMC3     H 9508   2.978   0.698  12.231 -0.6680  0.9866 -2.8340
  642TMC3    H1 9509   2.714   0.500  11.976 -2.9853  2.9953  0.8817
  642TMC3    H2 9510   2.797   0.342  12.380 -0.0678 -1.0105 -0.6184
  642TMC3    C7 9511   2.667   0.282  12.129  0.8019  1.1665  0.0968
  642TMC3    C8 9512   2.972   0.536  12.438  0.0542 -0.3548  0.0582
  642TMC3    O1 9513   2.624   0.292  12.014  0.5516  0.3947  0.0524
  642TMC3    O2 9514   2.905   0.514  12.538  0.0051 -0.4973 -0.1809
  643TMC3    C1 9515   2.529   4.215   0.573  0.4117 -0.7574 -0.0369
  643TMC3    C2 9516   2.433   4.166   0.652 -0.1218 -0.3292 -0.2609
  643TMC3    C3 9517   2.307   4.142   0.596 -0.1779 -0.7011 -0.4701
  643TMC3    C4 9518   2.511   4.233   0.444  0.2199  0.2615  0.1059
  643TMC3    C5 9519   2.394   4.198   0.384  0.4462 -0.0648 -0.6300
  643TMC3    C6 9520   2.287   4.145   0.458 -0.0860 -0.3271  0.1257
  643TMC3     C 9521   2.598   4.317   0.645 -0.9327 -0.1196 -0.0180
  643TMC3     O 9522   2.576   4.437   0.619  0.3025  0.2067  0.1491
  643TMC3     H 9523   2.446   4.147   0.757  2.7695  1.7503 -0.2359
  643TMC3    H1 9524   2.594   4.267   0.383  1.6667 -0.4720  1.6694
  643TMC3    H2 9525   2.187   4.135   0.418  0.3125  2.3561 -1.5187
  643TMC3    C7 9526   2.369   4.263   0.264 -0.3233 -0.2717 -0.4464
  643TMC3    C8 9527   2.195   4.191   0.668  0.4918 -0.3352  0.5473
  643TMC3    O1 9528   2.430   4.368   0.256 -0.1975  0.0522 -0.0073
  643TMC3    O2 9529   2.174   4.134   0.775  0.4988 -0.1447 -0.1423
  644MPD2     C 9530   1.643   0.178   9.298 -0.6083  0.6034 -0.1397
  644MPD2    C1 9531   1.514   0.118   9.307  0.7869 -0.5329  0.2806
  644MPD2    C2 9532   1.394   0.195   9.288  0.1785 -0.6425 -0.1400
  644MPD2    C3 9533   1.413   0.336   9.273 -0.3283  0.0908 -0.4135
  644MPD2    C4 9534   1.539   0.385   9.256  0.2088  0.0519 -0.8201
  644MPD2    C5 9535   1.653   0.308   9.255  0.8301  0.2293 -0.0431
  644MPD2     H 9536   1.292   0.158   9.288  0.3594 -1.1534  0.1924
  644MPD2    H1 9537   1.559   0.490   9.242  0.6170 -0.2693 -2.6653
  644MPD2    H2 9538   1.732   0.118   9.281 -2.2447 -1.6376 -0.9340
  644MPD2    H3 9539   1.753   0.350   9.247  1.3086 -0.6863  1.3705
  644MPD2     N 9540   1.297   0.422   9.268  0.3440 -0.2798  0.0542
  644MPD2    H5 9541   1.210   0.370   9.273 -0.7963  1.4109 -2.2165
  644MPD2    N1 9542   1.517   4.700   9.317  0.3009 -0.2111  0.9597
  644MPD2    H7 9543   1.608   4.656   9.320  0.6809  0.7922  3.8275
  645TMC3    C1 9544   1.159   0.618   9.246 -0.6393 -0.1650  0.1805
  645TMC3    C2 9545   1.158   0.743   9.191  0.1184 -0.6133  0.1852
  645TMC3    C3 9546   1.036   0.792   9.146 -1.1226 -0.2618  0.0886
  645TMC3    C4 9547   1.049   0.536   9.245  0.3109 -0.4917  0.1872
  645TMC3    C5 9548   0.929   0.595   9.207  0.3369  0.5217  0.6681
  645TMC3    C6 9549   0.922   0.719   9.154 -0.0022 -0.1998 -0.0271
  645TMC3     C 9550   1.293   0.559   9.262  0.1765 -0.5112  0.7966
  645TMC3     O 9551   1.382   0.647   9.264  0.7493  0.0249  0.4167
  645TMC3     H 9552   1.245   0.806   9.179 -0.3975  0.5041  2.3025
  645TMC3    H1 9553   1.051   0.430   9.266  1.1348 -0.0911  2.1081
  645TMC3    H2 9554   0.831   0.766   9.118  1.1452 -0.6343 -3.4300
  645TMC3    C7 9555   0.807   0.511   9.214  0.5122  0.1829 -0.6860
  645TMC3    C8 9556   1.036   0.921   9.081  0.4920  0.2152  0.2862
  645TMC3    O1 9557   0.818   0.399   9.255  0.1141 -0.0323  0.6750
  645TMC3    O2 9558   1.120   0.998   9.121 -0.3264 -0.0389  0.6583
  646MPD2     C 9559   1.423   3.744  14.720 -0.2780 -0.5584 -0.2320
  646MPD2    C1 9560   1.314   3.706  14.792 -0.5490  0.3345 -0.4111
  646MPD2    C2 9561   1.194   3.751  14.764  0.0191  0.2460 -0.1334
  646MPD2    C3 9562   1.169   3.836  14.655 -0.5371 -0.5929 -0.7201
  646MPD2    C4 9563   1.278   3.869  14.577 -0.7765  0.2347  0.1320
  646MPD2    C5 9564   1.400   3.827  14.608  0.1313  0.3032 -0.1505
  646MPD2     H 9565   1.114   3.715  14.826 -0.2944  0.7391 -0.2491
  646MPD2    H1 9566   1.271   3.924  14.484 -0.5295  0.5072  0.2735
  646MPD2    H2 9567   1.524   3.724  14.756  0.0749 -2.6334 -2.3809
  646MPD2    H3 9568   1.487   3.877  14.567  0.5953 -0.8318 -0.5657
  646MPD2     N 9569   1.037   3.872  14.624 -0.0533  0.5072 -0.4303
  646MPD2    H5 9570   0.958   3.844  14.681  0.5819 -0.4062 -0.0022
  646MPD2    N1 9571   1.345   3.607  14.894 -0.3209 -0.4362  1.0108
  646MPD2    H7 9572   1.436   3.563  14.895  0.3309  0.8717 -0.6291
  647TMC3    C1 9573   1.295   3.457  15.072 -0.3173 -0.9026  1.0927
  647TMC3    C2 9574   1.260   3.461  15.200 -0.2010 -0.6855 -0.3947
  647TMC3    C3 9575   1.291   3.349  15.275  0.2519  0.6573 -0.6378
  647TMC3    C4 9576   1.367   3.354  15.016  0.3252 -0.1425 -0.5292
  647TMC3    C5 9577   1.401   3.252  15.099  0.4469  0.2941 -0.2934
  647TMC3    C6 9578   1.362   3.244  15.227 -0.1202 -0.6510  0.5040
  647TMC3     C 9579   1.256   3.572  14.992 -0.1594  0.0193  0.0529
  647TMC3     O 9580   1.149   3.629  15.017  0.2717 -0.1389 -0.0621
  647TMC3     H 9581   1.215   3.543  15.255  2.7283  0.3689  0.4195
  647TMC3    H1 9582   1.389   3.364  14.910 -1.1128 -0.0568 -0.8186
  647TMC3    H2 9583   1.382   3.156  15.287 -2.2797 -0.5480  1.3862
  647TMC3    C7 9584   1.460   3.122  15.054 -0.4134  0.3628  0.3076
  647TMC3    C8 9585   1.252   3.347  15.414  0.2092  0.1129 -0.3740
  647TMC3    O1 9586   1.495   3.038  15.139  0.0639 -0.1309  0.1547
  647TMC3    O2 9587   1.171   3.432  15.450 -0.0310  0.2435  0.0659
  648TMC3    C1 9588   0.650   1.492  15.932 -0.0974 -0.5913 -0.0792
  648TMC3    C2 9589   0.687   1.403  15.833  0.1603  0.0812 -0.0484
  648TMC3    C3 9590   0.613   1.400  15.721  0.5001 -0.4781 -0.2503
  648TMC3    C4 9591   0.528   1.560  15.920 -0.0492 -0.0346 -0.0175
  648TMC3    C5 9592   0.461   1.556  15.802  0.0414 -0.8225 -0.3311
  648TMC3    C6 9593   0.505   1.475  15.702 -0.3552  1.1669 -0.1476
  648TMC3     C 9594   0.716   1.493  16.066 -0.6442 -0.0025  0.0507
  648TMC3     O 9595   0.681   1.589  16.132  0.1641  0.3241 -0.1051
  648TMC3     H 9596   0.770   1.336  15.852  0.9173  0.7319 -1.0960
  648TMC3    H1 9597   0.496   1.627  15.999  0.0824 -1.8241  1.5625
  648TMC3    H2 9598   0.445   1.461  15.613  0.6104  0.3420 -0.6670
  648TMC3    C7 9599   0.319   1.595  15.791 -0.0361  0.5722  0.2068
  648TMC3    C8 9600   0.616   1.270  15.638 -0.5758  0.2230  0.3071
  648TMC3    O1 9601   0.255   1.570  15.687 -0.2244  0.4387  0.0746
  648TMC3    O2 9602   0.516   1.253  15.567  0.2357 -0.1433 -0.1527
  649TMC3    C1 9603   4.638   2.695  12.854 -0.0537  0.4222 -0.1976
  649TMC3    C2 9604   0.047   2.654  12.836  0.4778 -0.2547 -0.0889
  649TMC3    C3 9605   0.108   2.575  12.929  0.2276 -0.0649 -0.5811
  649TMC3    C4 9606   4.568   2.658  12.961 -0.2572  0.0873 -0.0584
  649TMC3    C5 9607   4.633   2.588  13.060  0.1819  0.3205  0.1496
  649TMC3    C6 9608   0.039   2.549  13.047 -0.6925 -0.3028  0.4982
  649TMC3     C 9609   4.568   2.774  12.756 -0.1345  0.4570  0.5700
  649TMC3     O 9610   4.450   2.785  12.751  0.4612  0.1485  0.1779
  649TMC3     H 9611   0.092   2.659  12.738  0.7372 -1.1259 -0.0146
  649TMC3    H1 9612   4.467   2.696  12.973 -0.7983 -0.5147 -2.7861
  649TMC3    H2 9613   0.086   2.491  13.126 -2.5602 -3.0343 -0.3945
  649TMC3    C7 9614   4.550   2.513  13.146  0.3231 -0.8258 -0.2746
  649TMC3    C8 9615   0.225   2.497  12.899 -0.9963 -0.4560 -0.8287
  649TMC3    O1 9616   4.443   2.565  13.172  0.0414 -0.2072  1.2752
  649TMC3    O2 9617   0.246   2.399  12.967  0.4858 -0.1523 -0.7027
  650TMC3    C1 9618   2.043   4.511  12.748  0.1681  0.1323 -0.4543
  650TMC3    C2 9619   2.054   4.646  12.779  0.7739  0.2077  0.2211
  650TMC3    C3 9620   2.109   0.005  12.682  0.2212 -0.2043  0.0746
  650TMC3    C4 9621   2.076   4.456  12.625  0.8652  0.0914  0.4650
  650TMC3    C5 9622   2.109   4.546  12.525  0.2177 -0.6748  0.4638
  650TMC3    C6 9623   2.134   4.674  12.556  0.3080 -0.1730 -0.4649
  650TMC3     C 9624   1.991   4.430  12.854 -0.9958 -0.9063  0.8105
  650TMC3     O 9625   1.932   4.478  12.949  0.2692 -0.3449 -0.4414
  650TMC3     H 9626   1.993   4.680  12.862 -1.4545 -0.1000 -1.2810
  650TMC3    H1 9627   2.085   4.350  12.602  2.0083  0.5415 -1.1512
  650TMC3    H2 9628   2.161   0.013  12.471  1.6849  0.7463  0.6293
  650TMC3    C7 9629   2.060   4.513  12.394 -0.1908 -0.4365  0.8341
  650TMC3    C8 9630   2.089   0.151  12.680 -0.5543  0.0811 -0.4355
  650TMC3    O1 9631   2.019   4.401  12.378  0.8869 -0.4179  0.0402
  650TMC3    O2 9632   2.123   0.210  12.578  0.0850  0.5310  0.1897
  651MPD2     C 9633   0.681   1.001  10.235 -0.0648 -0.4245  0.8926
  651MPD2    C1 9634   0.654   1.128  10.280 -0.3198 -0.2850  0.9307
  651MPD2    C2 9635   0.750   1.207  10.327 -0.4871  0.1179  0.0031
  651MPD2    C3 9636   0.876   1.161  10.334  0.0003  0.3144  0.1927
  651MPD2    C4 9637   0.912   1.040  10.290 -0.1340  1.0272 -0.4994
  651MPD2    C5 9638   0.810   0.962  10.239 -0.8619  0.2561 -0.2688
  651MPD2     H 9639   0.724   1.307  10.361  2.7553  1.4012 -1.1976
  651MPD2    H1 9640   1.015   1.006  10.292 -0.2965  0.5818  0.6303
  651MPD2    H2 9641   0.602   0.929  10.218  1.2110 -1.5788 -0.1209
  651MPD2    H3 9642   0.821   0.861  10.201 -0.8903  0.7898 -1.6652
  651MPD2     N 9643   0.980   1.248  10.380  0.8514  0.2680  0.2997
  651MPD2    H5 9644   0.954   1.344  10.403  1.3089 -0.0342  2.0061
  651MPD2    N1 9645   0.522   1.174  10.294 -0.0224 -0.4549  0.3818
  651MPD2    H7 9646   0.511   1.269  10.327  1.8303  0.0219 -0.3511
  652TMC3    C1 9647   1.393   1.445  10.386  0.8132 -0.1345  0.3141
  652TMC3    C2 9648   1.323   1.327  10.380  0.0287 -0.5948  0.8358
  652TMC3    C3 9649   1.194   1.336  10.429  0.0431 -0.4668  0.0004
  652TMC3    C4 9650   1.340   1.561  10.441 -0.0328  0.4420 -0.0091
  652TMC3    C5 9651   1.221   1.552  10.512 -0.2396 -0.0017 -0.0008
  652TMC3    C6 9652   1.150   1.443  10.495  0.2072 -0.4167  0.2768
  652TMC3     C 9653   1.526   1.449  10.331 -0.1128 -0.3072 -0.7660
  652TMC3     O 9654   1.585   1.343  10.340 -0.4808 -0.5109 -0.1961
  652TMC3     H 9655   1.359   1.235  10.335  1.0927 -0.5953  1.6569
  652TMC3    H1 9656   1.414   1.636  10.468  0.7142 -1.0299  2.0217
  652TMC3    H2 9657   1.051   1.434  10.537 -0.6793  0.9132 -1.5344
  652TMC3    C7 9658   1.185   1.628  10.631  0.8368  0.3114  0.4070
  652TMC3    C8 9659   1.105   1.215  10.416  0.9319  0.2191  0.0060
  652TMC3    O1 9660   1.100   1.581  10.712  0.1822 -0.6985 -0.1559
  652TMC3    O2 9661   1.159   1.108  10.417  0.1634 -0.0072  0.1090
  653MPD2     C 9662   4.572   1.642   0.066  0.2192  0.1673 -0.2406
  653MPD2    C1 9663   4.678   1.560   0.095 -0.2428  0.4223  0.6637
  653MPD2    C2 9664   4.680   1.430   0.040 -0.5365 -0.4367 -0.2669
  653MPD2    C3 9665   4.583   1.399  17.633  0.6099  0.4141  0.3384
  653MPD2    C4 9666   4.478   1.478  17.608  0.0580 -0.8453  0.2863
  653MPD2    C5 9667   4.475   1.596  17.671  0.1376 -0.5687 -0.1280
  653MPD2     H 9668   0.034   1.361   0.075  0.6009  0.7571 -0.3907
  653MPD2    H1 9669   4.398   1.451  17.540 -0.0189 -1.0345  0.4509
  653MPD2    H2 9670   4.562   1.746   0.097 -0.5202  0.5194 -1.6551
  653MPD2    H3 9671   4.388   1.657  17.651  0.7808  1.2648  2.6473
  653MPD2     N 9672   4.582   1.271  17.571 -0.2479 -0.1489  0.6548
  653MPD2    H5 9673   4.506   1.251  17.507  2.3905 -0.1026 -2.5131
  653MPD2    N1 9674   0.061   1.602   0.171 -0.5041  0.3471 -0.3395
  653MPD2    H7 9675   0.137   1.538   0.193 -0.3117  0.7546  0.1820
  654TMC3    C1 9676   4.698   1.101  17.476  0.0887 -0.7629  0.2595
  654TMC3    C2 9677   4.650   1.150  17.359  0.3350  0.0026 -0.0096
  654TMC3    C3 9678   4.632   1.064  17.255  0.0311  0.0250 -0.8029
  654TMC3    C4 9679   4.722   0.968  17.489 -0.0738 -0.6503 -0.4047
  654TMC3    C5 9680   4.690   0.884  17.384 -0.3001  0.4009  0.4196
  654TMC3    C6 9681   4.650   0.933  17.262  0.3445 -0.1227  0.2331
  654TMC3     C 9682   4.675   1.172  17.597  0.6541 -0.2635 -0.7495
  654TMC3     O 9683   0.011   1.140   0.007 -0.0293  0.4344 -0.9063
  654TMC3     H 9684   4.645   1.257  17.344  1.6196  0.1519  0.6041
  654TMC3    H1 9685   0.063   0.930  17.569  1.2785 -1.6699 -1.9434
  654TMC3    H2 9686   4.625   0.870  17.177 -1.5159  0.8502  0.0580
  654TMC3    C7 9687   4.690   0.739  17.389  0.1385  0.2912  0.1894
  654TMC3    C8 9688   4.550   1.120  17.153 -0.7648  0.5242 -0.5708
  654TMC3    O1 9689   4.673   0.672  17.286 -0.4794 -0.2150 -0.1337
  654TMC3    O2 9690   4.485   1.218  17.185 -0.6153 -0.3433  0.2273
  655MPD2     C 9691   0.968   1.671  15.596  0.3093 -0.6414 -0.4651
  655MPD2    C1 9692   0.837   1.671  15.555  0.2635 -0.2471  0.4288
  655MPD2    C2 9693   0.811   1.628  15.432 -0.0099 -0.3441 -0.1260
  655MPD2    C3 9694   0.907   1.561  15.357 -0.0877 -0.0235  0.0956
  655MPD2    C4 9695   1.042   1.568  15.392  0.7564 -0.1605  0.2819
  655MPD2    C5 9696   1.068   1.627  15.512  0.2825 -0.6072  0.4145
  655MPD2     H 9697   0.707   1.620  15.400 -0.0433  1.8677 -0.6097
  655MPD2    H1 9698   1.122   1.518  15.339 -1.0753 -2.3109 -0.4605
  655MPD2    H2 9699   0.995   1.721  15.689 -0.4689 -0.2084 -0.4732
  655MPD2    H3 9700   1.165   1.614  15.560 -0.1524  0.1911  1.5083
  655MPD2     N 9701   0.882   1.492  15.241  0.3138 -0.0581 -0.2458
  655MPD2    H5 9702   0.962   1.449  15.198 -0.0697 -1.0571  0.0340
  655MPD2    N1 9703   0.733   1.723  15.636 -0.1227 -0.2091 -0.4646
  655MPD2    H7 9704   0.641   1.729  15.592  0.1167 -0.7366 -1.0299
  656TMC3    C1 9705   0.654   1.868  15.802 -0.2088 -0.4663  0.7245
  656TMC3    C2 9706   0.640   1.890  15.937  0.1554 -0.0617 -0.2563
  656TMC3    C3 9707   0.547   1.985  15.974  0.3665 -0.0243  0.2330
  656TMC3    C4 9708   0.590   1.938  15.704  0.6968 -0.9619  0.0623
  656TMC3    C5 9709   0.490   2.016  15.750 -0.0332  0.4408 -0.1162
  656TMC3    C6 9710   0.460   2.036  15.881 -0.2114 -0.2591  0.6434
  656TMC3     C 9711   0.750   1.768  15.763  0.4243  0.1895 -0.4266
  656TMC3     O 9712   0.828   1.740  15.851  0.4814 -0.1465  0.5822
  656TMC3     H 9713   0.702   1.838  16.008 -0.4363  0.2458  0.4844
  656TMC3    H1 9714   0.622   1.945  15.601  0.7573 -2.0359  0.0095
  656TMC3    H2 9715   0.376   2.094  15.919 -0.9168 -1.4041  0.8265
  656TMC3    C7 9716   0.380   2.014  15.657 -0.0812  0.0021  0.4368
  656TMC3    C8 9717   0.474   1.950  16.091  0.0134 -0.3733 -0.1294
  656TMC3    O1 9718   0.399   1.945  15.557 -0.3606  0.4260  0.5275
  656TMC3    O2 9719   0.441   1.835  16.099  0.9180 -0.4462 -0.5168
  657TMC3    C1 9720   0.200   0.642  15.334  0.0340  0.7671  0.6319
  657TMC3    C2 9721   0.287   0.659  15.434  0.1732  0.3588 -0.0322
  657TMC3    C3 9722   0.273   0.766  15.521 -0.5276 -0.0202 -0.3922
  657TMC3    C4 9723   0.092   0.718  15.311  0.0607 -0.0307 -0.0181
  657TMC3    C5 9724   0.081   0.822  15.399 -0.1056  0.0392  0.2850
  657TMC3    C6 9725   0.168   0.846  15.502 -0.4202 -0.1689 -0.0182
  657TMC3     C 9726   0.229   0.534  15.244  0.1008  0.0860  0.2440
  657TMC3     O 9727   0.134   0.472  15.199  0.7210  0.9121  0.3801
  657TMC3     H 9728   0.365   0.585  15.447 -1.5541 -1.5485 -0.7032
  657TMC3    H1 9729   0.035   0.711  15.220  1.3501  1.9156 -0.9601
  657TMC3    H2 9730   0.158   0.932  15.567  1.2091  0.4583 -0.6209
  657TMC3    C7 9731   4.689   0.904  15.387 -0.5743 -0.2488 -0.4936
  657TMC3    C8 9732   0.362   0.782  15.638  0.0566 -0.4674 -0.2828
  657TMC3    O1 9733   4.680   1.002  15.457 -0.4919 -0.2665 -0.6699
  657TMC3    O2 9734   0.328   0.872  15.713 -0.5327  0.2578 -0.3176
  658MPD2     C 9735   1.361   1.330  14.846  0.5778  0.0363  0.5698
  658MPD2    C1 9736   1.234   1.344  14.788  0.6511 -0.2282  0.1134
  658MPD2    C2 9737   1.218   1.411  14.670  0.2687 -0.1480 -0.1450
  658MPD2    C3 9738   1.324   1.468  14.602 -0.3618 -0.1292  0.5966
  658MPD2    C4 9739   1.451   1.438  14.654  0.2062 -1.0095 -0.1272
  658MPD2    C5 9740   1.477   1.371  14.774 -0.4582  0.1879 -0.5123
  658MPD2     H 9741   1.118   1.437  14.638  0.1240 -1.7989 -1.0138
  658MPD2    H1 9742   1.539   1.487  14.615 -0.4684  0.2079 -0.1275
  658MPD2    H2 9743   1.378   1.282  14.942 -0.0329  0.9207  1.1296
  658MPD2    H3 9744   1.576   1.369  14.818 -1.0915  0.8763  0.9230
  658MPD2     N 9745   1.305   1.559  14.494  0.5569 -0.5355 -0.2278
  658MPD2    H5 9746   1.210   1.596  14.489  0.9693  0.5130 -0.4768
  658MPD2    N1 9747   1.120   1.282  14.850 -0.0707 -0.0842  0.1504
  658MPD2    H7 9748   1.131   1.263  14.949  2.3908 -0.7017 -0.2484
  659TMC3    C1 9749   0.886   1.282  14.898  0.0959  0.5015 -0.3258
  659TMC3    C2 9750   0.891   1.370  15.005  0.5375 -0.1131  0.3922
  659TMC3    C3 9751   0.766   1.406  15.056 -1.1972  0.4977 -1.4203
  659TMC3    C4 9752   0.771   1.224  14.852 -0.0814  1.2824 -0.0860
  659TMC3    C5 9753   0.650   1.266  14.909  0.4408  0.4242 -0.1710
  659TMC3    C6 9754   0.643   1.355  15.012 -0.2401  1.0102 -0.1283
  659TMC3     C 9755   0.991   1.278  14.802  0.2470  0.1919  0.3462
  659TMC3     O 9756   0.957   1.268  14.686 -0.1269 -0.3457 -0.4098
  659TMC3     H 9757   0.984   1.416  15.035  0.1440  1.7240 -1.2289
  659TMC3    H1 9758   0.766   1.156  14.768  2.0826 -1.8087  2.2844
  659TMC3    H2 9759   0.549   1.389  15.054  0.7397  1.9107  1.3309
  659TMC3    C7 9760   0.521   1.218  14.871  0.4708 -0.2140  0.5557
  659TMC3    C8 9761   0.760   1.481  15.179  0.5988 -0.0187 -0.3399
  659TMC3    O1 9762   0.423   1.267  14.928 -0.2350  0.1209 -0.5941
  659TMC3    O2 9763   0.648   1.507  15.216 -0.0795  0.0266  0.7446
  660MPD2     C 9764   4.244   0.252  12.584  0.4143  0.5440  0.1201
  660MPD2    C1 9765   4.110   0.252  12.551 -0.2593  0.2193  0.8404
  660MPD2    C2 9766   4.011   0.212  12.641 -0.2949 -0.6896  0.4315
  660MPD2    C3 9767   4.045   0.184  12.774  0.9168  0.1911  0.7437
  660MPD2    C4 9768   4.185   0.205  12.805  0.2567  0.1954 -0.1147
  660MPD2    C5 9769   4.277   0.233  12.712  0.2790 -0.0320  0.6190
  660MPD2     H 9770   3.906   0.208  12.614  0.3759  0.6263 -2.3187
  660MPD2    H1 9771   4.220   0.189  12.907 -0.2781  0.8481  0.1714
  660MPD2    H2 9772   4.319   0.277  12.509 -0.4076  3.4074  0.2518
  660MPD2    H3 9773   4.380   0.243  12.745  1.0714  0.4384 -2.0337
  660MPD2     N 9774   3.959   0.137  12.873 -0.6086 -0.3631 -0.2817
  660MPD2    H5 9775   4.000   0.121  12.964  0.8531  0.4054 -0.8075
  660MPD2    N1 9776   4.060   0.297  12.426 -0.6999 -0.0852  0.0184
  660MPD2    H7 9777   3.961   0.276  12.413 -0.8330 -0.8584  2.3280
  661TMC3    C1 9778   4.045   0.422  12.229 -0.1946 -0.2877 -0.1745
  661TMC3    C2 9779   4.087   0.522  12.152 -0.1664  0.5223 -0.1904
  661TMC3    C3 9780   3.994   0.600  12.088  0.8263  0.0937  0.2689
  661TMC3    C4 9781   3.906   0.395  12.243  0.6053  0.2065  0.7858
  661TMC3    C5 9782   3.814   0.484  12.188 -0.2028 -0.7753 -0.5098
  661TMC3    C6 9783   3.860   0.582  12.107 -0.6218 -0.3854 -0.5362
  661TMC3     C 9784   4.134   0.361  12.327  0.9903  0.4244 -0.1739
  661TMC3     O 9785   4.256   0.385  12.331  0.0416  0.4281  0.1048
  661TMC3     H 9786   4.195   0.525  12.136 -0.0874 -0.8496  0.0535
  661TMC3    H1 9787   3.866   0.301  12.280  0.1161  0.1689  0.1585
  661TMC3    H2 9788   3.792   0.650  12.056 -1.2594 -1.6724 -1.4170
  661TMC3    C7 9789   3.669   0.460  12.214 -0.5501  0.8158 -0.5246
  661TMC3    C8 9790   4.047   0.651  11.961 -0.2808  0.0887  0.1935
  661TMC3    O1 9791   3.643   0.401  12.315 -0.1728  0.3594 -0.6240
  661TMC3    O2 9792   4.120   0.572  11.907  0.0754 -1.5954 -0.6724
  662MPD2     C 9793   4.426   0.118  17.121 -0.4297 -0.3755 -0.9196
  662MPD2    C1 9794   4.380   0.106  17.252  0.1950 -0.1814 -0.1585
  662MPD2    C2 9795   4.339   0.221  17.312 -0.0181  0.0302 -0.7379
  662MPD2    C3 9796   4.341   0.352  17.252 -0.7797  0.2560  0.8337
  662MPD2    C4 9797   4.390   0.353  17.126  0.2283 -0.0626  0.0667
  662MPD2    C5 9798   4.427   0.239  17.064 -0.4520 -0.2072 -0.1720
  662MPD2     H 9799   4.295   0.218  17.411  0.8240 -1.7603 -0.4028
  662MPD2    H1 9800   4.394   0.446  17.070 -0.1981 -0.4522 -0.6072
  662MPD2    H2 9801   4.460   0.034  17.062 -0.4537 -0.5750 -0.6435
  662MPD2    H3 9802   4.473   0.242  16.966  2.8599 -1.5699  1.3390
  662MPD2     N 9803   4.307   0.470  17.320  0.7265  0.4622 -0.2944
  662MPD2    H5 9804   4.312   0.558  17.269 -0.0483  0.8914  0.3721
  662MPD2    N1 9805   4.356   4.702  17.313 -0.5201 -0.1458 -0.3510
  662MPD2    H7 9806   4.294   4.699  17.393  1.5910 -1.3651  1.2318
  663TMC3    C1 9807   4.343   4.467  17.341  0.3614 -0.1405 -0.3690
  663TMC3    C2 9808   4.327   4.481  17.479  0.1919 -0.4513  0.2665
  663TMC3    C3 9809   4.256   4.382  17.542  0.3049 -0.2036  0.0997
  663TMC3    C4 9810   4.271   4.377  17.269  0.2114  0.3944  0.3600
  663TMC3    C5 9811   4.189   4.285  17.332  0.2364 -0.0732 -0.4441
  663TMC3    C6 9812   4.181   4.284  17.469 -0.0143  0.3653 -0.5890
  663TMC3     C 9813   4.392   4.584  17.265  0.3318  0.2643 -0.0429
  663TMC3     O 9814   4.457   4.558  17.165  0.4998 -0.2262 -0.2752
  663TMC3     H 9815   4.371   4.567  17.527  0.7234 -0.7324  0.2859
  663TMC3    H1 9816   4.276   4.378  17.160  2.8844  2.5324  0.5305
  663TMC3    H2 9817   4.100   4.233  17.520 -0.0716 -0.7617 -1.8145
  663TMC3    C7 9818   4.089   4.222  17.249  0.2943  0.0815  0.4188
  663TMC3    C8 9819   4.174   4.460  17.626 -0.2628 -0.2199 -0.2445
  663TMC3    O1 9820   4.073   4.272  17.140  0.3837 -0.3648  0.4347
  663TMC3    O2 9821   4.147   4.574  17.601 -0.5001  0.5099 -0.4397
  664MPD2     C 9822   2.135   3.045  17.673 -0.6720 -0.0340 -0.3327
  664MPD2    C1 9823   2.271   3.045   0.006  0.8784 -0.1673 -0.1102
  664MPD2    C2 9824   2.317   3.015   0.140  0.6068  0.0524  0.2645
  664MPD2    C3 9825   2.232   2.978   0.240  0.0646 -0.3108 -0.3739
  664MPD2    C4 9826   2.094   2.967   0.207  0.1659 -0.2878 -0.4306
  664MPD2    C5 9827   2.049   2.989   0.079  0.3431  0.4730  0.5363
  664MPD2     H 9828   2.423   3.013   0.165  0.9378  1.2062 -1.0388
  664MPD2    H1 9829   2.018   2.946   0.281 -0.2908  0.0226 -0.8087
  664MPD2    H2 9830   2.094   3.056  17.574 -1.0227 -0.1582 -0.1986
  664MPD2    H3 9831   1.944   2.974   0.055  1.0265  1.5108 -3.2247
  664MPD2     N 9832   2.291   2.957   0.370 -0.0972  0.5096  0.4065
  664MPD2    H5 9833   2.378   3.000   0.397  0.4052  1.1583 -2.2070
  664MPD2    N1 9834   2.363   3.100  17.603  0.3640 -0.1052  0.5425
  664MPD2    H7 9835   2.458   3.116  17.634  0.3997 -0.1148  0.4378
  665TMC3    C1 9836   2.264   2.940   0.607 -0.0257  0.4104  0.0967
  665TMC3    C2 9837   2.198   2.873   0.704 -0.2371 -0.1102  0.1224
  665TMC3    C3 9838   2.203   2.920   0.834 -1.1877 -0.8063  0.3728
  665TMC3    C4 9839   2.333   3.052   0.629  0.5597  0.8216 -0.7744
  665TMC3    C5 9840   2.333   3.101   0.762 -0.2999  0.5455  0.5721
  665TMC3    C6 9841   2.275   3.035   0.861  0.1614  0.0888  0.5093
  665TMC3     C 9842   2.230   2.899   0.473 -0.0055 -0.0055  0.7015
  665TMC3     O 9843   2.137   2.823   0.454 -0.3801  0.5434  0.0963
  665TMC3     H 9844   2.141   2.784   0.680 -1.1204  0.4867  0.0029
  665TMC3    H1 9845   2.399   3.084   0.549 -0.2831  1.1873 -1.3281
  665TMC3    H2 9846   2.275   3.080   0.959  0.2836  1.4865 -0.1313
  665TMC3    C7 9847   2.409   3.219   0.783  0.0534  0.0412 -0.0629
  665TMC3    C8 9848   2.109   2.886   0.934  0.3278 -0.1507  0.5153
  665TMC3    O1 9849   2.452   3.281   0.688  0.1931 -0.3334 -0.1656
  665TMC3    O2 9850   2.149   2.878   1.049 -0.0722 -0.6744 -0.1167
  666TMC3    C1 9851   1.184   2.941  10.046 -0.2738 -0.8544  0.2647
  666TMC3    C2 9852   1.284   2.879  10.114  0.5602 -0.4506  0.1400
  666TMC3    C3 9853   1.373   2.941  10.191 -0.7299 -0.2468  0.1003
  666TMC3    C4 9854   1.165   3.076  10.061  0.3230  0.4151 -0.7301
  666TMC3    C5 9855   1.258   3.138  10.142  0.6181  0.0245 -0.1835
  666TMC3    C6 9856   1.359   3.074  10.212  0.1594  0.2779 -0.1257
  666TMC3     C 9857   1.084   2.866   9.975 -0.6885 -0.0770  0.5667
  666TMC3     O 9858   1.020   2.926   9.889  0.0896  0.2304 -0.4040
  666TMC3     H 9859   1.286   2.771  10.104 -1.0989 -0.5697  1.1017
  666TMC3    H1 9860   1.108   3.130   9.987  0.6708 -2.0065 -2.7737
  666TMC3    H2 9861   1.420   3.137  10.275  0.3588  0.5183 -0.5574
  666TMC3    C7 9862   1.228   3.276  10.178 -0.2698 -0.2717  0.4467
  666TMC3    C8 9863   1.468   2.871  10.276 -0.1315 -0.2553 -0.1851
  666TMC3    O1 9864   1.227   3.296  10.298 -0.2737 -0.0295 -0.5814
  666TMC3    O2 9865   1.453   2.749  10.282 -0.3453  0.0686 -0.2140
  667MPD2     C 9866   2.413   2.920  14.738  1.1589  0.7294  0.4142
  667MPD2    C1 9867   2.443   2.785  14.772 -0.0059 -0.2773  0.2441
  667MPD2    C2 9868   2.389   2.682  14.695  0.2898 -0.2371  0.1214
  667MPD2    C3 9869   2.314   2.706  14.586  0.0246  0.4406  0.5021
  667MPD2    C4 9870   2.284   2.838  14.554 -0.1168  0.0842 -0.0124
  667MPD2    C5 9871   2.338   2.940  14.627  0.1909  0.4762 -0.2956
  667MPD2     H 9872   2.413   2.579  14.721  1.1899  0.1166  0.7025
  667MPD2    H1 9873   2.212   2.857  14.476  0.2518  1.4016 -0.0288
  667MPD2    H2 9874   2.442   3.007  14.794 -1.2789  0.5108  2.0022
  667MPD2    H3 9875   2.319   3.044  14.605  2.5849  0.7773 -0.9276
  667MPD2     N 9876   2.264   2.604  14.502  0.3388 -0.2429 -0.0768
  667MPD2    H5 9877   2.211   2.640  14.423  1.8857  0.9191 -0.5884
  667MPD2    N1 9878   2.510   2.743  14.894  0.2069 -0.3477 -0.1119
  667MPD2    H7 9879   2.509   2.644  14.915 -0.9497 -1.0153 -3.2216
  668TMC3    C1 9880   2.620   2.749  15.096 -0.3436  0.0219 -0.0200
  668TMC3    C2 9881   2.718   2.811  15.165  0.2038  0.4576 -0.0733
  668TMC3    C3 9882   2.737   2.780  15.295  0.2531  0.1919 -0.4398
  668TMC3    C4 9883   2.539   2.647  15.154 -0.2651  0.4000  0.4729
  668TMC3    C5 9884   2.566   2.623  15.288 -0.3093  0.4283  0.0119
  668TMC3    C6 9885   2.670   2.682  15.361 -0.2739 -0.0933 -0.1120
  668TMC3     C 9886   2.572   2.827  14.976  0.3686 -0.2067 -0.6226
  668TMC3     O 9887   2.590   2.949  14.962  0.9602  0.5834 -0.2935
  668TMC3     H 9888   2.761   2.898  15.117  3.8921 -2.1225 -1.4777
  668TMC3    H1 9889   2.441   2.620  15.117  0.5902 -1.4048 -0.4607
  668TMC3    H2 9890   2.681   2.662  15.467  2.2145 -1.4409 -0.6193
  668TMC3    C7 9891   2.494   2.511  15.342  0.0816  0.0495 -0.0584
  668TMC3    C8 9892   2.814   2.868  15.384 -0.2916  0.0769 -0.2830
  668TMC3    O1 9893   2.500   2.492  15.466  0.4472  0.0695  0.2110
  668TMC3    O2 9894   2.818   2.837  15.503 -0.1173 -0.0718 -0.2449
  669TMC3    C1 9895   1.022   2.979  14.770  0.0192 -0.3951  0.0719
  669TMC3    C2 9896   0.905   3.021  14.706  0.1335 -0.1727  0.2065
  669TMC3    C3 9897   0.921   3.106  14.595  0.0444 -0.0536  0.2391
  669TMC3    C4 9898   1.146   3.030  14.739  0.0309  0.1550  0.2007
  669TMC3    C5 9899   1.149   3.133  14.654 -0.1563 -0.9706 -0.5612
  669TMC3    C6 9900   1.049   3.165  14.569 -0.5018 -0.5056 -0.1030
  669TMC3     C 9901   1.012   2.873  14.869  0.5018  0.3643  1.0086
  669TMC3     O 9902   0.904   2.848  14.921 -0.2435 -0.1658 -0.3425
  669TMC3     H 9903   0.827   2.945  14.705  0.5845 -0.6394  0.7077
  669TMC3    H1 9904   1.243   3.001  14.777  0.2366 -1.7542 -1.7909
  669TMC3    H2 9905   1.070   3.243  14.497 -2.1886  1.1066  1.1448
  669TMC3    C7 9906   1.276   3.165  14.597 -0.1964 -0.0046  0.1825
  669TMC3    C8 9907   0.851   3.068  14.479 -0.3094  0.2856 -0.1815
  669TMC3    O1 9908   1.352   3.228  14.666 -0.0115  1.1758  0.2142
  669TMC3    O2 9909   0.922   3.065  14.378 -0.1558  0.2611 -0.1316
  670MPD2     C 9910   3.684   0.708  13.365  0.2510  1.0694 -0.5310
  670MPD2    C1 9911   3.819   0.696  13.370  0.2515  0.1620 -0.0448
  670MPD2    C2 9912   3.880   0.645  13.482 -0.5309  0.3254 -0.3737
  670MPD2    C3 9913   3.804   0.607  13.593 -0.0937  0.0947 -0.9268
  670MPD2    C4 9914   3.674   0.636  13.589  0.5660  0.4006  0.6792
  670MPD2    C5 9915   3.610   0.683  13.475 -0.7161  0.1279  0.1391
  670MPD2     H 9916   3.988   0.634  13.478 -0.4684  0.1969  1.5725
  670MPD2    H1 9917   3.619   0.612  13.679 -0.7521  2.1526  0.3461
  670MPD2    H2 9918   3.640   0.754  13.277  1.0467  2.1124 -0.3833
  670MPD2    H3 9919   3.505   0.709  13.469 -0.8886 -0.7597 -0.6960
  670MPD2     N 9920   3.868   0.541  13.700  0.0232 -0.0707  0.0499
  670MPD2    H5 9921   3.969   0.542  13.694  0.0226 -3.1776 -0.8154
  670MPD2    N1 9922   3.916   0.750  13.284  0.1804 -0.1214  0.0006
  670MPD2    H7 9923   4.013   0.738  13.312  0.1508 -1.0470 -0.2769
  671TMC3    C1 9924   3.887   0.418  13.902 -0.2413 -0.2774 -0.4054
  671TMC3    C2 9925   4.018   0.391  13.888 -0.2903 -0.5089 -0.1259
  671TMC3    C3 9926   4.082   0.318  13.979  0.7126  0.2184  0.1484
  671TMC3    C4 9927   3.822   0.371  14.013 -0.4888 -0.1142 -0.0502
  671TMC3    C5 9928   3.894   0.319  14.120  0.5088  0.3631 -0.0103
  671TMC3    C6 9929   4.032   0.309  14.109 -0.3285 -0.2998  0.1718
  671TMC3     C 9930   3.798   0.468  13.793 -0.2013  0.1364  0.1683
  671TMC3     O 9931   3.677   0.442  13.798 -0.6375  0.1368 -0.2407
  671TMC3     H 9932   4.055   0.384  13.787 -1.3633 -0.5741 -0.5179
  671TMC3    H1 9933   3.714   0.373  14.027 -0.6215  2.1890 -1.3073
  671TMC3    H2 9934   4.082   0.248  14.183 -0.6415  0.7689  1.2636
  671TMC3    C7 9935   3.822   0.210  14.181 -0.3410  0.1128 -0.7160
  671TMC3    C8 9936   4.184   0.234  13.936 -0.1836 -0.1798 -0.4568
  671TMC3    O1 9937   3.742   0.154  14.100  0.1957  0.5573 -0.4277
  671TMC3    O2 9938   4.187   0.125  13.993 -0.1817 -0.3025  0.4140
  672MPD2     C 9939   0.223   1.293   1.751  0.3190  0.7238  0.3710
  672MPD2    C1 9940   0.239   1.326   1.620  0.2872 -0.1118 -0.5660
  672MPD2    C2 9941   0.360   1.338   1.557 -0.2910  0.7334 -0.4097
  672MPD2    C3 9942   0.472   1.324   1.629 -1.3987  0.0816 -0.8788
  672MPD2    C4 9943   0.454   1.291   1.765 -0.6782 -0.0775  0.4120
  672MPD2    C5 9944   0.335   1.269   1.828  0.2538  0.3671 -0.3215
  672MPD2     H 9945   0.373   1.361   1.452 -0.1552 -0.9141 -0.7447
  672MPD2    H1 9946   0.535   1.286   1.838  0.2555  3.5800 -0.3969
  672MPD2    H2 9947   0.123   1.281   1.791  0.0161  0.8449 -0.3466
  672MPD2    H3 9948   0.323   1.254   1.934  1.4105 -1.1423 -0.4074
  672MPD2     N 9949   0.592   1.349   1.567 -0.3791  0.3826 -0.1103
  672MPD2    H5 9950   0.588   1.377   1.470 -1.3583 -0.6933 -0.3715
  672MPD2    N1 9951   0.135   1.355   1.536 -0.0130  0.1149 -0.1017
  672MPD2    H7 9952   0.151   1.387   1.441 -0.1833 -0.4817 -0.3275
  673TMC3    C1 9953   4.657   1.379   1.430  0.0051 -0.3509 -0.4593
  673TMC3    C2 9954   4.572   1.282   1.387 -0.5407  0.6373 -0.4863
  673TMC3    C3 9955   4.579   1.251   1.256 -0.1409 -0.1205 -0.2307
  673TMC3    C4 9956   0.006   1.459   1.349 -0.2472  0.4300  1.0113
  673TMC3    C5 9957   0.000   1.426   1.216 -0.1660 -0.8227  0.1591
  673TMC3    C6 9958   4.662   1.319   1.169  0.5679  0.4438  0.0134
  673TMC3     C 9959   0.004   1.347   1.556  0.6301  0.0397 -0.2620
  673TMC3     O 9960   4.664   1.289   1.645 -0.1570 -0.2232  0.1242
  673TMC3     H 9961   4.531   1.210   1.457 -0.2793  0.3917 -0.5872
  673TMC3    H1 9962   0.080   1.531   1.383 -1.0945  0.8370  1.9692
  673TMC3    H2 9963   4.664   1.300   1.063 -1.4005  1.7139 -0.2544
  673TMC3    C7 9964   0.117   1.458   1.141  0.3897  0.1697  1.0766
  673TMC3    C8 9965   4.537   1.118   1.219  0.8337 -0.2603  0.2590
  673TMC3    O1 9966   0.173   1.363   1.084 -0.8024  0.4279  0.0340
  673TMC3    O2 9967   4.422   1.085   1.237 -0.1434 -0.1104 -0.3914
  674MPD2     C 9968   0.534   0.573   0.619 -0.4070 -0.4780 -0.2769
  674MPD2    C1 9969   0.425   0.531   0.550  0.6560 -1.3531  0.4636
  674MPD2    C2 9970   0.309   0.600   0.576  0.2762 -0.0525 -0.2669
  674MPD2    C3 9971   0.306   0.710   0.659  0.5777 -0.0967 -0.2749
  674MPD2    C4 9972   0.416   0.748   0.722  0.7554 -0.9377  0.6214
  674MPD2    C5 9973   0.534   0.686   0.700  0.1025 -0.0180  0.2246
  674MPD2     H 9974   0.217   0.571   0.526 -0.3623  0.7382  0.4414
  674MPD2    H1 9975   0.432   0.837   0.783  0.1731 -0.4473  0.0621
  674MPD2    H2 9976   0.633   0.533   0.599 -0.8637 -1.0942 -1.3318
  674MPD2    H3 9977   0.618   0.718   0.760  0.7291 -0.1664 -0.5876
  674MPD2     N 9978   0.185   0.782   0.675 -0.6653  0.0291 -0.3604
  674MPD2    H5 9979   0.107   0.731   0.635  0.5763 -1.3711 -0.9935
  674MPD2    N1 9980   0.438   0.418   0.467 -0.1806  0.1998 -0.0027
  674MPD2    H7 9981   0.522   0.368   0.442 -1.8569 -1.8543 -1.4948
  675TMC3    C1 9982   0.339   0.256   0.312  0.3829  0.1074  0.5928
  675TMC3    C2 9983   0.222   0.190   0.271  0.5694 -1.0266 -0.1063
  675TMC3    C3 9984   0.228   0.070   0.204  0.7794 -0.1888 -0.4801
  675TMC3    C4 9985   0.460   0.199   0.282 -0.4381 -0.5347  0.5584
  675TMC3    C5 9986   0.465   0.077   0.222  0.6618  0.2722 -0.3797
  675TMC3    C6 9987   0.352   0.020   0.177 -0.0630  0.1565 -0.3415
  675TMC3     C 9988   0.323   0.365   0.409  0.4102 -0.1541  0.4180
  675TMC3     O 9989   0.207   0.399   0.424 -0.2940 -0.0711 -0.4807
  675TMC3     H 9990   0.125   0.230   0.296  2.1688  3.0719 -0.4045
  675TMC3    H1 9991   0.553   0.242   0.318  0.2053 -0.4651 -1.2285
  675TMC3    H2 9992   0.348   4.637   0.151 -1.0803 -0.3800  1.9443
  675TMC3    C7 9993   0.583   4.717   0.229  0.3727 -0.3385  0.9093
  675TMC3    C8 9994   0.117   4.712   0.170  0.1929  0.0621 -0.3164
  675TMC3    O1 9995   0.560   4.607   0.179 -0.0624 -0.3056 -0.2277
  675TMC3    O2 9996   0.131   4.621   0.087 -0.2274 -0.3290  0.0161
  676MPD2     C 9997   1.971   4.181  10.937 -0.2192 -0.4711  0.5052
  676MPD2    C1 9998   1.911   4.118  11.046  0.1933  0.5009  0.0816
  676MPD2    C2 9999   1.904   3.979  11.041  0.1341 -0.3655  0.0593
  676MPD2    C310000   1.980   3.911  10.948 -0.1816  0.3110 -0.5149
  676MPD2    C410001   2.042   3.973  10.842  0.2103  0.4313 -0.3842
  676MPD2    C510002   2.033   4.110  10.839  0.2967 -0.6453 -0.8198
  676MPD2     H10003   1.841   3.918  11.106 -2.4070  1.5181 -0.6643
  676MPD2    H110004   2.106   3.926  10.767  0.7619 -2.1675  1.7200
  676MPD2    H210005   1.969   4.289  10.927 -2.7594 -0.5717 -0.0444
  676MPD2    H310006   2.089   4.170  10.769  2.3518  0.4594  1.7555
  676MPD2     N10007   1.996   3.772  10.939 -0.0272 -0.5331  0.2560
  676MPD2    H510008   2.059   3.737  10.868  0.3543  0.7643 -0.0481
  676MPD2    N110009   1.854   4.193  11.152  0.8364  0.3667 -0.0344
  676MPD2    H710010   1.797   4.145  11.220 -0.2898  0.1775 -1.1295
  677TMC3    C110011   1.798   4.391  11.266  0.1448  0.6998  0.7524
  677TMC3    C210012   1.680   4.340  11.300  0.8235  0.2648 -0.5984
  677TMC3    C310013   1.617   4.394  11.404 -0.9043 -1.3573 -0.0655
  677TMC3    C410014   1.859   4.489  11.330  0.1451 -0.0905  0.0504
  677TMC3    C510015   1.788   4.541  11.442 -1.0477  0.1445  0.0138
  677TMC3    C610016   1.667   4.498  11.475 -0.2751  0.4916 -0.1368
  677TMC3     C10017   1.879   4.325  11.167  0.5225  0.1615 -0.0157
  677TMC3     O10018   1.973   4.394  11.126  0.0860 -0.1569 -0.2687
  677TMC3     H10019   1.639   4.257  11.243 -0.3104 -0.8041  1.7651
  677TMC3    H110020   1.964   4.514  11.315  0.3857 -2.3253 -1.9395
  677TMC3    H210021   1.610   4.538  11.558 -2.9036 -0.2395 -1.5632
  677TMC3    C710022   1.870   4.608  11.539 -0.5324 -0.1929 -0.3339
  677TMC3    C810023   1.492   4.325  11.443 -0.4247  0.1143  0.1178
  677TMC3    O110024   1.813   4.606  11.647 -0.4454  0.6194  0.0848
  677TMC3    O210025   1.408   4.320  11.351  0.2543 -0.3713 -0.7014
  678MPD2     C10026   3.380   3.476   1.687  0.6397 -0.5924 -0.0188
  678MPD2    C110027   3.456   3.546   1.594  0.5788 -0.2603  0.7067
  678MPD2    C210028   3.385   3.648   1.530  0.3374 -1.1025 -0.0644
  678MPD2    C310029   3.254   3.677   1.550 -0.1950  0.5393  0.1918
  678MPD2    C410030   3.191   3.616   1.656 -0.5205  0.0066  0.0633
  678MPD2    C510031   3.257   3.515   1.719  0.8992 -0.1715  0.0233
  678MPD2     H10032   3.436   3.706   1.453 -0.2823 -0.2626  0.1651
  678MPD2    H110033   3.090   3.646   1.680 -0.7672 -2.1973  1.6787
  678MPD2    H210034   3.433   3.398   1.740  0.1830 -0.2387  0.9510
  678MPD2    H310035   3.211   3.470   1.806  0.2156  0.8144  0.1778
  678MPD2     N10036   3.195   3.765   1.461  0.1714 -0.1829  0.0813
  678MPD2    H510037   3.254   3.792   1.382 -1.0918 -1.7089 -1.3727
  678MPD2    N110038   3.585   3.506   1.549 -0.0634  0.2355  0.0999
  678MPD2    H710039   3.630   3.553   1.471 -1.3879  1.4008  0.0309
  679TMC3    C110040   3.916   3.216   1.420 -0.0292 -0.4553 -0.2011
  679TMC3    C210041   3.831   3.259   1.513  0.9564  0.0735 -0.1089
  679TMC3    C310042   3.738   3.348   1.472  0.0047  0.4000 -0.0375
  679TMC3    C410043   3.901   3.242   1.283  0.5776  0.2961 -0.0448
  679TMC3    C510044   3.812   3.335   1.243  0.1150  1.3125 -0.4299
  679TMC3    C610045   3.726   3.392   1.339 -0.3867  0.1925 -0.4298
  679TMC3     C10046   4.030   3.134   1.459  0.1777 -1.2191  0.5610
  679TMC3     O10047   4.131   3.130   1.389  0.1752 -0.2721 -0.2436
  679TMC3     H10048   3.845   3.230   1.617  1.5627 -1.8565 -0.7441
  679TMC3    H110049   3.973   3.196   1.216  0.3307 -0.5731  0.2944
  679TMC3    H210050   3.646   3.458   1.308  0.4698  1.1466 -0.5881
  679TMC3    C710051   3.826   3.416   1.124  0.1200  0.0759 -0.3553
  679TMC3    C810052   3.645   3.387   1.573 -0.7100  0.1384  0.6228
  679TMC3    O110053   3.760   3.519   1.124 -0.2925 -0.1067 -0.4924
  679TMC3    O210054   3.624   3.309   1.667  0.4401 -0.7430  0.3244
  680MPD2     C10055   4.481   2.793  13.779 -0.1352 -0.4500 -0.0715
  680MPD2    C110056   4.372   2.777  13.866 -0.4646  0.0067  0.0909
  680MPD2    C210057   4.364   2.879  13.964  0.0183 -0.5708 -0.3322
  680MPD2    C310058   4.462   2.978  13.974  0.0736  0.7415 -0.1705
  680MPD2    C410059   4.565   2.989  13.888 -0.0149  0.0145 -0.3910
  680MPD2    C510060   4.569   2.899  13.787 -0.7528 -0.5608  0.2398
  680MPD2     H10061   4.280   2.868  14.032  0.3446 -1.1614 -0.0207
  680MPD2    H110062   4.642   3.064  13.891 -0.6009  0.5201  1.8482
  680MPD2    H210063   4.497   2.716  13.703  1.3696 -1.9349  1.7377
  680MPD2    H310064   4.644   2.897  13.708 -2.1904 -0.9715 -1.1069
  680MPD2     N10065   4.460   3.086  14.069 -0.5912  0.0269  0.1078
  680MPD2    H510066   4.534   3.155  14.057 -0.4818 -0.2399 -0.7522
  680MPD2    N110067   4.256   2.695  13.848 -0.0068  0.3572 -0.2190
  680MPD2    H710068   4.175   2.712  13.907  0.7909 -0.9849  1.2497
  681TMC3    C110069   4.102   2.546  13.740  0.0047  0.0165 -0.1580
  681TMC3    C210070   4.054   2.504  13.864  0.2383  0.5696 -0.4107
  681TMC3    C310071   4.026   2.373  13.886  0.2712 -0.2224  0.0231
  681TMC3    C410072   4.108   2.456  13.639  0.2136 -0.8119 -0.1068
  681TMC3    C510073   4.096   2.317  13.673 -0.3157 -0.3155  0.1440
  681TMC3    C610074   4.051   2.274  13.794  0.2526  0.5941  0.5239
  681TMC3     C10075   4.228   2.617  13.738  0.1881 -0.1895  0.4995
  681TMC3     O10076   4.303   2.600  13.644  0.0295  0.6859  0.1347
  681TMC3     H10077   4.025   2.577  13.939 -0.5414 -1.8205  1.6026
  681TMC3    H110078   4.128   2.487  13.537 -0.3200 -1.5985 -0.4488
  681TMC3    H210079   4.032   2.169  13.812  1.1798  0.9107  3.4135
  681TMC3    C710080   4.207   2.233  13.628 -0.4146 -0.2257 -0.6796
  681TMC3    C810081   3.958   2.321  14.005  0.4888 -0.1026 -0.2877
  681TMC3    O110082   4.250   2.150  13.703  0.1312  0.6829  0.2668
  681TMC3    O210083   3.935   2.202  14.022 -0.0951  0.2201 -0.4711
  682MPD2     C10084   1.077   4.468  10.717  0.3806 -0.4093  0.4870
  682MPD2    C110085   1.016   4.377  10.795  0.8825 -0.0169 -0.6930
  682MPD2    C210086   0.998   4.402  10.930 -0.0211  0.6076 -0.2740
  682MPD2    C310087   1.037   4.521  10.986 -1.1786  0.1218 -1.0030
  682MPD2    C410088   1.098   4.617  10.907  0.8221  0.3579 -0.3982
  682MPD2    C510089   1.124   4.585  10.772  0.8029 -0.0920 -0.3994
  682MPD2     H10090   0.947   4.332  10.994  0.2144 -0.2540 -1.0332
  682MPD2    H110091   1.136   4.712  10.943  4.1182 -1.4043  0.8093
  682MPD2    H210092   1.085   4.462  10.609 -3.4137 -0.5404  0.2190
  682MPD2    H310093   1.177   4.660  10.714 -1.3415  0.8720 -1.1187
  682MPD2     N10094   1.004   4.557  11.119 -0.2099  0.0502 -0.7359
  682MPD2    H510095   1.048   4.644  11.148 -1.7922  0.2946  0.9708
  682MPD2    N110096   0.960   4.265  10.737 -0.0777  0.6745 -0.4693
  682MPD2    H710097   0.918   4.195  10.797 -1.3168  1.3080 -0.5950
  683TMC3    C110098   0.960   4.694  11.529  0.0834  0.3054  0.3689
  683TMC3    C210099   0.841   4.676  11.587  0.3708  0.1991 -0.4204
  683TMC3    C310100   0.746   4.597  11.518 -0.5287  0.3603  0.0508
  683TMC3    C410101   0.988   4.639  11.405 -0.1364  0.1446  0.4732
  683TMC3    C510102   0.890   4.579  11.337  0.5534 -0.7739  0.5014
  683TMC3    C610103   0.771   4.552  11.394  0.9335 -0.1520 -0.2441
  683TMC3     C10104   1.087   4.681  11.603 -0.1069 -0.3973  0.2280
  683TMC3     O10105   1.150   4.584  11.569  0.6456 -0.0669 -0.1579
  683TMC3     H10106   0.827   4.709  11.689  0.1171  4.4120 -1.8440
  683TMC3    H110107   1.084   4.662  11.360  0.0511 -0.5629  0.5074
  683TMC3    H210108   0.711   4.479  11.341  1.3755 -0.0832 -0.8325
  683TMC3    C710109   0.925   4.495  11.213  0.4156  0.8095  0.0785
  683TMC3    C810110   0.650   4.541  11.605  0.2105 -0.2538  0.0524
  683TMC3    O110111   0.858   4.395  11.189 -0.1255 -0.1626  0.1504
  683TMC3    O210112   0.635   4.576  11.719 -0.4845  0.2464 -0.0451
  684MPD2     C10113   3.713   3.371  16.369 -0.7378 -0.0203  0.7553
  684MPD2    C110114   3.837   3.337  16.320 -0.1228 -0.1446 -0.2609
  684MPD2    C210115   3.935   3.431  16.332  0.3596 -0.3420 -0.0683
  684MPD2    C310116   3.917   3.555  16.386  0.2125  0.8417  0.2091
  684MPD2    C410117   3.789   3.593  16.420  0.1966  0.3368 -0.6732
  684MPD2    C510118   3.692   3.500  16.416  0.6747  0.3940 -0.2938
  684MPD2     H10119   4.034   3.406  16.297  0.8103 -0.2664  1.1512
  684MPD2    H110120   3.761   3.695  16.441  0.0732 -0.0114  0.8561
  684MPD2    H210121   3.629   3.302  16.364  0.2159 -1.0221 -1.6114
  684MPD2    H310122   3.598   3.532  16.459  0.7148 -1.4912  1.2037
  684MPD2     N10123   4.011   3.659  16.374  0.7937  0.8687  0.7520
  684MPD2    H510124   3.998   3.748  16.419  1.4361  0.5237  1.6121
  684MPD2    N110125   3.867   3.213  16.252 -0.3220 -0.4612  0.5374
  684MPD2    H710126   3.963   3.202  16.219 -1.1921  1.6481 -2.7745
  685TMC3    C110127   3.834   3.008  16.138 -0.5540  0.0586 -0.2796
  685TMC3    C210128   3.743   2.934  16.065  0.2363 -0.2371 -0.4786
  685TMC3    C310129   3.801   2.828  15.995 -0.5107  0.4668 -0.1848
  685TMC3    C410130   3.968   2.984  16.152  0.3457  0.6700 -0.3060
  685TMC3    C510131   4.012   2.877  16.082 -0.7635  0.2966  0.2236
  685TMC3    C610132   3.936   2.797  16.004  0.5969  0.4071 -0.0168
  685TMC3     C10133   3.774   3.122  16.204  0.4354  0.8892 -1.3261
  685TMC3     O10134   3.653   3.136  16.200  0.7630  0.7202 -0.0383
  685TMC3     H10135   3.639   2.963  16.060  0.1444 -0.3287  1.0783
  685TMC3    H110136   4.041   3.041  16.207 -0.8214  0.9630  0.9405
  685TMC3    H210137   3.976   2.706  15.961 -0.3860 -0.3913  0.7654
  685TMC3    C710138   4.146   2.835  16.097  0.1128  0.8753  0.6287
  685TMC3    C810139   3.719   2.736  15.922 -0.3980  0.3076 -0.0691
  685TMC3    O110140   4.194   2.882  16.197  0.5762 -0.4717  0.1974
  685TMC3    O210141   3.764   2.623  15.909  0.2500  0.1600  0.4075
  686MPD2     C10142   0.997   3.078  15.352  0.3686  0.2769 -0.2728
  686MPD2    C110143   1.022   2.996  15.460 -0.8712  0.5419 -0.6397
  686MPD2    C210144   1.117   2.897  15.441 -0.3610 -1.4511 -0.2972
  686MPD2    C310145   1.182   2.875  15.326  0.3592 -0.3274 -0.4937
  686MPD2    C410146   1.169   2.968  15.223  0.3821  0.0616  0.1576
  686MPD2    C510147   1.073   3.072  15.237  0.2551  0.6529 -0.1451
  686MPD2     H10148   1.143   2.845  15.533 -1.2414 -1.0498  0.1775
  686MPD2    H110149   1.225   2.959  15.131  1.4328 -1.2041  0.9152
  686MPD2    H210150   0.913   3.146  15.355  0.3671  0.3237 -1.3127
  686MPD2    H310151   1.050   3.148  15.163 -0.9086 -0.6013 -1.0584
  686MPD2     N10152   1.278   2.772  15.299  0.5420  0.5012 -0.2651
  686MPD2    H510153   1.345   2.780  15.223 -1.0355 -0.4284 -1.7363
  686MPD2    N110154   0.948   3.009  15.584  0.0741  0.1094 -0.3077
  686MPD2    H710155   0.868   3.071  15.575  0.4524  0.6317 -0.0772
  687TMC3    C110156   1.217   2.599  15.473 -0.0928 -0.1337  0.0541
  687TMC3    C210157   1.083   2.597  15.451 -0.2102  0.8328  0.6190
  687TMC3    C310158   1.008   2.544  15.554 -0.0245 -0.3997 -0.0517
  687TMC3    C410159   1.275   2.527  15.574  1.0219 -0.0564 -0.0370
  687TMC3    C510160   1.197   2.469  15.670 -0.8620  0.2258 -0.4727
  687TMC3    C610161   1.058   2.473  15.659 -0.0277  0.4234  0.0237
  687TMC3     C10162   1.307   2.653  15.370 -0.3182 -0.0260  0.6615
  687TMC3     O10163   1.407   2.586  15.357 -0.4953  0.0972 -0.5308
  687TMC3     H10164   1.042   2.646  15.363  0.6268 -1.6476 -1.1413
  687TMC3    H110165   1.383   2.521  15.574  1.0209 -0.1332 -1.2746
  687TMC3    H210166   1.004   2.419  15.736 -1.8678 -0.7788 -2.1141
  687TMC3    C710167   1.251   2.381  15.778 -0.4397  0.2776  0.5754
  687TMC3    C810168   0.868   2.586  15.568  0.0384 -0.2660  0.4803
  687TMC3    O110169   1.351   2.323  15.753 -0.2789  0.0196  0.2882
  687TMC3    O210170   0.813   2.520  15.655 -0.5846 -0.0373 -0.4006
  688MPD2     C10171   0.629   1.374  17.571  0.1780 -0.0471  0.0758
  688MPD2    C110172   0.605   1.505  17.545  0.7714 -0.8956 -0.6136
  688MPD2    C210173   0.636   1.558  17.421  0.2542 -0.7431  0.7606
  688MPD2    C310174   0.679   1.478  17.319  0.0885  0.0662  0.0299
  688MPD2    C410175   0.703   1.342  17.351  0.6358  0.5525  0.4247
  688MPD2    C510176   0.668   1.290  17.468  0.6649 -0.2454  0.1714
  688MPD2     H10177   0.615   1.662  17.402  3.5741 -0.0983  0.7892
  688MPD2    H110178   0.751   1.289  17.270  0.7877  0.1074  0.8038
  688MPD2    H210179   0.622   1.329  17.669  2.5282  0.7084  0.6043
  688MPD2    H310180   0.697   1.187  17.485 -0.6464 -0.3962  1.4621
  688MPD2     N10181   0.717   1.514  17.190 -0.1554 -0.3089  0.1737
  688MPD2    H510182   0.768   1.447  17.133 -1.7594  0.6130 -2.3814
  688MPD2    N110183   0.551   1.592  17.644 -0.0952 -0.9095 -0.0656
  688MPD2    H710184   0.538   1.684  17.603 -0.8940 -2.6128 -3.6652
  689TMC3    C110185   0.416   1.677   0.122 -1.3607 -0.5809 -0.9295
  689TMC3    C210186   0.459   1.806   0.094 -0.1272  0.3802 -0.0650
  689TMC3    C310187   0.379   1.905   0.145 -0.3864  0.4587 -0.4496
  689TMC3    C410188   0.311   1.648   0.194  0.2233  0.4919 -0.5863
  689TMC3    C510189   0.230   1.748   0.234 -0.0172 -0.4822  0.5242
  689TMC3    C610190   0.268   1.883   0.217  0.5973  0.4884 -0.7774
  689TMC3     C10191   0.494   1.565   0.074 -0.1022 -0.3936  0.8196
  689TMC3     O10192   0.488   1.458   0.139 -0.0969 -0.1649  0.1002
  689TMC3     H10193   0.556   1.836   0.055  0.5763 -0.1626  1.2811
  689TMC3    H110194   0.281   1.543   0.195  0.9475  0.2874 -0.1199
  689TMC3    H210195   0.203   1.965   0.245  0.2431  0.3079 -1.0850
  689TMC3    C710196   0.088   1.729   0.214  0.3227  0.4088  0.0239
  689TMC3    C810197   0.437   2.032   0.155  0.3211 -0.4450  0.7466
  689TMC3    O110198   0.014   1.825   0.225 -0.3349  0.0631  0.4803
  689TMC3    O210199   0.506   2.072   0.060  0.0972  0.0292 -0.3814
  690MPD2     C10200   2.532   4.018  16.145 -0.2491  0.1108 -0.4432
  690MPD2    C110201   2.509   3.932  16.041 -0.3865 -0.0365 -0.4105
  690MPD2    C210202   2.596   3.923  15.937 -0.6697 -1.0125  0.2464
  690MPD2    C310203   2.708   3.999  15.932 -0.1246 -0.6871  0.4458
  690MPD2    C410204   2.742   4.071  16.042  0.0406  0.0735  0.2448
  690MPD2    C510205   2.652   4.084  16.145  0.4011  0.0922 -0.0590
  690MPD2     H10206   2.574   3.853  15.857 -1.0170  0.0179 -0.5647
  690MPD2    H110207   2.835   4.126  16.040  0.7306 -1.1208 -0.6261
  690MPD2    H210208   2.463   4.032  16.228 -0.8703 -0.2348 -0.9032
  690MPD2    H310209   2.672   4.151  16.227  0.3647  1.2807 -1.0108
  690MPD2     N10210   2.779   4.013  15.810 -0.3908 -0.4935 -0.1945
  690MPD2    H510211   2.734   3.956  15.739 -0.1944 -0.3405 -0.4405
  690MPD2    N110212   2.393   3.848  16.031 -0.8595  0.1968  0.1549
  690MPD2    H710213   2.395   3.800  15.941 -4.3082 -0.1448  0.2708
  691TMC3    C110214   2.182   3.759  16.052 -0.5931  0.6309 -0.7200
  691TMC3    C210215   2.049   3.788  16.084  0.1482 -0.7796 -0.3874
  691TMC3    C310216   1.957   3.704  16.027  0.1552  0.3057  0.0910
  691TMC3    C410217   2.222   3.651  15.986  0.0512  0.0727 -0.1529
  691TMC3    C510218   2.121   3.568  15.934  0.5427  0.0539 -0.4728
  691TMC3    C610219   1.989   3.594  15.951 -0.0788 -0.3580  0.0064
  691TMC3     C10220   2.277   3.853  16.107 -0.4144 -0.6710  0.4184
  691TMC3     O10221   2.254   3.916  16.209  0.2507  0.2440 -0.2612
  691TMC3     H10222   2.018   3.860  16.159 -0.0675 -1.5708  0.2921
  691TMC3    H110223   2.326   3.626  15.965  0.3735  0.9595  0.3794
  691TMC3    H210224   1.911   3.540  15.897 -0.0638 -0.7584  0.3873
  691TMC3    C710225   2.174   3.441  15.889  0.9743 -0.1836 -0.0010
  691TMC3    C810226   1.823   3.707  16.087  0.2237 -0.4272  1.0039
  691TMC3    O110227   2.281   3.420  15.840  0.1807  0.1791  0.6894
  691TMC3    O210228   1.794   3.599  16.134  0.3778 -0.2898  0.3571
  692TMC3    C110229   3.803   0.169  15.889  0.1981  0.0588 -0.1088
  692TMC3    C210230   3.928   0.221  15.908  1.1121  0.5517  0.9410
  692TMC3    C310231   4.034   0.133  15.900  0.8115  0.1692 -0.1950
  692TMC3    C410232   3.779   0.038  15.852 -0.1343  0.0410 -0.2535
  692TMC3    C510233   3.883   4.682  15.853 -0.2992  0.3713 -0.3759
  692TMC3    C610234   4.004   0.002  15.889  0.4633 -0.3139  0.0991
  692TMC3     C10235   3.688   0.262  15.895 -0.1473  1.0439  0.2509
  692TMC3     O10236   3.567   0.229  15.888  0.2394  0.1319 -0.2245
  692TMC3     H10237   3.926   0.307  15.974  1.6187  1.5391 -0.3479
  692TMC3    H110238   3.676   0.009  15.833  0.5544 -0.0814 -3.7739
  692TMC3    H210239   4.076   4.652  15.853  0.1556 -0.0441 -1.0490
  692TMC3    C710240   3.855   4.537  15.852 -0.0584  0.3912  0.3181
  692TMC3    C810241   4.141   0.155  15.989 -0.1412  0.2390  0.5139
  692TMC3    O110242   3.770   4.497  15.774 -0.0839  0.1574 -0.7671
  692TMC3    O210243   4.152   0.072  16.074 -0.1093 -0.4279 -0.6954
  693MPD2     C10244   2.603   3.440  10.643  0.8716 -0.2865  0.7654
  693MPD2    C110245   2.696   3.351  10.701 -0.0685 -0.1250  0.2573
  693MPD2    C210246   2.814   3.392  10.758 -0.0687 -0.8589 -0.3143
  693MPD2    C310247   2.831   3.524  10.774  0.1921 -0.2269 -0.1834
  693MPD2    C410248   2.725   3.615  10.739  0.0850 -0.3111  0.2176
  693MPD2    C510249   2.609   3.573  10.674  0.5217 -0.4247  0.0151
  693MPD2     H10250   2.891   3.325  10.795 -0.2183 -0.8087  0.0944
  693MPD2    H110251   2.748   3.721  10.749 -0.0270 -0.1427 -1.2130
  693MPD2    H210252   2.505   3.410  10.608  1.7191 -1.6732 -0.4185
  693MPD2    H310253   2.530   3.642  10.647 -0.8193 -1.0956  2.2615
  693MPD2     N10254   2.959   3.577  10.814  0.2695  0.2199  0.1350
  693MPD2    H510255   2.966   3.678  10.807 -1.4664  0.3837  0.7205
  693MPD2    N110256   2.657   3.218  10.703 -0.0485  0.4276  0.1268
  693MPD2    H710257   2.571   3.191  10.657 -0.0121 -0.6011  0.6588
  694TMC3    C110258   2.653   2.983  10.757 -0.1976  0.3789  0.4351
  694TMC3    C210259   2.556   2.968  10.665 -0.6067  0.3746  0.4854
  694TMC3    C310260   2.488   2.850  10.675 -0.6034  0.2680  0.4095
  694TMC3    C410261   2.686   2.892  10.858 -0.5797  0.1048 -0.2363
  694TMC3    C510262   2.610   2.774  10.862 -0.0655  0.8524 -0.7405
  694TMC3    C610263   2.506   2.758  10.775 -0.3525 -0.2417  0.8358
  694TMC3     C10264   2.729   3.114  10.753  0.6793  0.1056 -0.2227
  694TMC3     O10265   2.832   3.115  10.816 -0.4529  0.2897 -0.1907
  694TMC3     H10266   2.548   3.037  10.582 -0.2834 -1.3775 -1.0115
  694TMC3    H110267   2.759   2.916  10.934 -0.7344  1.6649 -0.5769
  694TMC3    H210268   2.433   2.680  10.792 -1.6009  0.4466 -1.3348
  694TMC3    C710269   2.594   2.711  10.990  0.6540 -0.4004  0.0771
  694TMC3    C810270   2.389   2.811  10.580 -0.2039 -0.4252 -0.4448
  694TMC3    O110271   2.631   2.777  11.086 -0.3758  0.1572  0.5027
  694TMC3    O210272   2.319   2.717  10.596  0.1026  0.0437  0.3344
  695MPD2     C10273   4.005   3.988  14.059  0.6235 -0.1347  0.4397
  695MPD2    C110274   4.023   4.128  14.078  0.1798 -0.2792 -0.0539
  695MPD2    C210275   3.904   4.206  14.087 -0.2110 -0.2896  0.1553
  695MPD2    C310276   3.785   4.143  14.097  0.2449  0.1903  0.4195
  695MPD2    C410277   3.772   4.005  14.075 -0.0999  0.1010  0.8413
  695MPD2    C510278   3.887   3.924  14.054  0.2785 -1.0021 -0.7976
  695MPD2     H10279   3.921   4.312  14.095 -2.1020 -0.0613  1.1681
  695MPD2    H110280   3.676   3.955  14.084 -0.3397  0.0988 -1.8285
  695MPD2    H210281   4.091   3.929  14.032  1.8957  2.1821 -0.5989
  695MPD2    H310282   3.880   3.818  14.033  2.5011 -1.0202 -1.4618
  695MPD2     N10283   3.674   4.218  14.126  0.5333 -0.3998 -0.1181
  695MPD2    H510284   3.684   4.319  14.136  1.0874 -0.0851 -3.7878
  695MPD2    N110285   4.148   4.198  14.061 -0.0581 -0.1866  0.1497
  695MPD2    H710286   4.148   4.299  14.047 -0.1201 -0.0237  1.3568
  696TMC3    C110287   3.456   4.281  14.169 -0.0986  0.4903 -1.2150
  696TMC3    C210288   3.470   4.351  14.283 -0.2431 -0.6051 -0.2227
  696TMC3    C310289   3.396   4.465  14.294 -0.1704 -0.2077  0.0603
  696TMC3    C410290   3.377   4.316  14.066  0.0158  0.0565  0.9064
  696TMC3    C510291   3.306   4.433  14.078 -0.2932  0.3685  0.0586
  696TMC3    C610292   3.301   4.497  14.199  0.9071  0.4462  0.1471
  696TMC3     C10293   3.547   4.174  14.140 -0.0547  0.3940 -0.4237
  696TMC3     O10294   3.492   4.073  14.096 -0.0058  0.2932  0.5199
  696TMC3     H10295   3.528   4.314  14.366  1.6014 -0.2954 -1.3701
  696TMC3    H110296   3.390   4.259  13.975  2.6828  2.7660 -0.3908
  696TMC3    H210297   3.236   4.582  14.219 -1.9338 -1.4268 -1.2311
  696TMC3    C710298   3.289   4.521  13.959 -0.2113  0.2961  0.5035
  696TMC3    C810299   3.465   4.582  14.330 -0.5587  0.4135  1.0195
  696TMC3    O110300   3.290   4.464  13.852  0.0478  0.4414  0.1380
  696TMC3    O210301   3.445   4.672  14.249 -0.0044 -0.0712  0.2765
  697MPD2     C10302   3.244   1.623  15.650 -0.1210  0.0519  0.6347
  697MPD2    C110303   3.270   1.576  15.521 -0.1651 -0.3501 -0.1319
  697MPD2    C210304   3.276   1.664  15.414 -0.2169 -0.6465  0.3059
  697MPD2    C310305   3.271   1.809  15.432  0.2406 -0.3417 -0.6107
  697MPD2    C410306   3.259   1.849  15.566 -0.6936  1.1897  0.0838
  697MPD2    C510307   3.235   1.760  15.660 -0.4448 -0.6051  0.7773
  697MPD2     H10308   3.280   1.627  15.313 -1.3014  0.4944 -0.1542
  697MPD2    H110309   3.247   1.952  15.597  0.2625  0.3727  3.1704
  697MPD2    H210310   3.243   1.569  15.744 -1.0969 -1.6135 -0.3420
  697MPD2    H310311   3.231   1.798  15.761 -0.7944  0.4091  0.3822
  697MPD2     N10312   3.304   1.895  15.320 -0.1479  0.2244 -0.2628
  697MPD2    H510313   3.324   1.852  15.230 -1.7475 -0.6587 -0.1877
  697MPD2    N110314   3.272   1.437  15.492 -0.6952 -0.1801 -0.7593
  697MPD2    H710315   3.268   1.417  15.393 -2.2021  1.0555 -0.9474
  698TMC3    C110316   3.389   2.102  15.223 -0.2911 -0.0782 -0.5024
  698TMC3    C210317   3.383   2.234  15.215  0.3896 -0.5280 -0.6189
  698TMC3    C310318   3.482   2.298  15.146 -0.0065  0.2279  0.1228
  698TMC3    C410319   3.459   2.034  15.126 -0.0809  0.3441  0.6238
  698TMC3    C510320   3.557   2.095  15.046  0.4357  0.5071  0.7569
  698TMC3    C610321   3.569   2.232  15.059 -0.0937  0.4213  0.2766
  698TMC3     C10322   3.323   2.032  15.329  0.1900 -0.0969  0.7696
  698TMC3     O10323   3.302   2.099  15.424 -0.5880 -0.1122 -0.0872
  698TMC3     H10324   3.333   2.293  15.291  1.2576  0.2791 -0.6674
  698TMC3    H110325   3.438   1.928  15.116  0.6901  0.2045  0.5075
  698TMC3    H210326   3.631   2.291  14.992  2.0170 -1.6659  0.3841
  698TMC3    C710327   3.575   2.051  14.912  0.8651 -0.2022 -0.0125
  698TMC3    C810328   3.486   2.438  15.131 -0.7267 -0.2443  0.5747
  698TMC3    O110329   3.481   1.986  14.865  0.6216 -0.7167 -0.0002
  698TMC3    O210330   3.379   2.500  15.125  0.3114 -0.3684  0.3763
  699TMC3    C110331   3.762   0.043  12.967 -0.0373  0.1461  0.4279
  699TMC3    C210332   3.834   0.055  13.085  0.2582 -0.7776  0.2007
  699TMC3    C310333   3.763   0.082  13.201 -1.0960  0.4492  0.2254
  699TMC3    C410334   3.626   0.064  12.966  0.0228  0.1870  0.4844
  699TMC3    C510335   3.564   0.093  13.084  0.6797 -0.8516  0.4033
  699TMC3    C610336   3.634   0.106  13.199 -0.5265  0.1538  0.2594
  699TMC3     C10337   3.829   0.092  12.857 -0.1584 -0.6426  0.1660
  699TMC3     O10338   3.759   0.093  12.755  0.3872 -0.2476  0.2326
  699TMC3     H10339   3.931   0.007  13.097  0.8439 -0.6490 -3.8147
  699TMC3    H110340   3.569   0.058  12.874  1.9090 -0.9665 -0.6293
  699TMC3    H210341   3.591   0.130  13.295 -1.5146  0.4657 -0.2633
  699TMC3    C710342   3.418   0.072  13.094 -0.1949 -0.0551  0.3014
  699TMC3    C810343   3.798   0.002  13.321  0.3138  0.6572 -0.4751
  699TMC3    O110344   3.362   0.141  13.180 -0.0869 -0.1824  0.2836
  699TMC3    O210345   3.718   4.656  13.380  0.2255 -0.1976 -0.6903
  700TMC3    C110346   3.085   2.139  17.292 -1.0232 -0.4914 -0.4673
  700TMC3    C210347   3.179   2.046  17.275  0.2157  0.3574 -0.4100
  700TMC3    C310348   3.304   2.072  17.338  0.9011  0.4913 -0.0850
  700TMC3    C410349   3.100   2.233  17.389  0.0048 -0.1400  1.0960
  700TMC3    C510350   3.219   2.255  17.464 -0.3175 -0.8164  0.1290
  700TMC3    C610351   3.332   2.176  17.423  0.6815  0.1876 -0.1875
  700TMC3     C10352   2.973   2.160  17.199  0.1654 -0.0600  0.1335
  700TMC3     O10353   2.922   2.065  17.143 -0.4496 -0.2976  0.6415
  700TMC3     H10354   3.161   1.963  17.208 -0.2565  0.1889 -0.0803
  700TMC3    H110355   3.015   2.297  17.406 -2.1760 -2.6431 -0.2751
  700TMC3    H210356   3.433   2.203  17.451  1.2057 -0.1473 -1.7643
  700TMC3    C710357   3.243   2.381  17.525 -0.0279 -0.0647  0.6175
  700TMC3    C810358   3.413   1.977  17.295  0.0755 -0.8006 -0.1047
  700TMC3    O110359   3.345   2.407  17.593  0.7735  0.9623 -0.0215
  700TMC3    O210360   3.381   1.891  17.215 -0.0320 -0.1368 -0.0849
  701TMC3    C110361   2.812   0.549  15.429 -0.1302  0.2243 -0.5493
  701TMC3    C210362   2.894   0.507  15.320  0.3364 -0.1702 -0.3447
  701TMC3    C310363   2.955   0.603  15.245  0.2378  0.1339 -0.2676
  701TMC3    C410364   2.814   0.680  15.473  0.4749  0.4196  0.2183
  701TMC3    C510365   2.883   0.770  15.398  0.0065 -0.2447  0.4542
  701TMC3    C610366   2.956   0.735  15.289  0.4778  0.1766  0.0678
  701TMC3     C10367   2.740   0.451  15.511  0.2723 -0.1958 -0.2271
  701TMC3     O10368   2.634   0.493  15.560  0.3696 -0.6898 -0.2063
  701TMC3     H10369   2.889   0.402  15.292  2.9850 -0.5437  0.5967
  701TMC3    H110370   2.750   0.716  15.553  1.1620  0.0917  0.9171
  701TMC3    H210371   3.036   0.803  15.263  0.3946 -1.1980 -3.7130
  701TMC3    C710372   2.893   0.906  15.442 -0.5399  0.6367  0.2963
  701TMC3    C810373   2.974   0.595  15.102 -0.2232 -0.6180 -0.1086
  701TMC3    O110374   2.915   0.992  15.357 -0.0764 -0.1340 -0.3210
  701TMC3    O210375   3.023   0.698  15.052 -0.2146  0.3611 -0.1414
  702MPD2     C10376   2.188   3.416  10.385  0.1004 -0.3070  0.4898
  702MPD2    C110377   2.193   3.505  10.481  0.1632 -0.0612 -0.1801
  702MPD2    C210378   2.245   3.627  10.461  0.2824 -0.0673 -0.2712
  702MPD2    C310379   2.303   3.670  10.347  0.1993 -0.3501 -0.2171
  702MPD2    C410380   2.317   3.572  10.252  0.1866 -0.1198  0.4576
  702MPD2    C510381   2.251   3.455  10.261  0.3632 -0.2718  0.3025
  702MPD2     H10382   2.233   3.695  10.544  2.3231 -0.0461 -0.0071
  702MPD2    H110383   2.368   3.594  10.158  0.8362 -1.9166  0.3911
  702MPD2    H210384   2.139   3.319  10.381 -2.3857  0.9270  0.7386
  702MPD2    H310385   2.253   3.386  10.178 -0.7240 -1.6686  1.4318
  702MPD2     N10386   2.344   3.802  10.324 -0.5547  0.0363  0.3130
  702MPD2    H510387   2.351   3.828  10.226 -0.8445 -1.4826 -0.1098
  702MPD2    N110388   2.129   3.487  10.606 -0.1447 -0.6473  0.3235
  702MPD2    H710389   2.141   3.573  10.659  0.6110 -0.9949  0.7222
  703TMC3    C110390   2.363   4.032  10.360 -0.1150 -0.3651 -0.4563
  703TMC3    C210391   2.281   4.122  10.412  0.3553 -0.0060 -0.2010
  703TMC3    C310392   2.308   4.256  10.384 -0.1047  0.3341 -0.8203
  703TMC3    C410393   2.475   4.064  10.290 -0.2545  0.2279  0.5769
  703TMC3    C510394   2.507   4.199  10.274  0.0520 -0.2201  0.9350
  703TMC3    C610395   2.419   4.294  10.317  0.3622  0.5696 -0.6207
  703TMC3     C10396   2.345   3.901  10.419 -0.3397 -0.8169  0.5082
  703TMC3     O10397   2.319   3.894  10.540 -0.6572  0.2454  0.0721
  703TMC3     H10398   2.195   4.094  10.472  0.4784 -0.7114 -0.3622
  703TMC3    H110399   2.535   3.980  10.255  1.4467  2.3793 -1.6310
  703TMC3    H210400   2.444   4.399  10.307  0.6019  0.5318 -0.3990
  703TMC3    C710401   2.643   4.250  10.247 -0.4391  0.1143  0.5785
  703TMC3    C810402   2.217   4.360  10.435 -0.1895 -0.1284 -0.3123
  703TMC3    O110403   2.660   4.345  10.171 -0.2942 -0.7974  0.1419
  703TMC3    O210404   2.266   4.474  10.442  0.5544 -0.8314  0.3476
  704TMC3    C110405   4.048   2.202  11.869  0.2936  0.0408 -0.0910
  704TMC3    C210406   4.168   2.249  11.896 -0.3553 -0.1308 -0.2182
  704TMC3    C310407   4.244   2.196  11.992 -0.1430 -0.0992  0.3666
  704TMC3    C410408   4.007   2.086  11.931 -0.1914  0.5701  0.2973
  704TMC3    C510409   4.091   2.021  12.015 -0.2293  0.1452 -0.7270
  704TMC3    C610410   4.211   2.077  12.046 -0.3189  0.2289  0.0323
  704TMC3     C10411   3.959   2.254  11.767 -0.8005 -0.6467 -0.5936
  704TMC3     O10412   3.841   2.216  11.764 -0.1381 -0.6797  0.3611
  704TMC3     H10413   4.203   2.340  11.848  0.8477 -0.6507 -0.3333
  704TMC3    H110414   3.919   2.034  11.896 -0.3641 -0.2653  2.0050
  704TMC3    H210415   4.289   2.021  12.097  1.5299  0.0190 -3.0340
  704TMC3    C710416   4.089   1.879  12.030 -0.4328  0.2122 -0.5001
  704TMC3    C810417   4.380   2.248  12.010 -0.4030  0.4452 -0.2065
  704TMC3    O110418   4.200   1.828  12.003 -0.1035  0.4570 -0.1370
  704TMC3    O210419   4.450   2.290  11.919 -0.2679 -0.8431  0.0699
  705MPD2     C10420   4.338   4.467  16.423  0.4441  0.1143  0.4438
  705MPD2    C110421   4.383   4.596  16.433 -0.2607  0.0496  0.5729
  705MPD2    C210422   4.303   4.692  16.497 -0.2093 -0.2380 -0.5179
  705MPD2    C310423   4.183   4.658  16.549 -0.8056 -0.0736  0.7502
  705MPD2    C410424   4.138   4.524  16.527 -0.3404  0.7080  0.2925
  705MPD2    C510425   4.210   4.430  16.461  0.4108  0.5245  0.2210
  705MPD2     H10426   4.331   0.075  16.496 -0.2857 -0.2050  1.1896
  705MPD2    H110427   4.034   4.509  16.552  0.2202 -1.2260  1.4719
  705MPD2    H210428   4.399   4.383  16.392  0.8897  0.6986 -0.2702
  705MPD2    H310429   4.173   4.329  16.454 -3.7943  1.8388  3.2571
  705MPD2     N10430   4.090   0.026  16.604  0.1150  0.4909 -1.3722
  705MPD2    H510431   4.001   4.712  16.636  0.1840  0.8979 -0.7323
  705MPD2    N110432   4.507   4.640  16.383 -0.5444 -1.1767 -0.5097
  705MPD2    H710433   4.530   0.015  16.402  1.9348 -1.5247 -1.7795
  706TMC3    C110434   0.207   4.605  16.168 -0.0208  0.4458  0.3484
  706TMC3    C210435   0.208   0.019  16.149  0.1207 -0.1537  0.0478
  706TMC3    C310436   0.111   0.096  16.206  0.2199  0.3500 -0.6617
  706TMC3    C410437   0.106   4.545  16.240 -0.2125 -0.1439 -0.2228
  706TMC3    C510438   4.717   4.625  16.276 -0.0073  0.0492 -0.2658
  706TMC3    C610439   4.716   0.041  16.260 -0.3143 -0.2275 -0.1771
  706TMC3     C10440   0.274   4.522  16.075  0.0238 -0.6599 -0.3381
  706TMC3     O10441   0.388   4.562  16.041  0.3563  0.1841 -0.2086
  706TMC3     H10442   0.286   0.066  16.089  1.1732 -0.1720  1.4045
  706TMC3    H110443   0.111   4.438  16.261 -0.1344  0.0807  0.8889
  706TMC3    H210444   4.630   0.105  16.278 -0.2924  0.9486 -4.2608
  706TMC3    C710445   4.603   4.558  16.327  0.3029 -0.1070 -0.2028
  706TMC3    C810446   0.089   0.229  16.149  0.4936 -0.3957  0.1714
  706TMC3    O110447   4.616   4.429  16.328  0.5050  0.0947  0.5884
  706TMC3    O210448   0.116   0.245  16.030  0.0449 -0.1283  0.0537
  707TMC3    C110449   1.282   4.071   1.337  0.4825  0.3432 -0.8332
  707TMC3    C210450   1.235   3.957   1.397  0.3317  0.0809 -0.2437
  707TMC3    C310451   1.097   3.930   1.399  0.1483 -0.4506 -0.4153
  707TMC3    C410452   1.202   4.173   1.284  0.0435  0.1787 -0.0931
  707TMC3    C510453   1.064   4.155   1.305  0.2399 -0.3380  0.1729
  707TMC3    C610454   1.014   4.036   1.356 -1.4072 -0.5453 -0.2482
  707TMC3     C10455   1.423   4.068   1.313  0.5406 -0.2860 -0.4473
  707TMC3     O10456   1.490   3.997   1.387 -0.3734  0.2209  0.0565
  707TMC3     H10457   1.308   3.881   1.422 -0.1002  0.4518  2.1112
  707TMC3    H110458   1.240   4.269   1.254 -1.2658  0.8624  0.4342
  707TMC3    H210459   0.907   4.020   1.366 -1.4379  0.3959  0.8808
  707TMC3    C710460   0.978   4.251   1.239  0.0178  0.8708  0.1595
  707TMC3    C810461   1.053   3.793   1.386  0.3867  1.0819 -0.1584
  707TMC3    O110462   0.864   4.212   1.235 -0.0757 -0.0713 -0.3504
  707TMC3    O210463   0.975   3.771   1.295 -0.3018  0.2519  0.0065
  708MPD2     C10464   2.953   3.301  13.764  0.3222 -0.2214  0.3971
  708MPD2    C110465   2.876   3.195  13.792  0.1659 -0.6094 -0.1325
  708MPD2    C210466   2.934   3.072  13.817 -0.0411  0.2432  0.4500
  708MPD2    C310467   3.069   3.060  13.806  0.0432  0.2562 -0.0637
  708MPD2    C410468   3.151   3.166  13.772  0.1293 -0.1315  0.4392
  708MPD2    C510469   3.083   3.286  13.749 -0.5882  0.2124 -0.0837
  708MPD2     H10470   2.862   2.995  13.844  1.1768 -0.8122  0.6597
  708MPD2    H110471   3.257   3.150  13.758  0.3509  2.2679 -0.6093
  708MPD2    H210472   2.918   3.400  13.736 -2.7271 -0.9488  1.5852
  708MPD2    H310473   3.140   3.374  13.722  0.0994 -0.9296 -2.3048
  708MPD2     N10474   3.115   2.932  13.847  0.6300  0.0575 -0.4305
  708MPD2    H510475   3.048   2.869  13.891 -1.5935  1.5455 -1.7092
  708MPD2    N110476   2.732   3.199  13.794 -0.5186  0.4775  0.1438
  708MPD2    H710477   2.695   3.109  13.822 -1.6793  1.3221  1.3363
  709TMC3    C110478   2.527   3.284  13.839 -0.0274  0.3337 -1.0861
  709TMC3    C210479   2.412   3.334  13.779 -0.6357  0.1914  0.4673
  709TMC3    C310480   2.294   3.288  13.818 -0.3926 -0.0821 -0.0347
  709TMC3    C410481   2.525   3.198  13.949 -0.2435 -0.1782  0.0028
  709TMC3    C510482   2.401   3.143  13.977  0.4745  0.2158 -0.3075
  709TMC3    C610483   2.287   3.196  13.918  0.0898 -0.0426  0.2161
  709TMC3     C10484   2.655   3.307  13.774 -0.5324 -0.0120  0.3472
  709TMC3     O10485   2.683   3.421  13.738  0.0763  0.1818 -0.3838
  709TMC3     H10486   2.423   3.390  13.687 -0.1644  0.9138  0.9664
  709TMC3    H110487   2.616   3.180  14.005  0.9311  0.0418 -1.8488
  709TMC3    H210488   2.191   3.170  13.962  1.4904 -2.5422  1.8112
  709TMC3    C710489   2.394   3.035  14.074  0.3218 -0.1788  0.0291
  709TMC3    C810490   2.172   3.315  13.743  0.5516  0.8795 -0.4385
  709TMC3    O110491   2.311   3.030  14.164  0.1376  0.0549 -0.3374
  709TMC3    O210492   2.067   3.342  13.802  0.1546 -0.0076 -0.2484
  710TMC3    C110493   3.640   4.102   0.679  0.2917 -0.1604  0.2417
  710TMC3    C210494   3.728   4.160   0.594  0.8879  0.4467 -1.3176
  710TMC3    C310495   3.862   4.111   0.586 -1.2648  0.0026 -0.0732
  710TMC3    C410496   3.676   3.984   0.743  0.0754  0.3257 -0.2822
  710TMC3    C510497   3.805   3.934   0.718  0.7246 -0.3285  0.0219
  710TMC3    C610498   3.906   3.996   0.651  0.0394  0.4238  0.2018
  710TMC3     C10499   3.507   4.155   0.702 -0.0354  0.1118  0.1919
  710TMC3     O10500   3.420   4.076   0.729 -0.2324 -0.1351 -0.0814
  710TMC3     H10501   3.698   4.250   0.542 -1.2846  0.6800  0.3450
  710TMC3    H110502   3.595   3.929   0.790  0.2688  0.7980  0.6089
  710TMC3    H210503   4.004   3.953   0.634  0.7143  1.8500  0.4728
  710TMC3    C710504   3.829   3.804   0.773  0.0727 -0.2984 -0.0623
  710TMC3    C810505   3.956   4.180   0.499 -0.0437  0.5121  0.1459
  710TMC3    O110506   3.731   3.765   0.835 -0.7530  0.3385  0.0421
  710TMC3    O210507   4.052   4.113   0.454 -0.2673  0.2936 -0.0099
  711TMC3    C110508   3.333   0.442  15.051  1.2462 -0.8716 -0.3995
  711TMC3    C210509   3.313   0.414  15.186 -0.2235  0.2890 -0.1627
  711TMC3    C310510   3.366   0.495  15.282  0.6513  0.4288  0.2281
  711TMC3    C410511   3.391   0.559  15.010  0.0048 -0.3457 -0.6397
  711TMC3    C510512   3.433   0.641  15.112  0.1694 -0.4766  0.0938
  711TMC3    C610513   3.418   0.616  15.243 -0.3097  0.8056 -0.2989
  711TMC3     C10514   3.291   0.333  14.959 -0.4703 -0.4421 -0.3358
  711TMC3     O10515   3.213   0.252  15.002 -0.1065  0.1776  0.4644
  711TMC3     H10516   3.272   0.321  15.224  1.1582 -1.2969 -2.5564
  711TMC3    H110517   3.385   0.597  14.908 -0.2742  1.4973  0.0757
  711TMC3    H210518   3.467   0.686  15.310  0.6453 -0.3732  0.2274
  711TMC3    C710519   3.560   0.701  15.098 -0.1585 -0.2120 -0.0808
  711TMC3    C810520   3.446   0.414  15.371  1.0782 -0.7952 -0.0079
  711TMC3    O110521   3.569   0.814  15.060  0.2060  0.3664  0.1941
  711TMC3    O210522   3.393   0.314  15.421  0.3042  0.0513 -0.3476
  712MPD2     C10523   0.073   1.734  14.030  0.3813  0.0323  0.0648
  712MPD2    C110524   4.720   1.789  13.928  0.6588 -0.3759 -0.1411
  712MPD2    C210525   0.054   1.882  13.850 -0.4413  0.1524  0.6304
  712MPD2    C310526   0.184   1.917  13.861  1.1770 -0.4687 -0.2404
  712MPD2    C410527   0.264   1.857  13.958 -0.1781  0.5789  0.4719
  712MPD2    C510528   0.201   1.777  14.049  0.6049 -0.1172 -0.6827
  712MPD2     H10529   4.716   1.906  13.763 -1.4649 -4.0242  0.1511
  712MPD2    H110530   0.372   1.874  13.962  0.1403 -1.2096 -0.8175
  712MPD2    H210531   0.031   1.658  14.095  2.6565 -1.2886 -0.0032
  712MPD2    H310532   0.257   1.739  14.134 -0.1344  0.4035  0.0277
  712MPD2     N10533   0.250   2.011  13.781 -0.1807  0.1578 -0.2968
  712MPD2    H510534   0.350   2.021  13.800  0.1178 -1.5201 -0.8937
  712MPD2    N110535   4.583   1.755  13.899 -0.1207 -0.2352  0.0566
  712MPD2    H710536   4.537   1.817  13.833  0.5615 -0.2812 -0.4534
  713TMC3    C110537   0.249   2.209  13.635  0.4145  0.3617  0.3523
  713TMC3    C210538   0.370   2.172  13.588 -0.3938 -0.0116 -0.0091
  713TMC3    C310539   0.444   2.266  13.521 -0.2706  0.3143 -0.6222
  713TMC3    C410540   0.186   2.325  13.603  0.1214  0.3201 -0.0966
  713TMC3    C510541   0.264   2.419  13.537 -0.5019 -0.2715 -0.6012
  713TMC3    C610542   0.392   2.384  13.488 -0.3373  0.1448 -0.4870
  713TMC3     C10543   0.177   2.117  13.723  0.0500 -0.1332  0.5132
  713TMC3     O10544   0.059   2.153  13.743 -0.1271 -0.4839  0.3784
  713TMC3     H10545   0.402   2.071  13.609  0.9677  0.2981 -0.5672
  713TMC3    H110546   0.082   2.343  13.625  0.2767  0.3640  0.5799
  713TMC3    H210547   0.461   2.457  13.447 -2.7978  2.7518 -0.0699
  713TMC3    C710548   0.231   2.556  13.533 -0.4553  0.4470 -0.1705
  713TMC3    C810549   0.584   2.251  13.490  0.3571  0.3845 -0.2044
  713TMC3    O110550   0.319   2.622  13.481  0.2238 -0.0864  0.1842
  713TMC3    O210551   0.633   2.311  13.396 -0.0174  0.3094 -0.3415
  714MPD2     C10552   2.524   0.139   1.128 -0.3655  0.6729 -0.5358
  714MPD2    C110553   2.545   0.277   1.139  0.1327  0.2981  0.2497
  714MPD2    C210554   2.437   0.362   1.133  0.5100  0.3186 -0.4753
  714MPD2    C310555   2.307   0.308   1.134 -0.0926 -0.1894 -0.5410
  714MPD2    C410556   2.289   0.171   1.140  0.3343 -0.1945 -0.5585
  714MPD2    C510557   2.399   0.088   1.134 -0.2041  0.5220  0.3994
  714MPD2     H10558   2.451   0.469   1.135  3.5568 -0.1391  1.7633
  714MPD2    H110559   2.196   0.118   1.157  0.5203  0.8084  3.8252
  714MPD2    H210560   2.605   0.067   1.126 -0.9094 -0.0197  1.9251
  714MPD2    H310561   2.382   4.704   1.148  0.1878  0.6493  1.8596
  714MPD2     N10562   2.200   0.392   1.141  0.3053 -0.1454 -0.9960
  714MPD2    H510563   2.224   0.491   1.132 -0.4176  0.1522  0.3472
  714MPD2    N110564   2.675   0.325   1.140 -0.2077  0.6034 -0.5706
  714MPD2    H710565   2.749   0.256   1.143  1.5448  2.4852 -0.1980
  715TMC3    C110566   2.858   0.471   1.179  0.1983  0.4670 -0.6774
  715TMC3    C210567   2.937   0.360   1.146  0.1725  0.2701 -0.0538
  715TMC3    C310568   3.064   0.365   1.193  0.1785  0.4171  0.1697
  715TMC3    C410569   2.907   0.570   1.256 -0.1376  0.0011  0.2299
  715TMC3    C510570   3.028   0.558   1.313  0.5287 -0.2687  0.3184
  715TMC3    C610571   3.109   0.450   1.290 -0.7642  0.9478  0.8538
  715TMC3     C10572   2.712   0.459   1.160  0.3883  0.1514  0.2800
  715TMC3     O10573   2.646   0.561   1.174  0.4547 -0.3836 -0.3062
  715TMC3     H10574   2.900   0.292   1.070  1.2566 -2.2023  1.6401
  715TMC3    H110575   2.840   0.654   1.269 -0.2295 -0.1252  0.5936
  715TMC3    H210576   3.194   0.437   1.356  0.5432  0.1669 -0.9550
  715TMC3    C710577   3.086   0.670   1.380 -0.5039 -0.0439  0.7261
  715TMC3    C810578   3.152   0.252   1.160 -0.1690  0.1428  0.4567
  715TMC3    O110579   3.208   0.657   1.399  0.2400 -0.2229 -0.0569
  715TMC3    O210580   3.099   0.148   1.126 -0.5808  0.1334 -0.4195
  716MPD2     C10581   2.057   3.337   9.853 -0.0996 -0.2818 -0.1782
  716MPD2    C110582   1.981   3.299   9.748 -0.1079  0.3633  0.2588
  716MPD2    C210583   2.004   3.174   9.703  0.0397  0.8813  0.0149
  716MPD2    C310584   2.108   3.094   9.749 -0.1091  1.0241  0.0598
  716MPD2    C410585   2.200   3.142   9.835  0.1467  0.3516  0.1817
  716MPD2    C510586   2.155   3.256   9.904 -0.3850 -0.6616  0.4754
  716MPD2     H10587   1.948   3.141   9.616 -0.4470 -0.1826  0.7429
  716MPD2    H110588   2.285   3.083   9.868 -0.3297  0.5139  1.6625
  716MPD2    H210589   2.031   3.427   9.908  1.2695  0.1424 -0.2212
  716MPD2    H310590   2.215   3.292   9.986 -2.7200  1.0988  1.4003
  716MPD2     N10591   2.138   2.980   9.671 -0.0047 -0.1300 -0.6784
  716MPD2    H510592   2.089   2.956   9.585 -1.1115 -0.7051  0.1205
  716MPD2    N110593   1.889   3.389   9.698 -0.5979  0.0532 -0.5276
  716MPD2    H710594   1.867   3.476   9.744 -1.3193 -0.1776 -0.4199
  717TMC3    C110595   2.232   2.772   9.607 -0.4209  0.4489  0.4670
  717TMC3    C210596   2.142   2.765   9.503 -0.2055 -0.4828 -0.3765
  717TMC3    C310597   2.126   2.644   9.438 -0.5145  0.3514 -0.1953
  717TMC3    C410598   2.304   2.664   9.640  0.5388  0.9393  0.0253
  717TMC3    C510599   2.301   2.549   9.562 -0.0383  0.4997 -0.2529
  717TMC3    C610600   2.206   2.533   9.462 -0.1925 -0.7428  0.8113
  717TMC3     C10601   2.238   2.886   9.698  0.1754  0.0483 -0.3069
  717TMC3     O10602   2.306   2.861   9.797 -0.2661  0.1420  0.1772
  717TMC3     H10603   2.064   2.837   9.478 -0.4929 -1.3002 -1.8472
  717TMC3    H110604   2.377   2.662   9.720  0.2515 -0.0043  0.2685
  717TMC3    H210605   2.212   2.447   9.396  0.4592  0.3750 -0.5902
  717TMC3    C710606   2.373   2.441   9.605 -0.2729  0.7491 -0.4567
  717TMC3    C810607   2.015   2.635   9.352 -0.5316  0.3046 -0.9861
  717TMC3    O110608   2.409   2.429   9.723 -0.0813  0.5541 -0.6199
  717TMC3    O210609   1.982   2.733   9.294 -0.5487 -0.2593 -0.1515
  718MPD2     C10610   1.484   1.381  12.916  0.0057 -0.0788  0.2915
  718MPD2    C110611   1.397   1.431  12.815  0.2357  0.5978 -0.1824
  718MPD2    C210612   1.265   1.445  12.851  0.7672  0.6989 -0.3057
  718MPD2    C310613   1.221   1.433  12.977 -0.1067  0.0161  0.6946
  718MPD2    C410614   1.307   1.389  13.073 -0.8778 -0.0559 -0.3152
  718MPD2    C510615   1.434   1.357  13.039 -0.0469  0.1103  0.3318
  718MPD2     H10616   1.198   1.494  12.782 -1.0455 -1.0917  0.1583
  718MPD2    H110617   1.273   1.367  13.173  0.9211 -2.4901 -0.2498
  718MPD2    H210618   1.588   1.359  12.896  0.3691  1.5690  0.3884
  718MPD2    H310619   1.502   1.304  13.106 -0.2849 -1.2066 -0.4739
  718MPD2     N10620   1.087   1.470  12.994  1.0030  0.7100  0.2729
  718MPD2    H510621   1.046   1.501  12.906 -1.1666 -1.4368  0.5154
  718MPD2    N110622   1.440   1.470  12.687  0.3910 -0.3591  0.1432
  718MPD2    H710623   1.369   1.513  12.629  1.0001 -0.4649 -0.6790
  719TMC3    C110624   1.591   1.529  12.516  0.0619 -0.3982 -0.8191
  719TMC3    C210625   1.472   1.549  12.451  0.9909 -0.7456 -0.0163
  719TMC3    C310626   1.428   1.671  12.405  0.0551  0.0396 -0.2558
  719TMC3    C410627   1.662   1.642  12.534 -0.6085 -0.2761  0.7405
  719TMC3    C510628   1.624   1.762  12.483  0.1476 -0.5099 -0.0258
  719TMC3    C610629   1.508   1.784  12.421  0.7449 -0.2126 -0.2363
  719TMC3     C10630   1.575   1.469  12.648 -0.0777  0.5840  0.1730
  719TMC3     O10631   1.675   1.429  12.704  0.1973  0.3545 -0.0915
  719TMC3     H10632   1.409   1.461  12.440 -1.2898  1.0506 -1.4153
  719TMC3    H110633   1.759   1.623  12.579  0.4788  1.1955 -0.9581
  719TMC3    H210634   1.483   1.883  12.383 -0.5148  0.0251  1.1935
  719TMC3    C710635   1.727   1.859  12.480  0.2849  0.6919 -0.4833
  719TMC3    C810636   1.286   1.688  12.449 -0.3777  0.0185 -0.2237
  719TMC3    O110637   1.715   1.941  12.391 -0.2803 -0.4863 -0.1349
  719TMC3    O210638   1.243   1.597  12.521 -0.2291 -0.3506 -0.3790
  720MPD2     C10639   4.690   3.738  14.035 -0.3547 -0.0739 -0.2641
  720MPD2    C110640   0.039   3.728  13.917 -0.2340 -0.6211 -0.4614
  720MPD2    C210641   0.150   3.651  13.919  0.2468 -0.3795  0.4123
  720MPD2    C310642   0.199   3.595  14.041  0.7707 -0.3580  0.0127
  720MPD2    C410643   0.139   3.624  14.159  0.9826  0.0930 -0.3113
  720MPD2    C510644   0.019   3.689  14.151 -0.1980 -0.3285 -0.6873
  720MPD2     H10645   0.195   3.631  13.822  2.4738  1.6128  1.0343
  720MPD2    H110646   0.179   3.601  14.257  1.0259 -0.8618 -0.5542
  720MPD2    H210647   4.593   3.785  14.035 -0.1612  0.3309 -0.3000
  720MPD2    H310648   4.690   3.707  14.245  0.4639  0.1350 -0.4199
  720MPD2     N10649   0.324   3.525  14.033 -0.2529 -0.1000 -0.3864
  720MPD2    H510650   0.363   3.505  13.942 -2.6103 -0.7946 -1.2344
  720MPD2    N110651   4.712   3.787  13.798  0.1122 -0.4384  0.3335
  720MPD2    H710652   0.028   3.750  13.711 -2.1937  2.7697 -2.0571
  721TMC3    C110653   0.538   3.454  14.104 -0.3054  0.5436  0.1836
  721TMC3    C210654   0.624   3.440  14.216 -0.7939  0.1455 -0.5107
  721TMC3    C310655   0.756   3.483  14.205  0.6145  0.6715 -0.4987
  721TMC3    C410656   0.585   3.520  13.993  0.6230 -0.5832  0.2405
  721TMC3    C510657   0.707   3.580  13.997  0.5105  0.2194 -0.0777
  721TMC3    C610658   0.791   3.562  14.104  0.4165  0.0875  0.1186
  721TMC3     C10659   0.401   3.487  14.140  0.5365 -0.8040 -0.3376
  721TMC3     O10660   0.373   3.477  14.259  0.0465 -0.1806  0.3915
  721TMC3     H10661   0.577   3.369  14.283 -0.9636  0.1738 -0.5988
  721TMC3    H110662   0.538   3.510  13.896 -1.3928  0.5999  1.0991
  721TMC3    H210663   0.891   3.604  14.100  0.3050  0.4464  1.0806
  721TMC3    C710664   0.774   3.595  13.860 -0.4047 -0.0103 -0.3033
  721TMC3    C810665   0.837   3.485  14.330  0.1893  0.5302 -0.1510
  721TMC3    O110666   0.696   3.586  13.766 -0.4311  0.4162  0.4588
  721TMC3    O210667   0.948   3.535  14.314  0.4850 -0.8803 -0.2554
  722MPD2     C10668   3.873   2.348  13.329  0.4064 -0.3678  0.3691
  722MPD2    C110669   3.824   2.463  13.269  0.3815  0.4512  0.1970
  722MPD2    C210670   3.688   2.466  13.244  0.2462 -0.2773  0.1765
  722MPD2    C310671   3.600   2.358  13.271 -0.3691 -0.8957 -0.1041
  722MPD2    C410672   3.659   2.251  13.326 -0.2767 -0.0380  0.7658
  722MPD2    C510673   3.788   2.248  13.367 -0.5799 -0.1296  0.6546
  722MPD2     H10674   3.640   2.551  13.199 -2.0578 -1.0145  1.2461
  722MPD2    H110675   3.609   2.159  13.353 -0.2275 -0.4147 -0.4251
  722MPD2    H210676   3.974   2.340  13.368  1.0130  0.9675 -0.9264
  722MPD2    H310677   3.829   2.167  13.427  1.9141 -0.2223 -1.1600
  722MPD2     N10678   3.458   2.370  13.264  0.0037 -0.3687  0.0861
  722MPD2    H510679   3.425   2.457  13.224 -0.0043  0.2935  1.5145
  722MPD2    N110680   3.898   2.572  13.229  0.1964 -0.3704  0.1371
  722MPD2    H710681   3.853   2.654  13.190  0.8375  0.1662  0.5149
  723TMC3    C110682   3.229   2.328  13.305 -0.5508 -0.7898 -0.9280
  723TMC3    C210683   3.128   2.240  13.337 -0.3382  0.4748  0.3313
  723TMC3    C310684   2.998   2.279  13.320  0.1990 -0.1044 -0.0883
  723TMC3    C410685   3.196   2.452  13.256  0.7381 -0.1818  0.1632
  723TMC3    C510686   3.062   2.488  13.250  0.9165  0.7520  0.0010
  723TMC3    C610687   2.960   2.406  13.297  0.2854 -0.2197  0.8221
  723TMC3     C10688   3.366   2.284  13.317 -0.2448  0.1156 -0.4187
  723TMC3     O10689   3.386   2.187  13.391 -0.0360 -0.4342  0.2916
  723TMC3     H10690   3.143   2.141  13.381  1.1414  0.2151 -0.7388
  723TMC3    H110691   3.276   2.523  13.238  0.8644 -0.1470  0.8476
  723TMC3    H210692   2.856   2.434  13.300 -0.1483 -1.7872  0.6197
  723TMC3    C710693   3.021   2.623  13.202 -0.5646 -0.1093 -0.5586
  723TMC3    C810694   2.889   2.184  13.332 -0.0262  0.1058 -0.0963
  723TMC3    O110695   3.110   2.706  13.219  0.2545 -0.4943  0.5029
  723TMC3    O210696   2.787   2.231  13.382 -0.0198  0.2882 -0.2162
  724TMC3    C110697   4.539   3.381   9.287 -0.8951  0.4257  0.0994
  724TMC3    C210698   4.420   3.392   9.215 -0.0606 -0.0811 -0.4059
  724TMC3    C310699   4.360   3.276   9.165  0.7866 -0.5986 -0.7347
  724TMC3    C410700   4.577   3.256   9.317  0.3400  0.4222  0.0275
  724TMC3    C510701   4.513   3.148   9.263 -0.2381  0.7367 -0.5242
  724TMC3    C610702   4.394   3.149   9.199  0.1473  0.2982 -0.3184
  724TMC3     C10703   4.578   3.493   9.369 -0.1678  0.2883 -0.6224
  724TMC3     O10704   4.650   3.465   9.461  0.6959  0.7776 -0.5372
  724TMC3     H10705   4.405   3.494   9.180 -0.1197  0.5239  1.4050
  724TMC3    H110706   4.652   3.251   9.395  0.2849  0.3514  0.0756
  724TMC3    H210707   4.350   3.057   9.163  2.6104 -0.2365 -1.9855
  724TMC3    C710708   4.560   3.017   9.316  0.4336  0.0286  0.0305
  724TMC3    C810709   4.253   3.303   9.070 -0.2004  0.1334 -0.4424
  724TMC3    O110710   4.483   2.921   9.322  0.3162  0.7875  0.2977
  724TMC3    O210711   4.221   3.421   9.058 -0.3133 -0.2143 -0.1389
  725TMC3    C110712   0.985   3.737  12.283  0.2711 -0.5596  0.1677
  725TMC3    C210713   0.927   3.849  12.221 -0.4181  0.0752 -0.2036
  725TMC3    C310714   0.864   3.836  12.100  0.1100  0.2677  0.8969
  725TMC3    C410715   0.962   3.610  12.229  0.1458  0.1326  0.1401
  725TMC3    C510716   0.892   3.600  12.114 -0.7846 -0.6835 -0.2306
  725TMC3    C610717   0.848   3.711  12.044  0.3154  0.0565  0.0594
  725TMC3     C10718   1.085   3.744  12.385  0.1503  0.6808 -0.2031
  725TMC3     O10719   1.135   3.642  12.417 -0.0614  0.3878 -0.0647
  725TMC3     H10720   0.899   3.930  12.288 -1.5610 -1.0934  0.7122
  725TMC3    H110721   1.007   3.518  12.264 -4.5592 -1.4843  1.9965
  725TMC3    H210722   0.792   3.688  11.955  1.3306 -1.1634 -0.2579
  725TMC3    C710723   0.815   3.480  12.106  0.0505 -0.2347 -0.4570
  725TMC3    C810724   0.779   3.945  12.051 -0.4695  0.3390 -0.1949
  725TMC3    O110725   0.761   3.438  12.004  0.1798 -0.0513 -0.1024
  725TMC3    O210726   0.710   3.906  11.958  0.2455  0.2020  0.2061
  726MPD2     C10727   3.254   1.290  10.263  0.2935  0.3240 -0.2055
  726MPD2    C110728   3.126   1.328  10.218 -0.5787  0.2069  0.4750
  726MPD2    C210729   3.010   1.263  10.260 -0.1612 -0.4958  0.1952
  726MPD2    C310730   3.027   1.161  10.358  0.4584 -0.2795 -0.3492
  726MPD2    C410731   3.156   1.129  10.398 -0.1941 -0.9873 -0.7423
  726MPD2    C510732   3.272   1.180  10.341 -0.4020  0.2381 -0.1777
  726MPD2     H10733   2.908   1.292  10.238  0.5445  1.3805 -0.5794
  726MPD2    H110734   3.180   1.056  10.475 -2.8856 -2.4953 -1.3122
  726MPD2    H210735   3.341   1.351  10.240  0.5805 -0.7606 -1.9724
  726MPD2    H310736   3.369   1.153  10.383  0.4556 -1.9058 -3.5874
  726MPD2     N10737   2.928   1.084  10.420 -0.4658  0.0021 -0.3230
  726MPD2    H510738   2.965   1.018  10.488 -2.8163 -1.5468 -0.5328
  726MPD2    N110739   3.101   1.444  10.141  0.0067 -0.8767  0.4607
  726MPD2    H710740   3.005   1.464  10.116  0.0214 -3.4327 -1.5588
  727TMC3    C110741   3.147   1.655  10.048  0.7363 -0.6238 -0.4137
  727TMC3    C210742   3.238   1.761  10.048  0.2244  0.0452 -0.9359
  727TMC3    C310743   3.228   1.856   9.953 -0.1119  0.3286 -0.6649
  727TMC3    C410744   3.053   1.653   9.947  0.5281 -0.2653  0.7179
  727TMC3    C510745   3.039   1.763   9.858  0.9656 -0.0621 -0.0671
  727TMC3    C610746   3.130   1.868   9.858 -1.5043  0.8114  0.1363
  727TMC3     C10747   3.198   1.533  10.102  0.2452 -0.2262  0.7246
  727TMC3     O10748   3.320   1.538  10.119 -0.3058  0.4980 -0.3804
  727TMC3     H10749   3.325   1.761  10.114  1.6668 -1.4351 -2.8070
  727TMC3    H110750   2.991   1.564   9.943 -1.0523  0.8455  0.5381
  727TMC3    H210751   3.133   1.936   9.773  3.4010 -1.1886 -1.2497
  727TMC3    C710752   2.934   1.778   9.763 -0.2446 -0.3000  0.3705
  727TMC3    C810753   3.352   1.926   9.929 -0.3825  0.1775  0.1380
  727TMC3    O110754   2.939   1.876   9.686 -0.1495  0.2188 -0.0298
  727TMC3    O210755   3.453   1.855   9.921  0.0742  0.1631 -0.1697
  728TMC3    C110756   2.926   4.093  15.640 -0.3344 -0.2822 -0.3852
  728TMC3    C210757   3.018   4.196  15.614  0.9735  0.1636  0.1533
  728TMC3    C310758   3.022   4.250  15.492  0.0055 -0.7193 -1.1774
  728TMC3    C410759   2.844   4.046  15.541 -0.7983 -0.4414 -0.1291
  728TMC3    C510760   2.856   4.099  15.415  0.1704  0.8956  0.1189
  728TMC3    C610761   2.945   4.196  15.387  0.5423  0.0908 -0.0880
  728TMC3     C10762   2.884   4.099  15.778 -0.0501  0.0876 -0.4429
  728TMC3     O10763   2.938   4.179  15.852 -0.0592 -0.8060  0.1465
  728TMC3     H10764   3.087   4.226  15.691 -0.4489 -0.5005  1.6930
  728TMC3    H110765   2.759   3.985  15.567 -0.9145 -0.2829 -0.1387
  728TMC3    H210766   2.948   4.241  15.289 -0.5483  1.0717  0.3232
  728TMC3    C710767   2.751   4.070  15.325 -0.5534 -0.2153 -0.0665
  728TMC3    C810768   3.106   4.367  15.466 -0.4696 -0.5311  0.3178
  728TMC3    O110769   2.676   3.979  15.357  0.2760  0.4848 -0.2281
  728TMC3    O210770   3.121   4.389  15.346 -0.5882 -0.8921 -0.0616
  729MPD2     C10771   0.248   0.515  16.629 -0.2621  0.4370 -0.1806
  729MPD2    C110772   0.376   0.526  16.679 -0.0071 -0.1090  0.2099
  729MPD2    C210773   0.396   0.486  16.808  0.3726  0.2385  0.3303
  729MPD2    C310774   0.291   0.456  16.892  0.2848  0.0984 -0.4756
  729MPD2    C410775   0.169   0.435  16.836  0.2871 -0.1887  0.0184
  729MPD2    C510776   0.148   0.462  16.704  0.1463 -0.1432 -0.7278
  729MPD2     H10777   0.495   0.493  16.852 -0.1856 -0.8402  1.7502
  729MPD2    H110778   0.086   0.393  16.891  1.2523 -2.3942 -0.1935
  729MPD2    H210779   0.224   0.544  16.528  1.8202  1.8190 -0.2667
  729MPD2    H310780   0.049   0.451  16.661  0.2244 -1.3032 -0.6049
  729MPD2     N10781   0.300   0.473  17.030  0.4370 -0.7146  0.2934
  729MPD2    H510782   0.210   0.476  17.077  0.3423 -2.0954  0.2042
  729MPD2    N110783   0.482   0.584  16.602  0.0488 -0.6739 -0.5624
  729MPD2    H710784   0.453   0.589  16.505  1.1126 -0.0951 -0.8431
  730TMC3    C110785   0.407   0.508  17.235 -0.0630 -0.5378  0.6951
  730TMC3    C210786   0.529   0.499  17.297 -0.2492 -0.5913 -0.5650
  730TMC3    C310787   0.561   0.587  17.397  1.0231  0.1930  0.1218
  730TMC3    C410788   0.315   0.606  17.266 -0.1112  0.7311 -1.1155
  730TMC3    C510789   0.352   0.695  17.367  0.6593 -0.0288  0.0083
  730TMC3    C610790   0.470   0.685  17.435  0.7614  0.0871  0.8351
  730TMC3     C10791   0.419   0.465  17.100 -0.1290  0.6199 -0.3022
  730TMC3     O10792   0.523   0.433  17.048 -0.4639  0.4599  0.2610
  730TMC3     H10793   0.593   0.416  17.269  2.5444  0.9123  1.3847
  730TMC3    H110794   0.218   0.614  17.219 -1.6832 -1.3916  1.7414
  730TMC3    H210795   0.506   0.760  17.504 -0.5633  0.1015  1.5192
  730TMC3    C710796   0.300   0.831  17.349 -0.2666  0.5262 -0.3449
  730TMC3    C810797   0.696   0.595  17.437  0.4842 -0.8858  0.6988
  730TMC3    O110798   0.256   0.862  17.239  0.6843 -0.1244  0.2085
  730TMC3    O210799   0.767   0.492  17.428 -0.2879  0.1256 -0.0319
  731MPD2     C10800   0.387   3.711  12.623  0.4727 -0.5589  1.3540
  731MPD2    C110801   0.337   3.625  12.524 -0.2697  0.2530  0.1231
  731MPD2    C210802   0.255   3.521  12.569 -0.6240  0.4160 -0.7899
  731MPD2    C310803   0.212   3.516  12.700 -0.0058  0.4507 -0.3366
  731MPD2    C410804   0.263   3.601  12.793 -0.0943 -0.1138 -0.2805
  731MPD2    C510805   0.354   3.692  12.755  0.8688 -0.8257 -0.1257
  731MPD2     H10806   0.217   3.442  12.505  0.8466 -1.3539  0.4997
  731MPD2    H110807   0.253   3.586  12.900  1.9579 -0.3390 -0.1199
  731MPD2    H210808   0.458   3.790  12.601 -1.1033  0.2765 -0.7341
  731MPD2    H310809   0.408   3.746  12.832 -1.1558  3.1716 -1.4969
  731MPD2     N10810   0.122   3.413  12.736  0.2261  0.7045  0.0415
  731MPD2    H510811   0.098   3.342  12.667 -4.5536  1.2740  1.1112
  731MPD2    N110812   0.372   3.656  12.389  0.5448  0.3058  0.2353
  731MPD2    H710813   0.422   3.743  12.370  0.7799  0.3905  1.2124
  732TMC3    C110814   0.362   3.651  12.154 -0.0397 -0.2337 -0.4131
  732TMC3    C210815   0.274   3.755  12.148  0.1011 -0.3661  0.5542
  732TMC3    C310816   0.282   3.835  12.040 -0.0687 -1.1034  0.1205
  732TMC3    C410817   0.453   3.621  12.051 -0.1512 -0.4181  0.3798
  732TMC3    C510818   0.453   3.706  11.943 -0.6504  0.5692  0.0950
  732TMC3    C610819   0.377   3.821  11.943 -0.1678 -0.4336  0.2254
  732TMC3     C10820   0.358   3.570  12.277  0.5943  0.8175 -0.0449
  732TMC3     O10821   0.317   3.453  12.270 -0.1638  0.1709  0.0991
  732TMC3     H10822   0.194   3.766  12.220  1.0233  0.4632  1.4637
  732TMC3    H110823   0.525   3.542  12.064 -0.9619 -1.4300 -1.3701
  732TMC3    H210824   0.372   3.873  11.848 -2.1843  1.4434  1.3405
  732TMC3    C710825   0.483   3.648  11.812 -0.0406  0.4703 -0.0038
  732TMC3    C810826   0.159   3.903  11.991  0.4898 -0.7360 -0.2674
  732TMC3    O110827   0.465   3.723  11.717 -0.1769  0.3974 -0.0021
  732TMC3    O210828   0.172   3.994  11.911 -0.0639  0.5494  0.1850
  733TMC3    C110829   0.676   1.596  13.120 -0.1219 -0.6638 -0.2583
  733TMC3    C210830   0.781   1.509  13.148 -0.1001  0.4989  0.3395
  733TMC3    C310831   0.895   1.542  13.083  0.5714  0.1216  0.4146
  733TMC3    C410832   0.678   1.700  13.030  0.2393 -0.0358 -0.3632
  733TMC3    C510833   0.801   1.730  12.979  1.0516  0.7840  0.1802
  733TMC3    C610834   0.912   1.659  13.007 -0.7422  1.0589  0.7555
  733TMC3     C10835   0.544   1.540  13.132 -0.1081 -0.1435 -0.4740
  733TMC3     O10836   0.456   1.600  13.072 -0.2543 -0.8048 -0.7384
  733TMC3     H10837   0.775   1.431  13.222 -1.5102  0.4341  0.1526
  733TMC3    H110838   0.595   1.768  13.012  0.5390  0.5977  0.7171
  733TMC3    H210839   1.012   1.690  12.978  0.2885 -4.2555 -1.4079
  733TMC3    C710840   0.809   1.828  12.868  0.3207  0.2059  0.1608
  733TMC3    C810841   1.011   1.459  13.107  0.1350 -0.5897  0.0984
  733TMC3    O110842   0.732   1.920  12.859  0.0618 -0.5634 -0.4439
  733TMC3    O210843   1.027   1.417  13.221  0.3043 -0.0292 -0.7270
  734MPD2     C10844   2.812   4.505  12.599  0.4892  0.8136  0.6981
  734MPD2    C110845   2.762   4.435  12.492 -0.5579 -0.3604 -0.5239
  734MPD2    C210846   2.773   4.489  12.361  0.4729  0.6504 -0.6112
  734MPD2    C310847   2.852   4.599  12.333  0.0681 -0.6747 -0.0965
  734MPD2    C410848   2.914   4.667  12.441  0.0984 -0.3026 -0.2044
  734MPD2    C510849   2.883   4.625  12.570  0.3179  0.5134 -0.5595
  734MPD2     H10850   2.729   4.439  12.275  0.6106  0.1243 -0.3785
  734MPD2    H110851   2.978   0.033  12.439 -0.2507  0.0053  1.3395
  734MPD2    H210852   2.815   4.465  12.699 -0.0061 -1.5497 -0.2458
  734MPD2    H310853   2.935   4.672  12.652  0.9909  0.9931 -1.2576
  734MPD2     N10854   2.868   4.634  12.198  0.4418  0.1182 -0.2358
  734MPD2    H510855   2.841   4.568  12.126 -0.7051  1.1068 -0.7062
  734MPD2    N110856   2.705   4.316  12.526 -0.2092 -0.2185  0.3505
  734MPD2    H710857   2.709   4.270  12.616 -1.9083 -1.5975 -0.2935
  735TMC3    C110858   2.622   4.096  12.448  0.2036  0.5223  0.0769
  735TMC3    C210859   2.548   4.037  12.347  0.7572  0.4461 -1.2110
  735TMC3    C310860   2.584   3.920  12.285  0.4104  0.9895 -0.1688
  735TMC3    C410861   2.740   4.038  12.483  0.0133 -0.3049  0.4528
  735TMC3    C510862   2.779   3.916  12.432  0.6405  0.1749  0.4581
  735TMC3    C610863   2.703   3.862  12.331  0.1843  0.1841  0.5788
  735TMC3     C10864   2.632   4.243  12.432 -0.3930  0.0743  0.9189
  735TMC3     O10865   2.587   4.281  12.324 -0.0221 -0.6213  0.0809
  735TMC3     H10866   2.459   4.095  12.323 -1.5326 -2.6678 -0.2010
  735TMC3    H110867   2.800   4.094  12.554 -3.5063 -0.9413  3.9379
  735TMC3    H210868   2.749   3.786  12.270 -1.5037 -1.2202  1.0745
  735TMC3    C710869   2.923   3.885  12.448  0.2941  0.4847  0.0402
  735TMC3    C810870   2.572   3.939  12.142 -0.6017  0.1396 -0.0300
  735TMC3    O110871   2.989   3.978  12.490  0.0027 -0.0887 -0.0553
  735TMC3    O210872   2.564   3.849  12.060  0.2195 -0.4211 -0.0654
  736MPD2     C10873   3.140   3.588  12.449 -0.6581  0.6511  0.2566
  736MPD2    C110874   3.095   3.712  12.423  0.6115  0.1079 -0.8847
  736MPD2    C210875   3.195   3.798  12.385  0.5375  0.4138 -0.2544
  736MPD2    C310876   3.326   3.761  12.370  1.3252 -0.2847  0.3813
  736MPD2    C410877   3.363   3.632  12.397  0.0595 -0.3519  0.2275
  736MPD2    C510878   3.268   3.544  12.446 -0.1463  0.1576 -0.1176
  736MPD2     H10879   3.167   3.902  12.371 -0.8872 -0.0323 -0.7709
  736MPD2    H110880   3.468   3.603  12.391 -0.1372 -1.4271  1.8335
  736MPD2    H210881   3.075   3.503  12.470 -0.2932  0.7335  1.7440
  736MPD2    H310882   3.289   3.445  12.484 -0.0776  0.8176  1.5737
  736MPD2     N10883   3.424   3.852  12.322 -0.4346 -0.1756  0.6288
  736MPD2    H510884   3.520   3.820  12.311 -0.6771 -0.5547 -0.3504
  736MPD2    N110885   2.963   3.757  12.438 -0.6349  0.2650  0.1713
  736MPD2    H710886   2.885   3.692  12.434  0.6307 -1.2689  0.8610
  737TMC3    C110887   3.509   4.016  12.177  0.2213 -0.3390 -0.0464
  737TMC3    C210888   3.500   4.144  12.138 -0.1449 -0.4244 -0.3363
  737TMC3    C310889   3.594   4.179  12.051 -0.1662  0.3892  0.4186
  737TMC3    C410890   3.595   3.924  12.125  0.6226  0.6600  0.1780
  737TMC3    C510891   3.690   3.969  12.037 -0.6398 -0.6713  0.4817
  737TMC3    C610892   3.692   4.103  12.001 -0.1350  0.3677 -0.2909
  737TMC3     C10893   3.399   3.977  12.259 -0.4060 -0.1853  0.2562
  737TMC3     O10894   3.295   4.040  12.254  0.0433  0.1304 -0.2028
  737TMC3     H10895   3.422   4.209  12.174 -0.1403  0.8098 -2.6159
  737TMC3    H110896   3.601   3.820  12.154 -1.9234  0.2320 -0.8246
  737TMC3    H210897   3.778   4.144  11.950 -0.4659 -1.5660 -2.4317
  737TMC3    C710898   3.781   3.871  11.973 -0.0566  0.5978  0.2000
  737TMC3    C810899   3.571   4.310  11.990 -0.2347 -0.1442  0.7009
  737TMC3    O110900   3.769   3.753  12.010 -0.4179  0.8800  0.2658
  737TMC3    O210901   3.482   4.375  12.038 -0.5097 -0.7736 -0.3261
  738MPD2     C10902   3.565   2.709  15.075  0.0604 -0.1124  0.0206
  738MPD2    C110903   3.644   2.619  15.145 -0.0331 -0.7508 -1.0189
  738MPD2    C210904   3.764   2.660  15.197  0.0343 -0.0710  0.6095
  738MPD2    C310905   3.799   2.797  15.188 -0.2139 -0.0888  0.1039
  738MPD2    C410906   3.709   2.888  15.140  1.0924 -0.6355 -0.1755
  738MPD2    C510907   3.588   2.844  15.086  0.0190  0.4031 -0.3127
  738MPD2     H10908   3.833   2.593  15.248  2.1191  1.4732 -0.1771
  738MPD2    H110909   3.733   2.993  15.132  2.0936 -0.8556 -0.0780
  738MPD2    H210910   3.465   2.681  15.044  0.2713 -1.9679  1.0070
  738MPD2    H310911   3.518   2.922  15.059 -0.6625 -0.6125 -1.4766
  738MPD2     N10912   3.934   2.849  15.213  0.0166  0.3376 -0.1970
  738MPD2    H510913   3.957   2.939  15.175  1.1238  0.1850  0.1278
  738MPD2    N110914   3.608   2.484  15.155 -0.0291  0.3470  0.4042
  738MPD2    H710915   3.668   2.414  15.196  3.3355  3.5257  0.8328
  739TMC3    C110916   4.170   2.848  15.258  0.3540  0.3384  0.2123
  739TMC3    C210917   4.186   2.918  15.143  0.4483  0.5452  0.6913
  739TMC3    C310918   4.273   3.026  15.159  0.0662  0.1367  0.0003
  739TMC3    C410919   4.254   2.855  15.368 -0.2076 -0.2033 -0.2469
  739TMC3    C510920   4.347   2.954  15.370 -0.5422 -0.4458 -0.0826
  739TMC3    C610921   4.353   3.047  15.273 -0.3231 -0.2470  0.1649
  739TMC3     C10922   4.037   2.785  15.280 -0.2769 -0.3095  0.4114
  739TMC3     O10923   4.033   2.693  15.357 -0.0553  0.5379 -0.2952
  739TMC3     H10924   4.115   2.902  15.062 -1.2297  2.0901  1.8844
  739TMC3    H110925   4.241   2.782  15.447  2.2551 -0.3708  0.0057
  739TMC3    H210926   4.442   3.109  15.276 -0.7289  0.3141  0.4067
  739TMC3    C710927   4.438   2.957  15.488 -0.0398 -0.6994  0.1858
  739TMC3    C810928   4.305   3.112  15.046  0.1021 -0.2168 -0.1559
  739TMC3    O110929   4.466   2.852  15.543 -0.3696 -0.2843  0.0137
  739TMC3    O210930   4.282   3.071  14.933 -0.5945 -0.2620  0.6130
  740TMC3    C110931   0.027   3.947  14.749  0.0283  1.4128  0.6304
  740TMC3    C210932   0.072   3.916  14.871  0.0281 -0.5658  0.0478
  740TMC3    C310933   0.202   3.867  14.889 -0.0399 -0.0836  0.1231
  740TMC3    C410934   0.103   3.912  14.641  0.8276 -0.1813  0.1942
  740TMC3    C510935   0.230   3.857  14.665  1.0210  0.6675 -0.4757
  740TMC3    C610936   0.284   3.828  14.783 -0.1904 -0.3632 -0.0916
  740TMC3     C10937   4.608   3.992  14.730  0.2439  0.3009  0.7824
  740TMC3     O10938   4.576   4.020  14.615  0.1259  0.2938  0.9185
  740TMC3     H10939   0.015   3.955  14.955  0.2925  1.2120 -0.5921
  740TMC3    H110940   0.058   3.926  14.543  0.8471 -0.2625  0.1726
  740TMC3    H210941   0.384   3.787  14.793  0.1563  0.6018  0.3958
  740TMC3    C710942   0.321   3.839  14.552  0.2146 -0.2590  0.1759
  740TMC3    C810943   0.257   3.865  15.028 -0.4975  0.1886  0.3624
  740TMC3    O110944   0.428   3.791  14.584 -1.2682  0.0730 -0.6312
  740TMC3    O210945   0.180   3.885  15.122 -0.1893  0.2416 -0.2013
  741TMC3    C110946   4.039   3.459  14.943 -0.1106  0.2691 -0.4536
  741TMC3    C210947   4.004   3.341  14.882  0.7885  0.2446  0.3646
  741TMC3    C310948   3.959   3.247  14.964  0.2838 -0.9252  0.0026
  741TMC3    C410949   4.044   3.473  15.083 -0.3841 -0.3548  0.0560
  741TMC3    C510950   4.006   3.364  15.154  0.7412 -0.1587 -0.3586
  741TMC3    C610951   3.962   3.250  15.101 -0.1158 -0.2721  0.3422
  741TMC3     C10952   4.106   3.567  14.875 -0.4685  0.1985 -0.5041
  741TMC3     O10953   4.184   3.631  14.946 -0.0303 -0.8542  0.0563
  741TMC3     H10954   4.012   3.321  14.776  1.4813  1.8589  0.1003
  741TMC3    H110955   4.049   3.573  15.124  0.1246 -0.9444  1.4411
  741TMC3    H210956   3.930   3.161  15.154 -0.7319  0.0333  0.4802
  741TMC3    C710957   3.988   3.390  15.301  0.0684 -0.1605  0.0778
  741TMC3    C810958   3.926   3.118  14.904 -0.2965  0.0372  0.4511
  741TMC3    O110959   3.901   3.316  15.352 -0.0794 -0.4745  0.2466
  741TMC3    O210960   3.958   3.017  14.966 -0.6464  0.0313 -0.4998
  742TMC3    C110961   3.970   1.759  15.216 -0.0133  0.5112  0.4613
  742TMC3    C210962   3.923   1.760  15.090 -1.3344  0.2060  0.0845
  742TMC3    C310963   4.005   1.725  14.990  0.0411  0.0031  0.5238
  742TMC3    C410964   4.092   1.719  15.246 -0.3999 -0.0728 -0.2640
  742TMC3    C510965   4.171   1.669  15.144 -0.5804  0.2388 -0.0610
  742TMC3    C610966   4.127   1.669  15.018  0.2402  0.6267 -0.1912
  742TMC3     C10967   3.900   1.849  15.300 -0.3463  0.2660 -0.3811
  742TMC3     O10968   3.778   1.855  15.280  0.5348 -0.4021  0.0479
  742TMC3     H10969   3.835   1.822  15.072 -2.0830 -0.2362  2.2142
  742TMC3    H110970   4.127   1.698  15.347 -1.5916  1.8991  0.5623
  742TMC3    H210971   4.184   1.630  14.934 -0.4183  1.0125 -0.8108
  742TMC3    C710972   4.304   1.610  15.156 -0.1783 -0.0735 -0.3949
  742TMC3    C810973   3.944   1.687  14.865 -0.2177 -0.3326 -0.0158
  742TMC3    O110974   4.347   1.537  15.065 -0.5108 -0.0927 -0.2206
  742TMC3    O210975   4.014   1.640  14.778  0.2838 -0.3137  0.1145
  743MPD2     C10976   2.038   3.134   2.029  0.4910  0.0201 -0.0251
  743MPD2    C110977   2.062   3.094   1.901 -0.3949 -0.0863 -0.8918
  743MPD2    C210978   2.171   3.019   1.875  0.3959 -0.2409  1.0908
  743MPD2    C310979   2.264   2.973   1.970 -0.1031 -0.3664  0.1347
  743MPD2    C410980   2.244   3.018   2.094 -0.4766 -0.5415 -0.6733
  743MPD2    C510981   2.136   3.095   2.124  0.9557  0.6525 -0.0307
  743MPD2     H10982   2.182   2.979   1.775 -0.9215  1.9324  0.0627
  743MPD2    H110983   2.318   3.013   2.174  0.1427 -1.7755 -1.3214
  743MPD2    H210984   1.958   3.194   2.071  0.8914 -0.1772  1.0408
  743MPD2    H310985   2.134   3.131   2.226  1.9003  2.9477 -0.8128
  743MPD2     N10986   2.375   2.899   1.928  0.0589  0.2622  0.2582
  743MPD2    H510987   2.369   2.859   1.835 -0.9660  1.9532 -0.3934
  743MPD2    N110988   1.986   3.126   1.788 -0.2421  0.1679  0.2708
  743MPD2    H710989   2.006   3.090   1.695 -1.1350  2.1594 -0.6858
  744TMC3    C110990   1.819   3.243   1.670 -0.2541  0.9094 -0.9236
  744TMC3    C210991   1.688   3.284   1.689 -0.3115  0.2669  0.2567
  744TMC3    C310992   1.593   3.244   1.597 -0.7230 -0.2576 -0.1861
  744TMC3    C410993   1.869   3.205   1.550  0.2635 -0.1776  0.3448
  744TMC3    C510994   1.771   3.171   1.456  0.3474  0.2527 -0.8903
  744TMC3    C610995   1.632   3.190   1.476  0.1401  1.0994 -0.6573
  744TMC3     C10996   1.896   3.229   1.788  0.4262 -0.1449 -0.2891
  744TMC3     O10997   1.856   3.301   1.880  0.7390  0.2908 -0.0712
  744TMC3     H10998   1.658   3.337   1.779  1.2993 -1.1244  1.6285
  744TMC3    H110999   1.975   3.198   1.532  0.3115  1.1002  0.1392
  744TMC3    H211000   1.557   3.170   1.400  1.1860 -1.0348 -1.1146
  744TMC3    C711001   1.820   3.089   1.346  0.5023  0.6286 -0.1574
  744TMC3    C811002   1.464   3.319   1.599 -1.2015 -0.3031 -0.2249
  744TMC3    O111003   1.935   3.102   1.315  0.4544 -0.1182  0.1032
  744TMC3    O211004   1.473   3.419   1.667  0.6379  0.7710  0.2895
  745TMC3    C111005   4.363   1.692  13.945  0.3987 -0.4167 -0.2740
  745TMC3    C211006   4.295   1.758  14.044 -0.3610  0.2275  0.1135
  745TMC3    C311007   4.205   1.852  14.011 -0.5035 -0.4147  0.0817
  745TMC3    C411008   4.338   1.713  13.811 -0.3249  0.5496  0.5626
  745TMC3    C511009   4.237   1.807  13.786 -0.0641  0.2078 -0.5141
  745TMC3    C611010   4.177   1.875  13.881 -0.2620 -0.3076  0.5599
  745TMC3     C11011   4.500   1.675  13.979  0.0238  0.0604  0.7872
  745TMC3     O11012   4.516   1.607  14.074  0.2996  0.2363 -0.5595
  745TMC3     H11013   4.328   1.737  14.145 -0.5396  0.6262  0.2506
  745TMC3    H111014   4.371   1.645  13.734  2.1646  2.0640  0.2918
  745TMC3    H211015   4.096   1.945  13.865 -1.5660 -1.4934  1.8399
  745TMC3    C711016   4.186   1.830  13.648  0.6693 -0.1346 -0.2028
  745TMC3    C811017   4.201   1.953  14.106 -0.6846  0.2092 -0.1618
  745TMC3    O111018   4.081   1.882  13.641  0.0973  0.0344  0.1812
  745TMC3    O211019   4.169   1.927  14.223 -0.0422 -0.1610 -0.0307
  746TMC3    C111020   1.981   3.533  10.979 -0.7695  0.3219 -0.1384
  746TMC3    C211021   2.024   3.522  10.851  0.6634  0.0781 -0.2279
  746TMC3    C311022   2.008   3.401  10.795 -0.1846 -0.4220  0.4372
  746TMC3    C411023   1.938   3.433  11.056 -0.2435 -0.4211 -0.3128
  746TMC3    C511024   1.933   3.312  10.995  0.0698 -0.3799  0.0760
  746TMC3    C611025   1.957   3.293  10.862  0.2324 -0.4809  0.3281
  746TMC3     C11026   1.953   3.669  11.022 -0.0836 -0.3102 -0.0471
  746TMC3     O11027   1.879   3.681  11.121 -0.1397  0.1200  0.0573
  746TMC3     H11028   2.026   3.608  10.785  0.6638  0.9230  0.8732
  746TMC3    H111029   1.916   3.432  11.162  1.7899 -0.1587  0.1053
  746TMC3    H211030   1.932   3.198  10.815 -1.8086  1.7004 -3.0460
  746TMC3    C711031   1.825   3.230  11.045 -0.0514 -0.4322 -0.3558
  746TMC3    C811032   2.069   3.374  10.664  0.0274  0.2557  0.4929
  746TMC3    O111033   1.741   3.190  10.964 -0.3609 -0.1041 -0.4525
  746TMC3    O211034   2.058   3.265  10.610  0.2411  0.1149  0.6442
  747TMC3    C111035   4.320   4.317  11.375 -0.6396 -0.5109  0.0622
  747TMC3    C211036   4.285   4.194  11.393 -0.4138  0.7871  0.0112
  747TMC3    C311037   4.377   4.118  11.456 -0.0189 -0.5406 -0.0077
  747TMC3    C411038   4.437   4.369  11.420  0.4954 -0.1028  0.1511
  747TMC3    C511039   4.532   4.290  11.468 -0.1313 -0.1556  0.7961
  747TMC3    C611040   4.507   4.156  11.476  0.5566 -0.1712 -1.0729
  747TMC3     C11041   4.234   4.410  11.301  0.0951  0.1423 -0.5685
  747TMC3     O11042   4.260   4.530  11.315  0.2323  0.3558 -0.6817
  747TMC3     H11043   4.181   4.173  11.373 -0.3114  0.7940 -0.5505
  747TMC3    H111044   4.441   4.475  11.444 -0.4697 -0.2466  0.9595
  747TMC3    H211045   4.569   4.097  11.543 -0.6969 -2.2029 -1.7021
  747TMC3    C711046   4.613   4.346  11.571 -0.2998 -0.2422  0.3338
  747TMC3    C811047   4.333   3.987  11.517  0.0096 -0.1937  0.5600
  747TMC3    O111048   4.623   4.288  11.676  0.0023  0.2809  0.2234
  747TMC3    O211049   4.423   3.906  11.545  0.3346  0.1778 -0.2271
  748MPD2     C11050   1.011   4.582   1.491 -0.5467 -0.1174 -0.3020
  748MPD2    C111051   1.053   4.463   1.556 -0.8393  0.3446  0.0450
  748MPD2    C211052   1.190   4.427   1.553 -0.2770  0.1058  0.1313
  748MPD2    C311053   1.284   4.514   1.497 -0.1924 -0.4217  0.3842
  748MPD2    C411054   1.242   4.637   1.446 -0.4349 -0.4943 -0.3186
  748MPD2    C511055   1.111   4.669   1.445 -0.0693  0.0065  0.4725
  748MPD2     H11056   1.225   4.335   1.598 -1.0388 -1.3577 -2.2852
  748MPD2    H111057   1.311   4.715   1.413  1.6503 -3.1577 -2.1871
  748MPD2    H211058   0.906   4.605   1.482 -0.6726  0.4805  2.5188
  748MPD2    H311059   1.085   0.046   1.408  0.1422  0.0761  0.5055
  748MPD2     N11060   1.419   4.465   1.485 -0.1301  0.2881 -0.1905
  748MPD2    H511061   1.437   4.383   1.543  0.4373 -0.1866 -1.0383
  748MPD2    N111062   0.953   4.385   1.628 -0.0187 -0.5886 -0.3059
  748MPD2    H711063   0.861   4.428   1.627 -0.4775 -1.5313  2.4552
  749TMC3    C111064   1.647   4.441   1.412 -0.3257 -0.7367  0.3817
  749TMC3    C211065   1.690   4.383   1.531  0.3091 -0.1508 -0.1159
  749TMC3    C311066   1.820   4.335   1.527 -0.6391 -0.0387 -0.2240
  749TMC3    C411067   1.722   4.443   1.296 -0.0876 -0.5923 -0.6420
  749TMC3    C511068   1.849   4.399   1.308 -0.3047 -0.2484  0.2735
  749TMC3    C611069   1.905   4.339   1.423  0.1333  0.4472  0.1269
  749TMC3     C11070   1.522   4.518   1.409 -0.4381 -0.1694  0.1878
  749TMC3     O11071   1.511   4.596   1.316  0.0272  0.2016 -0.2654
  749TMC3     H11072   1.637   4.375   1.626 -0.8497  2.6074 -0.5428
  749TMC3    H111073   1.699   4.493   1.203  0.7778 -0.2986 -0.7035
  749TMC3    H211074   2.009   4.311   1.427  0.0533  0.1977  0.4280
  749TMC3    C711075   1.936   4.465   1.210 -0.0757 -0.1427 -0.4434
  749TMC3    C811076   1.872   4.281   1.653 -0.0124  0.5190  0.5529
  749TMC3    O111077   1.897   4.573   1.168 -0.1050  0.1840 -0.6263
  749TMC3    O211078   1.819   4.311   1.760 -0.2530  0.4142 -0.3661
  750MPD2     C11079   2.426   0.810  11.165  0.1967  0.4866 -0.0594
  750MPD2    C111080   2.299   0.789  11.208 -0.6004  0.0116 -0.3319
  750MPD2    C211081   2.247   0.657  11.201 -0.3809  0.4805 -0.3614
  750MPD2    C311082   2.329   0.550  11.162 -0.3110  0.3385 -0.5957
  750MPD2    C411083   2.454   0.579  11.109  0.3973  0.2157 -1.1114
  750MPD2    C511084   2.498   0.704  11.118  0.3523  0.1074  0.0563
  750MPD2     H11085   2.143   0.640  11.230 -0.3654 -0.5421 -0.9034
  750MPD2    H111086   2.519   0.501  11.071 -0.4055  0.1696 -2.4238
  750MPD2    H211087   2.474   0.907  11.172  1.2654  0.0074 -0.8799
  750MPD2    H311088   2.600   0.724  11.089 -0.5119 -0.1186 -3.0776
  750MPD2     N11089   2.279   0.419  11.151  0.0071 -0.5718  0.0493
  750MPD2    H511090   2.327   0.363  11.082 -1.1734 -3.7798  1.8570
  750MPD2    N111091   2.231   0.903  11.238 -0.1314 -0.2730 -0.2418
  750MPD2    H711092   2.278   0.992  11.225 -0.5664 -0.5651 -3.9325
  751TMC3    C111093   2.120   0.238  11.183  0.2624  0.2092  0.3913
  751TMC3    C211094   1.984   0.212  11.194 -0.2547 -0.7068 -0.1856
  751TMC3    C311095   1.934   0.093  11.143  0.2375  0.2799  0.4539
  751TMC3    C411096   2.198   0.146  11.120  0.2976  0.3612  0.1460
  751TMC3    C511097   2.149   0.027  11.080  0.4059 -0.1701 -0.1551
  751TMC3    C611098   2.017   0.001  11.089  0.2230  0.0594 -0.7586
  751TMC3     C11099   2.160   0.375  11.216  0.3383  0.1549  0.1982
  751TMC3     O11100   2.098   0.442  11.292 -0.0187 -0.4201  0.4363
  751TMC3     H11101   1.921   0.297  11.220  3.0669  0.9153  2.6065
  751TMC3    H111102   2.306   0.159  11.122  0.3376  0.2197 -1.5089
  751TMC3    H211103   1.983   4.628  11.050 -0.3021 -0.3188  0.6079
  751TMC3    C711104   2.230   4.686  10.975 -0.3448  0.2083  0.2625
  751TMC3    C811105   1.796   0.067  11.115  0.4174  0.3307 -0.3096
  751TMC3    O111106   2.305   0.048  10.920 -0.6948  0.2266  0.3578
  751TMC3    O211107   1.765   0.037  10.997  0.1015 -0.2659  0.0634
  752TMC3    C111108   1.513   0.961  17.181 -0.2169  0.5202 -0.7335
  752TMC3    C211109   1.563   0.917  17.298 -0.3022  0.3409  0.8177
  752TMC3    C311110   1.585   1.009  17.390  0.2118  0.1262 -0.1091
  752TMC3    C411111   1.519   1.096  17.156  0.0216  0.1564  0.1359
  752TMC3    C511112   1.534   1.184  17.256  0.8418  0.4587 -0.6799
  752TMC3    C611113   1.573   1.143  17.380  0.4431  0.0428 -0.2510
  752TMC3     C11114   1.502   0.863  17.074 -0.1170  0.6254  0.3970
  752TMC3     O11115   1.538   0.747  17.096  0.3741  0.1745 -0.1675
  752TMC3     H11116   1.575   0.814  17.326 -3.3225 -0.3169 -0.3231
  752TMC3    H111117   1.486   1.125  17.057 -0.8998 -0.3625  0.2854
  752TMC3    H211118   1.588   1.208  17.465  0.9455  0.7647 -0.8954
  752TMC3    C711119   1.501   1.323  17.223 -0.3193  0.0902 -0.4392
  752TMC3    C811120   1.596   0.946  17.520 -0.2152  0.0333 -0.1730
  752TMC3    O111121   1.416   1.339  17.138 -0.3405  0.8683  0.4910
  752TMC3    O211122   1.528   0.849  17.540  0.3278 -0.2522  0.1760
  753TMC3    C111123   2.778   1.346  13.581 -0.0012 -0.5665  0.0729
  753TMC3    C211124   2.856   1.324  13.694  0.1507 -0.7924  0.3464
  753TMC3    C311125   2.859   1.192  13.730  0.1448  0.3662  0.2125
  753TMC3    C411126   2.717   1.258  13.500  0.2912 -0.2484  0.6467
  753TMC3    C511127   2.726   1.131  13.548 -0.5226  0.2171 -0.2744
  753TMC3    C611128   2.798   1.099  13.659 -0.2250  0.2723  0.4297
  753TMC3     C11129   2.765   1.482  13.543  0.2169 -0.2440 -0.6418
  753TMC3     O11130   2.667   1.522  13.475 -0.0211 -0.2298 -0.0286
  753TMC3     H11131   2.890   1.408  13.754  0.6297  0.0055 -1.0424
  753TMC3    H111132   2.653   1.281  13.416 -0.0448  1.0086  1.2496
  753TMC3    H211133   2.798   0.997  13.696  2.3135  0.0495 -0.2139
  753TMC3    C711134   2.670   1.024  13.465 -0.1615 -0.4096 -1.0744
  753TMC3    C811135   2.960   1.153  13.828  0.1420 -0.1020  0.1415
  753TMC3    O111136   2.649   0.920  13.521 -0.0700  0.1844 -0.2595
  753TMC3    O211137   2.947   1.047  13.883 -0.2704  0.2787  0.4420
  754MPD2     C11138   1.627   0.382  13.102 -0.5569 -0.3904  0.4492
  754MPD2    C111139   1.637   0.255  13.150  0.5560 -0.7831  0.0987
  754MPD2    C211140   1.578   0.153  13.075  0.0509 -0.2405  0.1533
  754MPD2    C311141   1.495   0.173  12.963  0.3388  0.1889  0.4003
  754MPD2    C411142   1.473   0.306  12.929 -0.0162 -0.0913  0.4377
  754MPD2    C511143   1.541   0.403  12.995  0.5283 -0.1435 -0.3642
  754MPD2     H11144   1.592   0.051  13.110  0.5124  0.8557  3.1429
  754MPD2    H111145   1.399   0.346  12.861 -0.2691  1.2532  1.5063
  754MPD2    H211146   1.666   0.464  13.161  0.2675 -0.5529  0.1325
  754MPD2    H311147   1.525   0.506  12.965 -0.2455  0.2333  1.3251
  754MPD2     N11148   1.421   0.081  12.891 -0.3598 -0.6838 -0.0335
  754MPD2    H511149   1.352   0.123  12.830 -1.6922 -0.5417  1.5595
  754MPD2    N111150   1.702   0.236  13.278 -0.2691  0.0296  0.3664
  754MPD2    H711151   1.736   0.325  13.314 -0.2470  0.6206 -1.1457
  755MPD2     C11152   0.445   0.072  12.900  0.2778  0.3336 -0.1396
  755MPD2    C111153   0.552   0.130  12.968 -0.4191 -0.3397  0.4026
  755MPD2    C211154   0.681   0.091  12.938  0.2488  0.0079  0.3777
  755MPD2    C311155   0.705   4.706  12.859  0.1658 -0.3918  0.0795
  755MPD2    C411156   0.599   4.661  12.785  0.5755  0.3463 -0.3902
  755MPD2    C511157   0.473   4.701  12.807  0.1604  0.4188 -0.9508
  755MPD2     H11158   0.757   0.136  13.002 -0.7335  2.1023  0.0745
  755MPD2    H111159   0.616   4.584  12.711 -0.1827 -1.1633  1.0310
  755MPD2    H211160   0.343   0.105  12.916 -0.0004 -0.9862  0.8175
  755MPD2    H311161   0.403   4.638  12.753 -0.3674 -0.2313  0.4871
  755MPD2     N11162   0.831   4.650  12.843 -0.5276  0.7125  1.0172
  755MPD2    H511163   0.844   4.572  12.780 -0.6609  2.5102 -1.2631
  755MPD2    N111164   0.542   0.236  13.057  0.0878  0.3790 -0.1598
  755MPD2    H711165   0.624   0.291  13.079  0.6893 -1.4530  2.1361
  756MPD2     C11166   1.621   1.340   9.415  0.0913 -0.2341  0.7516
  756MPD2    C111167   1.532   1.317   9.520  0.0485  0.1524 -0.1381
  756MPD2    C211168   1.400   1.316   9.487 -0.0498 -0.8174 -0.1778
  756MPD2    C311169   1.356   1.339   9.361 -0.9731  0.1411 -0.1744
  756MPD2    C411170   1.443   1.366   9.261 -0.5010  0.1164  0.2617
  756MPD2    C511171   1.576   1.360   9.287  0.5590 -0.4381  0.0678
  756MPD2     H11172   1.333   1.286   9.567 -1.5696 -0.8938 -1.5055
  756MPD2    H111173   1.408   1.383   9.159 -0.9919  0.9480  0.5658
  756MPD2    H211174   1.728   1.357   9.428  0.1382  2.3534 -2.9559
  756MPD2    H311175   1.640   1.378   9.202  0.7609 -1.1046  0.0770
  756MPD2     N11176   1.211   1.322   9.348  1.0024 -0.4639 -0.2165
  756MPD2    H511177   1.165   1.265   9.418  0.3486  0.5816  0.2093
  756MPD2    N111178   1.576   1.278   9.650  0.2044  0.4281  0.5379
  756MPD2    H711179   1.498   1.273   9.715 -0.3563  0.3229 -0.1484
  757MPD2     C11180   0.786   0.644   9.570  0.4170  0.3132 -0.4227
  757MPD2    C111181   0.917   0.684   9.561 -0.5014  0.3488 -0.0654
  757MPD2    C211182   0.935   0.818   9.514 -0.5151 -0.2357 -0.1542
  757MPD2    C311183   0.827   0.884   9.458  0.3056 -0.3260  1.4068
  757MPD2    C411184   0.699   0.834   9.466 -0.0632  0.0252  0.4877
  757MPD2    C511185   0.681   0.719   9.533  0.3568 -0.1573  0.3109
  757MPD2     H11186   1.032   0.863   9.526 -1.4706  2.0358 -1.0459
  757MPD2    H111187   0.615   0.882   9.418 -1.7083 -1.7447  1.5821
  757MPD2    H211188   0.761   0.545   9.608  1.4846  0.2118  0.0252
  757MPD2    H311189   0.585   0.675   9.553  0.4837 -0.8888 -0.6892
  757MPD2     N11190   0.859   1.010   9.405  0.4515  0.3109 -0.9085
  757MPD2    H511191   0.945   1.057   9.430  0.9351 -2.1830  2.0749
  757MPD2    N111192   1.011   0.598   9.608 -0.1774 -0.2534 -0.4706
  757MPD2    H711193   0.976   0.508   9.637 -0.0262 -0.1523  0.0235
  758MPD2     C11194   1.678   4.651  16.066 -0.6365  0.4207 -0.2082
  758MPD2    C111195   1.658   4.594  16.187 -0.4500 -0.2087  0.7072
  758MPD2    C211196   1.604   4.672  16.290  0.0799  0.3089 -0.3321
  758MPD2    C311197   1.576   0.085  16.273 -0.6271  0.3674 -0.0119
  758MPD2    C411198   1.596   0.139  16.148  0.1137  0.0994 -0.7991
  758MPD2    C511199   1.650   0.059  16.050  0.3807 -0.1050  0.2411
  758MPD2     H11200   1.571   4.612  16.375 -2.0972  0.7034 -0.9086
  758MPD2    H111201   1.581   0.245  16.135  0.6849  0.6118  2.6369
  758MPD2    H211202   1.727   4.597  15.986  0.4719  1.4870 -0.2597
  758MPD2    H311203   1.680   0.108  15.958  2.8921  1.7480  2.0453
  758MPD2     N11204   1.541   0.166  16.381  0.3835 -0.0822 -0.6417
  758MPD2    H511205   1.517   0.261  16.357 -0.2310 -0.9636 -3.5899
  758MPD2    N111206   1.695   4.454  16.201  0.5582 -0.3156  0.3104
  758MPD2    H711207   1.744   4.407  16.125  1.0043  1.2389 -0.3577
  759MPD2     C11208   0.372   3.310  10.123 -0.2983  0.3423  0.1732
  759MPD2    C111209   0.364   3.198  10.051  0.3672 -0.2553  0.1136
  759MPD2    C211210   0.420   3.201   9.926  0.0792  0.1546 -0.0033
  759MPD2    C311211   0.491   3.308   9.874 -1.5494 -0.5376  0.6101
  759MPD2    C411212   0.512   3.409   9.966 -0.7618  0.2811 -0.0908
  759MPD2    C511213   0.453   3.414  10.088  0.2031  0.3684 -1.0010
  759MPD2     H11214   0.388   3.121   9.859 -0.2288 -0.4602  0.8738
  759MPD2    H111215   0.565   3.499   9.938 -0.1141 -0.3304 -0.8492
  759MPD2    H211216   0.325   3.319  10.221 -1.4478 -0.7128 -0.2782
  759MPD2    H311217   0.476   3.500  10.150  3.3599 -2.1530  1.2916
  759MPD2     N11218   0.544   3.320   9.746 -0.4225  0.2139 -0.3596
  759MPD2    H511219   0.601   3.403   9.731  1.1562 -0.3887  2.3215
  759MPD2    N111220   0.284   3.082  10.090  0.0977  1.3909  0.1751
  759MPD2    H711221   0.282   3.007  10.022 -0.1355  2.8485 -1.3984
  760MPD2     C11222   0.145   0.502  11.831 -0.0415 -0.2378  0.1470
  760MPD2    C111223   0.260   0.567  11.880  0.5371 -0.4413 -0.0436
  760MPD2    C211224   0.359   0.495  11.939 -0.2501  0.5201  0.6073
  760MPD2    C311225   0.338   0.359  11.971  0.1227 -0.4150 -0.5578
  760MPD2    C411226   0.221   0.301  11.933 -0.2170  0.1003 -0.5006
  760MPD2    C511227   0.132   0.373  11.864  0.0380 -0.1939 -0.1264
  760MPD2     H11228   0.460   0.535  11.947  0.1702  0.0066 -1.9604
  760MPD2    H111229   0.196   0.197  11.951 -2.7200  0.1654 -3.6493
  760MPD2    H211230   0.061   0.550  11.782 -0.7445 -0.5989  1.0009
  760MPD2    H311231   0.037   0.325  11.842  0.3136 -0.5556 -0.5172
  760MPD2     N11232   0.439   0.266  12.023 -0.2792  0.0746  0.3209
  760MPD2    H511233   0.404   0.171  12.017  0.1324 -0.1392  1.3363
  760MPD2    N111234   0.301   0.697  11.833  0.1272  0.0004 -0.3888
  760MPD2    H711235   0.389   0.734  11.867  0.0329  0.9820 -1.2370
  761MPD2     C11236   1.357   4.607  11.290 -0.4435 -0.3670 -0.4809
  761MPD2    C111237   1.414   4.594  11.161  0.4856  0.5833  0.4878
  761MPD2    C211238   1.532   4.662  11.143 -0.1481 -0.2593 -0.0024
  761MPD2    C311239   1.595   0.014  11.245  0.3938 -0.1528  0.1923
  761MPD2    C411240   1.535   0.029  11.367 -0.1468 -0.8205 -0.3279
  761MPD2    C511241   1.421   4.684  11.385 -0.0145 -0.1032 -0.3854
  761MPD2     H11242   1.578   4.649  11.045 -0.9257 -0.2135 -0.3796
  761MPD2    H111243   1.576   0.087  11.449  1.0803 -1.1669 -0.6934
  761MPD2    H211244   1.264   4.561  11.321 -0.4754  1.0735  1.5238
  761MPD2    H311245   1.380   4.679  11.485  1.3763 -2.9508  0.0421
  761MPD2     N11246   1.727   0.070  11.230 -0.0117 -0.4154 -0.0623
  761MPD2    H511247   1.768   0.097  11.319 -0.7978  2.7016 -0.6619
  761MPD2    N111248   1.360   4.502  11.075  0.2920 -0.5065  0.3537
  761MPD2    H711249   1.279   4.450  11.109  0.0943 -0.4180  0.0221
  762MPD2     C11250   1.834   4.511  10.752 -0.0926  0.3935 -0.6520
  762MPD2    C111251   1.799   4.391  10.699 -0.1785 -0.7912 -0.1161
  762MPD2    C211252   1.895   4.326  10.624  0.0626 -0.8639 -0.6439
  762MPD2    C311253   2.010   4.385  10.579  0.0418  0.6251  0.2360
  762MPD2    C411254   2.042   4.506  10.642  0.2125  0.0926  0.9842
  762MPD2    C511255   1.958   4.573  10.729 -0.3694 -0.1655 -0.2525
  762MPD2     H11256   1.868   4.225  10.596 -1.4833 -0.3819 -0.9156
  762MPD2    H111257   2.137   4.557  10.632 -0.1228  0.3337 -0.9159
  762MPD2    H211258   1.765   4.568  10.814 -0.5245 -0.6431 -0.1773
  762MPD2    H311259   1.976   4.673  10.767  1.6378 -1.7748  2.9738
  762MPD2     N11260   2.099   4.317  10.495 -0.3140  0.2443 -0.0401
  762MPD2    H511261   2.062   4.227  10.465  2.5800 -1.0625  0.3451
  762MPD2    N111262   1.678   4.336  10.742  0.2549 -0.1721 -0.4095
  762MPD2    H711263   1.621   4.384  10.811 -1.4418  2.2574 -3.4888
  763MPD2     C11264   3.834   0.084  16.260 -0.2358 -0.2944  0.0773
  763MPD2    C111265   3.701   0.126  16.248  0.6868 -0.1879  0.2970
  763MPD2    C211266   3.668   0.260  16.266  0.4941  0.0130 -0.8835
  763MPD2    C311267   3.762   0.349  16.282 -0.4061  0.0277 -0.8581
  763MPD2    C411268   3.895   0.314  16.287  0.7473  0.0822 -0.3731
  763MPD2    C511269   3.928   0.182  16.282  0.8035 -0.7244  0.0237
  763MPD2     H11270   3.571   0.303  16.242  0.3965  0.6422  0.6023
  763MPD2    H111271   3.970   0.393  16.289 -0.7745  1.4673  1.5339
  763MPD2    H211272   3.864   4.703  16.247  3.0326  0.6838  0.0002
  763MPD2    H311273   4.032   0.156  16.272  0.4631 -2.2151  0.3434
  763MPD2     N11274   3.738   0.493  16.278 -0.2512 -0.2762 -0.1744
  763MPD2    H511275   3.822   0.551  16.276  0.1398 -0.7917  1.2096
  763MPD2    N111276   3.603   0.040  16.187 -0.1755  0.3254  0.7196
  763MPD2    H711277   3.515   0.083  16.161 -0.0378  1.4565  2.1397
  764MPD2     C11278   2.119   1.944   0.280  1.0199 -0.1602  0.4254
  764MPD2    C111279   2.058   1.837   0.227 -1.1416  0.0246 -0.2409
  764MPD2    C211280   1.982   1.760   0.312  0.4677  0.0925 -0.7934
  764MPD2    C311281   1.972   1.785   0.440 -0.1308 -0.1237  0.2770
  764MPD2    C411282   2.053   1.878   0.494 -0.1729  0.4422 -0.3710
  764MPD2    C511283   2.133   1.952   0.415  0.4312  0.6505  0.4634
  764MPD2     H11284   1.932   1.671   0.276 -0.5002  0.9638 -1.6083
  764MPD2    H111285   2.069   1.901   0.599 -2.8671  1.6850 -0.2467
  764MPD2    H211286   2.179   2.015   0.224 -1.7903  0.4677 -1.7441
  764MPD2    H311287   2.196   2.032   0.454 -0.8830  1.5840  0.6552
  764MPD2     N11288   1.886   1.696   0.518  0.4189 -0.1675  0.6051
  764MPD2    H511289   1.845   1.613   0.475  2.1270 -0.5137 -0.3832
  764MPD2    N111290   2.049   1.808   0.090  0.1439  0.3326 -0.0845
  764MPD2    H711291   2.001   1.720   0.072  0.0269  0.0374  1.7308
  765MPD2     C11292   1.350   3.895  16.151  0.2744  0.0149 -0.1033
  765MPD2    C111293   1.426   3.997  16.093  0.0189 -0.4260 -0.2940
  765MPD2    C211294   1.558   3.978  16.061  0.3199 -0.1769 -0.0081
  765MPD2    C311295   1.617   3.853  16.097  0.2477  0.3030 -0.4202
  765MPD2    C411296   1.540   3.757  16.170  0.1487 -0.5247 -0.2962
  765MPD2    C511297   1.404   3.778  16.197 -1.1655  0.4190  0.1844
  765MPD2     H11298   1.616   4.048  16.002  0.3671 -1.6178 -1.6730
  765MPD2    H111299   1.581   3.658  16.188  2.1385  0.5245  0.9356
  765MPD2    H211300   1.251   3.924  16.181  0.3275  1.5024 -1.3423
  765MPD2    H311301   1.350   3.706  16.257  1.2358 -0.0495  1.7725
  765MPD2     N11302   1.758   3.829  16.071 -0.1632 -0.1688  0.5146
  765MPD2    H511303   1.814   3.894  16.017 -0.3529  0.1781  0.7362
  765MPD2    N111304   1.349   4.116  16.056 -0.0317 -0.2807 -0.7100
  765MPD2    H711305   1.248   4.119  16.069 -0.1859 -1.9408 -1.6133
  766MPD2     C11306   0.808   4.154  15.627 -0.2880 -0.4456 -0.2663
  766MPD2    C111307   0.930   4.222  15.607  0.2999  0.4215  0.1701
  766MPD2    C211308   0.984   4.234  15.484 -0.2797  0.1162 -0.7242
  766MPD2    C311309   0.941   4.165  15.374  0.5475  0.3397  0.3764
  766MPD2    C411310   0.818   4.104  15.393 -0.0892  0.3797  0.1727
  766MPD2    C511311   0.756   4.099  15.513  0.2289  0.5818  0.3564
  766MPD2     H11312   1.072   4.296  15.473  1.1512 -1.9437 -1.0676
  766MPD2    H111313   0.772   4.060  15.305  0.3652  2.7132 -1.2381
  766MPD2    H211314   0.757   4.139  15.721  0.1163 -1.6036 -0.2219
  766MPD2    H311315   0.668   4.037  15.523 -0.9079  1.9521 -1.2994
  766MPD2     N11316   1.006   4.153  15.246 -0.0435 -0.7088  0.0493
  766MPD2    H511317   0.953   4.127  15.163 -0.5806  0.9564 -0.1102
  766MPD2    N111318   0.996   4.297  15.710  0.0981 -0.5151  0.1104
  766MPD2    H711319   1.081   4.341  15.676  1.6556 -3.3772  0.3472
  767MPD2     C11320   0.641   4.336  15.200  0.2043  0.0112 -0.4498
  767MPD2    C111321   0.756   4.367  15.127 -0.3450  0.2594 -0.4856
  767MPD2    C211322   0.776   4.311  15.005  0.6280  0.1038  0.0987
  767MPD2    C311323   0.681   4.226  14.947 -0.4228 -0.5305  0.2029
  767MPD2    C411324   0.565   4.193  15.020  0.7588 -0.2682 -0.3322
  767MPD2    C511325   0.549   4.255  15.141 -0.3079  0.8763 -0.3865
  767MPD2     H11326   0.865   4.329  14.946  1.7632 -0.9448  1.4662
  767MPD2    H111327   0.500   4.112  14.990  0.5979 -1.0570  2.1360
  767MPD2    H211328   0.629   4.366  15.304 -2.5413  0.9944 -1.0406
  767MPD2    H311329   0.466   4.219  15.202 -1.2417  3.3733 -0.1748
  767MPD2     N11330   0.711   4.156  14.828 -0.7296 -0.4218  0.7920
  767MPD2    H511331   0.807   4.159  14.795 -1.6502 -0.2842 -1.8950
  767MPD2    N111332   0.854   4.439  15.197  0.0014  0.7158  0.0637
  767MPD2    H711333   0.824   4.482  15.284  1.0983  0.9624  0.3213
  768MPD2     C11334   1.472   2.894  10.848 -0.0747  0.1853  0.0106
  768MPD2    C111335   1.457   2.895  10.988  0.1663 -0.3331  0.2287
  768MPD2    C211336   1.569   2.887  11.061  0.0460 -0.2133 -0.3574
  768MPD2    C311337   1.694   2.862  11.000 -0.3767  0.2282 -0.5496
  768MPD2    C411338   1.710   2.872  10.865 -0.3502  0.0809 -0.4669
  768MPD2    C511339   1.595   2.891  10.789  0.1084 -0.4393  0.1579
  768MPD2     H11340   1.559   2.899  11.168  0.1435  1.0951 -0.4906
  768MPD2    H111341   1.805   2.866  10.814 -0.0397 -0.3371  0.1650
  768MPD2    H211342   1.388   2.897  10.779 -0.2837  3.3181  0.4049
  768MPD2    H311343   1.606   2.898  10.682 -0.7866 -0.7901  0.0451
  768MPD2     N11344   1.813   2.863  11.084  0.4932 -0.2766  0.2020
  768MPD2    H511345   1.907   2.865  11.045 -0.1056 -0.1208 -1.2076
  768MPD2    N111346   1.332   2.893  11.048  0.1584  0.0353 -0.4229
  768MPD2    H711347   1.335   2.892  11.150  3.7932 -0.4369 -0.5332
  769MPD2     C11348   2.898   0.391  14.630 -0.3918  0.0997 -0.0988
  769MPD2    C111349   2.800   0.347  14.719 -0.1744  0.7264  0.3201
  769MPD2    C211350   2.810   0.377  14.855  1.1691 -0.6349 -0.1972
  769MPD2    C311351   2.912   0.455  14.898  0.4163  0.4538 -0.1187
  769MPD2    C411352   3.002   0.511  14.810  0.8984 -0.1308  0.3061
  769MPD2    C511353   2.995   0.474  14.679 -0.3698  0.1147 -0.3692
  769MPD2     H11354   2.731   0.356  14.926 -0.1730 -0.3473 -1.5812
  769MPD2    H111355   3.087   0.570  14.842 -0.0170  1.2917  0.0862
  769MPD2    H211356   2.897   0.353  14.528 -0.4624  1.8426 -0.7579
  769MPD2    H311357   3.073   0.514  14.615  1.1826 -2.9510 -0.3798
  769MPD2     N11358   2.910   0.484  15.042  0.2141  0.1521 -0.1835
  769MPD2    H511359   2.829   0.444  15.090  1.6772 -0.4488  1.7976
  769MPD2    N111360   2.698   0.264  14.665 -0.0286 -0.4499 -0.2313
  769MPD2    H711361   2.703   0.256  14.563 -0.3983  0.7829 -0.3379
  770MPD2     C11362   2.223   4.013  14.731 -0.3666 -0.5720 -0.2203
  770MPD2    C111363   2.202   4.108  14.829 -0.0167  0.5347  0.8089
  770MPD2    C211364   2.223   4.238  14.804 -0.7370  0.3783  0.3593
  770MPD2    C311365   2.286   4.277  14.687 -0.4400  0.6006 -0.4002
  770MPD2    C411366   2.303   4.177  14.588 -0.6728  0.0312  0.0431
  770MPD2    C511367   2.271   4.042  14.609  0.3105 -0.4621 -0.3367
  770MPD2     H11368   2.192   4.309  14.880  0.5567  1.3159  0.0128
  770MPD2    H111369   2.346   4.194  14.490 -0.3905 -1.4382 -0.0736
  770MPD2    H211370   2.206   3.909  14.754  3.3464 -1.6748 -2.4375
  770MPD2    H311371   2.295   3.959  14.545 -0.1294 -1.0217  0.2249
  770MPD2     N11372   2.319   4.408  14.653 -0.0840 -0.3084 -0.5492
  770MPD2    H511373   2.344   4.431  14.558  1.0569 -0.8191 -0.3739
  770MPD2    N111374   2.151   4.058  14.955  0.3709 -0.6689  0.3577
  770MPD2    H711375   2.151   3.959  14.980  2.4939 -0.4101  1.3824
  771MPD2     C11376   3.694   3.461  13.545 -0.9111  0.2625 -0.3602
  771MPD2    C111377   3.637   3.580  13.503 -0.2556  0.5893  0.0063
  771MPD2    C211378   3.514   3.588  13.449  1.0517  0.3357 -0.0350
  771MPD2    C311379   3.450   3.463  13.414  0.7741 -0.5619  0.1104
  771MPD2    C411380   3.506   3.346  13.469  0.7977 -0.2198  0.6042
  771MPD2    C511381   3.624   3.350  13.531 -1.1689 -0.0905  0.0351
  771MPD2     H11382   3.480   3.685  13.414  0.5871  0.7846  1.6450
  771MPD2    H111383   3.464   3.246  13.461  2.9029 -1.0892  0.5314
  771MPD2    H211384   3.790   3.447  13.593 -1.1956  2.9368  0.9710
  771MPD2    H311385   3.677   3.263  13.569 -0.0461  0.1362 -1.0033
  771MPD2     N11386   3.325   3.467  13.349  0.3422 -0.8979 -0.0476
  771MPD2    H511387   3.300   3.556  13.307 -0.4767 -0.8187  0.6025
  771MPD2    N111388   3.704   3.705  13.538 -0.3052 -0.3112 -0.3924
  771MPD2    H711389   3.647   3.788  13.540 -1.6762 -1.3100  1.8960
  772MPD2     C11390   3.264   4.150  13.737 -0.5865 -0.2379  0.2863
  772MPD2    C111391   3.316   4.028  13.701 -0.0566 -0.0948 -0.0295
  772MPD2    C211392   3.231   3.931  13.644 -0.1442  0.8310  0.2128
  772MPD2    C311393   3.099   3.962  13.629  0.3456  0.8712 -0.4261
  772MPD2    C411394   3.051   4.087  13.649  0.0520 -0.6170  0.2895
  772MPD2    C511395   3.136   4.179  13.709 -0.5550 -0.1813  0.3903
  772MPD2     H11396   3.272   3.839  13.606 -1.2399  0.7844 -0.8678
  772MPD2    H111397   2.946   4.110  13.639 -0.1129 -1.0412  1.0420
  772MPD2    H211398   3.325   4.227  13.782  1.7179 -0.7593 -1.9664
  772MPD2    H311399   3.096   4.279  13.719 -0.7411 -0.1062 -1.0478
  772MPD2     N11400   3.002   3.870  13.583 -0.5668  0.0969 -0.0286
  772MPD2    H511401   2.913   3.906  13.551 -0.9675 -0.3884  0.5455
  772MPD2    N111402   3.454   4.007  13.697  0.0211  0.0500  0.4416
  772MPD2    H711403   3.490   3.920  13.658  1.0637 -0.4663  2.5900
  773MPD2     C11404   2.446   0.513   0.391 -0.2375 -0.7737 -0.3706
  773MPD2    C111405   2.419   0.381   0.413 -0.3547  0.7758 -0.2497
  773MPD2    C211406   2.520   0.288   0.438  0.2169 -0.4279 -0.3419
  773MPD2    C311407   2.653   0.332   0.442  0.1455 -0.0742 -0.3593
  773MPD2    C411408   2.678   0.470   0.411 -0.6427  0.4887 -0.5696
  773MPD2    C511409   2.576   0.551   0.387  0.8726  0.5704 -0.6897
  773MPD2     H11410   2.500   0.184   0.459  2.7482 -1.5143 -3.2411
  773MPD2    H111411   2.777   0.512   0.418 -1.2229  1.5878  0.9322
  773MPD2    H211412   2.372   0.590   0.376  0.8423  0.2123 -0.6917
  773MPD2    H311413   2.603   0.653   0.364 -0.5561  1.2259  0.6145
  773MPD2     N11414   2.751   0.238   0.467 -0.6381  0.6965 -0.0450
  773MPD2    H511415   2.720   0.143   0.486  1.1764  0.5459  2.0948
  773MPD2    N111416   2.283   0.337   0.399 -0.1883  0.0757 -0.3082
  773MPD2    H711417   2.262   0.239   0.412 -0.6942  0.0778 -1.1027
  774MPD2     C11418   1.449   4.232  13.782  0.1135  0.2591  0.5085
  774MPD2    C111419   1.548   4.213  13.691 -0.0628 -0.2801 -0.2580
  774MPD2    C211420   1.630   4.323  13.660  0.3734 -0.3147 -0.1209
  774MPD2    C311421   1.620   4.442  13.728 -0.0368  0.4032 -0.1392
  774MPD2    C411422   1.532   4.453  13.834 -0.2370  0.0989 -0.2287
  774MPD2    C511423   1.443   4.346  13.857  0.5065  0.3580 -0.3028
  774MPD2     H11424   1.713   4.306  13.592 -0.9544  1.4683 -2.1829
  774MPD2    H111425   1.512   4.542  13.891 -4.0914 -0.0830 -1.2935
  774MPD2    H211426   1.387   4.149  13.815 -0.1067 -0.6900 -2.3137
  774MPD2    H311427   1.356   4.370  13.917  0.3868 -0.7301 -0.0447
  774MPD2     N11428   1.702   4.548  13.687 -0.3844 -0.1186 -0.3381
  774MPD2    H511429   1.763   4.527  13.608  1.8069  0.5451  1.1824
  774MPD2    N111430   1.566   4.085  13.627  0.2564  0.5838  0.0050
  774MPD2    H711431   1.514   4.009  13.670  0.3498  0.5397  0.0410
  775MPD2     C11432   3.062   0.401  15.783  0.4497 -0.2747  0.0165
  775MPD2    C111433   3.003   0.520  15.797  0.5728  0.5300  0.2494
  775MPD2    C211434   3.067   0.636  15.765  0.2479 -0.2847  0.6351
  775MPD2    C311435   3.182   0.627  15.692  0.2381  0.7302  0.2762
  775MPD2    C411436   3.241   0.504  15.662  0.3586 -1.1230  0.3725
  775MPD2    C511437   3.180   0.394  15.722  0.3704 -0.0429  0.3047
  775MPD2     H11438   3.018   0.729  15.793 -0.5282 -1.2206  2.3820
  775MPD2    H111439   3.343   0.513  15.626  0.5742 -0.2105  1.2253
  775MPD2    H211440   3.016   0.311  15.821 -0.3888 -0.2850 -1.0505
  775MPD2    H311441   3.235   0.300  15.727 -1.5510 -1.2005 -0.5037
  775MPD2     N11442   3.251   0.739  15.641 -0.7724  0.1684  0.4942
  775MPD2    H511443   3.336   0.726  15.588 -0.6681 -1.0359  0.9411
  775MPD2    N111444   2.875   0.518  15.852  0.1164  0.7180 -0.2607
  775MPD2    H711445   2.842   0.426  15.880 -3.6048  2.7551  1.9363
  776MPD2     C11446   1.779   1.458  10.781  0.3589 -0.5024  0.3170
  776MPD2    C111447   1.887   1.427  10.866  0.1386 -0.0832  0.0030
  776MPD2    C211448   2.000   1.509  10.860 -0.3618 -0.2251  0.3951
  776MPD2    C311449   2.003   1.620  10.776 -0.1992 -0.6750  0.2631
  776MPD2    C411450   1.896   1.642  10.684  0.4175 -0.3154  0.0202
  776MPD2    C511451   1.785   1.560  10.684 -0.0681  0.7851  0.4355
  776MPD2     H11452   2.074   1.500  10.938 -0.6938  0.0251  0.7344
  776MPD2    H111453   1.907   1.714  10.604 -0.1114 -0.7954 -0.4792
  776MPD2    H211454   1.692   1.394  10.775 -0.6432  0.8191  0.7319
  776MPD2    H311455   1.700   1.566  10.617 -0.0343  0.3915  0.3567
  776MPD2     N11456   2.105   1.714  10.766 -0.4747 -0.6371 -0.3868
  776MPD2    H511457   2.100   1.790  10.699  3.4701 -0.2378 -0.2112
  776MPD2    N111458   1.880   1.317  10.957 -0.0955  0.0694  0.6353
  776MPD2    H711459   1.791   1.269  10.970 -0.9746  1.6247  0.4581
  777MPD2     C11460   2.525   3.635   1.070 -0.2928 -0.2185  0.5784
  777MPD2    C111461   2.512   3.522   1.150  0.1960 -0.4135  0.5433
  777MPD2    C211462   2.471   3.398   1.095 -0.7308  0.0176 -0.6643
  777MPD2    C311463   2.455   3.382   0.960 -0.1725  0.5041 -0.2972
  777MPD2    C411464   2.460   3.498   0.883 -0.0507 -0.6037 -0.2571
  777MPD2    C511465   2.496   3.617   0.937 -0.6367  0.1119  0.9931
  777MPD2     H11466   2.461   3.313   1.163  2.8559  0.6376  0.6277
  777MPD2    H111467   2.442   3.494   0.776 -1.9303  0.0072  0.0296
  777MPD2    H211468   2.554   3.734   1.100 -1.5416  0.2968  0.0927
  777MPD2    H311469   2.502   3.705   0.875 -0.7806  0.3544  1.3248
  777MPD2     N11470   2.425   3.253   0.913  0.2081 -0.1600 -0.8611
  777MPD2    H511471   2.388   3.189   0.982  0.8872 -3.2112 -3.2973
  777MPD2    N111472   2.531   3.540   1.285 -0.0256  0.1666  0.1326
  777MPD2    H711473   2.547   3.636   1.315 -0.1508 -0.0392  0.8753
  778MPD2     C11474   2.938   3.106  15.527  0.3549  0.2508  0.1495
  778MPD2    C111475   2.950   3.087  15.390  0.2961 -0.0034  0.1959
  778MPD2    C211476   3.024   3.173  15.318  0.6028 -0.1866 -0.3131
  778MPD2    C311477   3.085   3.289  15.372  0.6623 -0.2828 -0.1665
  778MPD2    C411478   3.078   3.298  15.503 -0.0004 -0.2153  0.1250
  778MPD2    C511479   2.996   3.215  15.575 -0.4939  0.1306  0.1577
  778MPD2     H11480   3.036   3.158  15.211 -2.6595 -1.1692 -0.5274
  778MPD2    H111481   3.110   3.393  15.545 -3.8540  0.8493  0.5887
  778MPD2    H211482   2.875   3.033  15.576  3.2888 -2.5912 -0.3362
  778MPD2    H311483   2.996   3.240  15.680 -0.6477 -0.0639  0.2053
  778MPD2     N11484   3.151   3.377  15.285  0.2051 -0.2726 -0.0115
  778MPD2    H511485   3.148   3.346  15.189 -0.7045  0.5820 -0.2614
  778MPD2    N111486   2.884   2.974  15.324 -0.9693  0.4450  0.1314
  778MPD2    H711487   2.899   2.972  15.224  2.6027  1.5871  0.6252
  779MPD2     C11488   3.651   2.314  13.709  0.0281  1.0026  0.0764
  779MPD2    C111489   3.624   2.318  13.844  0.0242  0.2216 -0.1250
  779MPD2    C211490   3.633   2.438  13.911 -0.3640  0.4852  0.4500
  779MPD2    C311491   3.648   2.559  13.846 -0.5693  0.6909  0.4637
  779MPD2    C411492   3.670   2.554  13.712 -0.8074  0.2411 -0.3097
  779MPD2    C511493   3.675   2.436  13.644  0.8103 -1.0600 -0.1949
  779MPD2     H11494   3.615   2.445  14.018 -2.4815  0.7285  0.0796
  779MPD2    H111495   3.696   2.640  13.652 -0.2108 -1.5542 -2.6501
  779MPD2    H211496   3.639   2.224  13.649  0.7728  1.0537 -0.1468
  779MPD2    H311497   3.685   2.445  13.536  3.9618 -0.0791  0.2005
  779MPD2     N11498   3.654   2.673  13.930 -0.2163  0.1512  0.0870
  779MPD2    H511499   3.649   2.659  14.030 -0.6333  1.2808  0.2251
  779MPD2    N111500   3.595   2.204  13.919 -0.0240 -0.3694 -0.9901
  779MPD2    H711501   3.585   2.231  14.016 -1.3178 -1.4730 -0.8151
  780MPD2     C11502   2.940   2.708   1.050 -0.5454 -0.6530 -0.7571
  780MPD2    C111503   2.887   2.614   0.969 -0.0353  0.0001  0.2065
  780MPD2    C211504   2.891   2.632   0.831  0.4066  0.2801  0.7413
  780MPD2    C311505   2.951   2.744   0.771 -1.1377 -0.2740  0.0676
  780MPD2    C411506   3.008   2.835   0.858  0.1356  0.5355 -0.4774
  780MPD2    C511507   3.003   2.818   0.995  0.1448  0.0244  0.3155
  780MPD2     H11508   2.838   2.569   0.760  0.0918  1.5074 -0.1223
  780MPD2    H111509   3.060   2.922   0.819  2.6686 -0.8536 -0.1752
  780MPD2    H211510   2.929   2.697   1.158 -1.1970  0.2478 -0.7296
  780MPD2    H311511   3.044   2.888   1.067 -0.1596 -1.9282  2.4152
  780MPD2     N11512   2.963   2.756   0.629  0.0952  0.1995  0.8905
  780MPD2    H511513   2.938   2.674   0.574  0.6779  0.0163  0.9080
  780MPD2    N111514   2.830   2.498   1.034 -0.4694 -0.6529 -0.0807
  780MPD2    H711515   2.822   2.508   1.135 -0.2947 -0.2805 -0.1021
  781MPD2     C11516   4.197   4.344  12.332  0.2408 -0.6747 -0.4972
  781MPD2    C111517   4.297   4.313  12.428  0.0894  0.2151  0.5066
  781MPD2    C211518   4.428   4.351  12.409 -0.4042  0.8640  0.1147
  781MPD2    C311519   4.472   4.405  12.288 -0.0918 -0.5345 -0.1211
  781MPD2    C411520   4.376   4.430  12.192 -0.1990  0.5552  0.3906
  781MPD2    C511521   4.240   4.401  12.221 -0.0580  0.3687 -0.0187
  781MPD2     H11522   4.494   4.321  12.490 -0.8715 -0.7315 -0.1011
  781MPD2    H111523   4.393   4.477  12.096  0.5966  0.6287  0.5632
  781MPD2    H211524   4.094   4.311  12.340 -0.4633  1.3905 -0.9373
  781MPD2    H311525   4.157   4.408  12.152 -0.9484  2.2744  1.2397
  781MPD2     N11526   4.604   4.448  12.263  0.3672  0.3243  0.0183
  781MPD2    H511527   4.627   4.486  12.171 -0.9763  0.2901 -0.3319
  781MPD2    N111528   4.265   4.258  12.556  0.2567  0.0692  0.4870
  781MPD2    H711529   4.340   4.262  12.624 -0.9792  0.8907  1.7939
  782MPD2     C11530   2.498   0.203  10.156 -0.4683 -0.1106 -0.8192
  782MPD2    C111531   2.605   0.203  10.245  0.4410  0.3765  0.4417
  782MPD2    C211532   2.627   0.320  10.317  1.0961 -0.2032  0.1083
  782MPD2    C311533   2.550   0.434  10.294  0.3867 -0.4658 -0.4160
  782MPD2    C411534   2.450   0.433  10.198 -0.0044  0.6009 -0.5012
  782MPD2    C511535   2.429   0.321  10.125  0.2675  0.3833 -0.1548
  782MPD2     H11536   2.702   0.316  10.395 -1.0739 -2.1522  2.1067
  782MPD2    H111537   2.381   0.516  10.190 -1.3800 -0.4977  0.0597
  782MPD2    H211538   2.465   0.109  10.112  0.8218 -0.7151 -0.4747
  782MPD2    H311539   2.334   0.302  10.075  0.2944 -0.2689  0.0384
  782MPD2     N11540   2.578   0.538  10.384 -0.4913  0.6159 -0.7310
  782MPD2    H511541   2.662   0.522  10.439 -1.2708 -0.0554  0.2697
  782MPD2    N111542   2.675   0.083  10.269  0.6617 -0.0967  0.2594
  782MPD2    H711543   2.637   0.004  10.217  1.7626 -0.2553 -0.2946
  783MPD2     C11544   2.312   4.338  10.929  0.5024  0.4459 -0.6459
  783MPD2    C111545   2.321   4.465  10.901  0.2195  0.2827 -0.1818
  783MPD2    C211546   2.406   4.508  10.798 -0.6803  0.4538  0.1847
  783MPD2    C311547   2.478   4.415  10.726 -0.3879 -0.3260  0.2464
  783MPD2    C411548   2.458   4.279  10.749 -0.0787 -0.0499 -0.4099
  783MPD2    C511549   2.375   4.240  10.849  0.6209 -0.1608  0.0644
  783MPD2     H11550   2.421   4.612  10.773 -0.7555  0.2726 -0.6317
  783MPD2    H111551   2.516   4.207  10.692  0.2706 -0.8010  0.8992
  783MPD2    H211552   2.254   4.297  11.011  1.4750 -0.0885 -0.2315
  783MPD2    H311553   2.370   4.132  10.857  1.0848 -0.3324 -2.1293
  783MPD2     N11554   2.574   4.464  10.634  0.0564  0.3354 -0.5900
  783MPD2    H511555   2.573   4.566  10.628 -1.8457  0.4268  1.4235
  783MPD2    N111556   2.233   4.549  10.983 -0.2435 -0.3673  0.0743
  783MPD2    H711557   2.164   4.505  11.043  0.6190 -2.4835 -0.4727
  784MPD2     C11558   4.634   0.689   0.970 -0.2578  0.6456 -0.3640
  784MPD2    C111559   0.029   0.740   1.008 -0.3575  0.1747 -0.1159
  784MPD2    C211560   0.028   0.866   1.064 -0.0682 -0.6200  0.1806
  784MPD2    C311561   4.628   0.930   1.096 -0.1084 -0.0921 -0.1619
  784MPD2    C411562   4.510   0.869   1.051  0.4278 -0.2465  0.0782
  784MPD2    C511563   4.515   0.749   0.984  0.6091  0.1389 -0.6329
  784MPD2     H11564   0.121   0.905   1.104  0.4191  0.5299 -2.0548
  784MPD2    H111565   4.409   0.906   1.068 -0.3569 -1.6568 -1.4878
  784MPD2    H211566   4.634   0.593   0.919  0.8337  1.1853 -1.3752
  784MPD2    H311567   4.422   0.703   0.951 -0.3586  2.5616 -1.2506
  784MPD2     N11568   4.639   1.049   1.163  0.0585  0.4022  0.0570
  784MPD2    H511569   0.009   1.092   1.162 -1.2882  3.3384  0.6106
  784MPD2    N111570   0.155   0.677   1.007  0.0421  0.4799 -0.7970
  784MPD2    H711571   0.234   0.728   1.046 -0.4214 -0.4739  1.3474
  785MPD2     C11572   0.181   4.299  11.227  0.0897 -0.3875  0.0300
  785MPD2    C111573   0.175   4.417  11.156 -0.3962 -0.1259  0.4042
  785MPD2    C211574   0.066   4.448  11.082  0.0031 -0.3852  0.3329
  785MPD2    C311575   4.681   4.358  11.071 -0.1162 -0.4531  0.1659
  785MPD2    C411576   4.692   4.239  11.142  0.1711  0.5022 -0.2791
  785MPD2    C511577   0.081   4.209  11.220 -0.1095  0.5146  0.2158
  785MPD2     H11578   0.058   4.542  11.029  4.0499 -0.7517 -0.9468
  785MPD2    H111579   4.606   4.173  11.136  1.3663 -1.1078  0.1935
  785MPD2    H211580   0.263   4.274  11.292 -0.2567  1.1440  1.0401
  785MPD2    H311581   0.087   4.115  11.273 -1.6174  0.2417 -0.0742
  785MPD2     N11582   4.577   4.390  10.978  0.3686 -0.0951  0.4298
  785MPD2    H511583   4.590   4.473  10.921 -0.0217 -0.1874  0.2048
  785MPD2    N111584   0.279   4.512  11.152  0.2041  0.0491  0.1125
  785MPD2    H711585   0.253   4.598  11.104 -2.4142 -0.7058  0.1694
  786MPD2     C11586   3.529   1.596  14.571 -0.2894 -0.4323  0.2973
  786MPD2    C111587   3.661   1.570  14.546  0.4117 -0.7386  0.2937
  786MPD2    C211588   3.754   1.607  14.644 -0.0411 -0.3800 -0.5532
  786MPD2    C311589   3.714   1.669  14.760 -0.5764 -0.4600 -0.0170
  786MPD2    C411590   3.579   1.695  14.783  0.2115  0.6403  0.1576
  786MPD2    C511591   3.486   1.660  14.688  0.6638 -0.0851  0.4002
  786MPD2     H11592   3.859   1.585  14.628  0.1015  0.1677 -0.3598
  786MPD2    H111593   3.552   1.738  14.879  2.1673 -2.4395  2.0857
  786MPD2    H211594   3.448   1.570  14.504  0.4480  0.9369 -1.1224
  786MPD2    H311595   3.380   1.657  14.711  0.7403 -1.5836  0.5610
  786MPD2     N11596   3.812   1.698  14.864 -0.3980 -0.1544  0.5447
  786MPD2    H511597   3.768   1.717  14.954 -0.8811  0.8147  0.1044
  786MPD2    N111598   3.709   1.507  14.430 -0.4458  0.0477  0.3630
  786MPD2    H711599   3.805   1.473  14.432 -0.4069  0.1084 -0.7670
  787MPD2     C11600   3.682   0.893  14.623  0.1067  0.7758  0.3091
  787MPD2    C111601   3.776   0.925  14.533  0.4089  0.1715  0.3164
  787MPD2    C211602   3.901   0.855  14.548  0.0642  0.3482  0.8736
  787MPD2    C311603   3.924   0.767  14.651 -0.6096  0.3652  0.4408
  787MPD2    C411604   3.824   0.746  14.741  0.2029  0.2526  0.7337
  787MPD2    C511605   3.703   0.805  14.721  0.1376  0.1786  0.4391
  787MPD2     H11606   3.975   0.874  14.472 -1.0440  1.3691  0.0437
  787MPD2    H111607   3.830   0.668  14.816  0.2258  1.3504  1.8766
  787MPD2    H211608   3.582   0.935  14.618 -0.0378  0.5092  1.0587
  787MPD2    H311609   3.621   0.778  14.786 -2.9151  2.1915 -2.6049
  787MPD2     N11610   4.060   0.715  14.663 -0.7411  0.1618  0.0414
  787MPD2    H511611   4.139   0.766  14.624 -2.4328  2.4460 -0.4471
  787MPD2    N111612   3.754   1.020  14.434  0.5187 -0.3133  0.3920
  787MPD2    H711613   3.661   1.060  14.435  0.3180 -0.7601 -0.6232
  788MPD2     C11614   1.501   0.025   0.357  0.0618 -0.1542  0.8571
  788MPD2    C111615   1.534   4.631   0.293 -0.5560  0.0212  0.5509
  788MPD2    C211616   1.510   4.626   0.155 -0.8085  0.3511  0.4027
  788MPD2    C311617   1.447   0.005   0.091  0.6942  0.1334 -0.3953
  788MPD2    C411618   1.418   0.119   0.159 -0.2838 -0.2200 -0.1078
  788MPD2    C511619   1.446   0.130   0.291 -0.5192 -0.7712  0.8548
  788MPD2     H11620   1.531   4.532   0.106 -0.3482 -0.2690  1.7936
  788MPD2    H111621   1.385   0.208   0.106  1.5470  0.6042  0.1642
  788MPD2    H211622   1.516   0.040   0.463 -1.0552  0.5458  0.9052
  788MPD2    H311623   1.439   0.229   0.336 -1.8106 -0.6555  0.3764
  788MPD2     N11624   1.400   4.720  17.651 -0.5045  0.2039  0.0198
  788MPD2    H511625   1.357   0.082  17.614 -1.6854 -0.5713 -0.3589
  788MPD2    N111626   1.587   4.513   0.360 -0.4810  0.5578 -0.6057
  788MPD2    H711627   1.607   4.438   0.295  0.4687  1.3850 -1.2652
  789MPD2     C11628   1.432   4.718  17.098  0.7222 -0.0143  0.1364
  789MPD2    C111629   1.434   4.633  16.986  0.4927 -0.0787  0.0009
  789MPD2    C211630   1.323   4.630  16.907 -0.6216  0.2603 -0.0986
  789MPD2    C311631   1.216   4.714  16.925  0.2640 -0.6931  0.0266
  789MPD2    C411632   1.218   0.082  17.026  0.0960  0.6895  0.1344
  789MPD2    C511633   1.331   0.085  17.111  0.4459 -0.3312 -0.8794
  789MPD2     H11634   1.322   4.552  16.831 -0.0903  0.0650  0.0951
  789MPD2    H111635   1.136   0.145  17.059 -1.6625 -2.1692  1.1852
  789MPD2    H211636   1.514   0.001  17.170  0.2550 -0.4448  0.7046
  789MPD2    H311637   1.330   0.148  17.199  2.6124 -0.1851 -0.9666
  789MPD2     N11638   1.104   4.706  16.842 -0.2038 -0.2179 -0.5196
  789MPD2    H511639   1.027   0.046  16.866 -0.7073 -1.4013  0.9400
  789MPD2    N111640   1.539   4.535  16.952  0.0017 -0.5898  0.4234
  789MPD2    H711641   1.526   4.487  16.864  2.3464 -0.3094 -0.0750
  790MPD2     C11642   2.254   0.704  13.383  0.0265  0.1076 -0.2408
  790MPD2    C111643   2.258   0.844  13.403  0.5463 -0.0096 -0.4691
  790MPD2    C211644   2.211   0.927  13.306 -0.0743  0.4802  0.5873
  790MPD2    C311645   2.129   0.871  13.210  0.1745 -0.1684 -0.3033
  790MPD2    C411646   2.112   0.737  13.200 -0.8864 -0.0200 -0.5749
  790MPD2    C511647   2.182   0.652  13.281 -0.4506 -0.0575 -0.2710
  790MPD2     H11648   2.225   1.033  13.324 -1.3098  0.6421  0.6126
  790MPD2    H111649   2.063   0.691  13.115  0.6674  0.7648 -1.8856
  790MPD2    H211650   2.294   0.631  13.452 -0.4355 -1.0558 -1.2199
  790MPD2    H311651   2.183   0.544  13.265 -0.4690 -0.3202  1.5123
  790MPD2     N11652   2.072   0.962  13.118  0.0632 -0.6829 -0.0598
  790MPD2    H511653   2.096   1.060  13.118 -1.8802 -0.1991 -1.7016
  790MPD2    N111654   2.321   0.888  13.524 -0.2132  0.0942  0.7192
  790MPD2    H711655   2.340   0.814  13.590  0.2944 -0.3439  0.0878
  791MPD2     C11656   1.403   1.190  12.498  0.0821  0.0392 -0.4526
  791MPD2    C111657   1.409   1.122  12.620 -0.0318  0.1230 -0.7573
  791MPD2    C211658   1.294   1.061  12.676  0.2588  0.5452 -0.1685
  791MPD2    C311659   1.174   1.083  12.615  0.0925 -0.4098 -0.0491
  791MPD2    C411660   1.170   1.169  12.504  0.3335 -0.2376 -0.2530
  791MPD2    C511661   1.282   1.220  12.443 -0.3223 -0.1449 -0.0508
  791MPD2     H11662   1.303   1.004  12.769 -1.8752  0.8456  0.2040
  791MPD2    H111663   1.080   1.182  12.444 -0.8624 -0.2281  1.5300
  791MPD2    H211664   1.488   1.238  12.451 -0.7298  0.2238 -1.7394
  791MPD2    H311665   1.264   1.285  12.359  0.8270  1.4090  0.8958
  791MPD2     N11666   1.058   1.008  12.649 -0.0254  0.1277  0.4774
  791MPD2    H511667   1.073   0.929  12.711 -2.5393 -0.3186  0.5082
  791MPD2    N111668   1.538   1.115  12.676 -0.4034  0.7344 -0.2270
  791MPD2    H711669   1.615   1.151  12.619  1.7169 -0.4034  1.9202
  792MPD2     C11670   2.294   0.847  10.820  0.0808  0.1063  0.6758
  792MPD2    C111671   2.197   0.944  10.827  0.3284 -0.1562 -0.2289
  792MPD2    C211672   2.068   0.903  10.869  0.0692  0.4944  0.3082
  792MPD2    C311673   2.038   0.768  10.888 -0.1858 -0.2063 -0.4738
  792MPD2    C411674   2.136   0.672  10.873  0.7449  0.3008  0.4143
  792MPD2    C511675   2.265   0.714  10.853  0.0998 -0.9000  0.4252
  792MPD2     H11676   1.997   0.983  10.886  1.7965  1.8915  0.9329
  792MPD2    H111677   2.118   0.569  10.901  1.5966 -0.4382 -1.7827
  792MPD2    H211678   2.396   0.872  10.791  0.1054 -2.1299 -1.0678
  792MPD2    H311679   2.356   0.656  10.853 -0.6118 -2.0194  0.7711
  792MPD2     N11680   1.911   0.722  10.919  0.1658 -0.6069  0.2385
  792MPD2    H511681   1.899   0.622  10.923  0.0474 -0.7159 -2.3275
  792MPD2    N111682   2.229   1.072  10.785  0.0996 -0.2153  0.3516
  792MPD2    H711683   2.328   1.091  10.774 -0.4231  3.1385  1.5068
  793MPD2     C11684   1.345   0.887  10.243  0.4160  0.3573  0.0992
  793MPD2    C111685   1.470   0.924  10.283 -0.2831  0.8240  0.1421
  793MPD2    C211686   1.520   0.868  10.393 -0.1026  0.2053  1.1200
  793MPD2    C311687   1.450   0.774  10.469  0.2289 -0.2562  0.2282
  793MPD2    C411688   1.327   0.735  10.426 -0.3210 -0.0057 -0.4102
  793MPD2    C511689   1.272   0.799  10.314  0.1070 -0.5710  0.2461
  793MPD2     H11690   1.624   0.888  10.417  0.3371  2.4205 -2.5809
  793MPD2    H111691   1.257   0.671  10.479 -0.9271  1.4766  0.5685
  793MPD2    H211692   1.307   0.918  10.146  0.2186 -1.3185 -0.3637
  793MPD2    H311693   1.167   0.786  10.288 -0.2483 -0.7670  1.8013
  793MPD2     N11694   1.519   0.718  10.578  0.2835 -0.3013 -0.1662
  793MPD2    H511695   1.606   0.764  10.603 -0.5839  2.2390 -1.7770
  793MPD2    N111696   1.551   1.014  10.211  0.3632  0.7039  0.3937
  793MPD2    H711697   1.643   1.035  10.249  0.2946 -0.4715  1.2370
  794MPD2     C11698   1.556   0.492  17.683 -0.3411  0.1239  0.0054
  794MPD2    C111699   1.692   0.487  17.682 -0.7050  0.7433  0.2196
  794MPD2    C211700   1.756   0.522  17.566 -0.5725 -0.4570 -0.0374
  794MPD2    C311701   1.694   0.556  17.454 -0.9674  0.2474  0.1437
  794MPD2    C411702   1.558   0.546  17.450 -0.3395  0.1964 -0.0999
  794MPD2    C511703   1.492   0.519  17.564 -0.6456  0.3462 -0.1619
  794MPD2     H11704   1.864   0.516  17.568 -0.7008 -2.0020  1.7072
  794MPD2    H111705   1.516   0.567  17.353 -0.2495  1.6636  0.1776
  794MPD2    H211706   1.498   0.461   0.078  1.2515  0.6426  1.2651
  794MPD2    H311707   1.384   0.531  17.558 -0.3257  3.4186  0.2493
  794MPD2     N11708   1.759   0.601  17.336 -0.2399 -0.7389  0.2193
  794MPD2    H511709   1.701   0.616  17.254 -0.3580 -1.3685  0.1828
  794MPD2    N111710   1.771   0.458   0.105 -1.0785 -0.6290  0.6135
  794MPD2    H711711   1.870   0.468   0.082 -0.8971 -3.0737  0.3489
  795MPD2     C11712   4.637   2.946  13.447 -0.0390 -0.2249 -0.5013
  795MPD2    C111713   4.559   2.831  13.444  0.7241  0.0164  0.1156
  795MPD2    C211714   4.615   2.704  13.463 -0.2043  0.2205 -0.6528
  795MPD2    C311715   0.027   2.697  13.498 -0.2665  0.1938 -0.4882
  795MPD2    C411716   0.097   2.812  13.505 -0.0751 -0.1695 -0.1653
  795MPD2    C511717   0.046   2.939  13.483  0.3888  0.2214  0.1804
  795MPD2     H11718   4.561   2.612  13.448 -0.8213  0.6753 -1.1916
  795MPD2    H111719   0.201   2.808  13.537 -0.1162  0.6776  0.0714
  795MPD2    H211720   4.593   3.045  13.441  0.2337 -0.1597 -1.4704
  795MPD2    H311721   0.099   3.032  13.500 -1.1354  1.5401 -2.1666
  795MPD2     N11722   0.092   2.574  13.533  0.0263  0.0120  0.1213
  795MPD2    H511723   0.024   2.501  13.546 -0.1306 -0.6088 -4.2003
  795MPD2    N111724   4.422   2.824  13.411 -1.0734  0.2156 -0.7424
  795MPD2    H711725   4.388   2.728  13.407 -0.2434 -0.0733 -0.8658
  796MPD2     C11726   3.993   4.037  15.896 -0.2347  0.6241 -0.5530
  796MPD2    C111727   4.067   4.108  15.988  0.7768 -0.1494  0.6253
  796MPD2    C211728   4.046   4.248  15.998  0.2620 -0.8462  0.0395
  796MPD2    C311729   3.952   4.319  15.926 -0.2138  0.3857 -0.0171
  796MPD2    C411730   3.875   4.244  15.841 -0.4606 -0.4725  0.1774
  796MPD2    C511731   3.896   4.105  15.828 -0.2414 -0.8089  0.4531
  796MPD2     H11732   4.099   4.310  16.069 -2.0959  2.1251 -0.7796
  796MPD2    H111733   3.789   4.282  15.786  0.3420  0.0930 -0.6857
  796MPD2    H211734   4.019   3.933  15.882 -0.0150  0.3584  1.7796
  796MPD2    H311735   3.834   4.057  15.753 -3.6681  1.9550  1.4971
  796MPD2     N11736   3.945   4.463  15.931  0.0392  0.1276  0.3308
  796MPD2    H511737   4.015   4.504  15.992  0.3891 -2.9872  2.0095
  796MPD2    N111738   4.153   4.040  16.082  0.0208  0.3701  0.1514
  796MPD2    H711739   4.137   3.939  16.079 -1.9578  0.6908  0.3441
  797MPD2     C11740   4.721   3.330  17.644  0.4450  0.2573  0.3009
  797MPD2    C111741   0.123   3.391  17.619  0.0145  0.2270  0.9147
  797MPD2    C211742   0.119   3.528  17.586 -0.2713 -0.4885  0.9248
  797MPD2    C311743   0.001   3.593  17.564 -0.2580  0.4362 -0.5582
  797MPD2    C411744   4.605   3.528  17.574 -0.1743 -0.2303 -0.3879
  797MPD2    C511745   4.604   3.401  17.622  0.3646  0.3257  0.1127
  797MPD2     H11746   0.217   3.569  17.565 -0.5346  0.6027  1.8261
  797MPD2    H111747   4.515   3.577  17.541 -0.7961 -1.3210 -0.3112
  797MPD2    H211748   4.708   3.227  17.678  2.0804 -0.1203 -0.2325
  797MPD2    H311749   4.510   3.350  17.640 -0.2339  1.3269 -0.1742
  797MPD2     N11750   0.017   3.722  17.509  0.3244  0.3619 -0.0728
  797MPD2    H511751   0.107   3.767  17.526  1.1195 -1.2660 -0.0025
  797MPD2    N111752   0.244   3.319  17.615 -0.3017  0.1198 -0.2551
  797MPD2    H711753   0.327   3.376  17.598  1.1106 -2.1120 -0.8946
  798MPD2     C11754   0.659   3.866  17.454 -0.0139  0.4540 -0.8072
  798MPD2    C111755   0.529   3.822  17.477 -0.0160 -0.4795  0.3032
  798MPD2    C211756   0.516   3.695  17.530 -0.4290  0.3867 -0.3608
  798MPD2    C311757   0.624   3.613  17.536  0.9819  0.2266  0.6090
  798MPD2    C411758   0.750   3.657  17.497  0.0045  0.2575  0.1480
  798MPD2    C511759   0.758   3.782  17.448  0.9207  0.0387 -0.1407
  798MPD2     H11760   0.418   3.651  17.546 -0.4182 -0.4154 -2.5275
  798MPD2    H111761   0.841   3.599  17.489 -0.6190 -0.7672  0.4299
  798MPD2    H211762   0.666   3.970  17.423 -0.1367  0.7086  0.0043
  798MPD2    H311763   0.862   3.804  17.426  0.6584  1.3584 -0.0676
  798MPD2     N11764   0.601   3.481  17.573  0.3451  0.2997 -0.7051
  798MPD2    H511765   0.502   3.461  17.581 -0.0280  0.8633 -3.8816
  798MPD2    N111766   0.418   3.910  17.446  0.4552  0.7119  0.5165
  798MPD2    H711767   0.438   4.000  17.402  1.8299  0.3937  0.5032
  799MPD2     C11768   4.221   0.435  14.434  0.1904  0.4838 -0.3934
  799MPD2    C111769   4.119   0.381  14.510  0.1670  0.7451  0.4987
  799MPD2    C211770   3.993   0.435  14.492  0.2474 -0.1855 -0.2270
  799MPD2    C311771   3.967   0.523  14.381  0.1682 -0.2370  0.1932
  799MPD2    C411772   4.074   0.594  14.330 -0.2848 -0.7223 -0.3536
  799MPD2    C511773   4.199   0.545  14.346  0.9020  0.1057 -0.5858
  799MPD2     H11774   3.910   0.406  14.555  1.7666 -0.2349  1.7473
  799MPD2    H111775   4.052   0.682  14.271  2.0040 -1.9064 -2.9714
  799MPD2    H211776   4.325   0.406  14.441  0.0366  0.5948  2.5330
  799MPD2    H311777   4.281   0.591  14.291  0.9464 -0.4577 -0.9928
  799MPD2     N11778   3.841   0.583  14.349  0.3895 -0.3885  0.3872
  799MPD2    H511779   3.841   0.645  14.269 -1.1507  0.0080  0.7086
  799MPD2    N111780   4.151   0.303  14.624  0.0833 -0.3106 -0.0875
  799MPD2    H711781   4.072   0.281  14.684 -0.3079  2.4802  0.4125
  800MPD2     C11782   4.307   2.408  14.288 -0.3922  0.6196  0.5928
  800MPD2    C111783   4.371   2.391  14.168  0.0529  0.7127 -0.6512
  800MPD2    C211784   4.335   2.292  14.086 -1.0527 -0.9618 -0.1710
  800MPD2    C311785   4.246   2.193  14.119 -0.1052  0.0219 -0.2324
  800MPD2    C411786   4.176   2.210  14.240  0.2416 -0.2664  0.6769
  800MPD2    C511787   4.206   2.318  14.321 -0.0864 -0.3901  0.2957
  800MPD2     H11788   4.362   2.282  13.982  2.1007  0.8142  0.4982
  800MPD2    H111789   4.089   2.149  14.263 -0.1160 -0.7427 -1.9147
  800MPD2    H211790   4.333   2.478  14.366  0.3550  2.3297 -1.1737
  800MPD2    H311791   4.143   2.345  14.405 -0.8367 -1.9678  0.2375
  800MPD2     N11792   4.237   2.073  14.047 -0.4271  0.4475 -0.2988
  800MPD2    H511793   4.284   2.059  13.959 -0.3920 -2.8317  0.2168
  800MPD2    N111794   4.475   2.479  14.138 -0.1853  0.0667 -0.7538
  800MPD2    H711795   4.512   2.537  14.212 -2.0544 -0.2606  0.4612
  801MPD2     C11796   4.651   3.078  14.431  0.2994 -0.0414 -0.3106
  801MPD2    C111797   4.600   2.951  14.414 -0.1716  0.6454  0.5542
  801MPD2    C211798   4.506   2.908  14.510 -0.5798  1.2472 -0.1766
  801MPD2    C311799   4.469   2.980  14.618 -0.4228 -0.5145 -0.4159
  801MPD2    C411800   4.524   3.105  14.631  0.1417 -0.3462 -0.0433
  801MPD2    C511801   4.611   3.149  14.540  0.5352  0.2604 -0.3034
  801MPD2     H11802   4.477   2.803  14.509  0.4619  0.9660 -0.9748
  801MPD2    H111803   4.484   3.181  14.698  0.9018 -2.1363  2.4365
  801MPD2    H211804   0.005   3.117  14.364 -0.5879 -1.0744 -1.9052
  801MPD2    H311805   4.661   3.244  14.558 -0.8448  0.9846 -0.2948
  801MPD2     N11806   4.357   2.937  14.697  0.0969  0.6414 -0.4159
  801MPD2    H511807   4.339   2.975  14.790 -0.4309 -2.9314  0.9434
  801MPD2    N111808   4.638   2.866  14.309  0.8824  1.1028 -0.4007
  801MPD2    H711809   4.582   2.783  14.292 -2.1150  3.2179 -0.8659
  802MPD2     C11810   4.088   3.306   0.417 -0.2041 -0.1841 -0.0026
  802MPD2    C111811   3.967   3.289   0.351 -0.0509  1.4149  0.4729
  802MPD2    C211812   3.944   3.172   0.276 -0.5829  0.3230  0.8076
  802MPD2    C311813   4.032   3.062   0.287 -0.6181 -0.8592  0.0190
  802MPD2    C411814   4.152   3.084   0.348  0.2436  0.1714 -0.2390
  802MPD2    C511815   4.182   3.203   0.411  1.0621  0.1806 -0.3046
  802MPD2     H11816   3.856   3.162   0.215  0.4566 -0.2281 -0.5891
  802MPD2    H111817   4.241   3.021   0.341 -0.6878 -1.2067  0.2252
  802MPD2    H211818   4.114   3.402   0.461 -1.1542 -0.0902  0.3707
  802MPD2    H311819   4.279   3.206   0.459 -0.0460  0.6753  1.9158
  802MPD2     N11820   4.006   2.952   0.204  0.0559  0.4633  0.0914
  802MPD2    H511821   3.925   2.970   0.145 -0.4727 -1.0369  0.3336
  802MPD2    N111822   3.864   3.387   0.359 -0.1740  0.1268 -0.4644
  802MPD2    H711823   3.782   3.361   0.306 -0.9852  1.4972  0.1325
  803MPD2     C11824   0.212   1.480  11.661 -0.2414 -0.0207 -0.2336
  803MPD2    C111825   0.168   1.557  11.768  0.5630  0.4207 -0.0457
  803MPD2    C211826   0.076   1.503  11.854 -0.1369 -0.6572 -0.7744
  803MPD2    C311827   0.024   1.373  11.836 -0.2862  0.2232  0.0364
  803MPD2    C411828   0.057   1.310  11.725 -0.7000 -0.4114  1.4755
  803MPD2    C511829   0.154   1.360  11.645 -0.1062  0.2599  0.1594
  803MPD2     H11830   0.048   1.566  11.938 -1.3448 -1.3487 -0.6561
  803MPD2    H111831   0.025   1.210  11.698  0.0924 -0.7656  1.8509
  803MPD2    H211832   0.268   1.509  11.573  2.0094  1.4633  1.6900
  803MPD2    H311833   0.186   1.300  11.560  0.5651  0.2108  0.4484
  803MPD2     N11834   4.659   1.309  11.926  0.2730 -0.4203 -0.1140
  803MPD2    H511835   4.631   1.216  11.897 -1.3466  0.3360 -1.0078
  803MPD2    N111836   0.221   1.683  11.801 -0.1783 -0.4131 -0.6835
  803MPD2    H711837   0.190   1.725  11.888  1.3305 -1.9364  0.5885
  804MPD2     C11838   4.327   2.562  17.320 -0.3450  0.3271 -0.4979
  804MPD2    C111839   4.444   2.580  17.396  0.2979  0.4535  0.6282
  804MPD2    C211840   4.482   2.705  17.442  0.1760  0.2567  0.4056
  804MPD2    C311841   4.398   2.813  17.429  0.2452 -0.5776 -0.0520
  804MPD2    C411842   4.277   2.799  17.349 -0.2621  0.5864  0.3439
  804MPD2    C511843   4.255   2.675  17.287 -0.1989  0.5623  0.2401
  804MPD2     H11844   4.577   2.716  17.493  0.2948  0.2802  0.1791
  804MPD2    H111845   4.201   2.873  17.327  1.4030  2.6215  1.3855
  804MPD2    H211846   4.285   2.467  17.290 -0.1793  0.3264 -0.7367
  804MPD2    H311847   4.161   2.660  17.235  0.9413 -1.0192 -1.3955
  804MPD2     N11848   4.451   2.944  17.463 -0.3104  0.3415 -0.0997
  804MPD2    H511849   4.542   2.943  17.509 -0.7803  0.5851  0.8248
  804MPD2    N111850   4.532   2.480  17.426 -0.1617  0.2686 -0.1034
  804MPD2    H711851   4.614   2.508  17.478  0.0948 -0.9357  0.1402
  805MPD2     C11852   3.680   0.280  15.501 -0.0750  0.2600 -0.8399
  805MPD2    C111853   3.674   0.412  15.464 -0.8016  0.3234  0.6190
  805MPD2    C211854   3.777   0.493  15.503  0.6535  0.0835  0.0873
  805MPD2    C311855   3.889   0.443  15.568  0.4573 -0.2570  0.2035
  805MPD2    C411856   3.898   0.307  15.585 -0.5756 -0.2647 -0.1728
  805MPD2    C511857   3.795   0.230  15.550  0.1726 -0.4996  0.0059
  805MPD2     H11858   3.768   0.600  15.486  0.4787  0.0636  0.0578
  805MPD2    H111859   3.992   0.266  15.618 -0.4171  0.9056  0.8237
  805MPD2    H211860   3.591   0.223  15.475 -1.6172  2.3585 -0.2333
  805MPD2    H311861   3.808   0.124  15.568  5.7195  0.2695  0.4699
  805MPD2     N11862   3.996   0.539  15.593  0.0210  0.0142  0.4425
  805MPD2    H511863   3.981   0.635  15.564 -0.4149 -0.4096 -0.7235
  805MPD2    N111864   3.567   0.474  15.395 -0.6674  0.1432  0.3401
  805MPD2    H711865   3.583   0.568  15.359 -1.9956 -0.3145 -1.4538
  806MPD2     C11866   4.355   4.558   0.286  0.6806 -0.0334  0.2671
  806MPD2    C111867   4.384   4.675   0.354 -0.6404  0.5863 -0.4099
  806MPD2    C211868   4.501   0.020   0.320 -0.5131  0.8532 -0.4327
  806MPD2    C311869   4.597   4.688   0.237  0.4263 -0.0019  0.0640
  806MPD2    C411870   4.568   4.565   0.175 -0.4301  0.4980 -0.3634
  806MPD2    C511871   4.452   4.498   0.215  0.4827 -0.1190  0.3480
  806MPD2     H11872   4.528   0.117   0.359 -0.7451  0.7109  0.0769
  806MPD2    H111873   4.641   4.511   0.116  0.1060 -1.3657  1.9819
  806MPD2    H211874   4.259   4.511   0.302  0.4863  0.2724  0.0138
  806MPD2    H311875   4.426   4.401   0.176 -0.6300  0.4001 -0.1961
  806MPD2     N11876   0.009   0.019   0.246  0.2689  0.1149  0.3676
  806MPD2    H511877   0.026   0.088   0.319 -0.2734 -0.6749  1.2495
  806MPD2    N111878   4.300   4.708   0.467 -0.1472 -0.1204 -0.1492
  806MPD2    H711879   4.244   4.627   0.491  0.5902 -0.4787  0.3873
  807MPD2     C11880   3.844   4.343   0.911  0.2099  0.6856  0.2546
  807MPD2    C111881   3.977   4.318   0.895  0.0250 -0.4250  0.4333
  807MPD2    C211882   4.028   4.193   0.930  0.1853 -0.1896  0.0827
  807MPD2    C311883   3.951   4.097   0.985  0.1051 -0.2870 -0.6803
  807MPD2    C411884   3.814   4.122   0.996  0.1477 -0.2352  0.1284
  807MPD2    C511885   3.765   4.243   0.965  0.3791  0.1242 -0.0522
  807MPD2     H11886   4.135   4.180   0.923 -0.0346 -0.9439 -1.9908
  807MPD2    H111887   3.738   4.054   1.032  1.1447  0.5219  3.5758
  807MPD2    H211888   3.789   4.431   0.880  1.1056  1.3799  0.6295
  807MPD2    H311889   3.661   4.269   0.977 -0.3635 -2.0609 -1.8175
  807MPD2     N11890   4.016   3.980   1.032  0.8091 -0.5683 -0.3114
  807MPD2    H511891   4.118   3.973   1.028  0.9428  0.3619  1.4599
  807MPD2    N111892   4.068   4.411   0.844 -0.4131 -0.1898  0.2092
  807MPD2    H711893   4.165   4.383   0.853 -0.1869  0.8298  0.9154
  808MPD2     C11894   3.825   2.103   8.992 -0.3047 -0.0965  0.2743
  808MPD2    C111895   3.866   2.228   9.031 -0.0582  0.2541 -0.0829
  808MPD2    C211896   3.975   2.237   9.108 -1.1273  0.1856  0.3548
  808MPD2    C311897   4.028   2.129   9.167 -0.9402 -0.3185 -0.0172
  808MPD2    C411898   3.981   2.004   9.131 -0.6167  0.1749 -0.3377
  808MPD2    C511899   3.876   1.991   9.048  0.9991  0.0354 -0.1421
  808MPD2     H11900   4.007   2.337   9.136  0.4916  0.0758 -1.0989
  808MPD2    H111901   4.030   1.913   9.164  0.2040  0.3751 -0.9860
  808MPD2    H211902   3.738   2.093   8.927  0.0297  2.1347 -0.5126
  808MPD2    H311903   3.838   1.893   9.022 -0.5263  0.7861 -0.7067
  808MPD2     N11904   4.121   2.128   9.274 -0.3425 -0.3700  0.0581
  808MPD2    H511905   4.136   2.047   9.333  2.8176 -0.3625 -0.7473
  808MPD2    N111906   3.811   2.352   8.987  0.0498 -0.6044 -0.4540
  808MPD2    H711907   3.856   2.437   9.020 -0.8069  0.2914 -1.5638
  809MPD2     C11908   4.197   1.445   9.748 -0.1716 -0.2535 -0.4615
  809MPD2    C111909   4.304   1.514   9.791  0.6013 -0.2208 -0.8486
  809MPD2    C211910   4.310   1.648   9.757  0.2931  0.2581 -0.2278
  809MPD2    C311911   4.222   1.709   9.673  0.1182  0.3726 -0.2693
  809MPD2    C411912   4.112   1.638   9.633 -0.0163  0.3902 -0.3917
  809MPD2    C511913   4.098   1.505   9.667 -0.2459  0.2712  0.4662
  809MPD2     H11914   4.399   1.696   9.796 -0.1066  0.6190  0.2306
  809MPD2    H111915   4.039   1.688   9.571 -0.4269  1.2921  0.8040
  809MPD2    H211916   4.178   1.339   9.754  3.1644 -0.8449 -0.3161
  809MPD2    H311917   4.018   1.442   9.629 -2.6082  3.2839  0.4238
  809MPD2     N11918   4.234   1.846   9.638 -0.2072  0.2288  0.3241
  809MPD2    H511919   4.166   1.884   9.573 -0.4174 -0.5206  0.1013
  809MPD2    N111920   4.413   1.454   9.860 -0.6988 -0.0688 -0.3273
  809MPD2    H711921   4.498   1.510   9.865 -0.0161 -1.1444 -0.0180
  810MPD2     C11922   4.157   1.408  10.529  0.0673 -0.3278  0.8096
  810MPD2    C111923   4.048   1.439  10.446  0.2980  0.0559 -0.3281
  810MPD2    C211924   4.027   1.568  10.396  0.2528 -0.7737  0.4083
  810MPD2    C311925   4.127   1.668  10.426  0.4088  0.4471 -0.0983
  810MPD2    C411926   4.232   1.638  10.513  0.3164 -0.0653 -0.7527
  810MPD2    C511927   4.243   1.509  10.563  0.2637  0.6035 -0.5397
  810MPD2     H11928   3.955   1.576  10.315  0.7316  0.2520  0.0833
  810MPD2    H111929   4.311   1.708  10.537 -0.8688  0.7868  0.6203
  810MPD2    H211930   4.163   1.309  10.574 -0.0516 -0.0269  1.4898
  810MPD2    H311931   4.318   1.479  10.635 -2.4672  1.6578  2.7378
  810MPD2     N11932   4.127   1.799  10.374  0.0307  0.2513 -0.4786
  810MPD2    H511933   4.207   1.855  10.401  0.2468 -0.1586 -0.2565
  810MPD2    N111934   3.963   1.333  10.425  0.0988 -0.4817  0.0162
  810MPD2    H711935   3.993   1.243  10.460 -0.2818 -2.0698 -3.7890
  811MPD2     C11936   3.305   1.160   9.965  0.2852  0.1916 -0.4739
  811MPD2    C111937   3.432   1.210   9.948 -0.2092 -0.7308 -0.4380
  811MPD2    C211938   3.455   1.321   9.873 -0.3993 -0.6208 -0.2116
  811MPD2    C311939   3.356   1.385   9.803  0.3561  0.4870 -0.1738
  811MPD2    C411940   3.227   1.341   9.821  0.4761  0.6792 -0.1889
  811MPD2    C511941   3.201   1.228   9.901  0.0782  0.3564 -0.3982
  811MPD2     H11942   3.555   1.361   9.858  0.5175 -2.7148  0.3883
  811MPD2    H111943   3.149   1.400   9.775 -1.3450 -1.2983  0.3565
  811MPD2    H211944   3.273   1.065  10.006  0.5875 -0.2093 -1.1623
  811MPD2    H311945   3.101   1.190   9.914  0.3394 -0.2344 -0.1260
  811MPD2     N11946   3.399   1.499   9.721 -0.1380 -0.5278 -0.0790
  811MPD2    H511947   3.494   1.533   9.729 -0.0910 -0.1428 -2.2465
  811MPD2    N111948   3.544   1.155  10.015 -0.3594  0.1355  0.1400
  811MPD2    H711949   3.636   1.195  10.000 -0.2709 -0.5305 -1.1229
  812MPD2     C11950   3.238   1.228  11.986 -0.4375  0.0566 -0.1797
  812MPD2    C111951   3.100   1.214  11.998  0.1020 -0.2511 -0.7537
  812MPD2    C211952   3.049   1.148  12.108  0.0004  0.0863  0.0289
  812MPD2    C311953   3.135   1.089  12.203 -0.7843 -0.1567  0.6605
  812MPD2    C411954   3.274   1.099  12.184 -0.2327 -0.3024 -0.8070
  812MPD2    C511955   3.322   1.174  12.076  0.8586 -0.3535 -0.4411
  812MPD2     H11956   2.942   1.141  12.118  0.2772 -2.1208  1.4081
  812MPD2    H111957   3.346   1.051  12.250  0.3747  3.7701  1.5038
  812MPD2    H211958   3.289   1.266  11.898 -2.2988 -0.7168 -1.6070
  812MPD2    H311959   3.429   1.185  12.060  0.6000  2.4227 -0.1913
  812MPD2     N11960   3.078   1.004  12.306  0.0392 -0.8134  0.0088
  812MPD2    H511961   2.977   1.016  12.300  0.0498 -0.4227  0.6065
  812MPD2    N111962   3.026   1.279  11.901  0.2308 -0.6830  0.5784
  812MPD2    H711963   3.072   1.327  11.824 -1.0615 -0.2215  0.0863
  813MPD2     C11964   1.769   3.017  12.660  0.0597  0.0037 -0.3114
  813MPD2    C111965   1.760   3.146  12.717  0.3713 -0.3082  0.1584
  813MPD2    C211966   1.652   3.187  12.785 -0.2268  0.0120  0.4932
  813MPD2    C311967   1.541   3.104  12.791  0.0038  0.6111 -0.2748
  813MPD2    C411968   1.537   2.981  12.727  0.3538 -0.3823  0.5441
  813MPD2    C511969   1.649   2.938  12.664  0.1104 -0.2425  0.0646
  813MPD2     H11970   1.657   3.279  12.843 -2.4172  1.0276 -0.9599
  813MPD2    H111971   1.450   2.918  12.739  0.0051 -0.0100 -0.0186
  813MPD2    H211972   1.853   2.979  12.603  1.4236 -2.0412  3.0359
  813MPD2    H311973   1.645   2.839  12.620 -0.0157 -1.0694  1.9434
  813MPD2     N11974   1.442   3.166  12.869  1.1605  0.2251  0.1243
  813MPD2    H511975   1.465   3.258  12.905 -0.3584  0.8322 -0.4751
  813MPD2    N111976   1.876   3.230  12.700 -0.5169 -0.5164 -1.0843
  813MPD2    H711977   1.957   3.173  12.674 -0.3513  0.0733 -1.8624
  814MPD2     C11978   2.413   4.571  12.226  0.2037  0.1273 -0.9920
  814MPD2    C111979   2.433   4.631  12.102  0.4435  0.1000  0.3385
  814MPD2    C211980   2.501   0.029  12.108 -0.1262 -0.2848  0.0380
  814MPD2    C311981   2.560   0.080  12.221  0.1717 -0.3533 -0.7611
  814MPD2    C411982   2.529   0.022  12.342 -0.0586  0.1071 -0.2220
  814MPD2    C511983   2.461   4.626  12.341 -0.2830 -0.2922 -0.4101
  814MPD2     H11984   2.513   0.083  12.014  0.7546  0.3386  0.5043
  814MPD2    H111985   2.571   0.048  12.438 -2.1140 -1.1842  1.0441
  814MPD2    H211986   2.355   4.479  12.232  0.1175  0.2303 -0.2407
  814MPD2    H311987   2.444   4.575  12.435 -0.9678 -0.5671 -0.6756
  814MPD2     N11988   2.636   0.197  12.231 -0.0600 -0.3843  0.3921
  814MPD2    H511989   2.686   0.213  12.319  1.3011 -0.6188 -0.3358
  814MPD2    N111990   2.382   4.590  11.980 -0.1361 -0.2720  0.0068
  814MPD2    H711991   2.416   4.630  11.893  2.0372  0.6585  1.2862
  815MPD2     C11992   3.063   2.156  11.772  0.0328 -0.1582 -0.4772
  815MPD2    C111993   2.966   2.237  11.706 -0.9014  0.1088  0.1192
  815MPD2    C211994   2.846   2.261  11.770 -0.4965  0.7497 -0.3524
  815MPD2    C311995   2.827   2.223  11.901 -0.0888 -0.1826  0.2547
  815MPD2    C411996   2.920   2.147  11.962  0.6614  0.6875 -0.0147
  815MPD2    C511997   3.039   2.102  11.899 -0.5892 -0.0461  0.0196
  815MPD2     H11998   2.767   2.324  11.732 -1.7215 -0.3578  0.3583
  815MPD2    H111999   2.894   2.112  12.061  0.2943  1.2140  0.0736
  815MPD2    H212000   3.157   2.125  11.728  1.0446  2.4307 -0.1226
  815MPD2    H312001   3.112   2.044  11.955 -1.5670 -1.3501 -0.0786
  815MPD2     N12002   2.709   2.266  11.958  0.2784 -0.1093 -0.0686
  815MPD2    H512003   2.650   2.322  11.897 -0.6304  0.7244  1.5714
  815MPD2    N112004   2.998   2.273  11.570  0.0527 -0.2345  0.3230
  815MPD2    H712005   3.086   2.245  11.527  1.7367 -2.1423  4.9669
  816MPD2     C12006   3.757   1.957  17.418 -0.5287  0.0751  0.7409
  816MPD2    C112007   3.654   1.931  17.331 -0.0258 -0.1038 -0.1516
  816MPD2    C212008   3.682   1.861  17.214 -0.1402 -0.5078 -0.2885
  816MPD2    C312009   3.810   1.815  17.188 -0.2138  0.0877 -0.1486
  816MPD2    C412010   3.906   1.841  17.276 -0.1952  0.7505  0.4672
  816MPD2    C512011   3.883   1.908  17.388 -0.3262 -0.7057  0.1834
  816MPD2     H12012   3.604   1.847  17.140  1.6783 -0.8231 -2.1278
  816MPD2    H112013   4.009   1.818  17.255  0.1597  1.2264  1.6680
  816MPD2    H212014   3.748   2.004  17.516 -0.2516  1.0060  0.3152
  816MPD2    H312015   3.962   1.942  17.453 -0.0771  0.3945 -0.6912
  816MPD2     N12016   3.831   1.754  17.062 -0.2537 -0.0896  0.1235
  816MPD2    H512017   3.746   1.742  17.009 -1.0704 -0.5697  1.5516
  816MPD2    N112018   3.531   1.994  17.361  0.1412 -0.0711 -0.7154
  816MPD2    H712019   3.525   2.047  17.447 -0.0154 -0.2675 -0.6075
  817MPD2     C12020   1.965   3.912   9.706  0.6425 -0.4035 -0.4857
  817MPD2    C112021   1.953   3.876   9.570 -0.4371  0.2282 -0.1340
  817MPD2    C212022   1.872   3.942   9.489  0.1058 -0.1558 -0.1445
  817MPD2    C312023   1.807   4.063   9.533  0.9752 -0.2479  1.0393
  817MPD2    C412024   1.817   4.090   9.668 -0.0749 -0.5163 -0.1769
  817MPD2    C512025   1.889   4.011   9.749 -0.1972  0.3577  0.6319
  817MPD2     H12026   1.866   3.905   9.387  0.2158 -2.1908  0.5902
  817MPD2    H112027   1.755   4.167   9.714 -3.5892 -3.2484 -0.3150
  817MPD2    H212028   2.032   3.855   9.769 -1.0358  0.1945  1.8145
  817MPD2    H312029   1.890   4.043   9.853  0.7973  1.3449  0.3205
  817MPD2     N12030   1.725   4.138   9.441  0.0681 -0.6313 -0.1628
  817MPD2    H512031   1.721   4.117   9.341 -1.5100 -1.5257  0.0753
  817MPD2    N112032   2.023   3.763   9.519  0.0761  0.0596 -0.1749
  817MPD2    H712033   2.019   3.750   9.419  2.9162  0.1388 -0.3172
  818MPD2     C12034   1.151   3.765  10.061 -0.0112  0.0579 -0.2033
  818MPD2    C112035   1.090   3.690  10.161 -0.1835  0.0300 -0.3687
  818MPD2    C212036   1.127   3.552  10.166 -0.8266 -0.2585 -0.4514
  818MPD2    C312037   1.199   3.494  10.063 -0.0779  0.0438  0.5507
  818MPD2    C412038   1.250   3.575   9.960 -1.3634  0.0438  0.3239
  818MPD2    C512039   1.230   3.709   9.966 -0.1322 -0.2857 -0.6154
  818MPD2     H12040   1.082   3.485  10.238  0.4772 -0.9202 -0.2384
  818MPD2    H112041   1.304   3.536   9.875 -0.2250  3.3950 -0.4715
  818MPD2    H212042   1.163   3.872  10.057 -1.6561  0.2251 -0.8416
  818MPD2    H312043   1.267   3.780   9.893 -0.6644 -1.8314 -2.3932
  818MPD2     N12044   1.221   3.355  10.065  0.7236 -0.4398  0.3502
  818MPD2    H512045   1.247   3.303   9.981 -0.1133  0.0747 -0.2245
  818MPD2    N112046   1.023   3.757  10.271  0.1547  0.2571 -0.5655
  818MPD2    H712047   1.003   3.686  10.342  0.2041  0.2913 -0.5175
  819MPD2     C12048   4.527   0.546  15.483 -0.4704  0.4259 -0.0296
  819MPD2    C112049   4.574   0.418  15.459  0.6730 -0.2141  0.0998
  819MPD2    C212050   4.690   0.366  15.518 -0.2024 -0.6101 -0.5660
  819MPD2    C312051   0.035   0.440  15.609 -0.5734 -1.0323 -0.2501
  819MPD2    C412052   4.706   0.565  15.633  0.9445 -0.3654 -0.0592
  819MPD2    C512053   4.597   0.622  15.571 -0.6319  0.5476 -0.4306
  819MPD2     H12054   4.708   0.259  15.508 -3.2046 -1.2218  0.4653
  819MPD2    H112055   0.040   0.616  15.711  0.8179 -0.6957  0.2490
  819MPD2    H212056   4.443   0.583  15.424 -2.2307 -2.2055  0.8253
  819MPD2    H312057   4.564   0.722  15.599 -1.2303  0.0336  0.7253
  819MPD2     N12058   0.147   0.386  15.678 -0.5560  0.2869  0.3587
  819MPD2    H512059   0.185   0.301  15.638  0.1570 -0.1792  2.0352
  819MPD2    N112060   4.489   0.344  15.369 -0.8047 -0.5557  0.4659
  819MPD2    H712061   4.410   0.389  15.324 -0.2399  0.7008  0.7455
  820MPD2     C12062   3.849   0.758  15.174 -0.8494  0.6676  0.4400
  820MPD2    C112063   3.794   0.632  15.156 -0.4915 -0.0542 -0.2363
  820MPD2    C212064   3.872   0.521  15.181 -0.2734 -0.0092 -0.3344
  820MPD2    C312065   4.011   0.532  15.193  0.2228 -0.3921  0.3616
  820MPD2    C412066   4.066   0.657  15.211 -0.1744  0.2430  0.0067
  820MPD2    C512067   3.985   0.770  15.202  0.0858 -0.0641  0.1751
  820MPD2     H12068   3.820   0.426  15.166 -0.8073  0.3607 -0.8487
  820MPD2    H112069   4.163   0.665  15.259 -0.0314 -1.0874 -0.0542
  820MPD2    H212070   3.787   0.846  15.162  0.0326  1.3364  0.7939
  820MPD2    H312071   4.027   0.868  15.224  0.7128  0.1563 -1.9721
  820MPD2     N12072   4.097   0.412  15.197 -0.0409  0.1258 -0.0117
  820MPD2    H512073   4.197   0.430  15.209  0.1775 -0.3741 -1.0571
  820MPD2    N112074   3.657   0.606  15.133  0.5829 -0.5373 -0.2219
  820MPD2    H712075   3.626   0.509  15.128  0.0724 -0.4468  1.2709
  821MPD2     C12076   4.141   1.885  13.362  0.5535 -0.2791  0.1823
  821MPD2    C112077   4.254   1.821  13.409 -0.5865 -0.3592 -0.0614
  821MPD2    C212078   4.342   1.765  13.316  0.7174  0.1126  0.3659
  821MPD2    C312079   4.320   1.784  13.174 -0.3457  0.6549 -0.0028
  821MPD2    C412080   4.206   1.857  13.134  0.7158  0.2514  0.0006
  821MPD2    C512081   4.120   1.897  13.228  0.0431 -0.0315  0.3658
  821MPD2     H12082   4.430   1.713  13.351  1.9583  0.4707 -2.2353
  821MPD2    H112083   4.184   1.882  13.031  0.0695 -0.6070 -0.0762
  821MPD2    H212084   4.069   1.921  13.435  3.1428  1.3476  1.9399
  821MPD2    H312085   4.029   1.947  13.195  1.2004 -0.4364 -3.3890
  821MPD2     N12086   4.397   1.729  13.071  0.7318 -0.3242  0.1376
  821MPD2    H512087   4.372   1.750  12.975 -2.8694  1.4573  1.4648
  821MPD2    N112088   4.277   1.795  13.547  0.4674 -0.1050 -0.3232
  821MPD2    H712089   4.366   1.752  13.573  0.8423 -0.5520 -2.4102
  822MPD2     C12090   0.050   1.720  15.824 -0.0431  0.8689  0.1459
  822MPD2    C112091   0.159   1.756  15.895 -0.1723  0.3656 -0.0665
  822MPD2    C212092   0.145   1.849  15.997  0.4009  0.2923 -0.2210
  822MPD2    C312093   0.024   1.901  16.029  0.3213  0.0544  0.1958
  822MPD2    C412094   4.634   1.864  15.961 -0.9572 -0.0484 -0.1934
  822MPD2    C512095   4.657   1.782  15.855  0.9173 -0.2282  0.1894
  822MPD2     H12096   0.227   1.870  16.066 -0.2857 -0.3493  0.7792
  822MPD2    H112097   4.533   1.898  15.982 -1.1217 -0.6657 -0.0083
  822MPD2    H212098   0.052   1.639  15.752 -1.3222  1.9673 -1.1280
  822MPD2    H312099   4.563   1.749  15.811  1.9034  0.6926 -2.6018
  822MPD2     N12100   0.024   2.001  16.133 -0.2595 -0.0477  0.2067
  822MPD2    H512101   0.111   2.022  16.181 -0.3886 -1.9548  1.2601
  822MPD2    N112102   0.284   1.690  15.881  0.4964  0.2756  0.0245
  822MPD2    H712103   0.347   1.713  15.958  1.5918  0.5338 -0.9526
  823MPD2     C12104   4.717   2.254  16.988 -0.0977  0.3985 -0.1783
  823MPD2    C112105   4.713   2.172  16.875 -0.6904 -0.0792  0.4012
  823MPD2    C212106   0.062   2.054  16.880  0.2502 -0.2363 -0.3389
  823MPD2    C312107   0.120   2.013  16.997 -0.1969 -0.1013  0.4016
  823MPD2    C412108   0.125   2.094  17.109  0.3512  1.0041 -0.2086
  823MPD2    C512109   0.055   2.214  17.100 -0.2381  0.2973 -0.0063
  823MPD2     H12110   0.068   2.005  16.783 -2.0087  0.7552 -0.9645
  823MPD2    H112111   0.174   2.064  17.201 -0.2015 -0.0023 -0.2441
  823MPD2    H212112   4.658   2.345  16.986 -1.5221 -0.4890  1.3573
  823MPD2    H312113   0.043   2.278  17.186 -2.2699  0.6562 -0.5689
  823MPD2     N12114   0.192   1.893  17.004 -0.7451 -0.0774 -0.0050
  823MPD2    H512115   0.246   1.864  17.084 -3.6955  0.4544  2.1932
  823MPD2    N112116   4.632   2.212  16.763  0.4290 -0.0514 -0.7069
  823MPD2    H712117   4.591   2.304  16.767 -1.6633 -0.9444 -1.2326
  824MPD2     C12118   0.634   0.994  15.552  0.4795 -0.4189  0.8360
  824MPD2    C112119   0.741   1.052  15.612  0.3256  0.4659  0.3351
  824MPD2    C212120   0.868   0.993  15.611  0.5003  0.2779 -0.2012
  824MPD2    C312121   0.881   0.872  15.551  0.1115 -0.9064  0.0622
  824MPD2    C412122   0.770   0.821  15.481 -0.2033  0.1266 -0.7581
  824MPD2    C512123   0.651   0.880  15.475  0.3638 -0.3543  0.0911
  824MPD2     H12124   0.957   1.046  15.643  1.1729 -0.8436 -0.2044
  824MPD2    H112125   0.780   0.733  15.419  0.1437 -0.1452 -0.3166
  824MPD2    H212126   0.535   1.037  15.554  1.5093  1.8668  1.9364
  824MPD2    H312127   0.570   0.847  15.412 -0.6676 -0.8108  1.6492
  824MPD2     N12128   1.012   0.814  15.538  0.1691 -0.0277 -0.0580
  824MPD2    H512129   1.087   0.871  15.576 -0.7705 -0.1409  1.9774
  824MPD2    N112130   0.729   1.190  15.648 -0.3293 -0.6268  0.1395
  824MPD2    H712131   0.809   1.236  15.692 -1.2699  1.8340 -0.7194
  825MPD2     C12132   1.701   1.006  15.080 -0.2837 -0.2839 -0.4416
  825MPD2    C112133   1.597   1.033  15.169  0.7136 -0.3351  0.7386
  825MPD2    C212134   1.561   1.165  15.191 -0.2502  0.3561 -0.6346
  825MPD2    C312135   1.615   1.266  15.112  0.0953  0.8945  0.0521
  825MPD2    C412136   1.704   1.234  15.010 -0.0738  0.1653 -0.0443
  825MPD2    C512137   1.742   1.104  14.995 -0.2181 -0.3101 -0.2703
  825MPD2     H12138   1.485   1.184  15.266  0.7149  0.7976  0.2260
  825MPD2    H112139   1.745   1.314  14.950 -1.8483  0.9724 -0.1760
  825MPD2    H212140   1.732   0.906  15.050 -0.5833  0.2991 -2.7375
  825MPD2    H312141   1.827   1.075  14.934 -0.7521 -1.1550 -0.6191
  825MPD2     N12142   1.564   1.398  15.105 -0.0037 -0.2182 -0.1059
  825MPD2    H512143   1.603   1.466  15.040  1.7239 -0.7621  0.3622
  825MPD2    N112144   1.541   0.922  15.243 -0.4075  0.0394 -0.5983
  825MPD2    H712145   1.579   0.831  15.217  0.0753  0.0388  0.1032
  826MPD2     C12146   0.361   0.777  13.787  0.0612  0.0445  0.0649
  826MPD2    C112147   0.449   0.814  13.688  0.3411 -0.6031 -0.4194
  826MPD2    C212148   0.465   0.952  13.658 -0.0140  0.6280  0.3685
  826MPD2    C312149   0.391   1.043  13.737  0.5917  0.2265  0.0542
  826MPD2    C412150   0.291   1.000  13.821  0.1979  0.4160 -0.4526
  826MPD2    C512151   0.271   0.867  13.839 -0.6731 -0.0045 -0.6704
  826MPD2     H12152   0.530   0.986  13.578 -1.3906  0.2955 -0.8844
  826MPD2    H112153   0.221   1.068  13.870  1.8925  0.4616  1.9098
  826MPD2    H212154   0.343   0.674  13.816 -1.5972 -0.0986 -1.4852
  826MPD2    H312155   0.203   0.836  13.917 -0.3467  1.7013  0.3029
  826MPD2     N12156   0.401   1.183  13.730  0.0729  0.5041  0.3388
  826MPD2    H512157   0.328   1.234  13.778  0.6842  0.2742  1.4893
  826MPD2    N112158   0.530   0.711  13.634  0.2255  0.0232  0.0296
  826MPD2    H712159   0.530   0.624  13.686 -1.5020  0.1587  0.2535
  827MPD2     C12160   1.486   2.849   9.880 -0.5420  0.3300 -0.1653
  827MPD2    C112161   1.496   2.711   9.865 -0.4095 -0.0740 -0.7468
  827MPD2    C212162   1.391   2.637   9.803  0.0805  0.3169  0.5141
  827MPD2    C312163   1.291   2.704   9.728  0.0727  0.4581 -0.0922
  827MPD2    C412164   1.295   2.844   9.729 -0.2858 -0.4865 -0.6432
  827MPD2    C512165   1.385   2.910   9.812  0.7731  0.7832 -0.0444
  827MPD2     H12166   1.390   2.528   9.799  0.1331  0.2984  0.9539
  827MPD2    H112167   1.218   2.900   9.678  0.3197  0.1348 -0.8736
  827MPD2    H212168   1.563   2.894   9.941  0.8278 -0.7347 -1.1165
  827MPD2    H312169   1.378   3.018   9.812  0.1791  0.7503 -2.2567
  827MPD2     N12170   1.204   2.628   9.644  0.2470 -0.0120  0.1309
  827MPD2    H512171   1.204   2.529   9.667 -3.7496  0.3189  1.6778
  827MPD2    N112172   1.607   2.652   9.932  0.2107 -0.0726 -0.4396
  827MPD2    H712173   1.678   2.711   9.974 -0.5954  0.3782  0.2954
  828MPD2     C12174   0.405   2.465  11.972 -0.7782 -0.4006  0.0315
  828MPD2    C112175   0.290   2.420  11.911  0.3519  1.0104 -0.3306
  828MPD2    C212176   0.292   2.334  11.798  0.2425 -0.4192  0.1347
  828MPD2    C312177   0.413   2.302  11.743  0.8082 -0.7918 -0.1025
  828MPD2    C412178   0.529   2.359  11.793 -0.8855  0.2897 -0.0412
  828MPD2    C512179   0.522   2.433  11.910 -0.0860  0.0416  0.0798
  828MPD2     H12180   0.196   2.305  11.755  0.9985  1.9169 -3.1470
  828MPD2    H112181   0.623   2.337  11.744 -1.0067 -1.1364  0.3556
  828MPD2    H212182   0.406   2.541  12.049 -1.1645  0.7352 -1.0911
  828MPD2    H312183   0.608   2.481  11.956 -1.3119 -0.4336  2.9039
  828MPD2     N12184   0.425   2.207  11.637  0.2718  0.1410 -0.1987
  828MPD2    H512185   0.514   2.194  11.590  0.9240  3.3713  0.1184
  828MPD2    N112186   0.159   2.473  11.941 -0.3620 -0.1781 -0.0441
  828MPD2    H712187   0.073   2.444  11.895 -1.2514  0.8236  0.9847
  829MPD2     C12188   4.246   2.868  11.451 -0.3198 -0.0764 -0.3082
  829MPD2    C112189   4.166   2.817  11.549  0.6584  0.6624 -0.8752
  829MPD2    C212190   4.226   2.766  11.666  0.0087  0.0704 -0.2392
  829MPD2    C312191   4.364   2.772  11.679  0.4106 -0.0919 -0.4131
  829MPD2    C412192   4.445   2.824  11.578  0.5320  0.1718 -0.0697
  829MPD2    C512193   4.384   2.869  11.470 -0.7087 -0.7351 -0.0921
  829MPD2     H12194   4.163   2.732  11.747  0.0713  0.5387  0.0042
  829MPD2    H112195   4.552   2.833  11.585  0.5480  0.4399 -0.6502
  829MPD2    H212196   4.208   2.915  11.361 -1.0995  0.1377  0.1346
  829MPD2    H312197   4.451   2.919  11.400 -1.9460  1.5545  0.3548
  829MPD2     N12198   4.444   2.716  11.783 -0.3376 -0.2308  0.4359
  829MPD2    H512199   4.543   2.739  11.791  0.0648 -0.9634 -2.6743
  829MPD2    N112200   4.026   2.833  11.530  0.0594  0.0894 -0.5637
  829MPD2    H712201   4.006   2.879  11.442  1.1526 -0.1714 -0.9536
  830MPD2     C12202   0.971   0.159  15.613 -0.5403  0.0646 -0.2080
  830MPD2    C112203   0.862   0.215  15.559  0.5384 -0.1079  0.1585
  830MPD2    C212204   0.878   0.279  15.438 -0.3280 -0.7739 -0.2381
  830MPD2    C312205   0.999   0.281  15.370  0.4870 -0.0401 -0.0284
  830MPD2    C412206   1.113   0.229  15.424  0.8787  0.4953  0.2926
  830MPD2    C512207   1.091   0.169  15.544  0.4127  0.6064  0.0527
  830MPD2     H12208   0.786   0.324  15.401  0.4413  0.0989 -1.1016
  830MPD2    H112209   1.210   0.227  15.377  0.4403 -0.7695 -0.5749
  830MPD2    H212210   0.962   0.112  15.710 -2.4172 -1.3400 -1.0705
  830MPD2    H312211   1.176   0.124  15.593  0.1198  2.8783  2.6095
  830MPD2     N12212   0.999   0.344  15.243  0.3477 -0.0738 -0.4575
  830MPD2    H512213   0.913   0.355  15.190 -0.3045 -1.1054  0.3718
  830MPD2    N112214   0.751   0.204  15.642  0.0543  0.1251 -0.0703
  830MPD2    H712215   0.763   0.170  15.737  1.7410  0.8413 -0.0369
  831MPD2     C12216   0.406   2.144  16.394  0.6576  0.3019  0.4077
  831MPD2    C112217   0.383   2.044  16.304  0.0778  0.3045  0.2358
  831MPD2    C212218   0.288   1.947  16.327  0.2180 -1.1010 -0.3256
  831MPD2    C312219   0.223   1.941  16.451 -1.1059  0.0343 -0.5699
  831MPD2    C412220   0.264   2.028  16.546  0.3049 -0.3728 -0.2734
  831MPD2    C512221   0.351   2.130  16.516  0.0039 -0.3455 -0.2245
  831MPD2     H12222   0.268   1.869  16.254  2.0518 -1.6187 -0.2687
  831MPD2    H112223   0.225   2.019  16.647  2.5440 -0.5366  0.5784
  831MPD2    H212224   0.482   2.219  16.378  1.9755 -1.0160  0.4254
  831MPD2    H312225   0.388   2.186  16.601  0.6784  0.2036 -0.8751
  831MPD2     N12226   0.129   1.846  16.493 -0.7881  0.1510 -0.1533
  831MPD2    H512227   0.093   1.854  16.587  0.8253  2.9005  0.2553
  831MPD2    N112228   0.450   2.057  16.177 -0.4394 -0.3365  0.3104
  831MPD2    H712229   0.491   2.147  16.154 -2.8534  1.2631  2.1495
  832MPD2     C12230   3.488   2.879  17.381  0.3802  0.3484 -0.4165
  832MPD2    C112231   3.484   3.012  17.350 -0.2040  0.0296  0.1766
  832MPD2    C212232   3.372   3.058  17.271  0.7072  0.3680  0.0579
  832MPD2    C312233   3.273   2.967  17.228 -0.0445  0.6533 -0.2844
  832MPD2    C412234   3.284   2.837  17.262  0.2342  0.1204 -0.5677
  832MPD2    C512235   3.395   2.791  17.330  0.1102  0.6143 -1.1227
  832MPD2     H12236   3.346   3.163  17.264 -2.4322 -0.3867  0.5056
  832MPD2    H112237   3.208   2.762  17.244 -0.6385  0.8146  0.2150
  832MPD2    H212238   3.559   2.839  17.452  0.2895 -0.9490 -1.0410
  832MPD2    H312239   3.396   2.687  17.360 -0.4994  1.5898  2.2459
  832MPD2     N12240   3.154   3.003  17.164  0.2492  0.0075  0.5247
  832MPD2    H512241   3.082   2.934  17.145 -0.2114  0.5677  0.2208
  832MPD2    N112242   3.586   3.091  17.407  0.0649  0.2963 -0.8423
  832MPD2    H712243   3.651   3.040  17.465 -2.3088 -2.1881 -0.3625
  833MPD2     C12244   0.850   4.638  12.492  1.0418 -1.0438 -0.6425
  833MPD2    C112245   0.854   0.045  12.540  0.8770 -0.9435 -0.3098
  833MPD2    C212246   0.982   0.099  12.560 -0.1024  0.5592  0.5354
  833MPD2    C312247   1.090   0.022  12.527 -0.2093 -0.4223 -0.2352
  833MPD2    C412248   1.077   4.613  12.487 -0.1577  0.1906 -0.5143
  833MPD2    C512249   0.958   4.556  12.468  0.3260  0.1295  0.8927
  833MPD2     H12250   1.009   0.189  12.613  1.1991  0.8338 -0.5910
  833MPD2    H112251   1.166   4.553  12.471 -1.9220 -2.6505  0.3386
  833MPD2    H212252   0.753   4.591  12.478 -0.3107  1.8658 -0.9348
  833MPD2    H312253   0.955   4.452  12.439 -1.2068 -0.0430  1.6873
  833MPD2     N12254   1.221   0.074  12.527 -0.4434 -0.2162  0.2918
  833MPD2    H512255   1.286   0.027  12.464  0.4503  0.6512  0.5653
  833MPD2    N112256   0.730   0.118  12.552 -0.3204  0.0579  0.3982
  833MPD2    H712257   0.654   0.059  12.519 -0.5063  1.4081 -1.5147
  834MPD2     C12258   1.334   4.668  11.755 -0.1037  0.2469  0.2168
  834MPD2    C112259   1.225   0.027  11.792  0.1072 -0.0303  0.4802
  834MPD2    C212260   1.239   0.106  11.903 -0.2919 -0.4361  0.3381
  834MPD2    C312261   1.355   0.111  11.974 -0.0589 -0.0620 -0.0901
  834MPD2    C412262   1.461   0.031  11.940  0.0061 -0.1963  0.1815
  834MPD2    C512263   1.456   4.682  11.825  0.2705  0.4179 -0.2199
  834MPD2     H12264   1.158   0.170  11.935  0.9520  0.4746  1.6311
  834MPD2    H112265   1.547   0.013  12.004  2.1578  1.7987 -2.1706
  834MPD2    H212266   1.332   4.593  11.676 -1.2099  1.9484 -1.3643
  834MPD2    H312267   1.547   4.633  11.792 -1.7344 -1.6646 -2.6400
  834MPD2     N12268   1.347   0.174  12.098 -0.3271  0.0686  0.1789
  834MPD2    H512269   1.260   0.214  12.133 -0.0093 -0.2807  1.3376
  834MPD2    N112270   1.101   0.032  11.718  0.1247 -0.5618 -0.6643
  834MPD2    H712271   1.029   0.100  11.744 -0.3618 -0.1586 -3.0843
  835MPD2     C12272   0.855   1.913  11.168  0.6492  0.0705  0.1967
  835MPD2    C112273   0.815   2.049  11.168  0.0884 -0.5406 -0.1213
  835MPD2    C212274   0.885   2.139  11.232  0.2835 -0.3400 -0.0618
  835MPD2    C312275   0.996   2.106  11.303 -0.2833  0.0431 -0.6615
  835MPD2    C412276   1.037   1.977  11.303  0.2247  0.0748  0.3945
  835MPD2    C512277   0.968   1.884  11.228 -0.0288  0.2735  0.8210
  835MPD2     H12278   0.850   2.242  11.234 -0.8020 -0.7021 -0.1728
  835MPD2    H112279   1.128   1.944  11.352 -0.4077 -0.4339  1.2347
  835MPD2    H212280   0.813   1.834  11.107 -0.8037  0.0792  1.1855
  835MPD2    H312281   1.002   1.781  11.223 -2.3685 -0.4102 -1.3124
  835MPD2     N12282   1.057   2.196  11.394 -0.4189  0.4105 -0.2104
  835MPD2    H512283   1.142   2.173  11.445 -1.2211  0.6939  1.2572
  835MPD2    N112284   0.714   2.102  11.084  0.7585 -0.8149 -0.2961
  835MPD2    H712285   0.698   2.201  11.104  3.6386 -0.6541  1.3156
  836MPD2     C12286   1.028   2.766  12.111 -0.0699  0.0197 -0.1081
  836MPD2    C112287   0.982   2.651  12.049  0.1510  0.7718 -0.0318
  836MPD2    C212288   0.867   2.588  12.097  0.6043 -0.5130  0.3331
  836MPD2    C312289   0.810   2.638  12.214 -0.5295  0.8044 -0.4268
  836MPD2    C412290   0.852   2.751  12.268  0.2060 -0.4050  0.0196
  836MPD2    C512291   0.966   2.811  12.225 -0.7330 -0.2738 -0.3803
  836MPD2     H12292   0.837   2.494  12.053 -0.2041 -0.2481  0.3283
  836MPD2    H112293   0.813   2.782  12.365 -1.1064 -0.1960 -0.5806
  836MPD2    H212294   1.119   2.814  12.078 -0.2898  0.5493  0.0689
  836MPD2    H312295   1.021   2.883  12.285 -2.3936  0.3013  0.4340
  836MPD2     N12296   0.712   2.571  12.293 -0.1895 -0.3874 -0.2112
  836MPD2    H512297   0.679   2.617  12.377 -4.0963  1.0253 -2.5264
  836MPD2    N112298   1.054   2.606  11.936 -0.6581 -0.1627 -0.5682
  836MPD2    H712299   1.142   2.653  11.916 -0.7269  0.5391  0.7846
  837MPD2     C12300   3.954   1.971   9.798 -0.7893  0.1909  0.0476
  837MPD2    C112301   3.878   2.017   9.693 -0.5897 -0.4223 -0.1010
  837MPD2    C212302   3.896   2.147   9.653  0.1737 -0.3445  0.2809
  837MPD2    C312303   3.971   2.242   9.721  1.1288 -0.2352  0.9316
  837MPD2    C412304   4.036   2.200   9.833 -0.0948 -0.0813  0.1980
  837MPD2    C512305   4.031   2.064   9.866  0.3353  0.9679  0.0369
  837MPD2     H12306   3.843   2.182   9.565  0.7090 -1.0777 -0.3360
  837MPD2    H112307   4.101   2.268   9.886 -1.1018  0.2885  0.9375
  837MPD2    H212308   3.942   1.868   9.831 -0.7686 -0.1039 -0.8628
  837MPD2    H312309   4.091   2.034   9.951  1.1346  2.5946  0.0560
  837MPD2     N12310   3.970   2.371   9.665  0.4811  0.2580  0.2061
  837MPD2    H512311   3.917   2.384   9.580  1.4149  1.2463 -0.2252
  837MPD2    N112312   3.780   1.937   9.628 -0.1559 -0.1363  0.0082
  837MPD2    H712313   3.738   1.995   9.557 -0.7778 -0.9647 -0.3022
  838MPD2     C12314   2.314   0.898  11.754 -0.8798 -0.2279 -0.2067
  838MPD2    C112315   2.315   0.761  11.779 -0.1879  0.3784  0.1436
  838MPD2    C212316   2.206   0.704  11.840 -0.1248  0.1790  0.1380
  838MPD2    C312317   2.098   0.788  11.870 -0.0319 -0.1301  0.1159
  838MPD2    C412318   2.101   0.927  11.856 -0.3407 -0.0533  0.0723
  838MPD2    C512319   2.211   0.977  11.786  0.0289  0.3516  1.0713
  838MPD2     H12320   2.199   0.596  11.847  0.5332  0.1258 -0.0830
  838MPD2    H112321   2.035   0.996  11.907 -1.6017 -2.1167  1.2216
  838MPD2    H212322   2.401   0.939  11.706 -1.4011 -0.1788 -1.1024
  838MPD2    H312323   2.221   1.084  11.777  0.0425  0.3542  1.1166
  838MPD2     N12324   1.987   0.724  11.930  0.1329 -0.0190 -0.1469
  838MPD2    H512325   1.990   0.624  11.945  2.0396  0.5904  3.7736
  838MPD2    N112326   2.422   0.680  11.731 -0.4881  0.6740  0.5943
  838MPD2    H712327   2.409   0.583  11.758  2.3670 -0.1663 -1.0802
  839MPD2     C12328   2.066   4.714  11.727  0.5868 -0.4829 -0.1205
  839MPD2    C112329   2.079   0.005  11.593 -0.3244  0.0316 -0.2637
  839MPD2    C212330   2.177   0.087  11.541 -0.6117  0.3449  0.2255
  839MPD2    C312331   2.260   0.156  11.623  0.1888 -0.3855 -0.0593
  839MPD2    C412332   2.253   0.131  11.758  0.0613 -0.0534  0.6481
  839MPD2    C512333   2.159   0.051  11.811 -0.0753  0.1392 -0.0050
  839MPD2     H12334   2.176   0.097  11.434  0.0643  0.8818  0.2728
  839MPD2    H112335   2.323   0.174  11.828  0.4756 -2.0196  1.4415
  839MPD2    H212336   2.002   4.644  11.779  1.8942 -0.9539  0.8483
  839MPD2    H312337   2.148   0.032  11.917 -0.2584 -0.6573 -0.1653
  839MPD2     N12338   2.354   0.254  11.584  0.0665  0.3500  0.1457
  839MPD2    H512339   2.392   0.303  11.664  0.2457  1.1241 -0.4134
  839MPD2    N112340   1.991   4.663  11.499 -0.1742 -0.6568 -0.0790
  839MPD2    H712341   2.020   4.661  11.402 -0.1415  0.6245 -0.0945
  840MPD2     C12342   2.079   2.959  10.192  0.6671  0.4638  0.4765
  840MPD2    C112343   2.094   2.832  10.248 -0.6188 -0.3854  0.3843
  840MPD2    C212344   2.192   2.819  10.345  0.2763  0.3995 -0.1739
  840MPD2    C312345   2.269   2.924  10.385 -1.2347 -0.3674 -0.2340
  840MPD2    C412346   2.254   3.040  10.325 -0.0814 -0.5470  0.0052
  840MPD2    C512347   2.154   3.062  10.234  0.2813  0.7616 -0.3259
  840MPD2     H12348   2.206   2.721  10.389 -2.1329  0.9479  1.8304
  840MPD2    H112349   2.319   3.115  10.368 -1.3777  1.0937 -0.9067
  840MPD2    H212350   1.994   2.982  10.129 -0.3005 -1.7061  0.9819
  840MPD2    H312351   2.128   3.164  10.208  0.2060  0.3237 -1.9726
  840MPD2     N12352   2.370   2.912  10.487  0.4091 -0.2975 -0.0724
  840MPD2    H512353   2.440   2.985  10.496 -0.2920  0.5109 -1.2788
  840MPD2    N112354   2.006   2.726  10.211  0.4118  0.9897  0.8281
  840MPD2    H712355   1.938   2.755  10.141  0.7900 -0.0303  0.0295
  841MPD2     C12356   1.908   1.816  14.686  0.0477  0.4402  0.1544
  841MPD2    C112357   1.913   1.794  14.549 -0.9465 -0.0095 -0.9057
  841MPD2    C212358   1.931   1.899  14.461 -0.3749 -0.1979 -0.7573
  841MPD2    C312359   1.941   2.028  14.507  0.7902 -0.5257  0.0919
  841MPD2    C412360   1.948   2.051  14.649 -0.4907 -0.0417 -0.1544
  841MPD2    C512361   1.934   1.944  14.732  0.6605  0.1947  0.0232
  841MPD2     H12362   1.914   1.879  14.356  2.1748 -3.9918 -0.4245
  841MPD2    H112363   1.944   2.150  14.694 -0.0933 -0.5340  0.9627
  841MPD2    H212364   1.901   1.740  14.763  0.4459  0.3757  0.1258
  841MPD2    H312365   1.941   1.978  14.834  2.6360 -0.6368  0.1568
  841MPD2     N12366   1.938   2.129  14.408 -0.1720  0.6647 -0.3653
  841MPD2    H512367   1.938   2.101  14.310 -1.0910  1.0339 -0.4772
  841MPD2    N112368   1.882   1.666  14.490 -0.2924 -0.2278 -0.3198
  841MPD2    H712369   1.889   1.650  14.390 -1.9183 -3.2445  0.0791
  842MPD2     C12370   2.578   3.378  16.591  0.1170  0.3723 -0.0802
  842MPD2    C112371   2.540   3.253  16.638  0.4861  0.1305 -0.0387
  842MPD2    C212372   2.563   3.225  16.773  0.3833  0.0480 -0.1173
  842MPD2    C312373   2.618   3.316  16.860 -0.5556  0.5376  0.0410
  842MPD2    C412374   2.649   3.447  16.806  0.2189 -0.3612 -0.1938
  842MPD2    C512375   2.631   3.474  16.673 -0.2394 -0.3812 -0.0223
  842MPD2     H12376   2.512   3.141  16.819 -1.2908  0.9419 -0.3245
  842MPD2    H112377   2.706   3.519  16.864 -0.5597 -1.6225  2.1618
  842MPD2    H212378   2.574   3.401  16.485 -0.4118  1.3007  0.1423
  842MPD2    H312379   2.642   3.573  16.631  3.6177 -1.4246 -1.4750
  842MPD2     N12380   2.628   3.307  16.998 -0.0010  0.4868 -0.2838
  842MPD2    H512381   2.650   3.398  17.036  1.7012  0.6354 -1.6356
  842MPD2    N112382   2.491   3.154  16.550  0.5117  0.2798  0.0301
  842MPD2    H712383   2.487   3.182  16.452  1.4877 -3.3675 -1.0718
  843MPD2     C12384   0.049   3.455   0.278  0.6811  0.1093 -0.2072
  843MPD2    C112385   0.176   3.395   0.281 -0.2115 -0.1561 -0.7165
  843MPD2    C212386   0.281   3.478   0.238 -0.9031  0.2371  1.5180
  843MPD2    C312387   0.262   3.606   0.201 -0.3733  0.3158 -0.1599
  843MPD2    C412388   0.138   3.652   0.188  0.2943 -0.7558  0.0120
  843MPD2    C512389   0.031   3.581   0.231  1.0042 -0.1662 -0.2681
  843MPD2     H12390   0.383   3.443   0.247 -0.1323  2.3366  0.8316
  843MPD2    H112391   0.119   3.743   0.132 -0.3638 -0.2866  0.9943
  843MPD2    H212392   4.686   3.395   0.307  0.9451  1.0545  2.5021
  843MPD2    H312393   4.655   3.625   0.228  1.6334  1.3117  0.8749
  843MPD2     N12394   0.368   3.689   0.156 -0.3029  0.0091  0.5805
  843MPD2    H512395   0.346   3.779   0.117 -0.1572  0.9540  2.6651
  843MPD2    N112396   0.184   3.261   0.318 -1.0940 -0.5726  0.2092
  843MPD2    H712397   0.099   3.216   0.352 -1.7928  0.5703  0.0121
  844MPD2     C12398   2.937   2.182  16.625  0.3426  0.4095  0.1939
  844MPD2    C112399   3.033   2.229  16.536 -0.0103 -0.1018 -0.3870
  844MPD2    C212400   3.102   2.344  16.562  0.2644  0.0266 -0.4490
  844MPD2    C312401   3.085   2.404  16.684  0.5365  0.2776 -0.1001
  844MPD2    C412402   2.992   2.359  16.776 -0.2022 -0.6632  0.1702
  844MPD2    C512403   2.922   2.249  16.744  0.1096  0.4218  0.1118
  844MPD2     H12404   3.176   2.374  16.489  0.8122 -0.2621 -0.0138
  844MPD2    H112405   2.983   2.401  16.876 -2.6093 -1.3605  0.2333
  844MPD2    H212406   2.875   2.094  16.611  0.8173  0.1272 -0.1135
  844MPD2    H312407   2.840   2.220  16.809  0.2962 -3.7475 -1.4718
  844MPD2     N12408   3.167   2.515  16.712 -0.3721  1.0789  0.5769
  844MPD2    H512409   3.231   2.548  16.640 -1.7956  1.0283 -0.6915
  844MPD2    N112410   3.055   2.164  16.412  0.1169  0.0474 -0.4286
  844MPD2    H712411   3.113   2.210  16.342 -0.8421  2.9002  0.6644
  845MPD2     C12412   3.331   3.490  16.540  0.2652 -0.1565  0.3598
  845MPD2    C112413   3.353   3.463  16.670  0.0323  0.4478  0.1432
  845MPD2    C212414   3.339   3.330  16.716  0.5912  0.4034  0.0218
  845MPD2    C312415   3.305   3.230  16.633 -0.1555 -0.1917 -0.7051
  845MPD2    C412416   3.306   3.250  16.493  0.8373 -0.3162 -0.5996
  845MPD2    C512417   3.305   3.386  16.459  0.3771 -0.2454 -0.3537
  845MPD2     H12418   3.334   3.307  16.822  0.2085  0.7490  0.0785
  845MPD2    H112419   3.286   3.171  16.422 -0.7542 -0.5941  0.1630
  845MPD2    H212420   3.341   3.588  16.493  2.5903  0.3694  1.9248
  845MPD2    H312421   3.291   3.404  16.353  0.9206  1.8337 -0.0585
  845MPD2     N12422   3.318   3.102  16.694  0.3430  0.3767  0.0889
  845MPD2    H512423   3.348   3.106  16.791  0.8832  0.1304 -0.0688
  845MPD2    N112424   3.380   3.572  16.754 -1.0363  0.1470  0.4006
  845MPD2    H712425   3.399   3.663  16.713  1.9392 -0.2987  0.7786
  846MPD2     C12426   0.491   3.870  14.066 -0.4812  0.1120 -0.1039
  846MPD2    C112427   0.355   3.910  14.069  0.3086  0.4876  0.5921
  846MPD2    C212428   0.279   3.908  14.189 -0.3618 -0.0530  1.0964
  846MPD2    C312429   0.346   3.872  14.305  0.1070  0.4947  0.6725
  846MPD2    C412430   0.478   3.842  14.304  0.4251  0.1442  0.0367
  846MPD2    C512431   0.550   3.845  14.187  0.3305  0.2301 -0.0920
  846MPD2     H12432   0.178   3.945  14.176  0.3622  1.3163 -0.6171
  846MPD2    H112433   0.530   3.817  14.396  0.9602 -0.3517 -0.3990
  846MPD2    H212434   0.549   3.877  13.975 -0.2319  0.1270  0.0565
  846MPD2    H312435   0.654   3.816  14.192  0.6298  1.1571 -0.9690
  846MPD2     N12436   0.268   3.883  14.431 -0.0650  0.0310  0.1010
  846MPD2    H512437   0.171   3.913  14.436 -0.5287 -1.4038 -0.2773
  846MPD2    N112438   0.288   3.966  13.955 -0.4150  0.7416 -0.8245
  846MPD2    H712439   0.192   3.992  13.974 -0.5679  0.9006 -1.8466
  847MPD2     C12440   0.388   0.052  14.265  0.5951  0.6083  0.3315
  847MPD2    C112441   0.503   0.124  14.288  0.2343  0.5543 -0.5891
  847MPD2    C212442   0.603   0.076  14.361  1.3423 -1.1080  0.4936
  847MPD2    C312443   0.599   4.673  14.412  0.7040 -0.4683 -0.1814
  847MPD2    C412444   0.492   4.595  14.392 -0.3889  0.7543  0.2105
  847MPD2    C512445   0.383   4.645  14.322 -0.4764  0.7496  0.3424
  847MPD2     H12446   0.682   0.142  14.394  0.6804 -0.4737  0.7867
  847MPD2    H112447   0.490   4.496  14.435 -2.2674 -0.1963 -2.1290
  847MPD2    H212448   0.305   0.083  14.202 -1.6146  0.7114  3.2799
  847MPD2    H312449   0.294   4.583  14.315 -0.2146  0.1569  2.1350
  847MPD2     N12450   0.709   4.640  14.486 -0.3406  0.2734 -0.7092
  847MPD2    H512451   0.775   4.717  14.483 -0.8238  0.7002 -0.2821
  847MPD2    N112452   0.516   0.263  14.257 -0.1753  0.8265 -0.1068
  847MPD2    H712453   0.601   0.310  14.286  0.6544  0.7010 -2.3155
  848MPD2     C12454   2.979   3.219  16.410  0.2018 -0.8104 -0.4527
  848MPD2    C112455   2.952   3.289  16.526  0.3106 -0.3202 -0.4561
  848MPD2    C212456   2.913   3.427  16.521 -0.4065 -0.5801  0.2114
  848MPD2    C312457   2.899   3.487  16.398 -0.3077  0.2619  0.6374
  848MPD2    C412458   2.923   3.412  16.283  0.4763 -0.0365  0.2339
  848MPD2    C512459   2.973   3.282  16.288 -0.0689 -0.4367 -0.2288
  848MPD2     H12460   2.881   3.476  16.612  1.6392  0.9575  0.0836
  848MPD2    H112461   2.913   3.452  16.182 -0.8833  3.1848  1.6523
  848MPD2    H212462   3.007   3.115  16.408  2.2273 -0.2425 -0.8206
  848MPD2    H312463   3.000   3.231  16.196 -0.2025  1.0537 -1.1047
  848MPD2     N12464   2.850   3.616  16.380 -0.6504 -0.2616 -0.3135
  848MPD2    H512465   2.832   3.635  16.282  1.0094  1.9502 -0.1732
  848MPD2    N112466   2.952   3.230  16.654 -0.0729 -0.3989 -0.3101
  848MPD2    H712467   2.945   3.292  16.734  0.9157 -1.2405  0.4285
  849MPD2     C12468   2.521   2.844  14.268  0.7082 -0.5323  0.2127
  849MPD2    C112469   2.569   2.867  14.144 -0.3755  0.3726 -0.2364
  849MPD2    C212470   2.686   2.809  14.108 -0.0170 -0.0417 -0.0339
  849MPD2    C312471   2.763   2.733  14.196 -0.4187  0.0111 -0.3956
  849MPD2    C412472   2.710   2.707  14.321  0.3510  0.4437 -0.2532
  849MPD2    C512473   2.594   2.771  14.362 -0.5652  0.4125  0.3868
  849MPD2     H12474   2.713   2.833  14.006  0.5384 -0.8944 -0.0875
  849MPD2    H112475   2.760   2.648  14.397 -0.7905  0.8126  0.7805
  849MPD2    H212476   2.437   2.899  14.308  1.7675  1.3510 -0.1555
  849MPD2    H312477   2.550   2.745  14.458 -1.5223 -0.2412 -0.2303
  849MPD2     N12478   2.884   2.671  14.159 -0.0878  0.9473 -0.1448
  849MPD2    H512479   2.929   2.601  14.217 -1.0364  1.3082  1.0358
  849MPD2    N112480   2.508   2.960  14.053 -0.4811 -0.2831  0.2917
  849MPD2    H712481   2.564   2.967  13.969  0.4621 -0.0917  0.9229
  850MPD2     C12482   0.207   0.867  14.656  0.0064  0.1283 -0.4472
  850MPD2    C112483   0.187   0.961  14.755 -0.2090 -0.1817  0.2626
  850MPD2    C212484   0.287   1.051  14.782 -1.1236  0.2789  0.1810
  850MPD2    C312485   0.416   1.046  14.727 -0.3115 -0.0921  1.3831
  850MPD2    C412486   0.435   0.955  14.618  0.1299  0.4106  0.2584
  850MPD2    C512487   0.329   0.869  14.588  0.5674  0.7779  0.1900
  850MPD2     H12488   0.263   1.127  14.856 -2.3484 -0.2093  0.2939
  850MPD2    H112489   0.534   0.939  14.577  0.6397 -1.7385  2.3098
  850MPD2    H212490   0.131   0.796  14.624  0.8638 -0.4869 -1.1196
  850MPD2    H312491   0.339   0.792  14.513 -0.9522  0.8904 -0.1271
  850MPD2     N12492   0.531   1.118  14.775  0.3256  0.6954  0.4437
  850MPD2    H512493   0.622   1.101  14.733  0.1078 -0.1420  0.3139
  850MPD2    N112494   0.056   0.948  14.808 -0.3248  0.0049  0.0775
  850MPD2    H712495   4.711   0.894  14.754 -0.4352 -0.3567  0.5870
  851MPD2     C12496   0.737   1.148  15.265 -0.1033  0.0622  0.3293
  851MPD2    C112497   0.667   1.056  15.189  0.3635  0.1881 -0.1864
  851MPD2    C212498   0.730   0.945  15.130 -0.0474 -0.6661  0.0631
  851MPD2    C312499   0.869   0.943  15.126 -0.5684 -0.1415  0.6916
  851MPD2    C412500   0.941   1.039  15.195  0.0198  0.0668  0.1268
  851MPD2    C512501   0.873   1.134  15.274 -0.0077 -0.2887 -0.0171
  851MPD2     H12502   0.677   0.855  15.100  0.8898 -0.9041 -0.8912
  851MPD2    H112503   1.048   1.027  15.207 -0.1596 -2.9964 -1.2968
  851MPD2    H212504   0.691   1.225  15.326 -1.6835 -0.9314  0.3966
  851MPD2    H312505   0.927   1.200  15.340 -0.0905 -0.8363  0.5955
  851MPD2     N12506   0.933   0.830  15.065  0.5903 -0.0587  0.5263
  851MPD2    H512507   0.876   0.764  15.014 -0.0391 -1.0682  2.5519
  851MPD2    N112508   0.525   1.065  15.194 -0.1895 -0.1752 -0.2530
  851MPD2    H712509   0.488   1.151  15.233  1.2570 -0.4211  1.6948
  852MPD2     C12510   4.527   4.220  10.214 -0.3185 -0.0866 -0.6674
  852MPD2    C112511   4.611   4.264  10.317 -0.3595 -0.4143  0.6210
  852MPD2    C212512   0.019   4.293  10.290 -0.1511  0.1784  0.0037
  852MPD2    C312513   0.065   4.281  10.159 -0.4739 -0.8560  0.1138
  852MPD2    C412514   4.698   4.262  10.055 -0.2373  0.4055 -0.0200
  852MPD2    C512515   4.569   4.227  10.083 -0.8184 -0.1455  0.3588
  852MPD2     H12516   0.089   4.321  10.368 -2.6628  0.6226  2.0874
  852MPD2    H112517   0.017   4.264   9.955  0.7103  2.7039  0.4151
  852MPD2    H212518   4.425   4.197  10.242 -1.1276  0.3885 -3.2224
  852MPD2    H312519   4.497   4.210  10.003 -0.8471 -0.3910  0.4386
  852MPD2     N12520   0.195   4.316  10.146 -0.0845 -0.4873 -0.5217
  852MPD2    H512521   0.251   4.320  10.230 -1.6119  1.3994  0.4140
  852MPD2    N112522   4.571   4.279  10.453  0.4740 -0.7210 -0.1306
  852MPD2    H712523   4.637   4.321  10.518 -0.0235  1.1534 -0.8241
  853MPD2     C12524   2.205   3.798  12.393  0.7872 -0.4128  0.1012
  853MPD2    C112525   2.093   3.859  12.347  0.3522  0.2818 -0.4383
  853MPD2    C212526   2.076   3.869  12.206  0.0269 -0.6664 -0.2534
  853MPD2    C312527   2.166   3.815  12.117 -0.4630  0.0838 -0.6534
  853MPD2    C412528   2.271   3.740  12.171  0.3170  0.2813 -0.6668
  853MPD2    C512529   2.282   3.716  12.306  0.3713 -0.0988  0.6937
  853MPD2     H12530   1.996   3.933  12.172 -0.2708  0.7149  3.0727
  853MPD2    H112531   2.343   3.689  12.109 -2.3418 -0.4129 -3.1938
  853MPD2    H212532   2.214   3.785  12.500 -2.0279  0.8572  0.5099
  853MPD2    H312533   2.366   3.660  12.345  0.4055 -1.8698 -1.9232
  853MPD2     N12534   2.135   3.807  11.974 -0.1259 -0.2014  0.7793
  853MPD2    H512535   2.194   3.744  11.920 -0.1887 -0.1597  0.6612
  853MPD2    N112536   2.002   3.916  12.441 -0.3109  0.0885 -0.0058
  853MPD2    H712537   2.016   3.884  12.536 -0.9326  1.0754  0.4098
  854MPD2     C12538   3.423   3.262  13.003  0.1799  0.6755  0.3466
  854MPD2    C112539   3.456   3.392  13.028 -0.4208  0.0626  0.0063
  854MPD2    C212540   3.569   3.421  13.102 -0.1181  0.4802 -0.0769
  854MPD2    C312541   3.660   3.328  13.147 -0.3703 -0.3275 -0.3935
  854MPD2    C412542   3.628   3.195  13.108 -0.3634 -0.0405  0.1219
  854MPD2    C512543   3.510   3.164  13.048  0.1119  0.2980  0.5966
  854MPD2     H12544   3.584   3.524  13.132 -1.3804  1.0015 -1.2385
  854MPD2    H112545   3.690   3.109  13.133 -2.3821 -1.3843  0.4681
  854MPD2    H212546   3.335   3.228  12.951  1.4968 -1.5529 -0.4315
  854MPD2    H312547   3.487   3.064  13.014 -3.4621  1.3658 -0.1161
  854MPD2     N12548   3.786   3.354  13.200  0.1157 -0.6263 -0.5117
  854MPD2    H512549   3.847   3.273  13.206  0.2529 -0.5239 -0.5041
  854MPD2    N112550   3.380   3.492  12.961 -0.3682 -0.0122  0.4147
  854MPD2    H712551   3.305   3.465  12.898  0.7593 -0.5707 -0.6879
  855MPD2     C12552   4.324   3.766  13.946  1.0536  0.2584  0.5137
  855MPD2    C112553   4.332   3.630  13.915  0.6496 -0.5320 -0.6817
  855MPD2    C212554   4.295   3.589  13.786 -0.3575 -0.0332 -0.0633
  855MPD2    C312555   4.237   3.672  13.696  0.4425 -0.3166 -0.2708
  855MPD2    C412556   4.223   3.800  13.737  0.1711  0.4703  0.1050
  855MPD2    C512557   4.281   3.849  13.853 -0.6633  0.0894 -0.2676
  855MPD2     H12558   4.309   3.485  13.761 -0.6922 -0.0306 -0.2603
  855MPD2    H112559   4.182   3.871  13.667 -0.3722 -0.2478 -0.3016
  855MPD2    H212560   4.360   3.809  14.039 -2.2132  2.0488  0.9426
  855MPD2    H312561   4.274   3.953  13.885  1.2947  0.8033 -2.1400
  855MPD2     N12562   4.187   3.630  13.573 -0.1989  0.3891  0.2416
  855MPD2    H512563   4.123   3.686  13.519 -1.7642 -0.9006  0.7580
  855MPD2    N112564   4.375   3.537  14.011  0.2486  0.6312 -0.3971
  855MPD2    H712565   4.392   3.445  13.972  0.7793  1.2382 -1.6067
  856MPD2     C12566   1.009   4.025  13.825 -0.6085  0.1294 -0.1859
  856MPD2    C112567   1.073   4.088  13.931 -0.0705 -0.4148  0.8390
  856MPD2    C212568   1.074   4.226  13.922 -1.3067  0.3152 -0.4487
  856MPD2    C312569   1.031   4.298  13.808  0.6187  0.0734 -0.5987
  856MPD2    C412570   0.967   4.224  13.708 -0.3762  0.0692  0.1037
  856MPD2    C512571   0.951   4.090  13.719 -0.8376 -0.4765 -0.4838
  856MPD2     H12572   1.118   4.277  14.007 -0.0464  0.4472 -1.1786
  856MPD2    H112573   0.932   4.268  13.615  0.0583 -2.1105 -1.1058
  856MPD2    H212574   1.010   3.917  13.818 -3.4667  0.1029 -0.0990
  856MPD2    H312575   0.895   4.037  13.643  1.1071 -0.4983 -1.8712
  856MPD2     N12576   1.040   4.435  13.791 -0.2167  0.2137 -0.1025
  856MPD2    H512577   1.006   4.475  13.704  1.1153 -0.8748 -1.1348
  856MPD2    N112578   1.127   4.022  14.045 -0.4962 -0.0658 -0.1246
  856MPD2    H712579   1.180   4.072  14.115  0.9734  0.1453 -1.3749
  857MPD2     C12580   2.629   1.767  13.164  0.1391  0.7272 -0.1705
  857MPD2    C112581   2.755   1.768  13.104  0.6627  0.5141  0.6826
  857MPD2    C212582   2.845   1.870  13.137 -0.1959 -0.2916  0.2893
  857MPD2    C312583   2.809   1.970  13.227 -0.4215 -0.7614 -0.1092
  857MPD2    C412584   2.675   1.986  13.265  0.1090  0.1060  0.8048
  857MPD2    C512585   2.594   1.874  13.236  0.1144 -0.0710  0.2297
  857MPD2     H12586   2.946   1.878  13.098  0.0904 -1.2207  0.8708
  857MPD2    H112587   2.635   2.079  13.303 -1.6649 -0.4557  0.3349
  857MPD2    H212588   2.555   1.691  13.141  0.8054  0.0121  0.0528
  857MPD2    H312589   2.497   1.866  13.283 -0.7625  0.9185 -1.3894
  857MPD2     N12590   2.910   2.067  13.254  0.0153  0.5560 -0.0467
  857MPD2    H512591   2.997   2.061  13.202 -0.8358 -2.3505 -1.1421
  857MPD2    N112592   2.785   1.666  13.014  0.0390  0.4172 -0.4569
  857MPD2    H712593   2.707   1.603  12.995  2.0944 -2.1381 -0.4095
  858MPD2     C12594   3.467   1.119  16.596  0.0912  0.9894 -0.4416
  858MPD2    C112595   3.597   1.085  16.606 -0.4226 -0.1553  0.3482
  858MPD2    C212596   3.678   1.137  16.710 -0.1398 -0.6178 -0.5085
  858MPD2    C312597   3.625   1.234  16.796 -0.1378 -0.1421  0.4033
  858MPD2    C412598   3.492   1.272  16.779  0.3627 -0.4163  0.1973
  858MPD2    C512599   3.414   1.209  16.686 -0.4920  0.1360 -0.3547
  858MPD2     H12600   3.778   1.100  16.733 -0.4482 -1.1735 -0.0565
  858MPD2    H112601   3.447   1.348  16.841  0.8255 -0.0524  0.0875
  858MPD2    H212602   3.408   1.073  16.518 -0.4969  0.1158  0.5127
  858MPD2    H312603   3.307   1.225  16.689 -0.5780 -0.4662 -0.1937
  858MPD2     N12604   3.702   1.289  16.898 -0.1599 -0.2994 -0.8383
  858MPD2    H512605   3.661   1.370  16.944 -0.4281  0.0239 -1.6502
  858MPD2    N112606   3.641   0.994  16.509 -0.7284 -0.0387  1.0526
  858MPD2    H712607   3.579   0.947  16.445 -0.5546  1.6193 -0.3448
  859MPD2     C12608   2.019   1.988  15.406 -0.1333  0.0432  0.2571
  859MPD2    C112609   1.977   2.007  15.275 -0.3134  0.7463  0.1298
  859MPD2    C212610   2.001   1.906  15.181 -0.4207  0.3310 -0.5713
  859MPD2    C312611   2.056   1.784  15.225 -0.0042 -0.0389  0.4426
  859MPD2    C412612   2.072   1.765  15.365 -0.0520  0.2091 -0.5714
  859MPD2    C512613   2.060   1.868  15.454 -0.2792 -0.1246  0.2348
  859MPD2     H12614   1.986   1.918  15.074 -1.2407 -1.7663 -0.7094
  859MPD2    H112615   2.107   1.668  15.399  0.1703  1.2916  2.2659
  859MPD2    H212616   2.003   2.071  15.474 -0.0476 -0.3898  0.8030
  859MPD2    H312617   2.098   1.855  15.554  0.3151  1.3512  0.2065
  859MPD2     N12618   2.109   1.685  15.139  0.2095 -0.2671  0.3415
  859MPD2    H512619   2.147   1.606  15.189  1.1588 -1.9308 -3.0264
  859MPD2    N112620   1.936   2.137  15.232  0.1864 -0.3801 -0.7891
  859MPD2    H712621   1.931   2.207  15.305 -0.8927 -0.9644 -0.2996
  860MPD2     C12622   4.596   3.998  11.923  0.1316  0.5027  0.0171
  860MPD2    C112623   4.630   3.877  11.984 -0.1712 -1.1869 -0.4579
  860MPD2    C212624   4.522   3.799  12.023 -0.0607  0.3088 -0.2951
  860MPD2    C312625   4.390   3.834  12.002 -0.3460  0.0805 -0.1005
  860MPD2    C412626   4.363   3.959  11.955  0.8213 -0.2301  0.6245
  860MPD2    C512627   4.461   4.039  11.914  0.2106  0.3785  0.4657
  860MPD2     H12628   4.541   3.722  12.096 -2.8793 -0.5110 -0.4440
  860MPD2    H112629   4.260   3.994  11.960  0.5148 -0.9797 -0.5648
  860MPD2    H212630   4.669   4.075  11.900  0.6544  0.1244  0.4246
  860MPD2    H312631   4.431   4.136  11.877  1.0362  0.7780  0.8345
  860MPD2     N12632   4.282   3.754  12.043 -0.3227 -0.2636 -0.1086
  860MPD2    H512633   4.196   3.807  12.037 -0.4723 -0.8096 -2.8212
  860MPD2    N112634   0.041   3.839  12.023  0.0171 -0.6441 -0.7370
  860MPD2    H712635   0.052   3.757  12.082 -0.5464  0.9859  1.6609
  861MPD2     C12636   3.519   2.084  10.452  0.2690  0.8110  0.0045
  861MPD2    C112637   3.429   1.990  10.499  0.1556  0.0889  0.3331
  861MPD2    C212638   3.313   1.970  10.434  0.9917  0.2886 -0.6875
  861MPD2    C312639   3.275   2.044  10.322  0.1491 -0.3560  0.0201
  861MPD2    C412640   3.364   2.139  10.278  0.1465  0.0127  0.4901
  861MPD2    C512641   3.482   2.153  10.339 -0.2435 -0.2753 -0.0851
  861MPD2     H12642   3.253   1.892  10.479  2.6972  0.1577  1.3533
  861MPD2    H112643   3.324   2.194  10.193 -0.1283 -1.4598 -0.3277
  861MPD2    H212644   3.620   2.099  10.486  0.8363  0.2998 -1.4621
  861MPD2    H312645   3.554   2.230  10.314 -0.8704 -0.1913 -1.5901
  861MPD2     N12646   3.152   2.031  10.255  0.5320  0.4880 -0.7785
  861MPD2    H512647   3.139   2.093  10.176  0.8194  0.6743 -0.6814
  861MPD2    N112648   3.444   1.911  10.613  0.0750  0.1695  0.4024
  861MPD2    H712649   3.376   1.837  10.626  1.1512 -0.6155  1.6087
  862MPD2     C12650   2.423   2.017   9.953 -0.2039  0.6797 -0.5261
  862MPD2    C112651   2.558   2.020   9.976 -0.6538  0.2628  0.0940
  862MPD2    C212652   2.623   1.900  10.009  0.5913 -0.4525 -0.3057
  862MPD2    C312653   2.550   1.787  10.030 -0.4264  0.0122 -0.9348
  862MPD2    C412654   2.414   1.786  10.001  0.6160 -0.2466  0.8483
  862MPD2    C512655   2.352   1.906   9.971  0.0138  0.3962 -0.1489
  862MPD2     H12656   2.731   1.895  10.006  0.7295  1.9187  0.2992
  862MPD2    H112657   2.355   1.696  10.016  3.0269 -2.1633 -1.2106
  862MPD2    H212658   2.383   2.114   9.926 -0.4648  1.0057  1.0164
  862MPD2    H312659   2.244   1.903   9.959 -0.2984 -0.4549  2.9542
  862MPD2     N12660   2.606   1.671  10.092 -0.1639 -0.5181 -0.2409
  862MPD2    H512661   2.534   1.608  10.125 -0.5395  0.5016  0.8834
  862MPD2    N112662   2.631   2.139   9.953 -0.2496 -0.2869 -0.9873
  862MPD2    H712663   2.580   2.204   9.895 -0.5779 -1.0516 -1.5672
  863MPD2     C12664   1.565   0.265  17.297 -0.8249  0.2724 -0.3296
  863MPD2    C112665   1.653   0.285  17.197  0.3477 -0.0094 -0.1506
  863MPD2    C212666   1.783   0.262  17.216  0.8229 -0.1682  0.6345
  863MPD2    C312667   1.831   0.219  17.339 -0.1255  0.2478  0.5600
  863MPD2    C412668   1.745   0.210  17.443  0.2103 -0.2477 -0.1371
  863MPD2    C512669   1.615   0.231  17.420 -0.0762  0.0641  0.3001
  863MPD2     H12670   1.856   0.281  17.138  0.1074 -0.7221 -0.1641
  863MPD2    H112671   1.797   0.204  17.538  0.8504 -2.0817 -0.6050
  863MPD2    H212672   1.458   0.278  17.287 -1.0544 -1.9429 -0.7787
  863MPD2    H312673   1.548   0.232  17.506  0.4634 -0.0855  0.7206
  863MPD2     N12674   1.970   0.210  17.381  0.4013  0.2738 -0.0525
  863MPD2    H512675   1.991   0.182  17.476 -2.2891  1.2534  0.8287
  863MPD2    N112676   1.601   0.315  17.072 -0.1421  0.1696  0.0950
  863MPD2    H712677   1.506   0.350  17.070  0.3166  1.5751  4.7096
  864MPD2     C12678   2.106   1.804  16.330  1.0431  0.2751  0.2848
  864MPD2    C112679   2.196   1.704  16.359  0.4041 -0.7432 -0.6040
  864MPD2    C212680   2.287   1.674  16.259  0.8813 -0.3139 -0.4596
  864MPD2    C312681   2.282   1.737  16.139  0.4777 -0.0576 -0.6862
  864MPD2    C412682   2.190   1.833  16.109 -0.2519  0.5753  0.3381
  864MPD2    C512683   2.109   1.873  16.212  1.1036 -0.5015 -0.3235
  864MPD2     H12684   2.366   1.600  16.268 -0.0152 -1.1431  0.6246
  864MPD2    H112685   2.199   1.888  16.016  1.4058  0.8195  0.6258
  864MPD2    H212686   2.037   1.832  16.409  2.3489  1.1774  1.0938
  864MPD2    H312687   2.040   1.955  16.199  0.9464 -0.8672 -1.8525
  864MPD2     N12688   2.373   1.679  16.039 -0.0916  0.1397  0.0051
  864MPD2    H512689   2.434   1.606  16.074 -0.4621 -1.4066 -2.5619
  864MPD2    N112690   2.195   1.636  16.481  0.5918  0.1747 -0.4160
  864MPD2    H712691   2.124   1.661  16.549  0.7822  1.8312 -0.8323
  865MPD2     C12692   2.371   0.850  15.528  0.1041  0.0356  0.1557
  865MPD2    C112693   2.347   0.867  15.667  0.2855  0.2164 -0.2112
  865MPD2    C212694   2.357   0.998  15.723  0.8136 -0.3441  0.7208
  865MPD2    C312695   2.387   1.103  15.646  0.6380  1.0585 -0.3564
  865MPD2    C412696   2.406   1.085  15.507  0.1686 -0.1825  0.2781
  865MPD2    C512697   2.402   0.958  15.456 -0.2902 -0.5145  0.6332
  865MPD2     H12698   2.355   1.015  15.830  0.1522  1.4892  0.4128
  865MPD2    H112699   2.455   1.152  15.437  1.3796 -0.1698  1.1330
  865MPD2    H212700   2.380   0.752  15.482 -1.2826 -0.4619  0.9205
  865MPD2    H312701   2.415   0.931  15.352  2.1146 -0.2741  0.8572
  865MPD2     N12702   2.410   1.227  15.708 -0.3172 -0.7256 -0.2278
  865MPD2    H512703   2.395   1.231  15.808 -0.8133 -0.5268 -0.3138
  865MPD2    N112704   2.338   0.756  15.749  0.9243  0.5071  0.2833
  865MPD2    H712705   2.356   0.664  15.712 -0.7376  0.9868 -1.6942
  866MPD2     C12706   3.643   2.213  11.254 -0.2672 -0.6065  0.0618
  866MPD2    C112707   3.667   2.270  11.134  0.2815 -0.2206  0.6835
  866MPD2    C212708   3.570   2.275  11.032  0.5203 -0.4577  0.2144
  866MPD2    C312709   3.454   2.206  11.047  0.9490 -0.8705 -0.0634
  866MPD2    C412710   3.434   2.142  11.167 -0.3375 -0.3176  0.5386
  866MPD2    C512711   3.530   2.150  11.264 -0.4139  0.3359 -0.4838
  866MPD2     H12712   3.578   2.319  10.934 -2.7257 -1.2393 -0.3786
  866MPD2    H112713   3.344   2.091  11.198 -0.5094 -0.2395  0.1633
  866MPD2    H212714   3.702   2.234  11.343  1.0675  0.8173 -1.1474
  866MPD2    H312715   3.509   2.108  11.361  3.8233 -0.2757  0.1893
  866MPD2     N12716   3.349   2.211  10.950  0.4884  0.4359  0.6441
  866MPD2    H512717   3.268   2.154  10.972 -0.7418  2.1760  0.5816
  866MPD2    N112718   3.796   2.333  11.121  0.1540  0.1247  0.2733
  866MPD2    H712719   3.867   2.312  11.191  2.2815 -0.6048 -2.0953
  867MPD2     C12720   1.920   1.341  16.902 -0.2759 -0.3244 -0.4583
  867MPD2    C112721   1.919   1.290  17.028  0.4547 -0.6874  0.1194
  867MPD2    C212722   1.905   1.370  17.138  0.3303  0.2577 -0.4408
  867MPD2    C312723   1.887   1.514  17.115 -1.0547 -0.8969  0.3878
  867MPD2    C412724   1.890   1.560  16.983  0.2981  0.1470  0.3405
  867MPD2    C512725   1.901   1.478  16.876 -0.4149  0.0443 -0.0062
  867MPD2     H12726   1.916   1.324  17.235 -0.2850  2.4751  0.6757
  867MPD2    H112727   1.882   1.667  16.963 -0.6968 -0.3244 -1.8578
  867MPD2    H212728   1.950   1.284  16.814  0.3648  1.7635 -1.5826
  867MPD2    H312729   1.897   1.514  16.774 -0.7785 -2.2111 -0.7727
  867MPD2     N12730   1.876   1.608  17.223  0.0884  0.0476  0.3429
  867MPD2    H512731   1.870   1.707  17.200 -1.4737 -0.1544 -0.1505
  867MPD2    N112732   1.925   1.156  17.033  0.1631 -0.9974 -0.7942
  867MPD2    H712733   1.960   1.111  16.949  2.2302  1.2969 -1.1437
  868MPD2     C12734   3.223   4.582  12.857  0.1031 -0.1097 -0.0014
  868MPD2    C112735   3.248   4.672  12.956  0.1397 -0.6718  0.0774
  868MPD2    C212736   3.138   4.720  13.026  0.6701 -0.3233  0.7872
  868MPD2    C312737   3.012   4.682  12.998 -0.4466  0.5979 -0.0145
  868MPD2    C412738   2.991   4.589  12.900  0.3841 -0.0947 -1.1145
  868MPD2    C512739   3.093   4.544  12.828  0.3301 -0.1692  0.4858
  868MPD2     H12740   3.147   0.075  13.102 -0.0421 -0.8034  1.3606
  868MPD2    H112741   2.895   4.544  12.882 -0.9980  1.2692  2.8060
  868MPD2    H212742   3.303   4.531  12.804 -1.2499 -1.4411 -0.7503
  868MPD2    H312743   3.073   4.463  12.758 -0.6263  0.2326  0.2944
  868MPD2     N12744   2.899   4.717  13.081  0.2419 -0.0588  0.8558
  868MPD2    H512745   2.805   4.700  13.047  1.2802 -1.1492 -1.5127
  868MPD2    N112746   3.377   4.715  12.985  0.4056  0.4477  0.0050
  868MPD2    H712747   3.455   4.681  12.930  0.3050  0.8395 -0.3740
  869MPD2     C12748   0.369   2.971   2.084  0.3073  0.3500 -0.1189
  869MPD2    C112749   0.356   3.048   1.971  0.2940  0.3369  0.6912
  869MPD2    C212750   0.301   2.996   1.852  0.2304  0.3516  0.0389
  869MPD2    C312751   0.256   2.865   1.849 -0.2375  0.3723 -0.2706
  869MPD2    C412752   0.264   2.789   1.964  0.8953  0.0212  0.1578
  869MPD2    C512753   0.316   2.847   2.074 -0.4914 -0.4134 -0.4544
  869MPD2     H12754   0.275   3.055   1.765  0.1114  1.0898  0.5767
  869MPD2    H112755   0.232   2.686   1.972 -0.2534  0.1647 -2.8308
  869MPD2    H212756   0.420   3.001   2.175 -0.5893 -0.1566  0.5535
  869MPD2    H312757   0.318   2.788   2.164 -1.0454  1.4857  0.8061
  869MPD2     N12758   0.195   2.801   1.740  0.3155  0.0635  0.0866
  869MPD2    H512759   0.162   2.706   1.756  1.5745 -0.6380 -1.4498
  869MPD2    N112760   0.411   3.174   1.986  0.3515  0.0901  0.3605
  869MPD2    H712761   0.448   3.197   2.078  0.4363 -1.7607  0.7996
  870MPD2     C12762   0.362   2.235   2.167 -0.7080  0.2738  0.2417
  870MPD2    C112763   0.267   2.294   2.084 -0.3296  0.1179  0.5153
  870MPD2    C212764   0.304   2.405   2.010  0.7928  0.4913  0.0263
  870MPD2    C312765   0.434   2.449   2.008 -0.1341 -0.9812  0.6887
  870MPD2    C412766   0.537   2.389   2.080  0.8582 -0.1272  1.0101
  870MPD2    C512767   0.493   2.282   2.159 -0.9779  0.1855 -0.2706
  870MPD2     H12768   0.230   2.471   1.966  0.1065 -0.9212 -0.9481
  870MPD2    H112769   0.642   2.412   2.079  1.3402 -2.3844 -0.8168
  870MPD2    H212770   0.338   2.150   2.229 -0.1919  0.2318  0.3880
  870MPD2    H312771   0.570   2.250   2.228 -1.8309 -0.4745  0.3841
  870MPD2     N12772   0.464   2.562   1.933  0.1009  0.0288 -0.3242
  870MPD2    H512773   0.402   2.575   1.853 -1.1630 -1.7667  0.3733
  870MPD2    N112774   0.134   2.253   2.104 -0.1728  0.1250  0.1514
  870MPD2    H712775   0.120   2.183   2.176  1.9366  1.4767  1.8976
  871MPD2     C12776   0.453   1.414  16.408 -0.1778 -0.2500 -0.6123
  871MPD2    C112777   0.489   1.362  16.533  0.5088  1.1657  0.0774
  871MPD2    C212778   0.542   1.234  16.543 -0.3937  0.1139  0.3602
  871MPD2    C312779   0.561   1.163  16.420  0.4167 -0.5261  0.1961
  871MPD2    C412780   0.514   1.213  16.300  0.4697 -0.4786  0.8275
  871MPD2    C512781   0.471   1.342  16.293  0.3366 -0.7291  1.0695
  871MPD2     H12782   0.563   1.196  16.643 -0.2521 -0.3913  0.1391
  871MPD2    H112783   0.532   1.156  16.209 -1.3137  1.3316 -0.6527
  871MPD2    H212784   0.439   1.520  16.393  1.5667  0.0279 -0.2986
  871MPD2    H312785   0.444   1.388  16.199  1.7687  0.1391  1.0875
  871MPD2     N12786   0.617   1.030  16.432  0.4133 -0.2217  0.1351
  871MPD2    H512787   0.640   0.996  16.525  3.5247 -1.0678 -0.9387
  871MPD2    N112788   0.450   1.444  16.647 -0.1825  0.3330 -0.2722
  871MPD2    H712789   0.439   1.543  16.631 -0.7302  0.0104 -1.9163
  872MPD2     C12790   1.169   3.507  13.544  0.1219  0.3526 -0.4056
  872MPD2    C112791   1.221   3.600  13.635  0.6050  0.1898  0.0987
  872MPD2    C212792   1.132   3.644  13.736 -0.7812 -0.0147  0.3452
  872MPD2    C312793   1.000   3.598  13.747  0.3944 -0.0388 -0.0315
  872MPD2    C412794   0.955   3.514  13.652 -0.4697  0.2557  0.4349
  872MPD2    C512795   1.033   3.465  13.559 -0.4715 -0.7030  0.2229
  872MPD2     H12796   1.166   3.704  13.820 -0.9049  1.2422 -0.5103
  872MPD2    H112797   0.856   3.472  13.662 -0.6207  0.6853  0.7282
  872MPD2    H212798   1.221   3.462  13.460 -1.9796 -0.1764 -1.4335
  872MPD2    H312799   0.986   3.395  13.491  2.1692 -4.5916  2.4051
  872MPD2     N12800   0.914   3.628  13.858  0.2659  0.2759 -0.1033
  872MPD2    H512801   0.953   3.676  13.938 -0.2953 -0.1233  0.4166
  872MPD2    N112802   1.346   3.664  13.616  0.6054  0.5444 -0.6051
  872MPD2    H712803   1.368   3.743  13.677  0.5402  0.2965 -0.2649
  873MPD2     C12804   3.201   3.448   0.868  1.1098  0.4980  0.5817
  873MPD2    C112805   3.089   3.461   0.948 -0.2764 -0.9506  0.2341
  873MPD2    C212806   2.996   3.360   0.942  0.2076  0.5313 -0.7716
  873MPD2    C312807   3.016   3.250   0.861  0.1514 -0.6255  0.7484
  873MPD2    C412808   3.132   3.234   0.782 -0.8790 -0.3614  0.0618
  873MPD2    C512809   3.219   3.337   0.783  0.0316 -0.0285 -0.3954
  873MPD2     H12810   2.903   3.362   0.997 -0.0120 -0.7727 -1.0810
  873MPD2    H112811   3.144   3.162   0.702  3.6094  2.3579 -1.7026
  873MPD2    H212812   3.277   3.525   0.862  1.5634  0.0833  1.0096
  873MPD2    H312813   3.309   3.328   0.722 -0.8357  0.2290 -1.7210
  873MPD2     N12814   2.924   3.150   0.833  0.3220 -0.4378 -0.2183
  873MPD2    H512815   2.945   3.082   0.762 -0.5239 -1.3371  0.3935
  873MPD2    N112816   3.063   3.587   1.012  0.9752  0.0272 -0.5370
  873MPD2    H712817   3.141   3.651   1.010  1.0155 -0.0651 -1.5338
  874MPD2     C12818   2.056   3.415  16.358  0.2882  0.6187 -0.2630
  874MPD2    C112819   2.168   3.365  16.287 -0.0857 -0.1675 -0.0324
  874MPD2    C212820   2.273   3.459  16.270 -0.7956 -0.7964  0.8339
  874MPD2    C312821   2.265   3.584  16.324 -0.0292 -0.3271 -1.0962
  874MPD2    C412822   2.147   3.634  16.374 -0.0683  0.3446 -0.6261
  874MPD2    C512823   2.049   3.545  16.398 -0.0387  0.0766 -0.0340
  874MPD2     H12824   2.366   3.421  16.230  1.1455  0.9268  3.6892
  874MPD2    H112825   2.126   3.733  16.413 -2.0572 -1.4148  2.7350
  874MPD2    H212826   1.970   3.360  16.394  1.0201 -0.4634 -0.1689
  874MPD2    H312827   1.955   3.588  16.431 -0.8902 -2.1612  0.4127
  874MPD2     N12828   2.387   3.658  16.332 -0.2241  0.7386 -0.0630
  874MPD2    H512829   2.460   3.633  16.267 -0.6452  0.6353 -0.5006
  874MPD2    N112830   2.163   3.232  16.244 -0.4038 -0.6774  0.4846
  874MPD2    H712831   2.087   3.177  16.284 -0.9732  1.3696  2.2346
  875MPD2     C12832   3.842   2.000  14.478  1.1396  0.2628 -0.1398
  875MPD2    C112833   3.708   1.985  14.508  0.2749 -0.1398 -0.2865
  875MPD2    C212834   3.663   2.017  14.637  0.1577 -0.1699  0.2113
  875MPD2    C312835   3.747   2.062  14.739  0.1881 -0.5379  0.4520
  875MPD2    C412836   3.878   2.095  14.697  0.6789 -0.3629  0.0047
  875MPD2    C512837   3.925   2.052  14.575 -0.9507 -0.3291  0.5718
  875MPD2     H12838   3.556   2.004  14.643  0.0586  1.3165  1.7736
  875MPD2    H112839   3.959   2.107  14.768  1.0828 -0.2398 -0.4765
  875MPD2    H212840   3.886   1.952  14.391 -0.0408 -0.5775 -0.2778
  875MPD2    H312841   4.032   2.049  14.560 -0.8481 -3.0367  2.0378
  875MPD2     N12842   3.703   2.082  14.870  0.0152 -0.5192 -0.5309
  875MPD2    H512843   3.772   2.118  14.935 -0.6515 -0.3173  0.0690
  875MPD2    N112844   3.608   1.928  14.417 -0.0890 -0.5503 -0.7487
  875MPD2    H712845   3.509   1.931  14.437 -0.0189  3.9036 -0.9977
  876MPD2     C12846   2.685   3.075  16.204  0.3224 -0.5674  1.1856
  876MPD2    C112847   2.634   2.996  16.100 -0.5419  0.1798 -0.0039
  876MPD2    C212848   2.611   2.867  16.140 -0.2028  0.3282 -0.2078
  876MPD2    C312849   2.625   2.817  16.270 -0.3777  0.3892  0.3977
  876MPD2    C412850   2.683   2.894  16.361 -0.5138  0.3132 -0.7504
  876MPD2    C512851   2.713   3.023  16.326 -0.2669 -0.0387 -0.3950
  876MPD2     H12852   2.571   2.794  16.071  1.0410  1.6031 -2.2593
  876MPD2    H112853   2.721   2.866  16.459  0.4905  0.5056 -1.0810
  876MPD2    H212854   2.713   3.176  16.177  1.0928 -0.8277  1.0328
  876MPD2    H312855   2.762   3.086  16.400  1.7250 -1.1405 -0.7809
  876MPD2     N12856   2.594   2.679  16.305 -0.4990  1.0441 -1.1574
  876MPD2    H512857   2.570   2.625  16.223 -2.2308 -1.6316  1.1499
  876MPD2    N112858   2.634   3.043  15.970 -0.4326  0.0458 -0.2349
  876MPD2    H712859   2.629   3.144  15.959 -0.3735  0.1712  0.8589
  877MPD2     C12860   2.796   3.594  15.450 -0.1663 -0.0874 -0.0105
  877MPD2    C112861   2.792   3.472  15.389  0.1062  0.4651 -0.2479
  877MPD2    C212862   2.828   3.451  15.262 -0.7407 -0.0708  0.4197
  877MPD2    C312863   2.877   3.557  15.187  0.1349 -0.4838 -0.3719
  877MPD2    C412864   2.891   3.685  15.242 -0.0934  0.0019  0.0133
  877MPD2    C512865   2.844   3.701  15.375 -0.5661 -0.1100 -0.5595
  877MPD2     H12866   2.828   3.349  15.228 -0.3273  0.6106 -1.6054
  877MPD2    H112867   2.926   3.769  15.184  0.9296 -2.0164 -2.3172
  877MPD2    H212868   2.765   3.601  15.554 -2.1156  0.4453 -0.6348
  877MPD2    H312869   2.849   3.798  15.423 -2.5453 -0.6758  0.8079
  877MPD2     N12870   2.920   3.541  15.053  0.5484 -0.4742 -0.3930
  877MPD2    H512871   2.951   3.617  14.993 -1.9365  0.9825  0.1598
  877MPD2    N112872   2.733   3.357  15.453 -0.1285  0.5191 -1.0821
  877MPD2    H712873   2.749   3.270  15.402 -2.4340  0.3581 -1.4950
  878MPD2     C12874   1.883   3.332  13.312 -0.1212 -0.2209 -0.7084
  878MPD2    C112875   2.018   3.345  13.273  0.1917  0.7266  0.2682
  878MPD2    C212876   2.119   3.340  13.375 -0.3113  0.1574  0.3666
  878MPD2    C312877   2.079   3.330  13.510 -1.2790 -0.3703  0.6103
  878MPD2    C412878   1.944   3.323  13.538  0.2388  0.5861  0.3233
  878MPD2    C512879   1.850   3.311  13.439  0.4293  1.6406  0.2292
  878MPD2     H12880   2.226   3.343  13.359  0.3105  2.0103  5.0672
  878MPD2    H112881   1.915   3.302  13.641  0.4621  2.8393  0.8407
  878MPD2    H212882   1.805   3.327  13.237 -0.3787 -2.8183 -0.2847
  878MPD2    H312883   1.743   3.311  13.458  0.5132 -2.2694  0.9146
  878MPD2     N12884   2.184   3.318  13.604  0.2378 -0.3797  0.1512
  878MPD2    H512885   2.274   3.293  13.562  0.7524 -2.0540  2.2425
  878MPD2    N112886   2.043   3.368  13.140 -0.2519  0.8644  0.4662
  878MPD2    H712887   1.963   3.349  13.081 -0.5443 -2.5074  1.9078
  879MPD2     C12888   2.777   0.311  17.022 -0.5354  0.6350  0.0144
  879MPD2    C112889   2.842   0.203  17.078  0.5963 -0.5267  0.9122
  879MPD2    C212890   2.765   0.089  17.107 -0.9151  0.5445 -0.8110
  879MPD2    C312891   2.629   0.087  17.085  0.0136  0.1380 -0.3470
  879MPD2    C412892   2.570   0.197  17.021  0.0617 -0.5314  0.8925
  879MPD2    C512893   2.643   0.309  16.999  0.5691  0.3021 -0.0344
  879MPD2     H12894   2.806   4.713  17.130  0.8193  1.1008 -1.5362
  879MPD2    H112895   2.464   0.192  17.000  0.0352 -0.2251  0.9507
  879MPD2    H212896   2.833   0.403  17.006  2.0659 -1.1686 -1.3071
  879MPD2    H312897   2.603   0.400  16.956 -1.3717 -0.1894  0.7087
  879MPD2     N12898   2.544   4.703  17.117  0.0337 -0.2658 -0.2532
  879MPD2    H512899   2.448   4.709  17.086  0.1287  0.9639 -0.2803
  879MPD2    N112900   2.980   0.220  17.100 -0.7470 -0.3691  0.8798
  879MPD2    H712901   3.026   0.300  17.057 -0.9493  0.0400  1.4322
  880MPD2     C12902   0.332   1.761   0.807 -0.3328  0.3862 -0.4521
  880MPD2    C112903   0.256   1.836   0.895  0.0182 -0.4474  1.0891
  880MPD2    C212904   0.192   1.772   0.995 -0.1283  0.1017  0.6383
  880MPD2    C312905   0.199   1.636   1.006 -0.0671  0.5662 -0.0051
  880MPD2    C412906   0.265   1.561   0.911 -0.5716  0.0375 -0.5474
  880MPD2    C512907   0.341   1.626   0.820 -0.9149  0.4679 -0.0893
  880MPD2     H12908   0.136   1.830   1.067 -2.5107 -2.1290  0.5829
  880MPD2    H112909   0.264   1.453   0.907 -1.7092  0.0696 -1.2470
  880MPD2    H212910   0.397   1.811   0.736  0.7376 -1.5948 -0.8718
  880MPD2    H312911   0.385   1.575   0.735  0.3870  0.2007  0.7332
  880MPD2     N12912   0.126   1.587   1.112 -0.7150  0.2124 -0.5087
  880MPD2    H512913   0.073   1.660   1.159  2.0376  0.7939  1.6893
  880MPD2    N112914   0.259   1.973   0.871  0.6645 -0.8627 -0.5147
  880MPD2    H712915   0.320   1.992   0.792  0.3677  1.9901 -0.0628
  881MPD2     C12916   0.282   2.600   0.124  0.3642 -0.8864  0.2909
  881MPD2    C112917   0.251   2.464   0.148 -0.0605 -0.1877 -0.1094
  881MPD2    C212918   0.244   2.423   0.276  0.7120 -0.5872 -0.0239
  881MPD2    C312919   0.292   2.513   0.378  0.0563  0.2126 -0.5157
  881MPD2    C412920   0.343   2.640   0.352  0.7150 -0.7098  0.8378
  881MPD2    C512921   0.348   2.675   0.219  0.5163  0.2544  0.1819
  881MPD2     H12922   0.210   2.323   0.303 -0.1162 -0.6269 -1.2425
  881MPD2    H112923   0.378   2.712   0.426 -0.5340  1.3594 -0.5703
  881MPD2    H212924   0.284   2.636   0.022  0.4209 -1.4591  0.0883
  881MPD2    H312925   0.397   2.767   0.188 -1.2381  1.2717  0.4763
  881MPD2     N12926   0.281   2.478   0.509 -0.0736 -0.1627  0.5982
  881MPD2    H512927   0.337   2.539   0.568  2.9680 -2.0766 -0.2843
  881MPD2    N112928   0.177   2.399   0.045  0.2262 -0.6964  0.1164
  881MPD2    H712929   0.174   2.439  17.642 -2.7894 -3.2572 -0.8999
  882MPD2     C12930   2.709   3.516  14.200 -0.3462 -0.4674  0.5342
  882MPD2    C112931   2.676   3.539  14.331  0.2035  0.2486  0.1452
  882MPD2    C212932   2.540   3.522  14.364 -0.1501  0.0896 -0.1270
  882MPD2    C312933   2.443   3.500  14.262  0.0511 -0.3463  0.2721
  882MPD2    C412934   2.488   3.487  14.130  0.1532 -0.5730 -0.0742
  882MPD2    C512935   2.623   3.494  14.101 -0.3197 -0.6473  0.0924
  882MPD2     H12936   2.514   3.534  14.468 -1.4131  1.1789 -0.5724
  882MPD2    H112937   2.418   3.479  14.047 -0.4005  0.0320  0.3297
  882MPD2    H212938   2.813   3.506  14.170  0.0913  1.0011  1.5707
  882MPD2    H312939   2.650   3.464  14.000  2.3069  3.5648 -0.4700
  882MPD2     N12940   2.305   3.492  14.284 -0.1206  0.0398 -0.0454
  882MPD2    H512941   2.241   3.495  14.205  1.1458  0.0263 -1.0786
  882MPD2    N112942   2.778   3.542  14.425  0.2801  0.2764  0.0165
  882MPD2    H712943   2.873   3.540  14.390  0.6907 -0.0770  1.1476
  883MPD2     C12944   0.205   4.223  16.354 -0.3491 -0.0340  0.3224
  883MPD2    C112945   0.288   4.166  16.253  0.1479 -0.8174  0.2328
  883MPD2    C212946   0.418   4.209  16.243  0.2224 -0.7776  0.6084
  883MPD2    C312947   0.473   4.307  16.320  0.6264 -0.0265 -0.2420
  883MPD2    C412948   0.391   4.362  16.418 -0.2048 -1.3024 -0.1845
  883MPD2    C512949   0.268   4.314  16.442  0.6589 -0.0902 -0.2069
  883MPD2     H12950   0.477   4.163  16.165  0.2117  1.3595 -0.6567
  883MPD2    H112951   0.440   4.425  16.491 -3.6113 -1.2832  2.0690
  883MPD2    H212952   0.101   4.197  16.374 -0.7162  2.2507  1.2864
  883MPD2    H312953   0.216   4.358  16.527 -0.5585  2.4509 -2.2290
  883MPD2     N12954   0.605   4.344  16.283 -0.3426  0.3693  0.6500
  883MPD2    H512955   0.651   4.301  16.203 -0.0984  2.3281 -0.2847
  883MPD2    N112956   0.236   4.051  16.176 -0.3010  0.7796  0.4715
  883MPD2    H712957   0.303   4.005  16.115 -1.2897 -0.5748  0.4167
  884MPD2     C12958   1.569   4.107  15.579 -0.5177  0.1440 -0.1056
  884MPD2    C112959   1.618   4.176  15.471  0.5652 -0.0488  0.3276
  884MPD2    C212960   1.548   4.293  15.435  0.2746  0.2186 -0.1869
  884MPD2    C312961   1.444   4.351  15.505 -0.2025  0.0830 -0.7188
  884MPD2    C412962   1.408   4.286  15.622 -0.5339  0.3637 -0.1740
  884MPD2    C512963   1.466   4.165  15.653  0.2674  1.1563  0.1559
  884MPD2     H12964   1.581   4.336  15.340  0.8047 -0.9980 -0.5523
  884MPD2    H112965   1.326   4.317  15.685 -0.6586  3.2067 -1.7276
  884MPD2    H212966   1.607   4.016  15.623  0.2590  1.1594  1.3379
  884MPD2    H312967   1.437   4.111  15.743 -1.2211  1.8060  0.0696
  884MPD2     N12968   1.375   4.460  15.446 -0.2123  0.0887  0.5375
  884MPD2    H512969   1.409   4.489  15.355 -0.8583 -3.1290 -0.7385
  884MPD2    N112970   1.730   4.137  15.391  0.0053 -0.4294  0.4137
  884MPD2    H712971   1.750   4.180  15.301  2.6425  0.8110  1.6006
  885MPD2     C12972   0.055   4.000   0.191 -0.5357  0.0196 -0.5655
  885MPD2    C112973   0.145   4.103   0.202 -0.0245 -0.5241 -0.3043
  885MPD2    C212974   0.129   4.223   0.139 -0.3172  0.7808  0.5366
  885MPD2    C312975   0.027   4.230   0.043  0.7327 -0.0419  0.1363
  885MPD2    C412976   4.659   4.128   0.021  0.4177 -0.0064 -0.9097
  885MPD2    C512977   4.677   4.014   0.099 -0.2207  0.2775  0.3873
  885MPD2     H12978   0.190   4.311   0.155  1.7999 -0.6561  0.3679
  885MPD2    H112979   4.585   4.122  17.632 -0.5576  2.5788 -0.2043
  885MPD2    H212980   0.063   3.918   0.261  2.6771 -1.0068 -2.1197
  885MPD2    H312981   4.591   3.948   0.105 -0.5386  0.6585 -0.0109
  885MPD2     N12982   0.040   4.343  17.647  0.2811 -0.4275  0.7165
  885MPD2    H512983   0.104   4.418  17.671 -1.1471  0.2631  2.4297
  885MPD2    N112984   0.249   4.086   0.300  0.6065 -0.4859 -0.7654
  885MPD2    H712985   0.236   3.999   0.350 -0.7001 -0.8017 -1.6371
  886MPD2     C12986   1.221   3.109  15.864  0.5323 -0.5631  0.5520
  886MPD2    C112987   1.332   3.058  15.796  0.8602 -0.0146 -0.2851
  886MPD2    C212988   1.358   3.124  15.677  0.8612  0.4123  0.4590
  886MPD2    C312989   1.281   3.224  15.625  0.3179  0.0367 -0.0367
  886MPD2    C412990   1.174   3.270  15.704 -0.2686  0.6255  0.2284
  886MPD2    C512991   1.147   3.207  15.823 -0.2324  0.4366 -0.4757
  886MPD2     H12992   1.430   3.079  15.610  1.3785  0.0082  1.2819
  886MPD2    H112993   1.103   3.345  15.670  0.7165  1.9098  1.0024
  886MPD2    H212994   1.187   3.043  15.943  0.0173  3.1032  3.3828
  886MPD2    H312995   1.052   3.224  15.872 -0.1753  0.3374 -0.3300
  886MPD2     N12996   1.321   3.262  15.493 -0.4810 -0.1283  0.3253
  886MPD2    H512997   1.401   3.218  15.448 -0.3504  0.3586  0.0716
  886MPD2    N112998   1.404   2.952  15.841  0.1371 -0.2696  0.2454
  886MPD2    H712999   1.487   2.935  15.786  0.4650  3.1781 -0.3194
  887MPD2     C13000   2.101   2.922  15.859  0.4573  0.1920 -0.8435
  887MPD2    C113001   1.982   2.978  15.891  0.3865 -0.2816  0.1489
  887MPD2    C213002   1.978   3.118  15.900 -0.2311 -0.9153 -0.3206
  887MPD2    C313003   2.085   3.201  15.868  0.2997 -0.7962  0.6192
  887MPD2    C413004   2.201   3.134  15.832 -0.5193  0.5905  0.1446
  887MPD2    C513005   2.209   2.997  15.846 -0.5483 -0.2505 -0.3996
  887MPD2     H13006   1.888   3.159  15.944 -0.1837 -0.2338 -0.8482
  887MPD2    H113007   2.297   3.182  15.818 -1.0989  1.5036 -0.7364
  887MPD2    H213008   2.113   2.814  15.860 -1.9470 -0.0653  0.1461
  887MPD2    H313009   2.301   2.945  15.825 -0.2303  0.2050 -0.1230
  887MPD2     N13010   2.070   3.342  15.895 -0.6641 -0.0922 -0.2479
  887MPD2    H513011   1.993   3.365  15.957 -1.0320  0.2377 -0.8345
  887MPD2    N113012   1.866   2.897  15.925 -0.0279 -0.1927 -0.1302
  887MPD2    H713013   1.793   2.952  15.968  0.4848 -0.4081  1.0009
  888MPD2     C13014   3.464   3.191  15.097  0.1784 -0.3685 -0.1558
  888MPD2    C113015   3.470   3.221  15.227 -0.2520 -0.4487  0.0755
  888MPD2    C213016   3.543   3.334  15.260 -0.0949  0.2372  0.1468
  888MPD2    C313017   3.605   3.416  15.159  0.0699  0.2419 -0.1173
  888MPD2    C413018   3.608   3.366  15.030 -0.2953 -0.1017 -0.4666
  888MPD2    C513019   3.539   3.251  15.002  0.6817 -0.3324  0.2635
  888MPD2     H13020   3.536   3.366  15.364  0.4727  0.3321  0.1578
  888MPD2    H113021   3.636   3.428  14.946  0.0688  0.3901  0.0232
  888MPD2    H213022   3.413   3.104  15.057  1.2009 -0.5843 -0.9796
  888MPD2    H313023   3.518   3.226  14.899 -0.0105  1.1216  0.0444
  888MPD2     N13024   3.658   3.546  15.194  0.2881  0.2144 -0.0693
  888MPD2    H513025   3.665   3.562  15.294  0.2568 -1.5334  0.2203
  888MPD2    N113026   3.429   3.134  15.332 -0.0578  0.3151 -0.6234
  888MPD2    H713027   3.457   3.151  15.428 -2.7712  1.2734 -0.0043
  889MPD2     C13028   2.725   2.730  13.013 -0.1150  0.1044 -0.4080
  889MPD2    C113029   2.832   2.745  13.098  0.9927 -0.6060  0.0642
  889MPD2    C213030   2.898   2.869  13.109  0.4208  0.3817 -0.6692
  889MPD2    C313031   2.847   2.981  13.048  0.2916 -0.3321  0.5842
  889MPD2    C413032   2.735   2.965  12.962 -0.0987  0.0731  0.0161
  889MPD2    C513033   2.673   2.844  12.947  0.3739  0.0611  0.1189
  889MPD2     H13034   2.977   2.887  13.181 -0.0337 -1.8192  0.3586
  889MPD2    H113035   2.696   3.045  12.901  0.8474  1.0087  0.6540
  889MPD2    H213036   2.670   2.637  13.014 -0.8815  0.5571 -0.4535
  889MPD2    H313037   2.587   2.833  12.883 -1.1053 -0.9609  2.2905
  889MPD2     N13038   2.910   3.099  13.075  0.0846  0.0143  0.3593
  889MPD2    H513039   2.972   3.101  13.156 -0.2832 -3.7192  0.7684
  889MPD2    N113040   2.899   2.626  13.145 -0.0015  0.3497  0.0493
  889MPD2    H713041   2.866   2.532  13.123  2.6880 -0.1794 -1.6433
  890MPD2     C13042   2.565   4.097  14.833 -0.2634  0.3076  0.0145
  890MPD2    C113043   2.635   4.216  14.862 -0.1876 -0.6693  0.2239
  890MPD2    C213044   2.684   4.228  14.995  0.0020  0.5411  0.4377
  890MPD2    C313045   2.676   4.133  15.092 -0.1907 -0.1644  0.1819
  890MPD2    C413046   2.607   4.017  15.057 -0.2459 -0.1576 -0.1277
  890MPD2    C513047   2.554   3.999  14.929 -0.4572 -0.2622 -1.2838
  890MPD2     H13048   2.723   4.323  15.030 -0.5649  1.3212 -1.0325
  890MPD2    H113049   2.612   3.932  15.124 -0.3374 -0.3816 -0.4054
  890MPD2    H213050   2.536   4.063  14.735  1.1093 -1.4138  0.1916
  890MPD2    H313051   2.514   3.901  14.906  0.1100 -1.4813  2.7956
  890MPD2     N13052   2.746   4.154  15.212 -0.0520 -0.4440 -0.3950
  890MPD2    H513053   2.798   4.240  15.226  2.1587 -1.6105 -1.3097
  890MPD2    N113054   2.651   4.310  14.760  0.0141  0.5472  0.1855
  890MPD2    H713055   2.619   4.278  14.670  2.2457  1.4723 -0.9427
  891MPD2     C13056   0.288   2.436  16.767 -0.4687  0.8424  0.1159
  891MPD2    C113057   0.315   2.572  16.779 -0.1774  0.0532  0.1294
  891MPD2    C213058   0.424   2.623  16.855 -0.4801  0.4630 -0.5778
  891MPD2    C313059   0.507   2.535  16.929 -0.5356 -0.6483 -0.3359
  891MPD2    C413060   0.481   2.403  16.904 -0.5160 -0.6616 -0.5562
  891MPD2    C513061   0.373   2.353  16.835  0.0112 -0.3953 -0.5869
  891MPD2     H13062   0.444   2.729  16.853  0.5901  0.2931  1.0493
  891MPD2    H113063   0.545   2.328  16.949  2.0891  0.6157 -2.1507
  891MPD2    H213064   0.212   2.390  16.704 -1.0996 -0.9691  2.2196
  891MPD2    H313065   0.357   2.246  16.842 -0.3758 -0.2320  1.1323
  891MPD2     N13066   0.609   2.588  17.016  0.8123 -0.1183 -0.1764
  891MPD2    H513067   0.629   2.686  17.001 -0.5388  0.5061  2.1001
  891MPD2    N113068   0.231   2.658  16.710  0.6340 -0.2994 -0.2688
  891MPD2    H713069   0.168   2.612  16.645 -0.2925  0.5463  0.0290
  892MPD2     C13070   1.756   3.900  15.027 -0.0339  0.5553 -0.4072
  892MPD2    C113071   1.689   3.933  14.909 -0.4121 -0.1500 -0.4233
  892MPD2    C213072   1.729   3.880  14.788 -0.3252 -0.4844 -0.0812
  892MPD2    C313073   1.838   3.790  14.787  0.0458 -0.2714 -0.5496
  892MPD2    C413074   1.896   3.756  14.906  0.9559  0.1016  0.4031
  892MPD2    C513075   1.863   3.817  15.026 -0.2674 -0.1344 -0.4111
  892MPD2     H13076   1.672   3.902  14.698 -0.3774 -0.8268 -0.1307
  892MPD2    H113077   1.984   3.694  14.903 -0.0036 -1.2535  0.4428
  892MPD2    H213078   1.728   3.943  15.122  3.1802  0.5252  0.5619
  892MPD2    H313079   1.921   3.780  15.110  0.4491  0.8533 -0.4734
  892MPD2     N13080   1.902   3.736  14.677  0.5636  0.1566 -0.0360
  892MPD2    H513081   1.979   3.674  14.697  0.0432 -0.1375  1.0760
  892MPD2    N113082   1.580   4.017  14.902 -0.5097 -0.2400 -0.3214
  892MPD2    H713083   1.544   4.041  14.810 -2.5718  0.3792  0.6540
  893MPD2     C13084   1.191   2.059   2.483  0.0637 -0.6593 -0.4659
  893MPD2    C113085   1.203   2.201   2.477  0.3372 -0.0138  0.6185
  893MPD2    C213086   1.286   2.272   2.568  0.7879 -0.0649  0.2519
  893MPD2    C313087   1.356   2.202   2.670  0.1466 -0.1530  0.0137
  893MPD2    C413088   1.341   2.066   2.674  0.8937 -0.0577 -0.1005
  893MPD2    C513089   1.253   1.998   2.590 -0.2303  0.2004  0.4496
  893MPD2     H13090   1.304   2.379   2.568  0.6718 -0.0412  0.9163
  893MPD2    H113091   1.401   2.014   2.747 -1.6639  0.5469  2.4523
  893MPD2    H213092   1.122   2.004   2.421 -0.7764 -0.0165 -0.1115
  893MPD2    H313093   1.240   1.893   2.611  3.7823 -0.1999  0.9149
  893MPD2     N13094   1.431   2.262   2.771 -0.1293  0.0178  0.4257
  893MPD2    H513095   1.465   2.195   2.839  0.3902  0.1753  0.3260
  893MPD2    N113096   1.135   2.275   2.377  0.1615 -0.6712  0.1453
  893MPD2    H713097   1.100   2.220   2.299 -0.0583 -0.0143 -0.2150
  894MPD2     C13098   1.194   0.333   0.922  0.0660  0.6763 -0.3937
  894MPD2    C113099   1.301   0.243   0.903  0.8189 -0.0184 -0.1786
  894MPD2    C213100   1.430   0.293   0.941  0.4062 -0.9562 -0.2292
  894MPD2    C313101   1.448   0.417   0.999 -0.0986 -0.0777 -0.2873
  894MPD2    C413102   1.335   0.496   1.015  0.5243 -0.7273  0.4175
  894MPD2    C513103   1.207   0.460   0.968 -0.3023  0.3715 -0.1247
  894MPD2     H13104   1.516   0.229   0.922  0.1330 -1.7500  1.1672
  894MPD2    H113105   1.346   0.588   1.070  0.5015  0.7444 -2.0214
  894MPD2    H213106   1.091   0.308   0.898 -0.0026 -1.7468  2.4537
  894MPD2    H313107   1.121   0.527   0.968 -0.1820  0.5246 -1.0293
  894MPD2     N13108   1.581   0.451   1.040  0.5461 -0.3707  0.1333
  894MPD2    H513109   1.656   0.386   1.017  1.4056  0.4093  0.7053
  894MPD2    N113110   1.284   0.108   0.847  0.3519 -0.6821  0.0222
  894MPD2    H713111   1.365   0.047   0.852  0.6376 -0.4118 -1.2291
  895MPD2     C13112   1.046   3.031  13.826  0.3628  0.4384 -0.2059
  895MPD2    C113113   0.983   3.000  13.707 -0.1086  0.0498  0.4662
  895MPD2    C213114   1.042   2.918  13.616 -0.5292 -0.0074  0.3415
  895MPD2    C313115   1.168   2.862  13.639 -0.3121 -0.0958 -0.5387
  895MPD2    C413116   1.227   2.882  13.764 -0.4947  0.5794  0.2355
  895MPD2    C513117   1.168   2.972  13.854 -0.7864  0.6786 -0.2945
  895MPD2     H13118   1.003   2.910  13.515 -0.3874 -0.4798  0.3233
  895MPD2    H113119   1.325   2.838  13.780  0.2064  0.9027 -3.1219
  895MPD2    H213120   0.996   3.095  13.899 -0.6256 -0.3072 -0.2227
  895MPD2    H313121   1.223   2.995  13.944  0.1912 -1.3914 -0.3764
  895MPD2     N13122   1.220   2.774  13.537  0.4919 -0.5235 -0.6841
  895MPD2    H513123   1.151   2.758  13.464 -0.0867 -1.1780 -0.0032
  895MPD2    N113124   0.864   3.058  13.674 -0.1453 -0.0105 -0.5184
  895MPD2    H713125   0.822   3.025  13.588  1.4227 -4.2250  0.3409
  896MPD2     C13126   3.381   1.700   1.430 -0.1072 -0.3127  0.5637
  896MPD2    C113127   3.441   1.584   1.391  0.3147 -0.5900 -0.2297
  896MPD2    C213128   3.361   1.475   1.351  0.0718  0.5521  0.1845
  896MPD2    C313129   3.224   1.482   1.362  0.3326 -0.3983 -0.4690
  896MPD2    C413130   3.170   1.592   1.422 -0.6762 -0.3641 -0.4587
  896MPD2    C513131   3.248   1.700   1.452  0.4421  0.8815  0.6691
  896MPD2     H13132   3.406   1.384   1.313  2.0217  2.3470 -1.8154
  896MPD2    H113133   3.064   1.601   1.447 -0.4915  1.4884 -0.3722
  896MPD2    H213134   3.440   1.789   1.449  0.5045 -0.5526 -0.1845
  896MPD2    H313135   3.203   1.789   1.494 -2.1451  0.9255 -2.2396
  896MPD2     N13136   3.135   1.372   1.334 -0.1610  0.9773 -0.8359
  896MPD2    H513137   3.037   1.380   1.360  0.1387  2.8695 -0.2336
  896MPD2    N113138   3.583   1.594   1.385 -0.0359 -0.4327 -0.0382
  896MPD2    H713139   3.617   1.676   1.433  1.4694 -0.7931 -0.4708
  897MPD2     C13140   3.500   4.278  10.418 -0.0515  0.6052 -0.0470
  897MPD2    C113141   3.593   4.191  10.455  0.5205  0.8716 -0.4611
  897MPD2    C213142   3.561   4.092  10.546 -0.2244  0.3959 -0.6029
  897MPD2    C313143   3.435   4.074  10.599 -0.1052  0.1965  0.4589
  897MPD2    C413144   3.342   4.175  10.571 -0.1910  0.0744  0.4191
  897MPD2    C513145   3.375   4.271  10.476  0.0372  0.0588  0.7734
  897MPD2     H13146   3.636   4.016  10.565  1.0948  1.6334 -0.9586
  897MPD2    H113147   3.245   4.175  10.621 -0.2228  0.1976  0.3573
  897MPD2    H213148   3.520   4.349  10.339 -2.2651 -0.5619 -1.6654
  897MPD2    H313149   3.300   4.338  10.437  0.0043  0.2989  1.2558
  897MPD2     N13150   3.412   3.963  10.682  0.5338 -0.3869 -0.5338
  897MPD2    H513151   3.493   3.905  10.699  1.2392  0.8888  0.4805
  897MPD2    N113152   3.729   4.199  10.398 -0.0261 -0.1896 -0.2030
  897MPD2    H713153   3.757   4.285  10.353  0.8864  0.7186  2.0881
  898MPD2     C13154   1.708   3.712   0.231 -0.1369  0.3450 -0.2062
  898MPD2    C113155   1.705   3.609   0.139 -0.0560 -0.1075 -0.1677
  898MPD2    C213156   1.646   3.635   0.017  0.0187  0.5400 -0.0532
  898MPD2    C313157   1.576   3.749  17.682 -0.9084 -0.3004 -0.1390
  898MPD2    C413158   1.550   3.836   0.102 -0.4382 -0.1274 -0.1407
  898MPD2    C513159   1.627   3.822   0.213 -0.0276  0.0775 -0.3076
  898MPD2     H13160   1.642   3.566  17.624 -0.9371  1.1791 -0.5480
  898MPD2    H113161   1.487   3.923   0.094  1.1304  0.9058 -1.3259
  898MPD2    H213162   1.765   3.705   0.323 -0.9793  0.4559  0.3296
  898MPD2    H313163   1.634   3.901   0.287 -0.1942 -0.0550 -0.1500
  898MPD2     N13164   1.507   3.768  17.561 -0.4763  0.2124  0.4948
  898MPD2    H513165   1.523   3.696  17.490 -0.9777  1.2204 -0.6443
  898MPD2    N113166   1.795   3.499   0.149 -0.5740  0.4312  0.3159
  898MPD2    H713167   1.792   3.434   0.071  2.7844  0.2973  0.2795
  899MPD2     C13168   2.120   4.344  17.516 -1.0569  0.1092  0.1383
  899MPD2    C113169   2.204   4.430  17.586 -1.1236 -0.7763 -0.3176
  899MPD2    C213170   2.243   4.399   0.024 -0.4388  0.2284 -0.2910
  899MPD2    C313171   2.208   4.273   0.077  0.9917 -0.0682  0.6092
  899MPD2    C413172   2.129   4.187  17.690 -0.2997 -0.0832  0.4842
  899MPD2    C513173   2.087   4.221  17.564 -0.8092  0.0823 -0.0928
  899MPD2     H13174   2.312   4.458   0.083  0.1918 -1.5570  0.7586
  899MPD2    H113175   2.108   4.085   0.028  0.6952 -0.8911 -1.6656
  899MPD2    H213176   2.080   4.374  17.421  1.5375 -1.1896 -1.3829
  899MPD2    H313177   2.028   4.143  17.517 -0.0003 -1.1694  0.9535
  899MPD2     N13178   2.265   4.208   0.194  0.2235 -0.3818 -0.0533
  899MPD2    H513179   2.228   4.115   0.210  0.4856 -0.6568 -1.0324
  899MPD2    N113180   2.241   4.541  17.511 -0.4000  0.7726 -0.2636
  899MPD2    H713181   2.206   4.543  17.416  2.4275  0.1481 -1.3146
  900MPD2     C13182   1.890   1.417  12.291 -0.2021  0.1320 -0.2993
  900MPD2    C113183   1.798   1.320  12.258  0.4794  0.4450 -0.1498
  900MPD2    C213184   1.682   1.352  12.189  1.1875 -0.2322 -0.1776
  900MPD2    C313185   1.656   1.484  12.157  0.2567 -0.6990  0.2932
  900MPD2    C413186   1.744   1.578  12.194  0.1520  0.5441  0.0549
  900MPD2    C513187   1.860   1.544  12.257 -0.3610 -0.4438 -0.2241
  900MPD2     H13188   1.613   1.273  12.161 -0.4362  0.3961  2.0084
  900MPD2    H113189   1.724   1.682  12.173 -0.8261  0.2348 -0.5215
  900MPD2    H213190   1.992   1.401  12.322  1.1654  0.8702 -4.3133
  900MPD2    H313191   1.936   1.621  12.266 -0.7294  0.0489 -1.3840
  900MPD2     N13192   1.534   1.513  12.092 -0.2490 -0.4843  0.2429
  900MPD2    H513193   1.470   1.439  12.066  0.4777 -1.2723  0.7134
  900MPD2    N113194   1.832   1.186  12.298 -0.4649  0.2397  0.3764
  900MPD2    H713195   1.927   1.168  12.329 -0.5300 -0.2452  0.3003
  901MPD2     C13196   1.952   0.367  12.948 -1.0019 -0.6725  0.2634
  901MPD2    C113197   1.988   0.327  12.818  0.2690 -0.1631  0.1596
  901MPD2    C213198   1.978   0.414  12.718 -1.0500  0.0730 -0.4171
  901MPD2    C313199   1.924   0.540  12.739 -0.0615 -0.4475  0.5864
  901MPD2    C413200   1.881   0.578  12.864 -0.0281 -0.1727  0.0213
  901MPD2    C513201   1.909   0.495  12.966  0.5260  0.0917 -0.1340
  901MPD2     H13202   2.007   0.393  12.616 -1.7352  1.3679 -0.8755
  901MPD2    H113203   1.838   0.675  12.885  0.3223 -0.2914  1.2776
  901MPD2    H213204   1.968   0.301  13.032 -0.7101 -0.0929  0.6677
  901MPD2    H313205   1.878   0.519  13.067 -2.9710  0.6457 -1.3553
  901MPD2     N13206   1.912   0.624  12.626  0.1624  0.0689 -0.1083
  901MPD2    H513207   1.941   0.588  12.536 -0.7896 -0.4603 -0.2114
  901MPD2    N113208   2.043   0.200  12.797  0.3242 -0.3417  0.0600
  901MPD2    H713209   2.029   0.132  12.871  0.8973  0.5737  1.0083
  902MPD2     C13210   0.681   3.321  12.405  0.1822  0.2057 -0.9982
  902MPD2    C113211   0.713   3.325  12.273 -0.0580 -0.0866  0.2046
  902MPD2    C213212   0.693   3.213  12.188  0.2242 -0.1313 -0.7624
  902MPD2    C313213   0.631   3.104  12.240 -0.1923  0.4960 -0.6044
  902MPD2    C413214   0.610   3.098  12.373  0.5415  0.1822  0.0286
  902MPD2    C513215   0.639   3.200  12.460 -0.1216  0.4513 -0.6552
  902MPD2     H13216   0.714   3.224  12.083 -2.3664  2.7605 -0.9973
  902MPD2    H113217   0.573   3.008  12.419 -0.5693  0.0840 -1.0775
  902MPD2    H213218   0.688   3.403  12.475 -1.5665 -0.1721 -0.4005
  902MPD2    H313219   0.608   3.195  12.563  1.0463  1.0511 -0.2774
  902MPD2     N13220   0.588   3.009  12.145  0.2144 -0.2605 -0.0315
  902MPD2    H513221   0.602   3.019  12.045  0.5668 -0.7616 -0.0301
  902MPD2    N113222   0.778   3.444  12.231 -0.2356 -0.1783  0.4546
  902MPD2    H713223   0.794   3.503  12.312  1.3962 -1.0951  0.7922
  903MPD2     C13224   0.551   3.258  11.512  0.7208 -0.3533 -0.6260
  903MPD2    C113225   0.565   3.213  11.641  0.1381  0.1100  0.1039
  903MPD2    C213226   0.578   3.309  11.736  0.4985  0.7967 -0.0093
  903MPD2    C313227   0.569   3.441  11.711 -0.0490  0.4146  0.2222
  903MPD2    C413228   0.561   3.486  11.582  0.1927 -0.1877 -0.2412
  903MPD2    C513229   0.545   3.394  11.486 -0.1131 -0.6463  0.1766
  903MPD2     H13230   0.599   3.280  11.838  0.6855  0.3258 -0.1796
  903MPD2    H113231   0.553   3.590  11.552  2.4285 -0.7925 -2.9602
  903MPD2    H213232   0.541   3.205  11.418  0.1112 -0.0335 -0.7435
  903MPD2    H313233   0.558   3.436  11.387  1.2822 -0.7086  0.3361
  903MPD2     N13234   0.545   3.524  11.823 -0.4911  0.1545 -0.1742
  903MPD2    H513235   0.556   3.479  11.913 -1.6658  0.9112  0.3518
  903MPD2    N113236   0.542   3.071  11.673  0.1169  0.0139  0.0594
  903MPD2    H713237   0.491   3.019  11.602  0.0265  0.1526  0.0215
  904MPD2     C13238   0.929   2.335  13.861  0.6957 -0.1468  0.5283
  904MPD2    C113239   0.945   2.473  13.893 -0.1128 -0.1071 -0.1921
  904MPD2    C213240   1.068   2.520  13.925  0.5985 -0.3750 -0.1083
  904MPD2    C313241   1.182   2.442  13.915  0.2781  0.1361 -0.0239
  904MPD2    C413242   1.171   2.309  13.894  0.2848  0.9603 -0.1418
  904MPD2    C513243   1.045   2.259  13.861 -0.4380 -0.4427 -0.6209
  904MPD2     H13244   1.080   2.626  13.944 -1.5407  0.6213 -4.2824
  904MPD2    H113245   1.259   2.246  13.902 -1.7641 -1.8965 -0.2324
  904MPD2    H213246   0.837   2.284  13.837  0.3756  0.1524  1.1173
  904MPD2    H313247   1.027   2.154  13.840 -2.5135 -0.2096 -0.0634
  904MPD2     N13248   1.308   2.509  13.941 -0.7001 -0.1963 -0.4401
  904MPD2    H513249   1.311   2.606  13.973 -0.5726  0.3261 -2.0270
  904MPD2    N113250   0.834   2.561  13.876  0.0525 -0.3138  0.5742
  904MPD2    H713251   0.838   2.660  13.894 -4.2491  0.5151 -3.1300
  905MPD2     C13252   0.551   2.610  13.184  0.3214  0.1969  0.0240
  905MPD2    C113253   0.622   2.678  13.285  0.2807  0.2406  0.3921
  905MPD2    C213254   0.761   2.681  13.283 -0.0410 -0.6123  0.6679
  905MPD2    C313255   0.826   2.615  13.178  0.0110  0.2156 -0.4535
  905MPD2    C413256   0.751   2.549  13.080 -0.1037 -0.1654  0.1602
  905MPD2    C513257   0.616   2.547  13.081 -1.3029 -0.2478 -0.7954
  905MPD2     H13258   0.820   2.727  13.361  0.9903 -2.4961  0.9913
  905MPD2    H113259   0.803   2.490  13.005  1.5657  2.5029 -0.7734
  905MPD2    H213260   0.444   2.616  13.197  0.1664 -2.1324 -0.0754
  905MPD2    H313261   0.561   2.507  12.997  1.5541 -2.8756 -1.4062
  905MPD2     N13262   0.965   2.597  13.167 -0.6145 -0.8898  0.1791
  905MPD2    H513263   0.992   2.532  13.094 -2.0337  1.3763 -2.3752
  905MPD2    N113264   0.550   2.730  13.390 -0.8756  0.1375 -0.6006
  905MPD2    H713265   0.459   2.690  13.408 -0.9608  0.4065 -0.4280
  906MPD2     C13266   2.540   2.534  11.230  0.7648  0.0057  0.5351
  906MPD2    C113267   2.502   2.506  11.097  0.1998  0.5826 -0.3494
  906MPD2    C213268   2.442   2.380  11.076  0.2382 -0.3033  0.2638
  906MPD2    C313269   2.394   2.305  11.181 -0.5287 -0.0545 -0.4912
  906MPD2    C413270   2.421   2.348  11.311 -0.3252 -0.1566 -0.4103
  906MPD2    C513271   2.501   2.460  11.337  0.0091  0.6696  0.1546
  906MPD2     H13272   2.406   2.354  10.978  0.6947 -0.8637  0.2434
  906MPD2    H113273   2.385   2.297  11.400 -0.7875  0.3245 -0.3196
  906MPD2    H213274   2.606   2.617  11.255  0.5308 -0.3982  2.5009
  906MPD2    H313275   2.531   2.481  11.439  0.2685 -2.6572  0.7629
  906MPD2     N13276   2.309   2.198  11.144  0.0864  0.3420  0.6130
  906MPD2    H513277   2.300   2.185  11.044  0.4418 -0.7836  0.7183
  906MPD2    N113278   2.529   2.591  10.988 -0.3965 -0.2670 -0.0660
  906MPD2    H713279   2.505   2.558  10.895 -1.5784 -1.0997  0.5299
  907MPD2     C13280   1.255   1.964  15.641 -0.2580  0.3229 -0.2581
  907MPD2    C113281   1.331   1.852  15.614 -0.1817 -0.0240 -0.0726
  907MPD2    C213282   1.410   1.798  15.716  0.4925 -0.0631 -0.6319
  907MPD2    C313283   1.406   1.837  15.845  0.5350 -0.5799  0.1186
  907MPD2    C413284   1.319   1.938  15.875 -0.0598 -0.0192  0.0424
  907MPD2    C513285   1.252   2.002  15.770 -0.3127  0.1810 -0.7978
  907MPD2     H13286   1.483   1.723  15.688  0.4851  0.0979 -1.0926
  907MPD2    H113287   1.305   1.982  15.973 -1.9854  1.3184 -0.8230
  907MPD2    H213288   1.209   2.034  15.571 -1.4064  0.2088  0.3894
  907MPD2    H313289   1.201   2.093  15.800  1.6815  0.5518  1.5273
  907MPD2     N13290   1.502   1.782  15.929 -0.0212 -0.2743  0.6265
  907MPD2    H513291   1.559   1.710  15.887  1.1522  0.4565  0.9685
  907MPD2    N113292   1.339   1.797  15.487 -0.3949 -0.3407 -0.5128
  907MPD2    H713293   1.393   1.711  15.485 -0.7806 -0.6103  1.3810
  908MPD2     C13294   4.317   4.270   9.660  0.6711  0.5014  0.3065
  908MPD2    C113295   4.239   4.156   9.692  0.5037 -0.2312 -0.0291
  908MPD2    C213296   4.187   4.158   9.820  0.1070  0.3280  0.2738
  908MPD2    C313297   4.218   4.255   9.916  0.2975  0.2136 -0.1686
  908MPD2    C413298   4.296   4.363   9.873  0.4725  0.1134 -0.3201
  908MPD2    C513299   4.340   4.368   9.747  0.6569  0.5474 -0.4678
  908MPD2     H13300   4.124   4.078   9.857  0.1193 -0.1456 -0.7360
  908MPD2    H113301   4.318   4.450   9.934  1.2899 -2.4384  3.0401
  908MPD2    H213302   4.360   4.283   9.562  0.3180  0.2602  0.1193
  908MPD2    H313303   4.406   4.448   9.715  1.3338  0.5666  0.9651
  908MPD2     N13304   4.155   4.241  10.038 -0.2235  0.2126  0.1860
  908MPD2    H513305   4.094   4.160  10.042 -1.3499  1.1279  1.7572
  908MPD2    N113306   4.227   4.053   9.601  0.3737  0.6666 -0.4321
  908MPD2    H713307   4.265   4.065   9.508  0.3987 -3.7065 -0.9990
  909MPD2     C13308   4.299   1.009  11.877  0.9723 -1.0511  0.2333
  909MPD2    C113309   4.295   1.070  11.751  0.4493  0.4510  0.5354
  909MPD2    C213310   4.223   1.186  11.743  0.3248 -0.1746 -0.0288
  909MPD2    C313311   4.142   1.233  11.845  0.5219  0.2739  0.2184
  909MPD2    C413312   4.147   1.170  11.968  0.0177  0.0304  0.3020
  909MPD2    C513313   4.229   1.057  11.983 -0.5192 -0.4395  0.2111
  909MPD2     H13314   4.224   1.243  11.651  1.7710  1.5818  1.0815
  909MPD2    H113315   4.091   1.200  12.056 -2.6080 -2.0342 -0.6641
  909MPD2    H213316   4.340   0.908  11.884 -1.4955 -2.0419  0.3645
  909MPD2    H313317   4.230   0.999  12.075  0.3132  0.2549  0.6487
  909MPD2     N13318   4.057   1.335  11.815 -0.2122  0.1567  0.2693
  909MPD2    H513319   4.064   1.369  11.720 -2.5343  2.9014  1.0648
  909MPD2    N113320   4.363   1.014  11.636  0.6331 -0.3640 -0.1867
  909MPD2    H713321   4.370   1.068  11.551 -0.0488  0.4079  0.2405
  910MPD2     C13322   0.941   2.160  16.071  0.0051 -0.6865 -0.5927
  910MPD2    C113323   0.950   2.069  15.982  0.0784  0.5235  0.6198
  910MPD2    C213324   0.902   2.092  15.851  0.1927 -0.4161  0.7630
  910MPD2    C313325   0.836   2.214  15.828  0.7868 -0.6983 -0.6510
  910MPD2    C413326   0.827   2.311  15.923  0.4960  0.0816  0.4139
  910MPD2    C513327   0.885   2.285  16.046 -0.4634 -0.3544  0.6071
  910MPD2     H13328   0.922   2.026  15.768  1.6647  3.0007 -1.6301
  910MPD2    H113329   0.782   2.406  15.899  0.8868  0.4004  0.9431
  910MPD2    H213330   0.993   2.147  16.165 -0.1063 -0.0469 -0.4401
  910MPD2    H313331   0.886   2.364  16.120 -0.5552  0.6764 -0.5031
  910MPD2     N13332   0.784   2.255  15.703 -0.0248  0.3719 -0.3191
  910MPD2    H513333   0.754   2.351  15.690 -0.2292 -0.0458 -2.9467
  910MPD2    N113334   1.005   1.944  16.014 -0.2636 -0.3258 -0.3730
  910MPD2    H713335   1.034   1.889  15.935 -2.5844  0.5569 -1.8361
  911MPD2     C13336   3.594   2.654  16.264  0.3891  0.3764  0.3594
  911MPD2    C113337   3.570   2.786  16.305 -0.0414 -0.4337  0.4896
  911MPD2    C213338   3.456   2.849  16.265  0.1278 -0.3333 -0.8774
  911MPD2    C313339   3.362   2.787  16.182 -0.0021  0.2147  0.4189
  911MPD2    C413340   3.389   2.655  16.149  0.0465  0.2838 -0.0528
  911MPD2    C513341   3.501   2.590  16.188 -0.1339 -0.5107 -0.7160
  911MPD2     H13342   3.440   2.947  16.307 -1.0314  0.7001 -3.7855
  911MPD2    H113343   3.332   2.600  16.075  2.9641 -2.0171 -0.5735
  911MPD2    H213344   3.681   2.606  16.308  0.1364 -0.2457  0.1804
  911MPD2    H313345   3.520   2.494  16.142 -2.9270 -0.8707 -1.1158
  911MPD2     N13346   3.246   2.853  16.133  0.1078 -0.3505  0.0957
  911MPD2    H513347   3.182   2.794  16.080 -3.3154  2.5343  1.0663
  911MPD2    N113348   3.649   2.841  16.403  1.0192  0.1601  0.0441
  911MPD2    H713349   3.727   2.785  16.435  0.6965  0.0626  0.6715
  912MPD2     C13350   2.843   2.484  15.721  0.0798 -0.3989 -0.3170
  912MPD2    C113351   2.902   2.526  15.834 -0.0506  0.0559  0.0971
  912MPD2    C213352   2.974   2.438  15.911  0.0579 -0.2423 -0.0122
  912MPD2    C313353   3.000   2.314  15.864  0.2457 -0.6810  0.3412
  912MPD2    C413354   2.951   2.268  15.744 -0.5722 -0.5621  0.1038
  912MPD2    C513355   2.869   2.357  15.673 -0.1073  0.2932  0.4759
  912MPD2     H13356   3.019   2.471  16.004  1.7538  2.2514 -1.7066
  912MPD2    H113357   2.958   2.167  15.706  3.4597 -0.5079  0.6763
  912MPD2    H213358   2.789   2.552  15.655  1.5326  0.2651 -0.8129
  912MPD2    H313359   2.821   2.326  15.581  2.4354 -0.4714 -0.5858
  912MPD2     N13360   3.078   2.226  15.941 -0.1653 -0.1804  0.2914
  912MPD2    H513361   3.124   2.261  16.024  1.4112  0.4031 -0.8181
  912MPD2    N113362   2.877   2.660  15.880  0.0228 -0.8899 -0.1751
  912MPD2    H713363   2.806   2.720  15.839  0.1165 -1.7042 -1.5543
  913MPD2     C13364   3.264   0.238   9.763 -0.5656  0.6007  0.0717
  913MPD2    C113365   3.385   0.296   9.796 -0.0402 -0.0987  0.0727
  913MPD2    C213366   3.406   0.433   9.771  0.7363  0.4238 -0.1665
  913MPD2    C313367   3.304   0.504   9.708 -0.0414 -0.0472 -0.7210
  913MPD2    C413368   3.185   0.452   9.671  0.2011 -0.1810  0.4626
  913MPD2    C513369   3.169   0.321   9.702 -0.2372  0.5037  0.3839
  913MPD2     H13370   3.503   0.468   9.804  0.9584 -0.2678 -0.0712
  913MPD2    H113371   3.115   0.517   9.620  1.3784  0.7633  0.0441
  913MPD2    H213372   3.244   0.132   9.771 -1.2781  0.8058  1.0436
  913MPD2    H313373   3.077   0.268   9.682 -0.0055  0.4935 -0.6047
  913MPD2     N13374   3.323   0.639   9.678  0.0877  0.9339  0.4222
  913MPD2    H513375   3.248   0.673   9.619 -1.8665 -1.6874  1.3565
  913MPD2    N113376   3.488   0.208   9.837  0.2383  0.1132  0.9472
  913MPD2    H713377   3.463   0.116   9.872 -1.8405  0.6678  0.9467
  914MPD2     C13378   1.803   4.682  11.991  0.0161 -0.0657  0.6573
  914MPD2    C113379   1.851   0.066  12.061  0.5738  0.4104  0.0900
  914MPD2    C213380   1.924   0.045  12.173 -0.6790  0.1809 -0.1720
  914MPD2    C313381   1.949   4.642  12.213  0.2692  0.0307  0.2778
  914MPD2    C413382   1.914   4.533  12.129 -0.3345 -0.4934 -0.7695
  914MPD2    C513383   1.832   4.550  12.025 -0.0008  0.4095 -0.7912
  914MPD2     H13384   1.957   0.121  12.243 -3.8434  0.2913  1.1815
  914MPD2    H113385   1.945   4.432  12.153  1.0111 -0.2097 -1.2737
  914MPD2    H213386   1.739   4.702  11.906 -2.4072  0.4458  2.6196
  914MPD2    H313387   1.821   4.465  11.959 -0.3457  0.7415 -1.1661
  914MPD2     N13388   2.037   4.626  12.318 -0.2095  0.3477  0.1471
  914MPD2    H513389   2.065   4.713  12.364  1.6005  0.7993 -1.8201
  914MPD2    N113390   1.815   0.193  12.011  0.9424 -0.1844 -0.2240
  914MPD2    H713391   1.754   0.199  11.930  0.4506 -0.9460  0.0853
  915MPD2     C13392   0.338   4.139  15.758  0.4151 -1.0245  0.0150
  915MPD2    C113393   0.203   4.165  15.761  0.7165  0.3932 -0.2462
  915MPD2    C213394   0.161   4.266  15.844 -0.1892  0.3239 -0.2636
  915MPD2    C313395   0.242   4.337  15.926 -0.0352  0.4151 -0.0897
  915MPD2    C413396   0.383   4.315  15.914 -0.0004  0.3338  0.3185
  915MPD2    C513397   0.429   4.217  15.830  0.6584  0.3196  0.4390
  915MPD2     H13398   0.057   4.296  15.852  1.2014  4.1912  3.0682
  915MPD2    H113399   0.465   4.358  15.970 -0.7745  1.4541  0.5906
  915MPD2    H213400   0.377   4.062  15.692 -0.0559  0.9882 -2.6211
  915MPD2    H313401   0.537   4.207  15.822  0.6945  1.0742  0.0767
  915MPD2     N13402   0.191   4.430  16.018 -0.4993 -0.3243  0.1338
  915MPD2    H513403   0.090   4.438  16.028 -0.7399 -0.3919 -2.2658
  915MPD2    N113404   0.118   4.086  15.684  0.2328  1.0175 -0.0137
  915MPD2    H713405   0.159   4.013  15.627 -0.2750  0.1136  0.7990
  916MPD2     C13406   2.548   2.326  15.861  0.8331  0.1771  0.4249
  916MPD2    C113407   2.617   2.240  15.942  0.4139 -0.1361 -0.1096
  916MPD2    C213408   2.680   2.126  15.884 -0.0146  0.7300 -0.6013
  916MPD2    C313409   2.671   2.108  15.752 -0.8092 -0.4232  0.0202
  916MPD2    C413410   2.600   2.194  15.672  0.3460 -0.2370  0.3193
  916MPD2    C513411   2.533   2.301  15.726 -0.1969 -0.0030 -0.5662
  916MPD2     H13412   2.738   2.059  15.945 -1.6788  0.6172  0.8638
  916MPD2    H113413   2.585   2.191  15.565  0.2226 -1.1738  0.3641
  916MPD2    H213414   2.510   2.416  15.907 -1.9093 -0.8790  0.2504
  916MPD2    H313415   2.473   2.376  15.676 -2.2389 -1.0890  0.2732
  916MPD2     N13416   2.734   2.001  15.691 -0.0577  0.0079 -0.1797
  916MPD2    H513417   2.773   1.934  15.756  3.9377  1.4492 -1.0790
  916MPD2    N113418   2.629   2.278  16.078 -0.5873  0.4654 -0.2688
  916MPD2    H713419   2.574   2.358  16.109 -0.0782  0.3302  0.9699
  917MPD2     C13420   3.153   0.432  10.976  0.6815 -0.3837 -0.2462
  917MPD2    C113421   3.198   0.502  11.089 -0.6636  0.5568 -0.5860
  917MPD2    C213422   3.276   0.614  11.074  0.0784 -0.6038  0.3991
  917MPD2    C313423   3.309   0.658  10.949 -0.5946 -0.2198  0.2744
  917MPD2    C413424   3.267   0.591  10.842 -0.0323  0.7908  0.4313
  917MPD2    C513425   3.188   0.484  10.853 -0.2505  0.1125  0.5385
  917MPD2     H13426   3.315   0.669  11.158  0.0089  0.6478 -0.3880
  917MPD2    H113427   3.290   0.630  10.744  1.5387  0.0660  0.4989
  917MPD2    H213428   3.093   0.342  10.981 -0.7647  0.5799 -0.3292
  917MPD2    H313429   3.139   0.445  10.765 -1.7451 -0.1171  1.4796
  917MPD2     N13430   3.404   0.758  10.921 -0.1714 -0.5654  0.0675
  917MPD2    H513431   3.399   0.787  10.824 -1.7486 -1.6848 -0.1949
  917MPD2    N113432   3.156   0.449  11.216 -0.6007  0.4203 -0.0758
  917MPD2    H713433   3.097   0.367  11.209  1.0504 -0.9006  1.6002
  918MPD2     C13434   3.371   0.420  12.204  0.3042  0.2853  0.1196
  918MPD2    C113435   3.452   0.476  12.101  0.7256  0.0084  0.0937
  918MPD2    C213436   3.385   0.521  11.985 -0.4927  0.7679 -0.2119
  918MPD2    C313437   3.254   0.502  11.961 -0.2573  0.1335 -0.5048
  918MPD2    C413438   3.183   0.439  12.069  0.0288 -0.6637 -0.1506
  918MPD2    C513439   3.239   0.394  12.183  0.6886 -0.4669  0.2086
  918MPD2     H13440   3.442   0.569  11.906 -1.8775  0.3686 -1.4497
  918MPD2    H113441   3.081   0.404  12.060 -0.1569 -0.4804  1.1287
  918MPD2    H213442   3.409   0.394  12.302  0.4032  1.2245  0.3279
  918MPD2    H313443   3.180   0.350  12.263 -0.3661  0.5037 -0.0400
  918MPD2     N13444   3.190   0.520  11.831 -0.1982 -0.5848  0.5676
  918MPD2    H513445   3.254   0.533  11.753 -1.8495 -0.0206 -0.6974
  918MPD2    N113446   3.589   0.503  12.114  0.1750  0.2889  0.2567
  918MPD2    H713447   3.633   0.555  12.038  0.9975  0.7633  1.0507
  919MPD2     C13448   3.554   4.542  11.804  0.6876  0.0075  0.1506
  919MPD2    C113449   3.614   4.419  11.770 -0.1956 -0.8772  0.8986
  919MPD2    C213450   3.670   4.401  11.644 -0.6040 -0.2033 -0.5875
  919MPD2    C313451   3.651   4.497  11.543 -0.2402 -0.2188  0.1956
  919MPD2    C413452   3.577   4.615  11.579 -0.0990  0.2555 -0.5742
  919MPD2    C513453   3.539   4.637  11.710 -0.9693 -0.2152 -0.2422
  919MPD2     H13454   3.729   4.312  11.624  1.8545  1.6530 -1.6242
  919MPD2    H113455   3.545   4.691  11.509  2.0554  1.2894 -0.4167
  919MPD2    H213456   3.512   4.564  11.901 -0.4748  1.6736 -0.7333
  919MPD2    H313457   3.470   4.720  11.723 -0.5227 -0.0876  1.3231
  919MPD2     N13458   3.694   4.482  11.412 -0.3765  0.1892 -0.2032
  919MPD2    H513459   3.652   4.552  11.352 -2.5361 -2.3308 -1.6174
  919MPD2    N113460   3.629   4.316  11.861  0.2706 -0.1080  1.0287
  919MPD2    H713461   3.660   4.227  11.824 -1.4024 -1.3874  2.7057
  920MPD2     C13462   3.622   0.128  10.505  0.1749 -0.0398 -0.0351
  920MPD2    C113463   3.541   0.018  10.494 -0.6184  0.1260  0.4138
  920MPD2    C213464   3.562   4.643  10.590  0.3206 -0.2008  0.1438
  920MPD2    C313465   3.639   4.664  10.701 -0.0456 -0.5732 -0.4006
  920MPD2    C413466   3.688   0.068  10.726  0.1317  0.6028  0.0564
  920MPD2    C513467   3.687   0.150  10.620 -0.0679 -0.7426  0.1122
  920MPD2     H13468   3.512   4.547  10.580 -0.9687  0.3637  1.2438
  920MPD2    H113469   3.763   0.083  10.802  0.3306  2.0903 -0.4303
  920MPD2    H213470   3.621   0.214  10.439 -2.7501  0.4841  0.7247
  920MPD2    H313471   3.747   0.240  10.622  0.3505 -1.0468  1.1495
  920MPD2     N13472   3.641   4.561  10.800  0.1669  0.2049 -0.2308
  920MPD2    H513473   3.614   4.466  10.775 -2.3474  0.7786  0.2760
  920MPD2    N113474   3.441   0.001  10.394 -0.1649 -0.1046 -0.0359
  920MPD2    H713475   3.373   4.651  10.414  2.0524 -2.0712  0.5235
  921MPD2     C13476   4.493   3.331  16.789 -0.0528 -0.2562  0.3687
  921MPD2    C113477   4.487   3.220  16.712 -0.1812 -0.1136 -0.3362
  921MPD2    C213478   4.359   3.169  16.685 -0.2862  0.6567 -1.4421
  921MPD2    C313479   4.248   3.230  16.724 -0.0082 -0.5186  0.3958
  921MPD2    C413480   4.253   3.341  16.805 -0.5793 -0.4946  0.2559
  921MPD2    C513481   4.378   3.388  16.838 -0.3809 -0.2562  0.2660
  921MPD2     H13482   4.344   3.069  16.646  0.3488 -0.7063  1.7870
  921MPD2    H113483   4.167   3.399  16.835 -1.4659 -0.5555 -2.1851
  921MPD2    H213484   4.589   3.372  16.818  1.0039 -3.0980  0.8764
  921MPD2    H313485   4.383   3.479  16.896 -1.6823  0.3004 -0.4993
  921MPD2     N13486   4.125   3.176  16.669  0.3334 -0.4175  0.0432
  921MPD2    H513487   4.133   3.095  16.607 -0.4399 -0.6374  0.2260
  921MPD2    N113488   4.600   3.153  16.667 -0.1192  0.4046  0.3558
  921MPD2    H713489   4.692   3.186  16.694  0.0380  0.1279  0.1503
  922MPD2     C13490   1.078   0.865  17.646  0.1771 -0.2044 -0.3644
  922MPD2    C113491   0.991   0.957  17.594 -0.3823  0.0170 -0.4918
  922MPD2    C213492   0.884   0.901  17.528  0.3005  0.4791  0.2553
  922MPD2    C313493   0.861   0.764  17.518 -0.5571 -0.3287  0.4323
  922MPD2    C413494   0.961   0.678  17.565 -0.0671 -0.1575 -0.2347
  922MPD2    C513495   1.070   0.730  17.626  0.0814  0.1698  0.4578
  922MPD2     H13496   0.803   0.966  17.499  0.6213  0.1158 -1.4636
  922MPD2    H113497   0.955   0.570  17.556 -3.8333 -0.0840  1.4110
  922MPD2    H213498   1.158   0.903   0.017  0.0368  0.3720 -0.5381
  922MPD2    H313499   1.153   0.669  17.662 -0.0389 -0.5587 -0.5076
  922MPD2     N13500   0.738   0.723  17.464  0.6266  0.5576  0.6176
  922MPD2    H513501   0.673   0.793  17.431  1.4500  0.8082 -0.4603
  922MPD2    N113502   1.006   1.089  17.618 -0.3188 -0.1423  0.1944
  922MPD2    H713503   1.070   1.128  17.686  0.7993 -0.9191 -0.4246
  923MPD2     C13504   1.647   2.378   9.087 -0.2902 -0.5332 -0.2689
  923MPD2    C113505   1.658   2.512   9.112 -0.0263 -0.3883 -0.0926
  923MPD2    C213506   1.762   2.556   9.192 -0.1627 -0.1608  0.2831
  923MPD2    C313507   1.841   2.469   9.263 -0.4880 -0.2900 -0.1679
  923MPD2    C413508   1.822   2.330   9.229 -0.5933  0.9253 -0.6111
  923MPD2    C513509   1.729   2.283   9.141 -0.4114 -0.2344  0.2706
  923MPD2     H13510   1.786   2.662   9.198  0.1677 -0.0509 -2.8425
  923MPD2    H113511   1.894   2.261   9.271 -1.0507  1.0591  0.4125
  923MPD2    H213512   1.573   2.353   9.011 -0.0096 -0.3494 -0.6004
  923MPD2    H313513   1.729   2.175   9.130 -1.3160 -0.0439 -1.5744
  923MPD2     N13514   1.966   2.501   9.339  0.5273  1.2708 -0.0666
  923MPD2    H513515   2.015   2.428   9.390 -0.7792  1.0425  0.8681
  923MPD2    N113516   1.576   2.604   9.039  0.3256 -0.5626  0.0357
  923MPD2    H713517   1.499   2.563   8.987  0.3263  1.5962 -1.6694
  924MPD2     C13518   2.108   1.357  15.680 -0.3248  0.7140 -0.2428
  924MPD2    C113519   2.062   1.283  15.790  0.0404 -0.5048 -0.3562
  924MPD2    C213520   2.016   1.367  15.896  0.1481 -0.1764 -0.6420
  924MPD2    C313521   1.993   1.503  15.884  0.8416  0.0597 -0.6294
  924MPD2    C413522   2.054   1.565  15.777  0.2863  0.1165  0.4397
  924MPD2    C513523   2.108   1.497  15.677 -0.1582 -0.2810 -0.3525
  924MPD2     H13524   1.993   1.315  15.988 -1.6139  0.0725 -0.9397
  924MPD2    H113525   2.061   1.673  15.778  0.2006  0.1410 -0.8713
  924MPD2    H213526   2.144   1.315  15.587 -0.2138  1.7963 -0.6911
  924MPD2    H313527   2.150   1.549  15.592  0.6139  1.0803  0.8724
  924MPD2     N13528   1.930   1.583  15.982  0.7758 -0.0329  0.2709
  924MPD2    H513529   1.916   1.680  15.955  1.2588 -0.0092  0.1060
  924MPD2    N113530   2.038   1.145  15.788  0.0539 -0.2100  0.2538
  924MPD2    H713531   2.034   1.104  15.696  0.0904  1.1563 -0.3567
  925MPD2     C13532   0.968   3.487  14.600 -0.7470  0.4391  0.3138
  925MPD2    C113533   0.837   3.460  14.577 -0.0851 -0.6985 -0.0505
  925MPD2    C213534   0.757   3.438  14.693 -0.1252  0.0445 -0.6232
  925MPD2    C313535   0.806   3.452  14.824  0.0115 -0.0611 -0.0384
  925MPD2    C413536   0.943   3.462  14.840 -0.6131 -1.1015  0.6856
  925MPD2    C513537   1.022   3.461  14.724 -0.6024 -0.2638 -0.6811
  925MPD2     H13538   0.653   3.412  14.675 -0.2555  1.6093 -2.1425
  925MPD2    H113539   0.998   3.452  14.933 -0.3857  2.6035  0.9447
  925MPD2    H213540   1.039   3.514  14.523 -0.4456 -0.8592  0.1284
  925MPD2    H313541   1.129   3.467  14.744 -1.0847  2.7776  1.0622
  925MPD2     N13542   0.727   3.447  14.937  0.0816 -0.6815 -0.4580
  925MPD2    H513543   0.769   3.432  15.028  0.2419 -0.7320 -0.5411
  925MPD2    N113544   0.772   3.468  14.451  0.4268  0.2539 -0.2620
  925MPD2    H713545   0.671   3.467  14.460  0.5439 -0.9097  0.9187
  926MPD2     C13546   4.462   2.130  13.487  0.0686 -0.4848 -0.1287
  926MPD2    C113547   4.395   2.247  13.458 -0.9078 -0.2813  0.1675
  926MPD2    C213548   4.446   2.332  13.362 -0.3963 -1.2120  0.2352
  926MPD2    C313549   4.560   2.303  13.290  0.2346  0.7811 -0.5911
  926MPD2    C413550   4.628   2.190  13.321  0.2364  0.1575 -0.4779
  926MPD2    C513551   4.578   2.106  13.424  0.2709  0.0596 -0.7454
  926MPD2     H13552   4.386   2.422  13.351  0.5203 -0.7430 -1.0043
  926MPD2    H113553   0.002   2.168  13.275  1.1980  2.2476  0.5595
  926MPD2    H213554   4.425   2.067  13.567  2.5109  0.2229  1.5671
  926MPD2    H313555   4.633   2.017  13.453 -1.0180 -0.2662  0.6931
  926MPD2     N13556   4.611   2.392  13.186 -0.5269  0.2165  0.0745
  926MPD2    H513557   4.693   2.362  13.134 -0.2329  1.1956 -0.0113
  926MPD2    N113558   4.274   2.285  13.517  0.4794  0.0917 -0.2253
  926MPD2    H713559   4.228   2.366  13.478 -0.0221 -0.8321 -1.5415
  927MPD2     C13560   3.933   4.520   0.384  0.1854  0.0104 -0.0771
  927MPD2    C113561   3.982   4.391   0.378  0.4995 -0.5921 -0.0187
  927MPD2    C213562   4.040   4.351   0.262 -0.5479 -0.1901 -0.4630
  927MPD2    C313563   4.066   4.440   0.163  0.1561 -0.0706 -0.1699
  927MPD2    C413564   4.034   4.571   0.173  0.2797  0.2659  0.0824
  927MPD2    C513565   3.962   4.612   0.288  0.1844  0.2016  0.6071
  927MPD2     H13566   4.047   4.244   0.244  0.0173  0.0759 -1.8284
  927MPD2    H113567   4.070   4.648   0.105 -0.7917 -0.7383 -1.6109
  927MPD2    H213568   3.868   4.549   0.465 -0.0215 -1.6619  0.3575
  927MPD2    H313569   3.937   4.717   0.298  1.6409  0.6033  0.0390
  927MPD2     N13570   4.141   4.393   0.054 -0.0141 -0.5965 -0.6672
  927MPD2    H513571   4.184   4.302   0.065 -1.3274 -0.7676  2.8578
  927MPD2    N113572   3.926   4.304   0.477  0.1030 -0.1151 -0.1221
  927MPD2    H713573   3.858   4.348   0.537  0.2335 -0.0306 -0.0365
  928MPD2     C13574   1.623   2.888   1.096 -0.4692  0.0967  0.6968
  928MPD2    C113575   1.740   2.937   1.156  0.7043 -0.0343  0.0877
  928MPD2    C213576   1.865   2.912   1.095  0.3227 -0.6431 -0.3074
  928MPD2    C313577   1.868   2.865   0.964  0.4506 -0.4287  0.1855
  928MPD2    C413578   1.746   2.844   0.900 -0.0945  0.3226  0.8124
  928MPD2    C513579   1.629   2.838   0.971  0.2566  0.2130  0.5822
  928MPD2     H13580   1.950   2.951   1.151 -1.6025  3.1161  0.0651
  928MPD2    H113581   1.746   2.819   0.794  0.4817 -0.1192  0.9163
  928MPD2    H213582   1.531   2.908   1.150 -1.2785  0.5131 -0.8310
  928MPD2    H313583   1.532   2.819   0.927  0.5232  0.6354 -0.2091
  928MPD2     N13584   1.986   2.861   0.881 -0.1498  0.1277  0.0286
  928MPD2    H513585   1.973   2.840   0.782 -0.2713  0.2937  0.0083
  928MPD2    N113586   1.723   3.021   1.274  0.1186 -0.0165  0.1861
  928MPD2    H713587   1.629   3.029   1.311 -0.0856  0.2877 -0.4004
  929MPD2     C13588   1.897   2.821  10.554 -0.1496  0.2032 -0.3495
  929MPD2    C113589   1.792   2.731  10.538  0.6886 -0.3827 -0.0283
  929MPD2    C213590   1.671   2.768  10.469  0.4252  0.1123  0.3850
  929MPD2    C313591   1.678   2.894  10.399 -0.0348  0.0582 -0.3475
  929MPD2    C413592   1.788   2.975  10.402  0.7440 -0.0847  0.0018
  929MPD2    C513593   1.888   2.947  10.490  0.1650 -0.3799  0.0367
  929MPD2     H13594   1.598   2.693  10.440 -0.4244  0.5341  1.4254
  929MPD2    H113595   1.794   3.071  10.352  0.2179 -0.9501 -1.7230
  929MPD2    H213596   1.981   2.792  10.616 -1.4492  1.3421  1.9523
  929MPD2    H313597   1.966   3.020  10.509  1.7780 -2.3373  1.0370
  929MPD2     N13598   1.573   2.947  10.319 -0.2726 -0.0293  0.6657
  929MPD2    H513599   1.575   3.042  10.283 -2.2848 -0.0220  0.6027
  929MPD2    N113600   1.804   2.604  10.603  0.2421  0.2749 -0.3416
  929MPD2    H713601   1.895   2.580  10.642 -0.1809 -1.6310 -0.5457
  930MPD2     C13602   3.846   0.112  14.534  0.6429 -0.1546 -0.2100
  930MPD2    C113603   3.793   0.112  14.411  0.0066 -0.1280 -0.4851
  930MPD2    C213604   3.688   0.027  14.383 -0.5757  0.1116  0.1664
  930MPD2    C313605   3.648   4.654  14.471  0.2230 -0.2589 -0.5564
  930MPD2    C413606   3.697   4.656  14.603 -0.6094 -0.3514 -0.1704
  930MPD2    C513607   3.794   0.033  14.630  0.7540  0.5108  0.4996
  930MPD2     H13608   3.667   0.011  14.278  0.4187 -1.0799  0.1534
  930MPD2    H113609   3.650   4.593  14.678 -2.3227  1.4279  0.2637
  930MPD2    H213610   3.932   0.177  14.550  0.6268 -0.4664  1.1392
  930MPD2    H313611   3.825   0.041  14.734  0.4094  1.3880  0.5332
  930MPD2     N13612   3.543   4.564  14.441 -0.0180 -0.2623 -0.2947
  930MPD2    H513613   3.536   4.483  14.501  3.1951 -0.4149 -0.1334
  930MPD2    N113614   3.852   0.198  14.314  0.0384  0.3012  0.4558
  930MPD2    H713615   3.918   0.265  14.350  2.7415 -1.1434 -1.8379
  931MPD2     C13616   4.090   3.541   0.716  0.5030 -0.0998 -0.3207
  931MPD2    C113617   3.985   3.610   0.774 -0.1188  0.0631 -0.2234
  931MPD2    C213618   3.927   3.544   0.882 -0.0686 -0.0085 -1.3854
  931MPD2    C313619   3.982   3.430   0.933 -0.1255  0.3708  0.6348
  931MPD2    C413620   4.076   3.362   0.866  0.1976 -0.0727  0.1455
  931MPD2    C513621   4.134   3.420   0.757  0.4048  0.0126  0.2535
  931MPD2     H13622   3.851   3.597   0.939  1.2493 -0.7896  1.1203
  931MPD2    H113623   4.100   3.258   0.881  0.0438  0.1480  1.8665
  931MPD2    H213624   4.119   3.579   0.619 -0.1352 -0.2307 -0.5585
  931MPD2    H313625   4.195   3.358   0.692  0.9697  0.5910  0.2385
  931MPD2     N13626   3.929   3.372   1.046  0.5671 -0.3074 -0.3185
  931MPD2    H513627   3.983   3.295   1.085  0.8257  0.8843  1.6786
  931MPD2    N113628   3.943   3.737   0.724  0.1314 -0.7972 -0.1272
  931MPD2    H713629   4.000   3.777   0.650 -2.3733  0.1703 -1.4938
  932MPD2     C13630   0.404   4.396  11.685 -0.4523 -0.1486 -0.3905
  932MPD2    C113631   0.473   4.370  11.569  0.2666 -0.3002  0.2887
  932MPD2    C213632   0.444   4.253  11.496  0.0621  0.0186  0.2796
  932MPD2    C313633   0.350   4.162  11.544  0.6405 -0.2250 -0.6388
  932MPD2    C413634   0.277   4.199  11.658  0.9070  0.4689 -0.2579
  932MPD2    C513635   0.302   4.314  11.722 -0.8583  1.1107 -1.0786
  932MPD2     H13636   0.514   4.221  11.421  1.7478 -0.4118  2.0311
  932MPD2    H113637   0.189   4.143  11.688  0.1902  2.5248  1.4503
  932MPD2    H213638   0.422   4.481  11.749 -0.8883 -0.4133  0.0819
  932MPD2    H313639   0.248   4.336  11.813 -2.1244 -1.5253 -1.2196
  932MPD2     N13640   0.324   4.038  11.483  0.6034 -0.7746 -0.1891
  932MPD2    H513641   0.256   3.976  11.525  0.6817 -0.6578  0.1161
  932MPD2    N113642   0.586   4.441  11.532  0.1699 -0.0624 -0.1964
  932MPD2    H713643   0.632   4.420  11.444  0.4223 -0.7655  0.0999
  933MPD2     C13644   1.180   3.307   1.390  0.6684 -0.2821  0.3863
  933MPD2    C113645   1.268   3.374   1.468 -0.2719  0.5748  0.4292
  933MPD2    C213646   1.245   3.510   1.507  0.0867 -0.0114 -0.0193
  933MPD2    C313647   1.138   3.576   1.453  0.8406 -0.6073  0.5064
  933MPD2    C413648   1.051   3.510   1.370 -0.1986  0.5002  0.0268
  933MPD2    C513649   1.070   3.375   1.344 -0.2182  0.1166  0.0355
  933MPD2     H13650   1.313   3.567   1.568  0.3684  1.7445 -1.9865
  933MPD2    H113651   0.956   3.552   1.337  0.8281  2.1765 -0.8160
  933MPD2    H213652   1.200   3.204   1.362 -0.0068  0.2863 -2.1627
  933MPD2    H313653   0.991   3.329   1.285 -0.5086 -0.4123  0.8392
  933MPD2     N13654   1.123   3.714   1.471  0.3567  0.2147 -0.0856
  933MPD2    H513655   1.194   3.756   1.530  0.4548 -1.1671  0.7889
  933MPD2    N113656   1.372   3.289   1.502  0.4601 -0.1566  0.1650
  933MPD2    H713657   1.390   3.202   1.452 -3.1907 -0.5272 -0.4821
  934MPD2     C13658   3.069   1.130   1.590 -0.7581 -0.1696  0.3385
  934MPD2    C113659   3.176   1.044   1.560 -0.5649 -0.7183 -0.9313
  934MPD2    C213660   3.159   0.916   1.520  0.2885  0.3339 -0.0008
  934MPD2    C313661   3.030   0.875   1.490 -0.0477  0.4835  0.3763
  934MPD2    C413662   2.922   0.946   1.536 -0.2595 -0.3110 -0.9075
  934MPD2    C513663   2.944   1.067   1.587 -0.3770 -0.8418 -0.0544
  934MPD2     H13664   3.247   0.855   1.505 -0.4705 -0.9481  0.7986
  934MPD2    H113665   2.818   0.915   1.531 -1.1268  2.6141 -0.7956
  934MPD2    H213666   3.069   1.233   1.625 -0.7087 -0.4556  1.1981
  934MPD2    H313667   2.855   1.106   1.635  1.8395  0.2774  3.1288
  934MPD2     N13668   2.998   0.755   1.434 -0.0580 -0.1067 -0.1901
  934MPD2    H513669   2.899   0.735   1.430 -0.7171  3.0646  0.3532
  934MPD2    N113670   3.310   1.090   1.566 -0.3921  0.0637  0.8053
  934MPD2    H713671   3.384   1.022   1.553 -1.5167 -1.1057  0.4714
  935MPD2     C13672   3.587   4.711   1.223  0.2033 -0.1570 -1.0258
  935MPD2    C113673   3.454   4.671   1.207  0.4720 -0.3808  0.0710
  935MPD2    C213674   3.354   0.037   1.191  0.2969 -0.7619 -0.2553
  935MPD2    C313675   3.378   0.172   1.197 -0.4573 -0.5986 -0.8285
  935MPD2    C413676   3.508   0.211   1.231 -1.1258  0.3505  1.1430
  935MPD2    C513677   3.604   0.125   1.244 -0.0419 -0.4365  0.0328
  935MPD2     H13678   3.254   4.717   1.191  0.3533 -0.8882  3.4254
  935MPD2    H113679   3.532   0.316   1.224  2.4241 -0.5900 -0.3326
  935MPD2    H213680   3.665   4.638   1.239 -2.4089 -3.1745 -1.9325
  935MPD2    H313681   3.701   0.172   1.252 -0.5302  0.4579  0.6890
  935MPD2     N13682   3.282   0.275   1.190  0.6306  0.3450 -0.5317
  935MPD2    H513683   3.318   0.366   1.217  1.6268 -0.2910  0.3125
  935MPD2    N113684   3.418   4.537   1.179  0.1273  0.0625  0.2771
  935MPD2    H713685   3.319   4.519   1.166  0.1479  0.1806 -0.0232
  936MPD2     C13686   0.912   1.991  12.642 -0.5712 -0.5716  0.1324
  936MPD2    C113687   0.948   1.859  12.673 -0.2133 -0.7603 -0.0092
  936MPD2    C213688   1.051   1.797  12.602  0.1249 -0.6405  0.0953
  936MPD2    C313689   1.125   1.869  12.503 -0.2161  0.1009  0.4150
  936MPD2    C413690   1.105   2.006  12.489 -0.0358 -0.1088  0.0848
  936MPD2    C513691   0.991   2.057  12.545 -0.0381  0.1076 -0.8029
  936MPD2     H13692   1.078   1.695  12.630  2.1555  0.8388  3.6206
  936MPD2    H113693   1.172   2.060  12.424  0.1160 -0.2694  0.1082
  936MPD2    H213694   0.831   2.056  12.674 -1.7189 -1.6781 -0.5551
  936MPD2    H313695   0.970   2.159  12.515  0.0176  0.3622  0.0184
  936MPD2     N13696   1.250   1.818  12.447  0.1163 -0.0571 -0.0275
  936MPD2    H513697   1.305   1.880  12.389  0.8558 -1.3948 -0.7568
  936MPD2    N113698   0.896   1.784  12.776  0.2730 -0.1238  0.2514
  936MPD2    H713699   0.931   1.691  12.797 -2.6802 -0.8399  2.0934
  937MPD2     C13700   4.004   3.739  11.817  0.1429  0.2566  0.3008
  937MPD2    C113701   3.956   3.866  11.797  0.5342 -0.5741 -0.4931
  937MPD2    C213702   4.026   3.948  11.718  0.4504 -0.1077  0.5313
  937MPD2    C313703   4.149   3.912  11.651  0.0190  0.1711  0.0256
  937MPD2    C413704   4.196   3.781  11.679  0.7260  0.2775  0.2894
  937MPD2    C513705   4.122   3.692  11.758  0.3587 -0.5588  0.4814
  937MPD2     H13706   3.980   4.043  11.695  1.8491  1.4826  4.3128
  937MPD2    H113707   4.292   3.739  11.650  1.1444  1.7180 -0.3936
  937MPD2    H213708   3.956   3.675  11.890  0.7025  0.3431  0.7495
  937MPD2    H313709   4.162   3.598  11.794 -0.8135 -1.8111 -1.4845
  937MPD2     N13710   4.212   4.008  11.576 -0.0289  0.7158 -0.5750
  937MPD2    H513711   4.175   4.102  11.571 -0.1529  0.5382 -2.8681
  937MPD2    N113712   3.857   3.927  11.868  0.2785  0.4780  0.2135
  937MPD2    H713713   3.839   4.025  11.849 -1.5538  0.0701 -0.1961
  938MPD2     C13714   2.350   4.496   0.913  0.1427  0.3645  0.4468
  938MPD2    C113715   2.248   4.582   0.920  0.2879  0.2724 -0.1471
  938MPD2    C213716   2.148   4.547   1.013  0.4455 -0.3758  0.2163
  938MPD2    C313717   2.153   4.436   1.094 -0.0701  0.2943 -0.3362
  938MPD2    C413718   2.259   4.351   1.083 -0.0882  0.3156 -0.5380
  938MPD2    C513719   2.353   4.382   0.989  0.8039  0.3991 -0.3767
  938MPD2     H13720   2.060   4.609   1.014  0.0384 -0.9168 -2.1177
  938MPD2    H113721   2.271   4.264   1.146  4.3096  1.1402 -0.2501
  938MPD2    H213722   2.435   4.510   0.847  1.3143 -1.7642  1.5463
  938MPD2    H313723   2.438   4.315   0.979 -0.1546 -0.9955  0.8123
  938MPD2     N13724   2.051   4.397   1.184  0.5752  0.2387 -0.4125
  938MPD2    H513725   2.069   4.316   1.243 -2.1321 -1.0929 -1.4383
  938MPD2    N113726   2.241   4.706   0.855 -0.4801  0.0822 -0.9516
  938MPD2    H713727   2.155   0.036   0.869 -0.6068  0.0255 -1.5487
  939MPD2     C13728   3.662   1.582   0.512 -0.1751 -0.3529  0.0037
  939MPD2    C113729   3.741   1.589   0.622  0.5885 -0.3297  0.6828
  939MPD2    C213730   3.876   1.567   0.606  0.5256 -0.3715 -0.2317
  939MPD2    C313731   3.937   1.533   0.491 -0.5404  0.1303  0.9142
  939MPD2    C413732   3.857   1.530   0.377 -0.5430  0.2671 -0.6316
  939MPD2    C513733   3.717   1.559   0.386  0.2299  0.5026  0.1564
  939MPD2     H13734   3.940   1.579   0.692  0.1335 -4.9360  0.6588
  939MPD2    H113735   3.889   1.512   0.275 -0.5841  1.0236 -0.7785
  939MPD2    H213736   3.558   1.610   0.515 -0.1548 -0.4618  1.4077
  939MPD2    H313737   3.650   1.550   0.300  1.8145 -1.2178 -0.8866
  939MPD2     N13738   4.071   1.494   0.493  0.5726  0.5723  0.2424
  939MPD2    H513739   4.120   1.518   0.579  0.2120 -3.0401  1.4357
  939MPD2    N113740   3.677   1.628   0.742 -0.0895  0.2576  0.7369
  939MPD2    H713741   3.584   1.666   0.731  0.7286  1.7966 -0.9135
  940MPD2     C13742   2.326   2.077  13.150 -0.9627 -0.2190 -0.0192
  940MPD2    C113743   2.257   1.973  13.108  0.2944 -0.5543  0.2610
  940MPD2    C213744   2.289   1.918  12.984 -0.4453  0.3060  0.2037
  940MPD2    C313745   2.395   1.979  12.916 -0.4747 -0.1272  0.0335
  940MPD2    C413746   2.462   2.090  12.967  0.2792 -0.0293 -0.1007
  940MPD2    C513747   2.429   2.143  13.087  0.5491  0.3244 -0.3282
  940MPD2     H13748   2.216   1.849  12.944  1.4960 -0.8518 -1.3380
  940MPD2    H113749   2.546   2.139  12.918 -1.0813 -0.0815 -2.4496
  940MPD2    H213750   2.288   2.107  13.247  0.9950  0.8006  0.4355
  940MPD2    H313751   2.479   2.221  13.142  2.1244 -1.7053  1.1097
  940MPD2     N13752   2.447   1.936  12.794  0.1262 -0.0582 -0.1948
  940MPD2    H513753   2.534   1.976  12.762 -0.6339  0.4381 -1.6394
  940MPD2    N113754   2.157   1.919  13.194  0.2627  0.1096  0.5235
  940MPD2    H713755   2.143   1.961  13.286 -0.2180 -2.2256  1.5141
  941MPD2     C13756   0.704   1.525   9.508 -0.6122 -0.0119 -0.0172
  941MPD2    C113757   0.816   1.480   9.576  0.7921 -0.0050  0.7461
  941MPD2    C213758   0.802   1.365   9.649  0.0344 -0.5498  0.5291
  941MPD2    C313759   0.690   1.289   9.646  0.8196 -0.7309 -0.5462
  941MPD2    C413760   0.577   1.338   9.580 -0.0222  0.0881  0.5367
  941MPD2    C513761   0.587   1.455   9.512  0.5288 -0.1813 -0.1382
  941MPD2     H13762   0.889   1.332   9.704  0.5262  0.4981  0.3850
  941MPD2    H113763   0.488   1.277   9.569  0.9214 -0.7757 -2.4368
  941MPD2    H213764   0.706   1.614   9.446  0.1263  1.7391  2.5267
  941MPD2    H313765   0.495   1.488   9.465  0.8698  0.6799 -0.2081
  941MPD2     N13766   0.679   1.157   9.705  0.4063  0.1378 -0.4382
  941MPD2    H513767   0.590   1.111   9.693  0.8651 -1.0103  0.5917
  941MPD2    N113768   0.941   1.544   9.569 -0.1866  0.1046 -0.5183
  941MPD2    H713769   1.002   1.520   9.647  0.2589  0.4475 -0.7674
  942MPD2     C13770   0.516   2.538   9.429 -0.5481  0.6493  0.4999
  942MPD2    C113771   0.515   2.491   9.561  0.4607  0.4047  0.0535
  942MPD2    C213772   0.538   2.579   9.660  0.3926 -0.3981  0.5569
  942MPD2    C313773   0.577   2.706   9.631  0.3752  0.2781  0.1408
  942MPD2    C413774   0.590   2.749   9.502  0.1376 -0.7450  0.2592
  942MPD2    C513775   0.568   2.660   9.402  0.6411 -0.4350  0.0347
  942MPD2     H13776   0.523   2.550   9.763  0.0868 -0.5549  0.4695
  942MPD2    H113777   0.620   2.846   9.464 -2.1557 -0.8322 -1.7644
  942MPD2    H213778   0.496   2.472   9.344 -2.6501 -1.0629  2.3200
  942MPD2    H313779   0.561   2.713   9.307  0.0019 -0.4074  0.0992
  942MPD2     N13780   0.618   2.808   9.722 -0.5422  0.2953 -0.5706
  942MPD2    H513781   0.642   2.899   9.682  0.6639  1.4428  2.7199
  942MPD2    N113782   0.475   2.358   9.594 -0.2545 -0.4606  0.1713
  942MPD2    H713783   0.473   2.331   9.692 -0.4660 -0.2633  0.2234
  943MPD2     C13784   4.460   2.102   9.035  1.0538 -0.1104 -0.1249
  943MPD2    C113785   4.455   2.014   9.132  0.2430  0.4252  0.0607
  943MPD2    C213786   4.511   2.048   9.259 -0.5596  0.4237  0.2366
  943MPD2    C313787   4.582   2.170   9.272  0.3338  0.0320  0.1658
  943MPD2    C413788   4.590   2.253   9.161  0.5353  0.5683  0.0076
  943MPD2    C513789   4.528   2.220   9.045 -0.1584 -0.1509  0.2283
  943MPD2     H13790   4.504   1.984   9.345 -1.4963 -0.5470 -0.5667
  943MPD2    H113791   4.645   2.346   9.160  0.4578  0.6343  1.4469
  943MPD2    H213792   4.407   2.086   8.942  1.7552 -1.7313 -0.2422
  943MPD2    H313793   4.544   2.285   8.960  0.5435 -0.8057 -0.1403
  943MPD2     N13794   4.635   2.211   9.396  0.0299 -0.0089 -0.5934
  943MPD2    H513795   4.694   2.294   9.400 -1.8805  1.2607  1.4096
  943MPD2    N113796   4.382   1.893   9.111  0.3865  0.7657  0.2925
  943MPD2    H713797   4.346   1.880   9.017 -0.7174 -1.9788  1.1188
  944MPD2     C13798   4.206   0.107  10.642  0.7183  0.8095 -0.1103
  944MPD2    C113799   4.226   0.230  10.585  0.1103 -0.2108 -0.4309
  944MPD2    C213800   4.240   0.344  10.667 -0.0133  0.6039 -0.0208
  944MPD2    C313801   4.244   0.327  10.807 -0.6271  0.5282 -0.2080
  944MPD2    C413802   4.232   0.195  10.856  0.0779  0.1767 -0.1922
  944MPD2    C513803   4.224   0.094  10.775  0.1937  0.3592 -0.6498
  944MPD2     H13804   4.258   0.447  10.635 -1.1263  0.6989 -0.3557
  944MPD2    H113805   4.236   0.172  10.962 -1.9672  1.2747  0.1329
  944MPD2    H213806   4.206   0.017  10.582 -0.3087  0.2303  0.7546
  944MPD2    H313807   4.212   4.713  10.807  1.2997  0.0411 -1.2610
  944MPD2     N13808   4.251   0.439  10.893  0.0487  0.4468 -0.4220
  944MPD2    H513809   4.262   0.528  10.845  0.6979 -0.0054 -1.1191
  944MPD2    N113810   4.241   0.240  10.444 -0.2629  0.2534  0.2327
  944MPD2    H713811   4.241   0.155  10.389  0.7787  0.2617  0.2211
    1TCq1    O113812   2.488   0.598  14.814  0.0969 -0.6921 -0.2919
    1TCq1    C113813   2.606   0.630  14.872 -0.4690  0.1441  0.2049
    1TCq1    O213814   2.626   0.640  14.992  0.1099  0.1988 -0.0369
    1TCq1    C213815   2.642   0.736  14.777 -0.6049 -0.3692  0.2595
    1TCq1    C313816   2.671   0.713  14.647  0.0504 -0.1552  0.2234
    1TCq1    C413817   2.660   0.809  14.548 -0.1166 -0.2498  0.0873
    1TCq1    C513818   2.624   0.936  14.589  0.9018 -0.0419  0.5965
    1TCq1    C613819   2.587   0.955  14.717 -0.0167  0.3935  0.2059
    1TCq1    C713820   2.591   0.858  14.809  0.3597  0.2031  0.0401
    1TCq1    C813821   2.529   1.088  14.762 -0.6300  0.1627 -0.7861
    1TCq1    O413822   2.492   1.088  14.880  0.1364 -0.0239  0.1964
    1TCq1    C913823   2.684   0.778  14.413 -0.5591 -0.4650  0.1296
    1TCq1    O513824   2.667   0.870  14.329 -0.4731 -0.2287  0.1062
    1TCq1    O613825   2.675   0.653  14.393 -0.5020  0.5524  1.0926
    1TCq1    H113826   2.492   0.635  14.724  0.8096  1.0378  0.4466
    1TCq1    H213827   2.720   0.620  14.622  1.5710  0.7411 -0.0876
    1TCq1    H313828   2.619   1.010  14.511 -0.0075 -1.3492 -0.5835
    1TCq1    H413829   2.553   0.872  14.910 -0.3598 -1.3465 -0.0083
    2MPD2     C13830   2.515   1.598  14.726 -0.3154 -0.7720 -0.2092
    2MPD2    C113831   2.546   1.549  14.598  0.4021 -0.3072  0.2611
    2MPD2    C213832   2.549   1.414  14.577  0.2165  0.1614  0.0149
    2MPD2    C313833   2.523   1.326  14.687  0.4853  0.5546 -0.2055
    2MPD2    C413834   2.484   1.377  14.807 -0.1996  0.1286 -0.2258
    2MPD2    C513835   2.486   1.511  14.825  1.0098  0.3456  0.6994
    2MPD2     H13836   2.570   1.364  14.483  0.9977  2.2114 -0.9194
    2MPD2    H113837   2.468   1.302  14.885 -1.1680 -1.2581 -1.7582
    2MPD2    H213838   2.527   1.703  14.749  0.1128 -0.5740 -1.2792
    2MPD2    H313839   2.467   1.547  14.926  1.8513  0.0346  0.9693
    2MPD2     N13840   2.540   1.191  14.671  0.2550 -0.3002 -0.0269
    2MPD2    H513841   2.596   1.163  14.592  0.9457 -1.4564  0.8775
    2MPD2    N113842   2.572   1.643  14.495 -0.7941  0.3644 -0.2437
    2MPD2    H713843   2.564   1.743  14.512  1.4333  0.2710  1.2816
    3TMC2    C113844   2.605   1.729  14.288 -0.1157  0.6043  0.4200
    3TMC2    C213845   2.701   1.814  14.337  0.0470 -0.5374  0.1401
    3TMC2    C313846   2.720   1.929  14.263 -0.0015 -0.4382 -0.0167
    3TMC2    C413847   2.524   1.750  14.177 -0.2346  0.1354  0.0466
    3TMC2    C513848   2.547   1.864  14.109  0.3516  0.0484 -0.5357
    3TMC2    C613849   2.645   1.948  14.146 -0.3737 -0.3807  0.1722
    3TMC2     C13850   2.594   1.612  14.368 -0.0238  0.2322  0.1447
    3TMC2     O13851   2.589   1.505  14.308 -0.4455 -0.3361  0.0898
    3TMC2     H13852   2.759   1.791  14.426  1.6204  0.1960 -0.7071
    3TMC2    H113853   2.433   1.695  14.153 -0.8379  1.0629  0.2009
    3TMC2    H213854   2.652   2.044  14.098 -0.7096 -0.3565  0.1700
    3TMC2    C713855   2.452   1.899  14.005  0.2075  0.0816  0.4055
    3TMC2    C813856   2.830   2.020  14.299 -0.3204 -0.1201 -0.4408
    3TMC2    O113857   2.392   1.813  13.944  0.0243  0.2791 -0.4971
    3TMC2    O213858   2.874   2.022  14.414  0.1212 -0.1109  0.2639
    3TMC2    O513859   2.903   2.043  14.191 -0.1729 -0.6792  0.0336
    3TMC2    H513860   2.855   2.028  14.106  1.2721 -1.2032 -0.6866
    4MPD2     C13861   1.669   2.888  13.303  0.4994  0.1103  0.2819
    4MPD2    C113862   1.711   2.756  13.320 -0.0899  0.0495  1.0945
    4MPD2    C213863   1.810   2.718  13.417 -0.0135  0.0132  0.6701
    4MPD2    C313864   1.872   2.816  13.489  1.0583 -0.5030  0.1500
    4MPD2    C413865   1.828   2.948  13.475  0.0638  0.0089  0.0617
    4MPD2    C513866   1.725   2.983  13.382  0.5012  0.0865  1.0347
    4MPD2     H13867   1.846   2.617  13.434  2.4392  0.7625 -0.1687
    4MPD2    H113868   1.860   3.024  13.546  2.9651 -0.1251 -1.1283
    4MPD2    H213869   1.596   2.921  13.230  0.4434 -0.8776 -0.1184
    4MPD2    H313870   1.679   3.081  13.388  0.0810 -0.0719  0.4219
    4MPD2     N13871   1.984   2.789  13.578  0.4205  0.0873 -0.5616
    4MPD2    H513872   2.014   2.691  13.580  0.4241  0.1165  0.4680
    4MPD2    N113873   1.654   2.667  13.231  0.1458  0.5082  0.2099
    4MPD2    H713874   1.603   2.709  13.154  2.7813  0.9713 -1.3027
    5TCq2    C113875   2.062   2.884  13.630 -0.3086 -0.0995 -0.3951
    5TCq2    O213876   2.048   3.004  13.648 -0.3202  0.0304 -0.1954
    5TCq2    C213877   2.182   2.829  13.690  0.1512  0.2070 -0.0149
    5TCq2    C313878   2.287   2.908  13.669 -0.4443  0.8900  0.1344
    5TCq2    C413879   2.406   2.869  13.726 -0.0508  0.6644 -0.0661
    5TCq2    C513880   2.422   2.749  13.788 -0.1439  0.0327 -0.3494
    5TCq2    C613881   2.310   2.673  13.812 -0.2570  0.2398 -0.4934
    5TCq2    C713882   2.190   2.712  13.763 -0.5781 -0.1239 -0.4110
    5TCq2    C813883   2.331   2.535  13.868  0.0432 -0.3041  0.7676
    5TCq2    O413884   2.444   2.515  13.907  0.0243 -0.5828 -0.2568
    5TCq2    C913885   2.519   2.957  13.716  0.5984 -0.6229  0.1587
    5TCq2    O513886   2.521   3.041  13.624 -0.0758 -0.1764  1.0318
    5TCq2    O613887   2.621   2.932  13.784  0.0945  0.3479  0.3419
    5TCq2    H213888   2.286   3.004  13.619  0.4041  0.3037 -1.0207
    5TCq2    H313889   2.525   2.726  13.815  0.1670  0.6572 -1.0089
    5TCq2    H413890   2.099   2.659  13.786 -0.2043 -0.4454  0.3105
    6MPD1     C13891   2.108   3.258  11.681  1.7125  0.3046  0.6271
    6MPD1    C113892   2.204   3.194  11.754 -0.9227 -0.4207  0.3383
    6MPD1    C213893   2.167   3.093  11.839  0.0010  0.5541  0.7140
    6MPD1    C313894   2.037   3.040  11.835  0.0722  0.0334 -0.1477
    6MPD1    C413895   1.946   3.106  11.749 -0.2027  0.2668  0.1194
    6MPD1    C513896   1.984   3.207  11.671 -0.5352  0.1177  0.3213
    6MPD1     H13897   2.244   3.053  11.903  1.6902  2.2481 -0.3013
    6MPD1    H113898   1.847   3.062  11.740  0.1530 -0.4612 -0.2683
    6MPD1    H213899   2.131   3.333  11.607 -1.1274  0.7941  0.2296
    6MPD1    H313900   1.904   3.246  11.609 -1.9001 -0.7136  1.5440
    6MPD1     N13901   1.994   2.930  11.920 -0.1542  0.7084 -0.7926
    6MPD1    H513902   1.896   2.904  11.914 -0.4310  1.3420  1.1082
    6MPD1    N113903   2.338   3.240  11.764 -0.0368 -0.4125 -0.3169
    6MPD1    H613904   2.377   3.272  11.676  0.6872  2.3185  0.9566
    6MPD1    H713905   2.400   3.181  11.819 -1.2136  0.2620  1.7564
    7MPD2     C13906   1.416   2.719  12.410 -0.7785 -1.0450 -0.3247
    7MPD2    C113907   1.528   2.642  12.431  0.1194  0.1069  0.9980
    7MPD2    C213908   1.541   2.569  12.541  0.2215 -0.5550  0.4714
    7MPD2    C313909   1.447   2.567  12.645  0.1154 -0.3261  0.7325
    7MPD2    C413910   1.332   2.643  12.626  0.4606  0.1796 -0.0669
    7MPD2    C513911   1.322   2.717  12.509  0.3340  0.1489 -0.0355
    7MPD2     H13912   1.632   2.512  12.557  0.3958  0.0927  1.7314
    7MPD2    H113913   1.257   2.644  12.705  0.5513 -0.2699  0.0238
    7MPD2    H213914   1.416   2.774  12.317  0.4154 -1.7242 -0.7247
    7MPD2    H313915   1.233   2.774  12.487  0.5541  0.6514  0.3625
    7MPD2     N13916   1.465   2.472  12.749 -0.5572  0.1974  0.1538
    7MPD2    H513917   1.540   2.404  12.740 -0.3062  0.5652 -0.5688
    7MPD2    N113918   1.648   2.639  12.353 -0.2343 -0.3800 -0.1452
    7MPD2    H713919   1.722   2.571  12.370 -0.8923 -1.8653 -3.2026
    8TMC3    C113920   1.463   2.398  12.965  0.5727 -0.0338  1.0446
    8TMC3    C213921   1.513   2.482  13.070  0.5920 -0.3263  0.6975
    8TMC3    C313922   1.648   2.478  13.086 -0.2728 -0.8125  0.1008
    8TMC3    C413923   1.547   2.302  12.910  0.5292  0.5373 -1.0168
    8TMC3    C513924   1.679   2.303  12.942 -0.2754 -0.4010  0.1900
    8TMC3    C613925   1.726   2.386  13.034  0.0677  0.1433  0.6026
    8TMC3     C13926   1.398   2.474  12.868 -0.1271 -1.0110  0.6663
    8TMC3     O13927   1.317   2.551  12.915 -0.4373 -0.2042 -0.4458
    8TMC3     H13928   1.454   2.551  13.128  1.4683  1.5415 -0.6496
    8TMC3    H113929   1.504   2.236  12.836 -0.7948  1.5114 -1.1162
    8TMC3    H213930   1.830   2.388  13.065  0.1335 -1.7952  0.5106
    8TMC3    C713931   1.763   2.281  12.828  0.1779 -0.4001  0.2111
    8TMC3    C813932   1.697   2.536  13.213 -0.4007 -0.0114  0.2422
    8TMC3    O113933   1.714   2.305  12.720  0.1652 -0.6010 -0.8862
    8TMC3    O213934   1.767   2.466  13.285 -0.0912  1.3203 -0.1867
    9TMC3    C113935   2.009   2.773  12.091 -0.0580  0.7133  0.2313
    9TMC3    C213936   2.095   2.696  12.171 -0.1416 -0.0217  0.4991
    9TMC3    C313937   2.041   2.647  12.291 -0.2746 -0.1874 -0.0265
    9TMC3    C413938   1.875   2.792  12.125 -0.1812 -0.3833 -0.4043
    9TMC3    C513939   1.830   2.728  12.239 -0.3250  0.9581  0.0600
    9TMC3    C613940   1.909   2.661  12.325 -0.8763 -0.0960 -0.2385
    9TMC3     C13941   2.074   2.856  12.002  0.2055 -0.3367 -0.6004
    9TMC3     O13942   2.197   2.865  12.008 -0.1918  0.3330 -0.3232
    9TMC3     H13943   2.202   2.684  12.159 -0.5246 -1.8436 -1.1019
    9TMC3    H113944   1.808   2.859  12.072  1.7889  0.2358 -2.1295
    9TMC3    H213945   1.870   2.655  12.426  2.7126 -0.8778  1.1390
    9TMC3    C713946   1.691   2.739  12.269  1.2225  0.3765 -1.0046
    9TMC3    C813947   2.128   2.582  12.387 -0.2978 -0.0862  0.2378
    9TMC3    O113948   1.630   2.843  12.228  0.0286 -0.0367 -0.4390
    9TMC3    O213949   2.248   2.619  12.400 -0.0808 -0.0097 -0.0426
   10MPD2     C13950   2.127   2.347  12.830 -0.1970 -0.4150  0.8013
   10MPD2    C113951   2.004   2.334  12.776 -0.3121  0.8369  0.4220
   10MPD2    C213952   1.985   2.381  12.650  0.0406  0.3407 -0.4944
   10MPD2    C313953   2.086   2.445  12.585 -0.0587 -0.1227 -0.2552
   10MPD2    C413954   2.218   2.446  12.633 -0.0189 -0.1445  0.5969
   10MPD2    C513955   2.235   2.398  12.760 -0.7063 -0.4027 -0.2761
   10MPD2     H13956   1.891   2.373  12.598  0.4615  0.1049 -1.2213
   10MPD2    H113957   2.303   2.497  12.587 -0.0566  0.1424  0.8505
   10MPD2    H213958   2.145   2.303  12.927  1.7382 -2.2536 -0.3936
   10MPD2    H313959   2.333   2.388  12.806 -0.6360 -0.3274 -0.4103
   10MPD2     N13960   2.050   2.500  12.463 -0.3619  0.7335 -0.3653
   10MPD2    H513961   1.957   2.482  12.427 -0.3418  1.2160 -0.6607
   10MPD2    N113962   1.898   2.283  12.859  0.2186  0.2601  0.1701
   10MPD2    H713963   1.927   2.239  12.946  0.2830  1.4224  0.7391
   11MPD2     C13964   2.206   2.036  13.890  0.0419  0.0005  0.1628
   11MPD2    C113965   2.319   2.101  13.927  1.0850  0.2626 -0.4774
   11MPD2    C213966   2.327   2.238  13.904 -0.2237 -0.4951 -0.6003
   11MPD2    C313967   2.222   2.304  13.848  0.9440 -0.4024 -0.3734
   11MPD2    C413968   2.116   2.237  13.796 -0.5986 -0.6288  0.1843
   11MPD2    C513969   2.109   2.104  13.819  0.1091 -0.6795 -0.2555
   11MPD2     H13970   2.419   2.292  13.922 -0.0949 -0.9288  0.0544
   11MPD2    H113971   2.031   2.286  13.750  0.5987  0.3710 -0.9438
   11MPD2    H213972   2.190   1.935  13.925  1.3176  0.0339  0.8525
   11MPD2    H313973   2.020   2.045  13.796 -0.5605  0.2810 -0.1224
   11MPD2     N13974   2.229   2.444  13.828 -0.3062 -0.1661 -0.0037
   11MPD2    H513975   2.151   2.483  13.775  0.7924  0.8250 -0.8958
   11MPD2    N113976   2.424   2.035  14.000  0.0888 -0.3321 -0.0330
   11MPD2    H713977   2.490   2.091  14.053 -0.0546 -0.3423  0.1547
    1MPD1     C13978   4.532   2.890  17.081  0.1025 -0.1223 -0.4955
    1MPD1    C113979   4.527   3.002  17.008 -0.7253 -0.3179  0.2619
    1MPD1    C213980   4.647   3.060  16.989 -0.4730 -0.9524 -0.0317
    1MPD1    C313981   0.044   2.999  17.007  0.1700  0.5124  0.1473
    1MPD1    C413982   0.049   2.875  17.070  0.2292 -0.1925  0.1846
    1MPD1    C513983   4.650   2.828  17.112 -0.2856  0.0391 -1.3335
    1MPD1     H13984   4.648   3.163  16.955 -0.5674 -0.4741  1.4105
    1MPD1    H113985   0.143   2.823  17.084 -0.9311 -2.3000  0.1197
    1MPD1    H213986   4.442   2.841  17.117  1.0822 -0.3834  1.6350
    1MPD1    H313987   4.647   2.737  17.170  1.4356  0.8713  0.0357
    1MPD1     N13988   0.171   3.058  16.979  0.3271  0.0160  0.1288
    1MPD1    H513989   0.253   3.003  17.002  0.6650  0.1441 -0.7490
    1MPD1    N113990   4.409   3.067  16.993  0.1062  0.3483  0.4185
    1MPD1    H613991   4.408   3.140  16.921 -1.6518  0.2916  0.3847
    1MPD1    H713992   4.334   3.000  16.980  2.1976 -1.8070 -0.7321
    2MPD1     C13993   0.398   3.836  16.483 -0.0483 -0.2197  0.3720
    2MPD1    C113994   0.297   3.741  16.470 -0.4105  0.4559 -0.1542
    2MPD1    C213995   0.327   3.617  16.526 -0.6198  0.3990 -0.8921
    2MPD1    C313996   0.440   3.596  16.605  0.1101 -0.4223 -0.1146
    2MPD1    C413997   0.528   3.703  16.633  0.3388 -0.4816  0.1430
    2MPD1    C513998   0.510   3.820  16.565  0.5162  0.1691  0.1487
    2MPD1     H13999   0.258   3.536  16.508  1.1849 -1.7648  1.8741
    2MPD1    H114000   0.611   3.697  16.703  0.2294 -1.4594  0.1916
    2MPD1    H214001   0.399   3.925  16.421  0.6536 -0.4143  0.0935
    2MPD1    H314002   0.580   3.903  16.575 -0.4009  1.0347 -0.6345
    2MPD1     N14003   0.449   3.474  16.670  0.9537  0.2539 -0.3222
    2MPD1    H514004   0.375   3.406  16.652  1.3426 -0.3439  0.3420
    2MPD1    N114005   0.180   3.767  16.390 -0.2357 -0.0094 -0.2522
    2MPD1    H614006   0.153   3.865  16.385 -1.2577 -0.2332  0.9176
    2MPD1    H714007   0.103   3.700  16.400  0.5296 -0.7461  0.7437
    3TMC3    C114008   0.510   3.325  16.849  0.7134  0.2082  0.2804
    3TMC3    C214009   0.603   3.234  16.873  0.8807  0.0637 -1.1971
    3TMC3    C314010   0.560   3.112  16.919  0.0975 -0.1255 -0.1780
    3TMC3    C414011   0.382   3.322  16.889 -0.4705 -0.1062  0.1831
    3TMC3    C514012   0.342   3.202  16.929 -0.1703 -0.1633 -0.2771
    3TMC3    C614013   0.429   3.097  16.946 -0.1242  0.2633 -0.1375
    3TMC3     C14014   0.543   3.440  16.769 -1.1686  0.0676 -0.5555
    3TMC3     O14015   0.655   3.496  16.786  0.1499 -0.2562  0.1125
    3TMC3     H14016   0.696   3.249  16.820  2.1083  0.8173  1.2030
    3TMC3    H114017   0.317   3.405  16.862  1.9604  1.5920 -0.4993
    3TMC3    H214018   0.406   3.004  16.996  2.4416  0.3094  1.1273
    3TMC3    C714019   0.198   3.180  16.925  0.0960 -0.0755 -0.0171
    3TMC3    C814020   0.656   3.009  16.936  0.2044  0.4490  0.6394
    3TMC3    O114021   0.115   3.253  16.865  1.2945 -0.3841 -0.2434
    3TMC3    O214022   0.612   2.893  16.943 -0.1818 -0.1875 -0.4430
    4MPD1     C14023   1.130   2.836  16.979 -0.1486  0.6514 -0.4409
    4MPD1    C114024   1.134   2.971  16.998 -0.7751  0.6955  0.0330
    4MPD1    C214025   1.014   3.040  17.001  0.8291 -0.1842  0.1332
    4MPD1    C314026   0.896   2.976  16.969  0.4243  0.9559 -0.6195
    4MPD1    C414027   0.897   2.847  16.934 -0.8926  0.2253  0.4215
    4MPD1    C514028   1.013   2.773  16.940  0.2668  0.2944 -0.2121
    4MPD1     H14029   1.017   3.147  17.019  2.5907 -0.1646 -0.2475
    4MPD1    H114030   0.805   2.791  16.916 -0.6394 -0.4634  1.2624
    4MPD1    H214031   1.220   2.777  16.982  0.6340  1.9425  1.2937
    4MPD1    H314032   1.005   2.671  16.903  0.0217  0.6565 -1.1609
    4MPD1     N14033   0.779   3.051  16.963  0.7133 -0.4096 -0.1379
    4MPD1    H514034   0.794   3.151  16.975  3.5360 -0.7054 -1.1926
    4MPD1    N114035   1.253   3.033  17.043  0.5504  0.1485  0.0390
    4MPD1    H614036   1.264   3.131  17.018  2.4111  0.0146  0.3835
    4MPD1    H714037   1.327   2.981  16.996 -0.1693 -0.6343 -0.2476
    1TCq1    O114038   1.051   3.752  11.397 -0.1193 -0.4934 -0.5616
    1TCq1    C114039   1.062   3.831  11.286  0.3464 -0.0610 -0.3147
    1TCq1    O214040   1.070   3.954  11.278 -0.4876 -0.0042 -0.1853
    1TCq1    C214041   1.133   3.749  11.190  1.0306 -0.5596 -0.8764
    1TCq1    C314042   1.261   3.710  11.225 -0.7594 -0.5392 -0.4335
    1TCq1    C414043   1.352   3.663  11.128 -0.4618  0.2703 -0.4606
    1TCq1    C514044   1.331   3.698  10.995 -0.3615 -0.5348  0.2079
    1TCq1    C614045   1.205   3.752  10.961  0.1590 -0.5168  0.2880
    1TCq1    C714046   1.109   3.779  11.061 -0.2661 -0.2547  0.0174
    1TCq1    C814047   1.201   3.847  10.846 -0.0354  0.2591 -0.1437
    1TCq1    O414048   1.134   3.950  10.856 -0.1847  0.0372  0.6157
    1TCq1    C914049   1.482   3.648  11.175 -0.3823 -0.2523 -0.0518
    1TCq1    O514050   1.506   3.661  11.291  0.4216  0.3204 -0.5237
    1TCq1    O614051   1.579   3.644  11.094  0.1592 -0.1885  0.0428
    1TCq1    H114052   1.065   3.659  11.373  1.2651  0.0677 -1.8985
    1TCq1    H214053   1.279   3.670  11.324  0.2679  3.6224  1.0425
    1TCq1    H314054   1.409   3.672  10.925  1.5237  2.2096  1.2679
    1TCq1    H414055   1.015   3.823  11.031  0.6729  2.0896  0.4916
    2MPD1     C14056   1.356   4.004  10.381 -0.0707  0.6749  0.3537
    2MPD1    C114057   1.396   3.874  10.389 -0.0276  0.1807 -0.5615
    2MPD1    C214058   1.382   3.811  10.516  0.1468 -0.3728  0.2879
    2MPD1    C314059   1.300   3.876  10.620 -0.3092 -0.4574 -0.4272
    2MPD1    C414060   1.248   3.999  10.594  0.3870  0.5165  0.5902
    2MPD1    C514061   1.283   4.065  10.482  0.2639  0.4812  0.5510
    2MPD1     H14062   1.439   3.721  10.537 -1.0195 -1.6110 -1.7947
    2MPD1    H114063   1.197   4.059  10.669 -0.7422  0.2147  0.0531
    2MPD1    H214064   1.375   4.057  10.288 -0.2495  0.6619  0.3095
    2MPD1    H314065   1.247   4.167  10.473  0.2809  0.4972  0.6566
    2MPD1     N14066   1.282   3.802  10.740  0.2452 -0.0004 -0.1275
    2MPD1    H514067   1.332   3.715  10.754 -1.6014 -1.0266  0.1266
    2MPD1    N114068   1.480   3.820  10.287  0.7286  0.0311  0.0620
    2MPD1    H614069   1.484   3.719  10.290  0.8459 -0.0015 -1.3065
    2MPD1    H714070   1.448   3.844  10.193 -0.3589 -1.7675 -0.0193
    1TCq1    O114071   2.604   3.903   1.758  0.1860 -0.1850  0.1015
    1TCq1    C114072   2.617   4.005   1.669  0.1019  0.8675  0.8028
    1TCq1    O214073   2.643   3.982   1.554  0.2085  0.0380 -0.0014
    1TCq1    C214074   2.540   4.115   1.720 -0.3629  0.6081  0.1233
    1TCq1    C314075   2.530   4.122   1.855  0.1422 -0.7127 -0.1700
    1TCq1    C414076   2.427   4.184   1.914  0.3217  0.6554  0.3400
    1TCq1    C514077   2.346   4.268   1.839  0.6708 -0.5449 -0.0339
    1TCq1    C614078   2.360   4.256   1.697 -0.2476 -0.6840 -0.6054
    1TCq1    C714079   2.455   4.176   1.636  0.4975  0.4839  0.2394
    1TCq1    C814080   2.277   4.333   1.605  0.1507 -0.5100  0.0402
    1TCq1    O414081   2.258   4.295   1.490 -0.1421  0.2208  0.1227
    1TCq1    C914082   2.432   4.207   2.052 -0.5066  0.3465 -0.5866
    1TCq1    O514083   2.372   4.312   2.095 -0.5078 -0.0396 -0.1114
    1TCq1    O614084   2.515   4.142   2.119  0.1682  0.1041 -0.2304
    1TCq1    H114085   2.565   3.932   1.843 -1.0717 -1.1470 -0.1497
    1TCq1    H214086   2.617   4.100   1.917 -0.2424  2.9414  1.7073
    1TCq1    H314087   2.259   4.317   1.881  0.4297  0.6525 -1.8901
    1TCq1    H414088   2.469   4.156   1.530  0.8689 -2.1866  0.8031
    2MPD1     C14089   2.045   0.058   1.488  0.4839  0.1418  0.3265
    2MPD1    C114090   2.044   0.049   1.624  0.7526  0.3829 -0.6933
    2MPD1    C214091   2.107   4.661   1.685  0.2157  0.3252  0.2544
    2MPD1    C314092   2.166   4.561   1.602 -0.4611  0.3922  0.5978
    2MPD1    C414093   2.163   4.571   1.464 -0.0559 -0.5733  0.9024
    2MPD1    C514094   2.108   4.684   1.414  0.4205 -0.2071  0.0753
    2MPD1     H14095   2.127   4.656   1.791 -0.7805 -2.4878  0.3287
    2MPD1    H114096   2.220   4.498   1.409  0.5296 -1.7113  3.0124
    2MPD1    H214097   1.996   0.138   1.432 -1.5340  0.7521  2.9666
    2MPD1    H314098   2.111   4.704   1.307  0.7208  1.0451  0.3116
    2MPD1     N14099   2.230   4.449   1.663 -0.3228 -0.8736  0.3702
    2MPD1    H514100   2.253   4.464   1.761 -1.4082  0.2178  0.4717
    2MPD1    N114101   1.964   0.141   1.696  0.3996 -0.5580  0.0295
    2MPD1    H614102   1.999   0.149   1.791  0.2123  0.7490 -0.0162
    2MPD1    H714103   1.956   0.233   1.654 -0.2889 -0.5069  0.2834
    1MPD1     C14104   2.604   4.091  11.214  0.0035 -0.4113 -0.0661
    1MPD1    C114105   2.578   4.215  11.273  0.3164  0.2177  0.1081
    1MPD1    C214106   2.662   4.255  11.377 -0.0467 -0.3967  0.5985
    1MPD1    C314107   2.751   4.168  11.440  0.8206  0.4994 -0.1439
    1MPD1    C414108   2.763   4.043  11.387  0.6446 -0.2261  0.6117
    1MPD1    C514109   2.688   4.009  11.279 -0.0026  0.1152 -0.3396
    1MPD1     H14110   2.646   4.358  11.409 -0.3544 -0.6290  1.1814
    1MPD1    H114111   2.840   3.975  11.421  0.6727  0.6599  2.3181
    1MPD1    H214112   2.532   4.056  11.140 -1.0263 -0.9465  1.1877
    1MPD1    H314113   2.694   3.905  11.249  0.9281  0.4331 -1.2534
    1MPD1     N14114   2.844   4.217  11.533  0.2272  0.3608 -0.4282
    1MPD1    H514115   2.838   4.315  11.557 -1.8088 -0.0949  1.0056
    1MPD1    N114116   2.479   4.298  11.214  0.1899 -0.1996 -0.3279
    1MPD1    H614117   2.392   4.254  11.183 -0.0982  1.4805 -1.9084
    1MPD1    H714118   2.433   4.366  11.275  0.7759 -1.6702  1.7162
    2MPD1     C14119   2.288   4.054  11.425 -0.1320 -0.2130 -0.2664
    2MPD1    C114120   2.263   4.041  11.291 -0.0961  0.7472  0.4097
    2MPD1    C214121   2.299   3.925  11.225  0.0301  0.2189 -0.4499
    2MPD1    C314122   2.388   3.831  11.285  0.4217 -0.5028  0.1551
    2MPD1    C414123   2.416   3.845  11.419 -0.2809  0.6049 -0.8023
    2MPD1    C514124   2.372   3.957  11.480 -0.5035  0.7427 -0.3768
    2MPD1     H14125   2.277   3.912  11.120 -1.5086 -2.7324  0.2513
    2MPD1    H114126   2.480   3.777  11.474  1.4691  1.6301 -1.5752
    2MPD1    H214127   2.277   4.141  11.489  2.1430 -0.2269  0.1243
    2MPD1    H314128   2.407   3.958  11.583 -1.0298  0.3261 -0.1965
    2MPD1     N14129   2.457   3.724  11.221  0.0292  0.3513  0.3562
    2MPD1    H514130   2.534   3.681  11.271  0.4821  2.5751  1.5607
    2MPD1    N114131   2.214   4.149  11.217  0.0529 -0.5248 -0.6070
    2MPD1    H614132   2.167   4.127  11.129  2.3592 -1.6944 -1.5402
    2MPD1    H714133   2.160   4.219  11.267 -2.0212 -1.3435 -1.7122
    3MPD1     C14134   2.117   2.814  10.947  0.1784  0.0426  0.0265
    3MPD1    C114135   2.215   2.795  11.037  0.0588 -0.5441 -0.4296
    3MPD1    C214136   2.309   2.898  11.053 -0.4837 -0.7038 -0.3025
    3MPD1    C314137   2.308   3.008  10.969  0.2656 -0.5011 -0.9252
    3MPD1    C414138   2.208   3.018  10.872  0.3151 -0.7440 -0.1269
    3MPD1    C514139   2.110   2.926  10.882 -0.1869 -0.2209  0.1283
    3MPD1     H14140   2.381   2.888  11.134 -0.1450 -0.4966 -0.5784
    3MPD1    H114141   2.203   3.097  10.798  2.3619  0.0757  0.6135
    3MPD1    H214142   2.035   2.744  10.933  0.6906  0.0180 -2.7621
    3MPD1    H314143   2.022   2.925  10.819 -0.7033 -0.4343  0.8510
    3MPD1     N14144   2.406   3.116  10.990  0.2146  0.3755  0.6098
    3MPD1    H514145   2.465   3.102  11.072  0.9750  0.1169  0.0175
    3MPD1    N114146   2.204   2.686  11.122  0.4594  0.4717  0.3214
    3MPD1    H614147   2.163   2.607  11.074  0.4760  1.5900 -1.5420
    3MPD1    H714148   2.302   2.658  11.134  0.3949  0.3729  0.6137
    4MPD2     C14149   3.437   4.242  11.288 -0.3434  0.1227 -0.1716
    4MPD2    C114150   3.427   4.183  11.412  0.4059  0.1303  0.3766
    4MPD2    C214151   3.482   4.059  11.428  0.2187 -0.7785 -0.3263
    4MPD2    C314152   3.532   3.985  11.319 -0.5724 -0.0292 -0.6091
    4MPD2    C414153   3.528   4.041  11.195  0.4323 -0.2678 -0.0317
    4MPD2    C514154   3.478   4.167  11.173  0.5929  0.7809 -0.3651
    4MPD2     H14155   3.485   4.024  11.530 -0.8185  0.0047 -0.0254
    4MPD2    H114156   3.572   3.991  11.110 -0.5380 -0.2233 -0.5541
    4MPD2    H214157   3.392   4.338  11.265 -0.5509 -0.0673 -0.5596
    4MPD2    H314158   3.478   4.207  11.073 -0.0268  0.7939 -0.3590
    4MPD2     N14159   3.572   3.850  11.330  0.0078 -0.3488  0.4516
    4MPD2    H514160   3.569   3.800  11.242 -0.2198  0.7053 -0.1430
    4MPD2    N114161   3.375   4.244  11.524 -0.1178 -0.1512  0.5164
    4MPD2    H714162   3.393   4.198  11.612 -0.8735 -2.4091 -0.4887
    5TMC3    C114163   3.207   4.348  11.650 -0.4042  0.2689 -0.7209
    5TMC3    C214164   3.076   4.319  11.625 -1.1159 -0.4737  0.6163
    5TMC3    C314165   3.008   4.225  11.691  0.1705 -0.2452 -1.0229
    5TMC3    C414166   3.266   4.291  11.757 -0.0503 -0.5155 -0.3522
    5TMC3    C514167   3.201   4.184  11.816 -0.0078  0.0826 -0.3075
    5TMC3    C614168   3.071   4.147  11.786 -0.2101 -0.7580  0.7610
    5TMC3     C14169   3.286   4.348  11.529  0.1305  0.2723  0.2238
    5TMC3     O14170   3.235   4.402  11.434  0.4783  0.0625  0.1095
    5TMC3     H14171   3.029   4.373  11.544  2.0018 -0.0931 -0.9192
    5TMC3    H114172   3.370   4.303  11.785  0.5204  0.5186 -2.9272
    5TMC3    H214173   3.021   4.066  11.838 -1.5290 -1.0819 -0.9871
    5TMC3    C714174   3.299   4.079  11.841 -0.2715 -0.4027  0.6844
    5TMC3    C814175   2.911   4.147  11.625 -0.7352 -0.2123  0.0260
    5TMC3    O114176   3.403   4.077  11.774 -0.4654  0.3314 -0.3670
    5TMC3    O214177   2.911   4.022  11.630  0.6049  0.2102 -0.8173
    6TMC3    C114178   2.501   3.557  11.062 -0.5245  0.3215 -0.0143
    6TMC3    C214179   2.430   3.460  11.005  0.2931 -0.0245 -0.2198
    6TMC3    C314180   2.475   3.336  10.999 -0.4286 -0.3909  0.2900
    6TMC3    C414181   2.619   3.530  11.120  0.3240  0.5560  0.4276
    6TMC3    C514182   2.661   3.397  11.118  0.1552 -0.4409 -0.3694
    6TMC3    C614183   2.593   3.290  11.058  0.3027  0.8702  0.8998
    6TMC3     C14184   2.417   3.668  11.099  0.3896 -0.2990  0.2052
    6TMC3     O14185   2.331   3.700  11.015 -0.9105  0.0002 -0.2919
    6TMC3     H14186   2.333   3.493  10.970 -0.9325 -1.7802  1.5426
    6TMC3    H114187   2.670   3.614  11.167 -0.5199  0.6640  1.1524
    6TMC3    H214188   2.634   3.190  11.069 -1.0197 -0.0394 -2.2857
    6TMC3    C714189   2.790   3.378  11.180 -0.1263 -0.4439  0.1402
    6TMC3    C814190   2.390   3.240  10.936 -0.1549  0.2175 -0.1408
    6TMC3    O114191   2.850   3.476  11.225 -0.2728  0.0790 -0.2981
    6TMC3    O214192   2.309   3.279  10.852 -0.1860 -0.1459  0.0526
    7MPD2     C14193   3.408   3.581  11.963  0.0054  0.0089 -0.4734
    7MPD2    C114194   3.452   3.666  11.861 -0.7267 -0.7347 -0.3286
    7MPD2    C214195   3.403   3.794  11.850 -0.5182 -0.5110 -0.3113
    7MPD2    C314196   3.306   3.848  11.934  0.1521 -0.0493  0.1378
    7MPD2    C414197   3.252   3.762  12.026  0.1544 -0.8793 -0.0390
    7MPD2    C514198   3.309   3.634  12.043  0.1656  0.4212 -0.1034
    7MPD2     H14199   3.449   3.843  11.765  1.3936 -0.7380  0.5999
    7MPD2    H114200   3.172   3.793  12.093  1.3140  1.1091  0.4053
    7MPD2    H214201   3.447   3.483  11.988  1.9667  1.1816  1.1008
    7MPD2    H314202   3.283   3.564  12.121 -0.3636 -0.2346 -0.8720
    7MPD2     N14203   3.251   3.981  11.926  0.2386 -0.8370  0.1454
    7MPD2    H514204   3.181   4.004  11.996  0.2481  1.8550 -0.7222
    7MPD2    N114205   3.533   3.617  11.759  0.4233  0.2033  0.3833
    7MPD2    H714206   3.577   3.686  11.699 -0.3287  0.2654 -0.1021
    8TMC3    C114207   3.599   3.475  11.590 -0.4148 -0.5601 -0.4598
    8TMC3    C214208   3.495   3.411  11.521  0.4042 -0.5183 -0.1561
    8TMC3    C314209   3.436   3.482  11.420  0.3609 -0.5453 -0.4840
    8TMC3    C414210   3.655   3.589  11.547 -0.1942  0.2661 -0.1187
    8TMC3    C514211   3.598   3.645  11.438  0.5417  0.5942 -0.2455
    8TMC3    C614212   3.488   3.599  11.372  0.1553 -0.1782  0.0816
    8TMC3     C14213   3.552   3.481  11.727  0.1769 -1.0476 -0.9475
    8TMC3     O14214   3.486   3.388  11.771  0.4741 -0.7787  0.0388
    8TMC3     H14215   3.437   3.338  11.575  0.0061  0.0305  0.1645
    8TMC3    H114216   3.727   3.643  11.609  0.1605  0.0923 -0.3788
    8TMC3    H214217   3.433   3.662  11.302  0.9414  1.7444  1.1925
    8TMC3    C714218   3.587   3.791  11.451 -0.2753  0.1862 -0.3231
    8TMC3    C814219   3.302   3.435  11.361 -0.4672  0.0672 -0.2134
    8TMC3    O114220   3.637   3.840  11.555 -0.4344 -0.6366 -0.8630
    8TMC3    O214221   3.237   3.525  11.308 -0.4323 -0.2918  0.2914
    9MPD2     C14222   3.177   3.099  11.358  0.6087 -0.2994  0.3472
    9MPD2    C114223   3.173   3.233  11.330 -0.4576  0.4439 -0.5429
    9MPD2    C214224   3.056   3.286  11.279  0.5428 -0.1602 -1.1163
    9MPD2    C314225   2.943   3.207  11.259  0.6805 -0.4311 -0.5133
    9MPD2    C414226   2.950   3.076  11.299  0.7625  0.2528 -0.1386
    9MPD2    C514227   3.063   3.030  11.350  0.0152  0.3129  0.4758
    9MPD2     H14228   3.055   3.386  11.237  0.1616  0.2924 -0.0215
    9MPD2    H114229   2.870   3.006  11.273 -2.5256  2.9357  2.7785
    9MPD2    H214230   3.271   3.057  11.392 -0.1323 -2.7536 -0.6558
    9MPD2    H314231   3.077   2.923  11.361 -0.4436  0.4303  2.1818
    9MPD2     N14232   2.823   3.250  11.199 -0.1127 -0.2618 -0.2953
    9MPD2    H514233   2.750   3.179  11.197  1.0569 -1.4142 -1.9959
    9MPD2    N114234   3.286   3.304  11.372 -0.4353  0.1170 -0.4144
    9MPD2    H714235   3.366   3.259  11.415  0.0472  0.3848 -1.0418
    1MPD1     C14236   3.796   2.330  17.174  0.0668 -0.4462  0.0723
    1MPD1    C114237   3.673   2.393  17.166 -0.2629  0.7759 -0.1589
    1MPD1    C214238   3.574   2.333  17.086  0.1149  0.5143  0.4530
    1MPD1    C314239   3.599   2.214  17.020 -0.0223  0.5281  0.4235
    1MPD1    C414240   3.723   2.163  17.020 -0.3825 -0.1610  0.3384
    1MPD1    C514241   3.819   2.215  17.097  0.6564 -0.6410  0.3769
    1MPD1     H14242   3.478   2.379  17.063 -0.3515 -0.4972  0.3475
    1MPD1    H114243   3.744   2.074  16.962  0.2675 -0.1460  0.5497
    1MPD1    H214244   3.881   2.370  17.227  1.2013 -0.6117 -1.6233
    1MPD1    H314245   3.917   2.169  17.102  0.9989 -0.2122 -2.5175
    1MPD1     N14246   3.498   2.148  16.944 -0.2656  0.5425  0.3524
    1MPD1    H514247   3.529   2.077  16.879  0.3940 -1.2289  2.6030
    1MPD1    N114248   3.644   2.504  17.238  0.1482 -0.0947  0.1004
    1MPD1    H614249   3.587   2.572  17.187  1.1226  0.7219  0.0998
    1MPD1    H714250   3.714   2.566  17.277 -0.2510 -0.8847  2.0961
    2MPD1     C14251   2.620   1.559  16.658  0.2455 -0.1823 -0.1083
    2MPD1    C114252   2.652   1.633  16.551 -0.5613  0.7934 -0.6495
    2MPD1    C214253   2.758   1.725  16.569  0.0835  0.6337  0.0938
    2MPD1    C314254   2.837   1.731  16.681 -0.3787 -0.0829  0.1365
    2MPD1    C414255   2.808   1.642  16.777  0.4055  0.0307 -0.6627
    2MPD1    C514256   2.702   1.561  16.766 -0.8120  0.0604  0.1086
    2MPD1     H14257   2.793   1.795  16.494  0.7266  0.5167  0.2832
    2MPD1    H114258   2.865   1.647  16.869 -0.5610  1.9881 -0.1716
    2MPD1    H214259   2.542   1.483  16.658  1.7805 -1.7718  0.0379
    2MPD1    H314260   2.687   1.496  16.852 -2.7504  0.4582  0.0796
    2MPD1     N14261   2.950   1.823  16.691  0.4475  0.5517 -0.2004
    2MPD1    H514262   2.985   1.873  16.610  1.5138  0.7070  0.3639
    2MPD1    N114263   2.570   1.622  16.436 -0.1979  0.1126  0.4401
    2MPD1    H614264   2.517   1.536  16.421  0.6528 -0.4108  0.4105
    2MPD1    H714265   2.623   1.647  16.353 -0.5939 -1.9549 -0.4375
    3TCq2    C114266   3.011   1.856  16.804  0.3950  0.2493 -0.1196
    3TCq2    O214267   2.972   1.839  16.915  0.1065 -0.7643  0.4840
    3TCq2    C214268   3.132   1.940  16.784  1.3154 -0.3783 -0.5658
    3TCq2    C314269   3.209   1.917  16.671 -0.1756 -0.4279 -0.2324
    3TCq2    C414270   3.327   1.984  16.649 -0.4524  0.6786 -0.1143
    3TCq2    C514271   3.366   2.080  16.734  0.6080  0.4057  0.1417
    3TCq2    C614272   3.297   2.098  16.852 -1.0699 -0.1427  0.1412
    3TCq2    C714273   3.186   2.028  16.884  0.3349  0.2788  0.1785
    3TCq2    C814274   3.365   2.168  16.959 -0.4271  0.3206 -0.4912
    3TCq2    O414275   3.299   2.222  17.041  0.5245  0.1500 -0.1177
    3TCq2    C914276   3.401   1.957  16.530 -0.2081  0.2219 -0.2554
    3TCq2    O514277   3.491   2.038  16.498  0.6816 -0.1857 -1.0024
    3TCq2    O614278   3.368   1.857  16.466  0.5999  0.2164 -0.1401
    3TCq2    H214279   3.171   1.841  16.605  0.1727 -0.9361  0.1535
    3TCq2    H314280   3.449   2.142  16.703  0.3272  1.0331  0.6460
    3TCq2    H414281   3.139   2.038  16.981 -0.6313  0.5998 -0.3196
    1TCq1    O114282   0.483   1.372  12.533 -0.0766  0.1718 -0.3035
    1TCq1    C114283   0.386   1.305  12.599  0.7176  0.1336  0.6199
    1TCq1    O214284   0.273   1.287  12.555 -0.1564  0.0563 -0.4287
    1TCq1    C214285   0.416   1.264  12.736  0.5656  0.1840  0.6905
    1TCq1    C314286   0.349   1.160  12.787 -0.1617 -1.0013  0.4558
    1TCq1    C414287   0.398   1.084  12.888 -0.4775  0.0772 -0.8494
    1TCq1    C514288   0.519   1.117  12.943 -0.8925  0.3397 -0.5076
    1TCq1    C614289   0.584   1.223  12.893  0.2629 -0.0972  1.1565
    1TCq1    C714290   0.535   1.308  12.798  0.2221  0.1007 -0.4304
    1TCq1    C814291   0.729   1.216  12.901  0.5507  0.1546  0.0242
    1TCq1    O414292   0.801   1.311  12.874 -0.0303 -0.3981  0.1676
    1TCq1    C914293   0.323   0.967  12.925 -0.3535  0.4575  0.7036
    1TCq1    O514294   0.207   0.957  12.882 -0.6156 -0.0808 -0.5820
    1TCq1    O614295   0.394   0.877  12.980 -0.7552 -0.2822 -0.2219
    1TCq1    H114296   0.577   1.363  12.562 -0.4640 -1.5053  0.4099
    1TCq1    H214297   0.253   1.134  12.742 -0.1383  1.4498 -1.0362
    1TCq1    H314298   0.559   1.063  13.028  1.1467 -0.4860 -2.0097
    1TCq1    H414299   0.601   1.388  12.766  1.7994 -1.5163 -1.2252
    2MPD2     C14300   1.019   1.136  12.947 -0.0033  0.2286 -0.4773
    2MPD2    C114301   0.906   1.051  12.963  0.3815  0.5619  0.5978
    2MPD2    C214302   0.934   0.923  13.003 -0.1238  0.2609 -0.5698
    2MPD2    C314303   1.057   0.871  13.037 -0.1929 -0.0842 -0.1216
    2MPD2    C414304   1.165   0.952  13.024  0.0599  0.5276 -0.0882
    2MPD2    C514305   1.142   1.076  12.972  0.0105 -0.5964 -0.0140
    2MPD2     H14306   0.851   0.854  13.014  0.2422 -0.0439  0.2872
    2MPD2    H114307   1.269   0.927  13.040 -0.1484 -1.0902 -1.2830
    2MPD2    H214308   1.008   1.233  12.900 -0.2649  0.5805  0.3026
    2MPD2    H314309   1.230   1.132  12.943 -2.1546  0.7278 -4.0042
    2MPD2     N14310   1.057   0.732  13.076 -0.3655  1.0389 -0.7722
    2MPD2    H514311   0.972   0.677  13.068 -1.9817  2.9519  3.1360
    2MPD2    N114312   0.773   1.087  12.938  0.3100  0.0136  0.1315
    2MPD2    H714313   0.699   1.025  12.969  0.5813 -0.1196  0.5107
    3TCq1    O114314   1.393   0.321  13.404 -0.0675 -0.0245 -0.7175
    3TCq1    C114315   1.326   0.244  13.321  0.4877 -0.3522 -0.1121
    3TCq1    O214316   1.304   0.123  13.330 -0.2589  0.1608  0.0719
    3TCq1    C214317   1.229   0.330  13.241 -0.0003 -0.3100 -0.7207
    3TCq1    C314318   1.110   0.266  13.231  0.0305 -0.0570  0.3082
    3TCq1    C414319   1.006   0.349  13.182 -0.1093  0.6782  0.2199
    3TCq1    C514320   1.022   0.478  13.152 -1.0245  0.4847 -0.0295
    3TCq1    C614321   1.151   0.526  13.151  0.8503  0.2162 -0.4010
    3TCq1    C714322   1.256   0.453  13.198  0.4004 -1.1190  0.1473
    3TCq1    C814323   1.173   0.658  13.104 -0.6836 -0.0118  0.2958
    3TCq1    O414324   1.286   0.701  13.117 -0.2797  0.4382  0.3370
    3TCq1    C914325   0.875   0.291  13.185 -0.4466 -0.5524  0.0558
    3TCq1    O514326   0.851   0.206  13.270  0.0254  0.2515 -0.2302
    3TCq1    O614327   0.795   0.341  13.100  0.5552 -0.1249 -0.3748
    3TCq1    H114328   1.401   0.415  13.377  0.9076 -0.5988 -2.3976
    3TCq1    H214329   1.095   0.165  13.267 -0.3855 -0.2328 -0.3575
    3TCq1    H314330   0.936   0.535  13.119 -0.7823  1.4890  1.0679
    3TCq1    H414331   1.357   0.490  13.184  0.1636 -1.4148 -2.2384
    1MPD2     C14332   0.775   1.829  14.934  0.3058 -0.4568 -0.1486
    1MPD2    C114333   0.664   1.755  14.901 -0.4903 -0.1523  0.6739
    1MPD2    C214334   0.679   1.664  14.795 -0.1635  0.6277  0.4482
    1MPD2    C314335   0.789   1.663  14.710  0.7512 -0.6814 -0.4842
    1MPD2    C414336   0.889   1.751  14.734 -0.3238 -0.1085 -0.1198
    1MPD2    C514337   0.885   1.822  14.850  0.6921  0.0367 -0.1386
    1MPD2     H14338   0.605   1.586  14.781 -0.6612  0.8072  2.1180
    1MPD2    H114339   0.989   1.754  14.694 -0.3314 -0.5357 -0.1666
    1MPD2    H214340   0.776   1.881  15.029  1.9190  1.6666 -1.3348
    1MPD2    H314341   0.973   1.883  14.867  0.9685  0.1254 -1.8610
    1MPD2     N14342   0.794   1.568  14.611 -0.1302  0.0996  0.6064
    1MPD2    H514343   0.706   1.519  14.594 -0.9843  1.3312  1.5207
    1MPD2    N114344   0.546   1.752  14.988 -0.7222  0.0148 -0.7292
    1MPD2    H714345   0.551   1.803  15.076  0.3555 -0.3741 -0.5729
    2TMC3    C114346   0.352   1.660  15.087 -0.1697 -1.1772 -0.4175
    2TMC3    C214347   0.293   1.541  15.071  0.2938  0.4246  0.0968
    2TMC3    C314348   0.162   1.528  15.061 -0.3994  0.2588 -0.1891
    2TMC3    C414349   0.280   1.773  15.083  0.1354 -0.4475  0.1455
    2TMC3    C514350   0.144   1.757  15.085 -0.1120  0.1280  0.0319
    2TMC3    C614351   0.081   1.639  15.074  0.3484 -0.0527  0.9223
    2TMC3     C14352   0.445   1.662  14.976  0.3855  0.4004 -0.3264
    2TMC3     O14353   0.421   1.590  14.877  0.0393 -0.1759  0.2724
    2TMC3     H14354   0.354   1.452  15.059  1.4311  1.3394 -0.9887
    2TMC3    H114355   0.324   1.870  15.060  0.1489 -0.5577 -0.2855
    2TMC3    H214356   4.696   1.631  15.089 -0.0622  2.0453 -0.9516
    2TMC3    C714357   0.063   1.879  15.072  0.0487  0.4890 -0.5154
    2TMC3    C814358   0.110   1.443  14.962  0.0350 -0.0909  0.1099
    2TMC3    O114359   4.666   1.861  15.068  0.7191  0.4162 -0.5024
    2TMC3    O214360   4.714   1.417  14.977  1.0149  0.5169  0.2454
    3TCq1    O114361   0.090   3.138  15.348 -0.1474  0.2038 -0.0484
    3TCq1    C114362   0.030   3.033  15.296  0.4401 -0.3250 -0.0863
    3TCq1    O214363   4.674   3.030  15.201 -0.2020 -0.2780 -0.1240
    3TCq1    C214364   0.102   2.912  15.330 -0.0627 -0.0798  0.2597
    3TCq1    C314365   0.116   2.883  15.464 -0.2146  0.4628 -0.5514
    3TCq1    C414366   0.127   2.751  15.500 -0.5440 -0.8440  0.8943
    3TCq1    C514367   0.111   2.650  15.408 -0.5825 -0.4657  0.2635
    3TCq1    C614368   0.082   2.686  15.276 -0.3503  0.3497  0.5000
    3TCq1    C714369   0.078   2.816  15.232  0.2937  0.9882 -0.2921
    3TCq1    C814370   0.035   2.589  15.185  0.5674  0.2852 -0.3058
    3TCq1    O414371   4.691   2.637  15.093 -0.5761 -0.0581 -0.4414
    3TCq1    C914372   0.132   2.717  15.635 -0.1884 -0.2705  0.9458
    3TCq1    O514373   0.136   2.597  15.672 -0.3566  0.1696 -0.1193
    3TCq1    O614374   0.164   2.813  15.701  0.6663 -0.2795 -0.0039
    3TCq1    H114375   0.160   3.117  15.413  0.7381 -0.8127 -1.3461
    3TCq1    H214376   0.109   2.956  15.544  0.6884  0.5807 -0.5762
    3TCq1    H314377   0.113   2.550  15.449  0.9458 -0.5804 -0.1078
    3TCq1    H414378   0.073   2.842  15.127  0.6982  2.7538  0.1120
    4MPD2     C14379   4.671   2.359  15.031  0.0359  0.3681  0.1374
    4MPD2    C114380   0.053   2.353  15.118  0.1330  0.8964 -0.1980
    4MPD2    C214381   0.114   2.230  15.141  0.4622 -0.3275 -0.2867
    4MPD2    C314382   0.067   2.119  15.074 -0.0362 -0.1884  0.2707
    4MPD2    C414383   4.687   2.130  14.979 -0.3704 -0.1074  0.3958
    4MPD2    C514384   4.630   2.250  14.961  0.3974  0.2816  0.6357
    4MPD2     H14385   0.197   2.211  15.209  0.0380 -0.5975  0.1552
    4MPD2    H114386   4.655   2.046  14.919 -0.2734 -0.2764  0.5781
    4MPD2    H214387   4.603   2.443  15.023 -0.2697  0.3448  2.4959
    4MPD2    H314388   4.547   2.263  14.892  1.6545  2.1168 -0.5434
    4MPD2     N14389   0.129   1.998  15.093  0.4566 -0.2090  0.6742
    4MPD2    H514390   0.225   1.995  15.128  0.6546  1.3970  0.2668
    4MPD2    N114391   0.085   2.460  15.205  0.3343  0.1963  0.0239
    4MPD2    H714392   0.169   2.455  15.262  1.0620  3.1865 -0.7775
    5TMC2    C114393   0.640   1.336  14.389 -1.0881 -0.2472 -0.3825
    5TMC2    C214394   0.653   1.357  14.255 -0.8713  0.1596  0.7294
    5TMC2    C314395   0.772   1.415  14.212  0.3160 -0.1645  0.4397
    5TMC2    C414396   0.740   1.369  14.480  1.0029 -0.5474 -0.2925
    5TMC2    C514397   0.855   1.431  14.434  0.3210 -0.9100  0.7751
    5TMC2    C614398   0.873   1.461  14.299  0.8833  0.7335 -0.3772
    5TMC2     C14399   0.518   1.382  14.457 -0.3201 -0.2427  0.1830
    5TMC2     O14400   0.548   1.459  14.544  0.3750  0.2407 -0.3330
    5TMC2     H14401   0.576   1.319  14.189  1.1388 -2.0618 -0.3620
    5TMC2    H114402   0.731   1.345  14.585  2.1358  1.0619  0.1677
    5TMC2    H214403   0.967   1.507  14.268  1.0750 -0.1136 -1.0535
    5TMC2    C714404   0.900   1.534  14.525  0.5757  0.4039 -0.6358
    5TMC2    C814405   0.816   1.392  14.077  0.3292  0.1028  0.5200
    5TMC2    O114406   1.005   1.593  14.512 -0.2197  0.7569 -0.3811
    5TMC2    O214407   0.895   1.461  14.016 -0.2798 -0.1687 -0.2082
    5TMC2    O514408   0.770   1.273  14.032 -0.1397 -0.6252 -0.4307
    5TMC2    H514409   0.745   1.222  14.113  2.1594  0.0602  0.7049
    6MPD2     C14410   0.075   1.304  14.709 -0.3915  0.2974  0.3774
    6MPD2    C114411   0.179   1.379  14.738 -0.8621 -0.1176  0.0067
    6MPD2    C214412   0.288   1.382  14.648  0.0148  0.1210  0.0073
    6MPD2    C314413   0.294   1.313  14.529  0.3873  0.3005  0.3485
    6MPD2    C414414   0.174   1.243  14.502 -0.4787  0.0060  0.0805
    6MPD2    C514415   0.068   1.239  14.589 -0.4316  0.0921 -0.1191
    6MPD2     H14416   0.383   1.423  14.681  0.4423 -0.0565 -1.0016
    6MPD2    H114417   0.172   1.174  14.418 -1.9638 -0.4073  0.4581
    6MPD2    H214418   4.710   1.287  14.771 -1.0908 -2.4524 -1.3097
    6MPD2    H314419   4.718   1.158  14.580  0.0233 -0.1880 -1.1970
    6MPD2     N14420   0.407   1.310  14.446 -0.3246  0.5804  0.4069
    6MPD2    H514421   0.412   1.242  14.370 -1.1570  0.8435  0.1259
    6MPD2    N114422   0.199   1.439  14.857 -0.4298 -0.1614 -0.3505
    6MPD2    H714423   0.286   1.492  14.868  0.3961 -1.4397 -0.7159
  945NH4     N114424   0.650   4.070   3.491 -0.5664  0.2605  0.1764
  945NH4     H214425   0.663   4.005   3.411  0.3103  1.4971 -0.6812
  945NH4     H314426   0.688   4.162   3.460  0.8880 -0.2879  0.3269
  945NH4     H414427   0.697   4.037   3.577 -0.1956 -1.2467 -0.6024
  945NH4     H514428   0.547   4.079   3.500 -0.7339 -1.0669 -0.4994
  946SOD     NA14429   2.947   4.165   2.258  0.0310 -0.0492 -0.0400
  947SOD     NA14430   3.855   2.217  16.425 -0.7860 -0.3281  0.0880
  948SOD     NA14431   4.607   2.089  10.210 -0.3020 -0.1157  0.4984
  949SOD     NA14432   1.805   3.599  16.870  0.3074  0.2517 -0.8845
  950SOD     NA14433   4.467   1.925  10.006 -0.1113 -0.1362 -0.0564
  951SOD     NA14434   2.702   1.851  15.041  0.2873  0.1758 -0.2542
  952SOD     NA14435   2.642   1.718   2.038 -0.4790  0.2179 -0.3578
  953SOD     NA14436   0.872   1.900  12.048  0.6181  0.3741 -0.3874
  954SOD     NA14437   2.280   0.994  15.000  0.4609  0.0949 -0.4675
  955SOD     NA14438   3.419   3.515   7.414  0.4607 -0.0238  0.1159
  956SOD     NA14439   2.445   0.782  12.487  0.0054  0.1880 -0.1482
  957SOD     NA14440   3.071   2.675  11.140 -0.1444 -0.4254  0.2995
  958SOD     NA14441   0.181   2.968  15.841 -0.1173  0.0529  0.3907
  959SOD     NA14442   0.001   1.604  12.270 -0.0664 -0.4641  0.1888
  960SOD     NA14443   1.715   3.692  11.261 -0.1305  0.6484  0.1378
  961SOD     NA14444   0.673   3.480   0.404  0.0517 -0.0564 -0.0324
  962SOD     NA14445   1.187   2.218  17.442 -0.6693 -0.3492 -0.4160
  963SOD     NA14446   4.539   2.417  10.063 -0.0149 -0.2572  0.4939
  964SOD     NA14447   3.248   3.036  13.398 -0.2753  0.4323  0.0159
  965SOD     NA14448   0.820   0.399  12.896 -0.3309  0.1179 -0.3536
  966SOD     NA14449   2.612   2.952  13.434 -0.5537 -0.2612 -0.3322
  967SOD     NA14450   0.840   1.818  11.688 -0.1284  0.4042 -0.2749
  968SOD     NA14451   3.292   0.678   8.733  0.2615 -0.0068  0.3758
  969SOD     NA14452   1.842   2.869   8.227 -0.2540  0.3523 -0.0981
  970SOD     NA14453   4.623   0.749  10.251 -0.1158 -0.2905 -0.5212
  971SOD     NA14454   2.830   3.577   2.823  0.7468 -0.1644 -0.4609
  972SOD     NA14455   4.113   4.632  13.920 -0.2109  0.5885 -0.4418
  973SOD     NA14456   0.074   0.473  10.185  0.3746  0.2389 -0.1721
  974SOD     NA14457   0.249   0.822  10.114  0.1267  0.1260  0.5277
  975SOD     NA14458   4.180   1.568  11.004  0.0928  0.1699 -0.2678
  976SOD     NA14459   4.685   3.004  10.743 -0.4233  0.1272 -0.2447
  977SOD     NA14460   1.700   2.395  14.571  0.1024 -0.3491  0.1923
  978SOD     NA14461   0.970   0.948  10.759  0.2994  0.1557  0.5766
  979SOD     NA14462   2.926   4.273   9.310  0.9037  0.1831  0.3862
  980SOD     NA14463   2.050   1.019  14.736  0.4421  0.1513  0.1100
  981SOD     NA14464   2.954   0.873  14.018  0.5210  0.2119  0.1930
  982SOD     NA14465   0.937   4.186  11.273 -0.6165  0.0736 -0.0351
  983SOD     NA14466   1.444   3.300  12.288  0.2555 -0.0113  0.6171
  984SOD     NA14467   4.282   1.231   1.697  0.4313 -0.6640  0.2237
  985SOD     NA14468   1.272   3.439   7.781 -0.3402 -0.0803  0.2523
  986SOD     NA14469   0.026   0.335  15.069 -0.2184 -0.1875  0.1365
  987SOD     NA14470   3.306   4.372  13.385  0.1270  0.5328  0.1969
  988SOD     NA14471   4.307   3.272   1.373 -0.1294  0.0187  0.3894
  989SOD     NA14472   1.737   3.336   2.074  0.1963 -0.0272 -0.2920
  990SOD     NA14473   0.334   3.675  10.756 -0.1321  0.2904  0.2016
  991SOD     NA14474   0.495   3.790  10.354  0.0241 -0.1373  0.2208
  992SOD     NA14475   4.138   0.765  12.529 -0.4435 -0.1135  0.3361
  993SOD     NA14476   3.046   1.895  14.991 -0.3611 -0.1229 -0.0043
  994SOD     NA14477   0.748   2.682  14.906 -0.0510 -0.0536  0.1148
  995SOD     NA14478   2.714   1.459   9.001 -0.0865 -0.4697 -0.3801
  996SOD     NA14479   2.486   0.723  14.242 -0.2175 -0.4391 -0.2933
  997SOD     NA14480   1.896   2.447   0.093 -0.1396  0.1092 -0.1431
  998SOD     NA14481   1.091   0.965  13.389 -0.1452  0.0741  0.4311
  999SOD     NA14482   1.519   3.872   1.896  0.1783 -0.1357 -0.0037
 1000SOD     NA14483   4.043   1.941   0.802  0.1984 -0.3914  0.6795
 1001SOD     NA14484   4.497   1.456  14.921  0.0115 -0.1005  0.1261
 1002SOD     NA14485   3.630   0.663   2.223 -0.2636 -0.0668 -0.0079
 1003SOD     NA14486   2.929   0.636   0.094  0.1333  0.0930  0.3156
 1004SOD     NA14487   4.097   3.419  10.118  0.0187 -0.2180  0.1873
 1005SOD     NA14488   4.387   2.766   0.305  0.2411  0.2961 -0.0064
 1006SOD     NA14489   0.379   0.431  11.328  0.0558 -0.6595  0.1530
 1007SOD     NA14490   3.349   2.585   1.306  0.5188 -0.0187 -0.0087
 1008SOD     NA14491   2.649   4.656   0.053 -0.3760  0.0886 -0.3413
 1009SOD     NA14492   4.384   0.646   2.685  0.4959 -0.3501 -0.2150
 1010SOD     NA14493   3.060   2.755   8.385  0.2392  0.1491 -0.3465
 1011SOL     OW14494   2.995   0.832   4.721  0.6321 -0.2819  0.3529
 1011SOL    HW114495   2.951   0.917   4.716 -1.2851 -1.4908 -3.4370
 1011SOL    HW214496   2.918   0.776   4.725  0.1919  0.2595 -0.4657
 1012SOL     OW14497   3.323   3.094   3.461  0.0783 -0.1579  0.5309
 1012SOL    HW114498   3.322   3.020   3.401 -0.7980 -0.1638  0.5500
 1012SOL    HW214499   3.336   3.047   3.544 -0.2392 -0.2983  0.5004
 1013SOL     OW14500   4.294   0.165  17.672  0.4974  0.3728  0.0513
 1013SOL    HW114501   4.298   0.259  17.650  1.0757  0.5350  0.8670
 1013SOL    HW214502   4.389   0.153  17.665  0.4841  0.5876 -0.5141
 1014SOL     OW14503   4.515   1.932  12.511 -0.4505 -0.3878  0.3345
 1014SOL    HW114504   4.554   1.865  12.568  0.1112 -0.6281 -0.3313
 1014SOL    HW214505   4.491   1.998  12.576  1.9420  1.5571 -0.7711
 1015SOL     OW14506   3.657   4.319   7.464  0.0002  0.0827  0.0300
 1015SOL    HW114507   3.738   4.282   7.430 -0.9311  0.1729 -2.2892
 1015SOL    HW214508   3.591   4.298   7.398 -2.2053 -0.1287  2.3165
 1016SOL     OW14509   0.417   1.026   4.465 -0.1101 -0.5656  0.4512
 1016SOL    HW114510   0.338   1.068   4.499 -1.9354 -1.9569 -2.0543
 1016SOL    HW214511   0.419   0.945   4.515  0.5394 -0.6650  0.2664
 1017SOL     OW14512   1.703   2.075   5.479 -0.8303 -0.9003  0.2598
 1017SOL    HW114513   1.692   2.168   5.457 -1.3815 -1.4484 -1.7905
 1017SOL    HW214514   1.796   2.074   5.500 -0.9567 -0.6601  0.8228
 1018SOL     OW14515   1.369   0.376   2.612  0.1407  0.0367 -0.8215
 1018SOL    HW114516   1.432   0.304   2.606  0.5807  0.1880  1.9162
 1018SOL    HW214517   1.430   0.442   2.645 -0.6969  0.5267 -0.2632
 1019SOL     OW14518   3.854   4.619  11.859 -0.2995 -0.3597  0.1717
 1019SOL    HW114519   3.895   4.678  11.796  1.3500 -0.7585  0.8765
 1019SOL    HW214520   3.763   4.632  11.832 -0.4512 -1.3342  0.1800
 1020SOL     OW14521   0.269   0.924   2.082 -0.6037  0.1293  0.3449
 1020SOL    HW114522   0.259   0.834   2.113 -0.0091  0.4872  1.5953
 1020SOL    HW214523   0.319   0.896   2.005 -1.7081  1.2369 -0.7721
 1021SOL     OW14524   1.013   0.113   6.751  0.0383  0.5530  0.0670
 1021SOL    HW114525   0.986   0.123   6.842 -0.3181  0.1883 -0.0023
 1021SOL    HW214526   0.956   0.039   6.730 -0.4947  0.4687  1.8135
 1022SOL     OW14527   4.499   2.311   3.392  0.6475  0.5470 -0.4873
 1022SOL    HW114528   4.423   2.369   3.382 -0.0913 -0.2816  0.3435
 1022SOL    HW214529   4.545   2.314   3.308  0.9761 -0.5137 -0.3473
 1023SOL     OW14530   4.178   1.418  14.735 -0.4041  0.4617  0.3511
 1023SOL    HW114531   4.128   1.383  14.809 -3.0778  1.2874 -1.0455
 1023SOL    HW214532   4.115   1.485  14.710  0.0348  0.3887 -0.9441
 1024SOL     OW14533   1.191   1.325   3.744  0.2819 -0.2904 -0.4402
 1024SOL    HW114534   1.268   1.283   3.707  0.6041  0.1500 -0.2669
 1024SOL    HW214535   1.229   1.410   3.765 -0.7145  0.3324 -1.1242
 1025SOL     OW14536   1.372   4.240   1.884 -0.5694 -0.1301  0.6305
 1025SOL    HW114537   1.387   4.287   1.966  1.9912 -1.9428  1.1831
 1025SOL    HW214538   1.283   4.204   1.891  0.3954 -2.8664 -1.3127
 1026SOL     OW14539   3.064   1.773   7.070 -0.2095  0.4059 -0.1792
 1026SOL    HW114540   3.022   1.763   6.985 -1.2309  0.6238  0.2892
 1026SOL    HW214541   3.085   1.866   7.069 -0.8700  0.5782  1.3739
 1027SOL     OW14542   0.590   4.257   5.539  0.2235  0.1221 -0.0114
 1027SOL    HW114543   0.512   4.294   5.496  0.3090 -1.1566 -1.2616
 1027SOL    HW214544   0.572   4.273   5.632 -1.7480 -0.1871 -0.3407
 1028SOL     OW14545   2.631   1.531   0.263 -0.0229  0.1171 -0.1553
 1028SOL    HW114546   2.611   1.455   0.208  2.8527 -1.6639  1.2174
 1028SOL    HW214547   2.605   1.608   0.213  0.7344 -0.1542 -0.9643
 1029SOL     OW14548   3.146   2.397   0.903 -0.2133 -0.1509  0.1129
 1029SOL    HW114549   3.175   2.306   0.917 -0.5550 -0.5077 -1.5427
 1029SOL    HW214550   3.056   2.376   0.878 -0.2215 -2.5587  2.1243
 1030SOL     OW14551   3.276   3.778   0.951 -0.4903  0.3276  0.0416
 1030SOL    HW114552   3.288   3.841   1.022 -1.9198  1.2577 -0.5329
 1030SOL    HW214553   3.363   3.745   0.931 -0.9034 -1.0831  0.6131
 1031SOL     OW14554   0.134   3.533  15.024  0.1127 -0.4231 -0.3349
 1031SOL    HW114555   0.142   3.526  14.929  3.2644  0.0820 -0.1174
 1031SOL    HW214556   0.094   3.448  15.042  1.2718 -0.7868  0.5761
 1032SOL     OW14557   2.142   2.491   6.623  0.2329 -0.0638 -0.3773
 1032SOL    HW114558   2.155   2.396   6.620 -0.1870 -0.1498  0.5317
 1032SOL    HW214559   2.234   2.512   6.608  1.3194 -4.0367  0.7500
 1033SOL     OW14560   1.362   1.257  14.333  0.0662  0.2713  0.1911
 1033SOL    HW114561   1.393   1.289  14.249 -1.8340  1.5544 -0.0197
 1033SOL    HW214562   1.379   1.326  14.397 -0.6900  1.6594 -1.1040
 1034SOL     OW14563   4.066   3.175   5.871  0.2757  0.6371 -0.3907
 1034SOL    HW114564   4.089   3.260   5.908 -0.4257  1.1084 -1.0572
 1034SOL    HW214565   4.064   3.129   5.955  0.5995  0.2654 -0.5792
 1035SOL     OW14566   0.797   1.428  13.542 -0.1051  0.1930 -0.1787
 1035SOL    HW114567   0.747   1.351  13.519  1.1161 -0.6316 -0.0769
 1035SOL    HW214568   0.865   1.389  13.597  1.3100  2.0460 -0.5803
 1036SOL     OW14569   3.833   4.275   1.298 -0.1083 -0.2653 -0.2050
 1036SOL    HW114570   3.813   4.183   1.318  2.6701 -0.8447 -0.0717
 1036SOL    HW214571   3.749   4.316   1.281  0.4622 -0.0509 -2.4221
 1037SOL     OW14572   0.622   0.458   4.467 -0.2102 -0.0286 -0.8418
 1037SOL    HW114573   0.664   0.480   4.550  1.0358  0.8293 -1.7049
 1037SOL    HW214574   0.705   0.443   4.422  0.4513 -0.9792  0.7039
 1038SOL     OW14575   3.867   1.116   7.104 -0.1290 -0.2915 -0.3966
 1038SOL    HW114576   3.772   1.113   7.100 -0.1381  0.7701 -1.0678
 1038SOL    HW214577   3.878   1.132   7.198  0.3165  0.2271 -0.5379
 1039SOL     OW14578   1.000   1.790  11.531 -0.4495 -0.0495 -1.1472
 1039SOL    HW114579   1.093   1.770  11.548 -0.4222  1.9973  1.0395
 1039SOL    HW214580   1.009   1.817  11.440 -2.5104  0.7387 -1.1098
 1040SOL     OW14581   0.358   1.090   9.083  0.3708 -0.1763 -0.2393
 1040SOL    HW114582   0.374   1.164   9.025  2.4823 -0.1176  0.4264
 1040SOL    HW214583   0.363   1.020   9.018  0.8204  1.6107 -2.1271
 1041SOL     OW14584   4.108   4.355   3.512  0.6039 -0.1940  0.2738
 1041SOL    HW114585   4.027   4.308   3.493 -0.4607  1.6924  0.1260
 1041SOL    HW214586   4.098   4.408   3.432 -0.1901 -1.5005 -0.5016
 1042SOL     OW14587   1.064   3.564  11.748  0.1284  0.1160 -0.3737
 1042SOL    HW114588   1.142   3.589  11.697  0.3223  0.8829  0.3043
 1042SOL    HW214589   1.089   3.472  11.758  1.1247  0.6154  1.6785
 1043SOL     OW14590   2.855   0.129   3.575  0.4324  0.1205 -0.2322
 1043SOL    HW114591   2.863   0.109   3.482  2.9735  0.1409 -0.0232
 1043SOL    HW214592   2.826   0.045   3.610 -0.0851  0.6134  0.5071
 1044SOL     OW14593   4.273   3.409   3.348  0.0128 -0.0646 -0.0855
 1044SOL    HW114594   4.232   3.324   3.364  1.0182 -0.6258 -0.5603
 1044SOL    HW214595   4.355   3.384   3.306  0.5726  0.8345  0.4654
 1045SOL     OW14596   3.929   0.746  12.410 -0.0760 -0.2148 -0.0197
 1045SOL    HW114597   3.879   0.786  12.339  1.9538 -0.9919 -1.9287
 1045SOL    HW214598   3.870   0.763  12.483  0.0757 -0.1626  0.0907
 1046SOL     OW14599   0.805   4.600   4.098 -0.1631 -0.0651 -0.3362
 1046SOL    HW114600   0.819   4.689   4.066  1.8882  0.0395  0.8775
 1046SOL    HW214601   0.776   4.614   4.188  0.1729 -1.6717  0.0160
 1047SOL     OW14602   0.241   4.241   4.949 -0.3508  0.7505  0.7602
 1047SOL    HW114603   0.265   4.328   4.979 -1.9483  0.7388  2.0809
 1047SOL    HW214604   0.309   4.188   4.990 -1.3796 -1.0674  0.1476
 1048SOL     OW14605   3.047   4.434  17.617  0.0542 -0.1262  0.5846
 1048SOL    HW114606   2.982   4.390  17.671  0.6249 -1.1333  0.4465
 1048SOL    HW214607   3.045   4.391  17.531 -0.1062  0.3272  0.3620
 1049SOL     OW14608   0.868   3.601  16.150 -0.0508 -0.0261  0.7245
 1049SOL    HW114609   0.951   3.645  16.131 -0.4529  0.7457  0.7520
 1049SOL    HW214610   0.840   3.651  16.227  2.6546  1.1541  0.9569
 1050SOL     OW14611   2.410   4.144   7.121  0.1145 -0.7586 -0.3663
 1050SOL    HW114612   2.423   4.050   7.133 -0.1740 -0.5010  1.9768
 1050SOL    HW214613   2.355   4.135   7.043 -1.4730  0.8341  0.5623
 1051SOL     OW14614   3.736   0.768   6.936 -0.7789 -0.0879  0.2596
 1051SOL    HW114615   3.650   0.735   6.960 -0.1880 -1.5183  0.4394
 1051SOL    HW214616   3.801   0.699   6.954 -1.1040 -0.9313 -1.7504
 1052SOL     OW14617   3.988   0.642   5.199 -0.3880  0.4059  0.4447
 1052SOL    HW114618   4.037   0.665   5.278  1.9736 -1.3307 -0.5222
 1052SOL    HW214619   4.010   0.718   5.144  0.2085  0.4589  0.7499
 1053SOL     OW14620   0.236   4.544  15.626 -0.2505 -0.0513 -0.6157
 1053SOL    HW114621   0.142   4.547  15.643 -0.1772  1.5948 -0.5203
 1053SOL    HW214622   0.267   4.532  15.716  1.2607  0.5558 -1.0588
 1054SOL     OW14623   4.333   2.756  10.242  0.1192 -0.1265 -0.1463
 1054SOL    HW114624   4.353   2.684  10.181 -1.4444  1.1976 -2.1985
 1054SOL    HW214625   4.239   2.741  10.251  0.1347 -1.2326 -1.6771
 1055SOL     OW14626   4.406   3.790   5.981  0.5240 -0.2455 -0.4794
 1055SOL    HW114627   4.362   3.854   5.925 -2.1714  0.5585  2.6281
 1055SOL    HW214628   4.369   3.807   6.067  0.9923 -0.5153 -0.2265
 1056SOL     OW14629   2.609   2.048   4.750 -0.2809 -0.1345  0.0178
 1056SOL    HW114630   2.670   2.044   4.677 -0.1982  1.1910  0.0128
 1056SOL    HW214631   2.534   2.010   4.705  0.2855  0.7929 -1.7096
 1057SOL     OW14632   0.512   2.991   8.294  0.3899 -0.5822  0.2265
 1057SOL    HW114633   0.527   3.013   8.201  0.8915  1.0661  0.6951
 1057SOL    HW214634   0.419   3.015   8.294  0.3427 -0.7601 -1.7746
 1058SOL     OW14635   1.296   1.481   1.255 -0.2249  0.2913  0.3608
 1058SOL    HW114636   1.304   1.492   1.350 -0.6994  0.9685  0.3187
 1058SOL    HW214637   1.379   1.435   1.241  0.3092  1.3555  0.0370
 1059SOL     OW14638   3.232   1.586  13.224 -0.3984  0.9077 -0.0956
 1059SOL    HW114639   3.137   1.580  13.228 -0.4271  0.1964 -2.3800
 1059SOL    HW214640   3.259   1.496  13.204 -0.1720  1.3763 -1.8370
 1060SOL     OW14641   1.258   0.076   7.609  0.3188  0.5526 -0.1951
 1060SOL    HW114642   1.215   0.149   7.653  0.7195  0.3701  0.5083
 1060SOL    HW214643   1.329   0.124   7.567 -1.0119  2.4189 -0.3103
 1061SOL     OW14644   0.005   0.080   7.571  0.0220 -0.2990  0.2085
 1061SOL    HW114645   4.691   0.144   7.511 -1.2362 -1.5710 -0.4001
 1061SOL    HW214646   0.064   0.131   7.627  1.2995 -1.3538 -0.1678
 1062SOL     OW14647   1.031   0.298  12.858 -0.5356  0.0587 -0.4079
 1062SOL    HW114648   1.100   0.276  12.795 -0.6892 -1.3429 -0.0902
 1062SOL    HW214649   1.033   0.218  12.910  3.3441 -0.1074 -0.7741
 1063SOL     OW14650   4.308   0.133  15.653  0.4698 -0.0044 -0.1654
 1063SOL    HW114651   4.337   0.042  15.652 -0.3238 -0.2404 -1.5782
 1063SOL    HW214652   4.220   0.107  15.624 -0.4163  0.1309  2.4041
 1064SOL     OW14653   3.348   2.612   3.433 -0.3186 -0.1464  0.0777
 1064SOL    HW114654   3.274   2.551   3.441 -0.1712 -0.1486  1.4141
 1064SOL    HW214655   3.379   2.604   3.343  2.9342  2.4979  0.9732
 1065SOL     OW14656   0.090   0.076  13.080 -0.0940  0.7956  0.2491
 1065SOL    HW114657   0.141   4.718  13.094 -0.3865  0.6551  0.5199
 1065SOL    HW214658   0.156   0.145  13.082 -0.0620  0.7323  1.5982
 1066SOL     OW14659   2.499   3.958   4.010  0.2646 -0.0819 -0.0007
 1066SOL    HW114660   2.489   3.893   4.079  0.4980  0.9397  1.0035
 1066SOL    HW214661   2.578   4.002   4.040  0.0671  0.4072 -0.1824
 1067SOL     OW14662   3.521   0.913  11.873  0.2284  0.4215  0.2972
 1067SOL    HW114663   3.554   0.993  11.832  2.7425  0.2576  2.0128
 1067SOL    HW214664   3.559   0.914  11.960  0.3382  0.4986  0.2485
 1068SOL     OW14665   1.374   2.095  10.176  0.6268  0.2453  0.0266
 1068SOL    HW114666   1.456   2.140  10.194 -0.7942  1.9480  2.2854
 1068SOL    HW214667   1.414   2.034  10.115 -0.1633  1.4976 -1.7534
 1069SOL     OW14668   0.473   4.312  13.409 -0.6470  0.4190 -0.7693
 1069SOL    HW114669   0.544   4.340  13.351  0.1034  0.8020  0.3433
 1069SOL    HW214670   0.519   4.283  13.487 -0.9022 -0.1290 -0.8248
 1070SOL     OW14671   4.324   3.155   7.305  0.3693 -0.3629 -0.6389
 1070SOL    HW114672   4.231   3.168   7.321  0.7172 -0.4287  1.4144
 1070SOL    HW214673   4.352   3.246   7.302  2.1466 -0.9742 -2.5924
 1071SOL     OW14674   1.005   0.515   6.864 -0.3651  0.4410 -0.5873
 1071SOL    HW114675   1.051   0.474   6.791  1.6561  1.3293  0.1878
 1071SOL    HW214676   0.965   0.592   6.824  0.2130  0.8105 -0.4584
 1072SOL     OW14677   1.403   2.174   0.301  0.0101 -0.6136 -0.4039
 1072SOL    HW114678   1.353   2.185   0.382  0.2003 -0.8592 -0.2534
 1072SOL    HW214679   1.450   2.099   0.336  1.4939 -0.5508 -2.2533
 1073SOL     OW14680   0.428   1.014   9.641  0.2087 -0.2732 -0.4024
 1073SOL    HW114681   0.401   0.927   9.671  1.5175 -0.5627 -0.0765
 1073SOL    HW214682   0.412   1.002   9.547  0.0388 -1.8977 -0.1645
 1074SOL     OW14683   2.344   1.236   2.553  0.2551  0.4376 -0.6734
 1074SOL    HW114684   2.409   1.166   2.549 -1.0367 -0.9207  1.6063
 1074SOL    HW214685   2.390   1.313   2.586  0.2735  1.0336 -2.1182
 1075SOL     OW14686   1.182   4.381   5.364 -0.3351  0.2411  0.5734
 1075SOL    HW114687   1.175   4.319   5.437  0.1645  0.1009  0.5023
 1075SOL    HW214688   1.116   4.440   5.401 -1.7164  0.7731 -2.8142
 1076SOL     OW14689   2.753   2.050  12.795 -0.1981 -0.1183  0.5369
 1076SOL    HW114690   2.817   2.050  12.866  1.3646  1.5206 -0.8654
 1076SOL    HW214691   2.790   2.100  12.722  1.8830 -0.0885  1.5984
 1077SOL     OW14692   3.303   1.616  17.319 -0.5703 -0.0856 -0.0173
 1077SOL    HW114693   3.320   1.700  17.276 -0.4206 -0.5734 -0.8846
 1077SOL    HW214694   3.216   1.608  17.281 -1.2177  0.0692  1.4006
 1078SOL     OW14695   1.775   4.594   9.171  0.7859 -0.3781 -0.2476
 1078SOL    HW114696   1.831   4.648   9.115  0.4614 -0.8159 -0.9992
 1078SOL    HW214697   1.690   4.604   9.128  0.4295 -0.7881  0.3566
 1079SOL     OW14698   0.018   4.692   2.516 -0.5284  0.0366  0.0616
 1079SOL    HW114699   4.701   0.023   2.447  3.1139 -0.6285 -2.4811
 1079SOL    HW214700   0.060   0.035   2.574 -3.2546  1.8164  0.0385
 1080SOL     OW14701   4.017   3.825   2.962 -0.3189 -0.1135 -0.2153
 1080SOL    HW114702   4.047   3.803   3.050 -0.1116  0.3671 -0.1647
 1080SOL    HW214703   4.005   3.739   2.921  2.9803  0.8485 -3.2120
 1081SOL     OW14704   2.755   2.214   1.827  0.6773  0.4105  0.7219
 1081SOL    HW114705   2.676   2.178   1.868  1.6544 -0.8366  1.5145
 1081SOL    HW214706   2.804   2.263   1.893  2.5992 -0.8999  0.2756
 1082SOL     OW14707   1.697   2.768  14.248 -0.7099  0.3047 -0.1056
 1082SOL    HW114708   1.752   2.840  14.278  0.0758  0.1117 -1.0873
 1082SOL    HW214709   1.700   2.783  14.154 -0.8201 -0.4167 -0.2294
 1083SOL     OW14710   3.463   0.211   3.835 -0.2809  0.6014 -0.1463
 1083SOL    HW114711   3.449   0.207   3.929 -1.5910  1.9424 -0.2834
 1083SOL    HW214712   3.393   0.158   3.797  0.7974 -0.6636 -0.3550
 1084SOL     OW14713   3.096   4.183  12.188  0.0465  0.2626  0.0132
 1084SOL    HW114714   3.115   4.248  12.255  0.0706  0.5138 -0.2370
 1084SOL    HW214715   3.157   4.112  12.210 -1.5275 -0.9070  0.5826
 1085SOL     OW14716   0.164   4.545   9.788 -0.1111  0.6699 -0.0220
 1085SOL    HW114717   0.193   4.455   9.802 -0.4796  1.2313  4.2823
 1085SOL    HW214718   0.177   4.586   9.873  2.5323 -1.5887  0.6386
 1086SOL     OW14719   3.251   0.626   3.933  0.6612  0.4498 -0.2547
 1086SOL    HW114720   3.225   0.684   4.005 -0.0139 -0.6643  0.4025
 1086SOL    HW214721   3.259   0.697   3.869 -1.3320  1.7384  0.9179
 1087SOL     OW14722   1.535   3.441  16.015  0.4923  0.2542  0.3583
 1087SOL    HW114723   1.564   3.525  15.980  1.3130 -0.4720 -0.7107
 1087SOL    HW214724   1.440   3.451  16.027  0.1316 -1.2152 -1.1861
 1088SOL     OW14725   0.559   4.453   8.125 -0.3159  0.5576  0.7315
 1088SOL    HW114726   0.650   4.482   8.129 -0.1704 -0.0537  2.1331
 1088SOL    HW214727   0.518   4.491   8.048  0.2514 -0.9006 -0.2987
 1089SOL     OW14728   2.337   0.009   7.591  0.1707 -0.4188  0.3224
 1089SOL    HW114729   2.280   0.039   7.662 -0.5245  1.6145 -1.0852
 1089SOL    HW214730   2.372   0.089   7.552 -0.8151 -0.2110 -0.1412
 1090SOL     OW14731   0.951   3.416  13.068 -0.4457 -0.0437  0.0818
 1090SOL    HW114732   0.974   3.323  13.071  1.3492  0.3709 -0.8005
 1090SOL    HW214733   0.868   3.422  13.022 -1.0275 -4.2962  0.6087
 1091SOL     OW14734   3.718   2.552   0.163  0.1198 -0.0877  0.5692
 1091SOL    HW114735   3.719   2.459   0.185 -2.0770 -0.7290 -1.9069
 1091SOL    HW214736   3.660   2.588   0.230 -2.5300 -1.0942 -1.1857
 1092SOL     OW14737   0.725   1.944   7.668  0.0224  0.3858 -0.6592
 1092SOL    HW114738   0.668   1.880   7.711 -0.1117 -0.9465 -2.8349
 1092SOL    HW214739   0.814   1.909   7.681 -0.3621  0.1211  1.3664
 1093SOL     OW14740   0.336   0.726   8.518 -0.3302  0.6203  0.0036
 1093SOL    HW114741   0.279   0.779   8.462  0.0827  1.8667  0.7490
 1093SOL    HW214742   0.300   0.639   8.502 -1.3112  1.1940 -0.9603
 1094SOL     OW14743   0.579   1.503   7.003  0.2424  0.0007 -0.4937
 1094SOL    HW114744   0.628   1.423   7.023 -1.7894 -1.1175  0.0642
 1094SOL    HW214745   0.493   1.475   7.035 -0.0934 -1.2044 -2.4217
 1095SOL     OW14746   4.665   3.586   7.078 -0.6283 -0.3698  0.0922
 1095SOL    HW114747   4.599   3.516   7.076  0.3615 -1.2650 -1.3403
 1095SOL    HW214748   4.605   3.659   7.061  1.1569  0.4688 -2.5830
 1096SOL     OW14749   4.070   0.854   9.967  0.8679 -0.7170  0.2423
 1096SOL    HW114750   4.021   0.807  10.035 -0.7877  0.1928 -0.3231
 1096SOL    HW214751   4.162   0.833   9.987  0.4577 -3.5681 -0.8560
 1097SOL     OW14752   0.065   1.948   4.457  0.5724 -0.0159  0.5535
 1097SOL    HW114753   0.131   1.898   4.504  0.1942 -0.3996  0.6806
 1097SOL    HW214754   0.089   2.034   4.490  0.4486  0.0964  0.3499
 1098SOL     OW14755   3.635   0.379   7.267 -0.1339  0.3862 -0.1782
 1098SOL    HW114756   3.621   0.469   7.297 -0.7284  0.1521  0.2668
 1098SOL    HW214757   3.668   0.337   7.347 -1.2909 -0.9240 -0.3868
 1099SOL     OW14758   4.391   3.890  12.666 -0.4473  0.5168 -0.0195
 1099SOL    HW114759   4.425   3.926  12.584  0.2981 -2.0896 -0.8452
 1099SOL    HW214760   4.471   3.849  12.698 -0.5598 -0.0697 -0.4877
 1100SOL     OW14761   1.234   4.525  14.870 -0.2505 -0.1961  0.3196
 1100SOL    HW114762   1.231   4.494  14.780 -4.1220  1.8812 -0.2848
 1100SOL    HW214763   1.154   4.489  14.909 -0.8457  0.7872  0.0161
 1101SOL     OW14764   2.718   2.884   3.213  0.4769  0.3210  0.4691
 1101SOL    HW114765   2.661   2.858   3.140  0.5117  0.0948  0.5228
 1101SOL    HW214766   2.791   2.826   3.195  1.9968  1.8990  1.5647
 1102SOL     OW14767   0.386   0.399   6.866  0.0104 -0.3765  0.0029
 1102SOL    HW114768   0.422   0.383   6.779 -0.2663  3.0403 -0.7212
 1102SOL    HW214769   0.415   0.485   6.897 -1.9906  0.7266 -1.2089
 1103SOL     OW14770   1.768   4.242   3.516  0.0018  0.0144  0.0534
 1103SOL    HW114771   1.723   4.161   3.491 -0.1206  0.3544 -0.8295
 1103SOL    HW214772   1.791   4.270   3.427  0.3927 -0.0267  0.1414
 1104SOL     OW14773   0.631   3.641  10.492 -0.6082  0.2159  0.1668
 1104SOL    HW114774   0.665   3.561  10.452 -1.4002  0.0120 -0.0995
 1104SOL    HW214775   0.596   3.590  10.565  0.8028  1.6377  1.8377
 1105SOL     OW14776   2.027   1.034  16.723  0.4003 -0.0232  0.1639
 1105SOL    HW114777   2.066   1.040  16.636  0.6347  1.4186  0.3778
 1105SOL    HW214778   2.000   0.942  16.727  1.5627 -0.4337 -1.7356
 1106SOL     OW14779   1.964   0.082   2.689  0.5533  0.3466  0.1523
 1106SOL    HW114780   1.974   0.003   2.635 -3.9444 -1.1706  1.5640
 1106SOL    HW214781   1.940   0.141   2.618 -1.4802  1.1837  1.5279
 1107SOL     OW14782   2.294   1.535   3.753 -0.3697 -0.3512 -0.1336
 1107SOL    HW114783   2.250   1.476   3.692  0.4526  1.0956 -2.1043
 1107SOL    HW214784   2.255   1.516   3.839 -0.8591  2.7972  0.3231
 1108SOL     OW14785   0.132   4.132   1.982  0.0466  0.1578  0.2615
 1108SOL    HW114786   0.176   4.099   1.904  1.0759  0.6210  0.6468
 1108SOL    HW214787   0.092   4.055   2.023 -2.0569  1.2819  0.3669
 1109SOL     OW14788   2.921   0.845  16.600 -0.2998 -0.3933  0.2330
 1109SOL    HW114789   2.919   0.773  16.664  1.0240  0.4238  1.2199
 1109SOL    HW214790   2.897   0.923  16.650  3.0984 -0.5180  2.1336
 1110SOL     OW14791   2.451   3.911  17.132  0.6212 -0.2384  0.1780
 1110SOL    HW114792   2.438   3.833  17.079 -1.5411  0.6984 -0.6566
 1110SOL    HW214793   2.376   3.959  17.099  0.1087  0.0144  1.6820
 1111SOL     OW14794   3.848   2.523   6.786  0.0574 -0.8489  0.0327
 1111SOL    HW114795   3.801   2.595   6.827  1.0567 -1.9364  3.0399
 1111SOL    HW214796   3.809   2.532   6.699  0.0198 -1.4234 -0.0062
 1112SOL     OW14797   0.957   3.079  12.012  0.0614 -0.2246 -0.4155
 1112SOL    HW114798   0.876   3.043  12.049  0.2520 -0.4223 -0.1932
 1112SOL    HW214799   1.002   3.103  12.092  0.3063 -1.0228 -0.3203
 1113SOL     OW14800   0.625   3.546   6.041 -0.0964 -0.1928 -0.0885
 1113SOL    HW114801   0.661   3.472   6.090  3.3489  0.2137 -1.9791
 1113SOL    HW214802   0.533   3.528   6.061  0.1281 -1.4165 -0.1725
 1114SOL     OW14803   4.374   3.009   3.228 -0.4074  0.3454 -0.2852
 1114SOL    HW114804   4.282   3.005   3.253 -0.7482 -0.6498 -1.6672
 1114SOL    HW214805   4.391   3.101   3.208  4.1564 -0.1700  1.2339
 1115SOL     OW14806   0.363   1.617   3.547  0.0014  0.6488 -0.1374
 1115SOL    HW114807   0.452   1.586   3.564 -0.8160 -2.0650 -0.7842
 1115SOL    HW214808   0.355   1.586   3.457 -1.9912  2.3050 -0.5333
 1116SOL     OW14809   4.197   2.792   7.232  0.3871  0.4332 -0.2176
 1116SOL    HW114810   4.239   2.833   7.307  1.1358  1.0208 -0.9495
 1116SOL    HW214811   4.267   2.746   7.184  0.7974  1.4574 -0.6023
 1117SOL     OW14812   2.099   1.319   5.535  0.4496 -0.1676  0.8638
 1117SOL    HW114813   2.158   1.246   5.520 -2.0006 -1.7709 -0.9775
 1117SOL    HW214814   2.157   1.394   5.525 -0.0796  0.0395 -0.6981
 1118SOL     OW14815   2.495   1.928  14.566 -0.1635  0.4622 -0.6522
 1118SOL    HW114816   2.410   1.946  14.526  0.0599  0.5650 -1.0808
 1118SOL    HW214817   2.510   2.014  14.606 -0.9061 -0.1102  0.8259
 1119SOL     OW14818   1.411   0.483   5.487 -0.7439 -0.0872  0.1818
 1119SOL    HW114819   1.422   0.562   5.433  0.7945  1.2076  2.3992
 1119SOL    HW214820   1.387   0.517   5.573 -1.8183  2.8314 -1.2754
 1120SOL     OW14821   3.058   4.350   3.436  0.0847 -0.4948  0.0515
 1120SOL    HW114822   3.130   4.289   3.422  0.7952 -0.1710  2.3604
 1120SOL    HW214823   3.008   4.354   3.355  0.6743 -2.6227 -0.4091
 1121SOL     OW14824   4.051   2.769  10.059 -0.0341  0.7963  0.0413
 1121SOL    HW114825   3.960   2.746  10.039  0.2777 -0.3724 -0.0296
 1121SOL    HW214826   4.096   2.686  10.041 -4.0758 -1.7249  1.7701
 1122SOL     OW14827   3.789   2.926  10.020 -0.0394  0.3091 -0.2092
 1122SOL    HW114828   3.810   2.833  10.011 -1.3354 -0.2406  2.5221
 1122SOL    HW214829   3.723   2.930   9.952  0.7605  3.2056 -0.8007
 1123SOL     OW14830   2.563   4.117   3.274  0.0858 -0.0308  0.1409
 1123SOL    HW114831   2.472   4.119   3.301  0.0052 -1.1007 -0.0324
 1123SOL    HW214832   2.552   4.174   3.199 -0.8582  0.0145  0.3142
 1124SOL     OW14833   0.164   3.487   6.773 -0.1551  0.5788  0.3308
 1124SOL    HW114834   0.132   3.564   6.724  0.1659  0.6452  0.2252
 1124SOL    HW214835   0.227   3.459   6.707  0.4902  2.1198  0.2838
 1125SOL     OW14836   0.022   3.423   6.469 -0.0041 -0.4537  0.3207
 1125SOL    HW114837   0.099   3.366   6.460  0.1861 -0.1247 -0.1566
 1125SOL    HW214838   4.666   3.383   6.430 -0.7545  1.4380 -0.1166
 1126SOL     OW14839   3.893   0.233   6.958 -0.2660 -0.7533  0.0620
 1126SOL    HW114840   3.935   0.148   6.963  1.9833  0.2509 -1.4995
 1126SOL    HW214841   3.827   0.215   6.892  0.0040 -1.2345 -0.0791
 1127SOL     OW14842   0.284   4.165   6.351  0.4068 -0.0906  0.0906
 1127SOL    HW114843   0.322   4.171   6.438  2.1270 -1.4756 -0.5739
 1127SOL    HW214844   0.356   4.204   6.301  1.9456 -3.8953 -0.6732
 1128SOL     OW14845   1.787   0.577   5.308  0.2329  0.5433 -0.4203
 1128SOL    HW114846   1.840   0.510   5.265 -2.1475 -2.1527  0.8601
 1128SOL    HW214847   1.824   0.662   5.286  0.2363  0.5566 -0.3621
 1129SOL     OW14848   3.883   1.430   2.854 -0.0979  0.3153 -0.3430
 1129SOL    HW114849   3.939   1.498   2.817  1.8992 -1.3646 -0.4462
 1129SOL    HW214850   3.867   1.369   2.782  0.1640 -1.5556  1.1876
 1130SOL     OW14851   2.164   2.517  15.502  0.1048 -0.0335  0.1039
 1130SOL    HW114852   2.235   2.552  15.555 -0.0944  1.2563 -0.4705
 1130SOL    HW214853   2.202   2.507  15.414  0.6505 -1.6701  0.5198
 1131SOL     OW14854   3.898   1.655   7.881 -0.8282 -0.7558  0.4591
 1131SOL    HW114855   3.912   1.749   7.880 -3.1879 -0.4025 -0.5052
 1131SOL    HW214856   3.974   1.627   7.932  0.0727  1.9128  0.5570
 1132SOL     OW14857   0.352   4.611   8.902  0.3656  0.3273 -0.2266
 1132SOL    HW114858   0.262   4.608   8.935 -0.0133 -2.1386 -1.4422
 1132SOL    HW214859   0.389   4.530   8.938 -1.4137 -0.2549  0.3113
 1133SOL     OW14860   4.378   0.124   3.879 -0.9637 -1.0614 -0.0304
 1133SOL    HW114861   4.328   0.134   3.798  0.7651 -2.5745 -1.2822
 1133SOL    HW214862   4.467   0.144   3.850 -1.3389 -0.1780 -0.5752
 1134SOL     OW14863   2.190   0.133   6.596  0.0830 -0.2688 -0.1021
 1134SOL    HW114864   2.103   0.104   6.623 -0.3781  0.9315 -0.2907
 1134SOL    HW214865   2.179   0.130   6.501  1.3949 -1.5551 -0.2135
 1135SOL     OW14866   3.232   2.643   7.464 -0.2553 -0.2762 -0.1892
 1135SOL    HW114867   3.278   2.680   7.539  0.2203 -1.6214  0.1811
 1135SOL    HW214868   3.173   2.717   7.453 -1.8927 -1.5586  0.0017
 1136SOL     OW14869   3.431   4.614   9.242 -0.1681  0.1993  0.0455
 1136SOL    HW114870   3.418   4.671   9.318 -0.1262  1.2120 -0.6952
 1136SOL    HW214871   3.407   4.529   9.278 -1.5165  1.2446  1.6783
 1137SOL     OW14872   1.930   4.506   9.362  0.5034 -0.3436  0.0127
 1137SOL    HW114873   1.879   4.486   9.283 -0.4893  1.5848  0.1826
 1137SOL    HW214874   2.000   4.556   9.320  0.0491  0.2082 -0.0759
 1138SOL     OW14875   3.910   2.772  13.559 -0.5533 -0.5319 -0.0007
 1138SOL    HW114876   3.989   2.818  13.588 -0.0259 -1.5157  0.1285
 1138SOL    HW214877   3.855   2.798  13.632 -1.5009 -0.2665 -0.8098
 1139SOL     OW14878   4.292   1.165   1.446 -0.4714 -0.3787  0.2892
 1139SOL    HW114879   4.344   1.182   1.368 -1.2042 -3.2672 -0.8464
 1139SOL    HW214880   4.203   1.157   1.412  0.6551  0.1483 -2.7129
 1140SOL     OW14881   1.910   2.179   8.537  0.3441  0.2128 -0.3511
 1140SOL    HW114882   1.920   2.187   8.443 -0.7035  1.4938 -0.3453
 1140SOL    HW214883   1.975   2.113   8.564 -0.2474  0.6912  2.2239
 1141SOL     OW14884   2.149   1.124   2.164 -0.0735  0.3652 -0.0840
 1141SOL    HW114885   2.187   1.197   2.213  0.3510  2.3992 -3.5008
 1141SOL    HW214886   2.076   1.095   2.220 -0.5112  1.0182 -0.3260
 1142SOL     OW14887   3.380   0.970   2.317 -0.3527  0.6482 -0.4703
 1142SOL    HW114888   3.452   0.994   2.376 -0.0183  1.9063 -1.3906
 1142SOL    HW214889   3.396   1.020   2.237 -0.6659  0.9538 -0.3389
 1143SOL     OW14890   0.965   3.197   0.331  0.1282 -0.1948 -0.7981
 1143SOL    HW114891   0.952   3.252   0.254  1.3147 -1.7524 -2.1194
 1143SOL    HW214892   0.900   3.127   0.317  3.0316 -3.4513  1.9034
 1144SOL     OW14893   3.827   0.840   4.867  0.6980 -0.0348  0.0993
 1144SOL    HW114894   3.866   0.928   4.868  0.9235 -0.1285 -0.8410
 1144SOL    HW214895   3.904   0.784   4.858 -0.5830 -1.9717  1.3068
 1145SOL     OW14896   3.488   1.592   1.967  0.3218  0.1959  0.0151
 1145SOL    HW114897   3.447   1.577   1.881 -1.0527  0.3504  0.6427
 1145SOL    HW214898   3.553   1.525   1.948  1.0682  1.2302 -1.1003
 1146SOL     OW14899   3.323   3.129   7.672  0.1478 -0.0646  0.0179
 1146SOL    HW114900   3.358   3.101   7.757 -0.6895 -1.5413 -0.1148
 1146SOL    HW214901   3.228   3.131   7.686  0.0925  2.3539 -0.7700
 1147SOL     OW14902   0.384   1.871   0.497  0.2933  0.2272 -0.6057
 1147SOL    HW114903   0.430   1.791   0.522  0.1490 -0.3399 -2.1002
 1147SOL    HW214904   0.298   1.836   0.471 -1.1063  2.3488  1.1719
 1148SOL     OW14905   3.083   2.095   1.737 -0.5976 -0.5799  0.2435
 1148SOL    HW114906   3.135   2.174   1.724  1.0641 -1.8624 -0.8723
 1148SOL    HW214907   3.066   2.094   1.831 -3.0685 -1.3538 -0.1965
 1149SOL     OW14908   1.205   0.659   1.765 -0.2577 -1.1183  0.3557
 1149SOL    HW114909   1.189   0.753   1.762  0.4925 -1.0098 -0.5970
 1149SOL    HW214910   1.220   0.651   1.859  0.4735 -1.9277  0.1771
 1150SOL     OW14911   0.755   3.932   2.747 -0.4135  0.0443  0.3547
 1150SOL    HW114912   0.699   3.952   2.673  1.3317  1.4918 -0.5699
 1150SOL    HW214913   0.822   4.000   2.737 -1.6945  1.1516 -0.6626
 1151SOL     OW14914   4.010   4.465   1.888  1.1448  0.5870  0.3905
 1151SOL    HW114915   3.981   4.422   1.807  1.8652 -0.9531  0.9616
 1151SOL    HW214916   4.105   4.460   1.889  1.1486  0.4589 -0.4360
 1152SOL     OW14917   4.309   1.991  12.339  0.0510  0.1284  0.0137
 1152SOL    HW114918   4.248   2.043  12.392 -0.3854 -0.3721 -0.0011
 1152SOL    HW214919   4.379   1.969  12.400  0.9108  0.3062 -0.9095
 1153SOL     OW14920   0.665   3.591   8.618 -0.2185  0.1533  0.3173
 1153SOL    HW114921   0.646   3.509   8.663  0.1265 -0.0151  0.1584
 1153SOL    HW214922   0.708   3.633   8.693  2.8219 -2.4326  0.0187
 1154SOL     OW14923   2.840   3.795  17.578 -0.2745 -0.2459  0.1060
 1154SOL    HW114924   2.814   3.790  17.486  0.1993  3.1813 -0.2109
 1154SOL    HW214925   2.840   3.890  17.595  0.4843 -0.2952  0.3816
 1155SOL     OW14926   3.126   2.472   8.923  0.1241 -0.1644  0.6396
 1155SOL    HW114927   3.172   2.430   8.995  1.4666  0.6616  0.2666
 1155SOL    HW214928   3.143   2.410   8.853 -0.4761  2.3616 -1.7607
 1156SOL     OW14929   3.093   2.446   4.314 -0.1852  0.7854  0.7566
 1156SOL    HW114930   3.158   2.515   4.330 -1.3382  2.1973 -0.6253
 1156SOL    HW214931   3.014   2.500   4.319 -0.2002  0.8242  0.0356
 1157SOL     OW14932   3.532   3.226   2.488  0.1857  0.6010  0.6695
 1157SOL    HW114933   3.614   3.227   2.539 -0.0533 -1.3082  1.0842
 1157SOL    HW214934   3.575   3.210   2.404  3.0917  4.2895  1.4632
 1158SOL     OW14935   1.861   0.345   3.357 -0.1831 -0.3497  0.4919
 1158SOL    HW114936   1.914   0.332   3.436  1.4915 -1.9145 -0.8922
 1158SOL    HW214937   1.782   0.378   3.400  1.1680  0.6277  2.2278
 1159SOL     OW14938   2.525   3.897   6.739  0.0918 -0.2050 -0.7391
 1159SOL    HW114939   2.539   3.902   6.645 -0.9347 -0.2698 -0.8978
 1159SOL    HW214940   2.607   3.856   6.765  0.6756  0.3437 -1.7373
 1160SOL     OW14941   2.525   1.401   3.265 -0.2302 -0.4930  0.3432
 1160SOL    HW114942   2.466   1.359   3.327  0.1004  0.3203  1.2184
 1160SOL    HW214943   2.480   1.485   3.253 -1.1170 -1.1677 -0.9598
 1161SOL     OW14944   3.028   0.347  14.020  0.3298  0.9481  0.8282
 1161SOL    HW114945   3.070   0.310  14.098  2.0747  3.0439  0.8846
 1161SOL    HW214946   3.091   0.340  13.948  0.1795 -0.2675  0.8073
 1162SOL     OW14947   2.599   4.422   5.252  0.1413  0.2543 -0.1598
 1162SOL    HW114948   2.689   4.417   5.222 -0.4903  1.2688 -2.1775
 1162SOL    HW214949   2.605   4.503   5.302 -0.6930 -0.3025  0.8636
 1163SOL     OW14950   3.928   2.551   7.397 -0.6343  0.2265 -0.2659
 1163SOL    HW114951   3.930   2.456   7.408 -1.7795 -0.0546 -2.4110
 1163SOL    HW214952   3.839   2.569   7.426 -0.6153 -0.0582 -0.0337
 1164SOL     OW14953   4.244   1.455  13.190 -0.3293 -0.4196  0.0882
 1164SOL    HW114954   4.238   1.435  13.096 -1.0822  0.3401 -0.0202
 1164SOL    HW214955   4.326   1.503  13.201 -1.0487  1.3607 -2.3782
 1165SOL     OW14956   3.609   0.627   1.479 -0.2294 -0.2125  0.1478
 1165SOL    HW114957   3.561   0.590   1.405 -1.8363 -0.3841  1.2695
 1165SOL    HW214958   3.698   0.631   1.444 -0.8195  0.1752 -1.3175
 1166SOL     OW14959   1.622   4.156   7.201  0.1061 -0.3950 -0.4001
 1166SOL    HW114960   1.662   4.171   7.115 -0.8886  0.1211 -0.7762
 1166SOL    HW214961   1.556   4.092   7.175 -0.3219  0.4644 -1.4461
 1167SOL     OW14962   2.744   4.716  17.502  0.4198  0.2488 -0.2004
 1167SOL    HW114963   2.718   4.673  17.420 -0.1337 -1.3398  0.8032
 1167SOL    HW214964   2.838   4.702  17.497  0.5864  0.4301  2.2441
 1168SOL     OW14965   0.343   3.504   7.631  0.3235  0.5180 -0.0169
 1168SOL    HW114966   0.383   3.556   7.701 -0.0317 -2.1075  2.1422
 1168SOL    HW214967   0.322   3.418   7.668  1.6424  1.2086  2.3198
 1169SOL     OW14968   3.731   2.401   1.272 -0.4504  0.5041  0.1294
 1169SOL    HW114969   3.685   2.321   1.300 -2.1152  0.8357 -1.6378
 1169SOL    HW214970   3.725   2.451   1.353 -1.1089  0.5856  0.0296
 1170SOL     OW14971   0.490   2.651   0.651 -0.2318  0.1720  0.1311
 1170SOL    HW114972   0.560   2.604   0.697  0.5058  0.5433 -0.6153
 1170SOL    HW214973   0.544   2.707   0.596  0.0550  1.8139  2.0899
 1171SOL     OW14974   0.693   2.222   3.935 -0.0726  0.3207 -0.1083
 1171SOL    HW114975   0.699   2.304   3.984  1.0569  0.8990 -1.2374
 1171SOL    HW214976   0.740   2.153   3.982 -0.2034  1.2749  1.3989
 1172SOL     OW14977   3.947   1.828   3.425  0.5339  0.1461  0.8949
 1172SOL    HW114978   4.002   1.750   3.432  0.6241  0.0812 -0.5992
 1172SOL    HW214979   4.007   1.895   3.458  1.1981  0.3933 -0.8439
 1173SOL     OW14980   1.638   2.364   3.935 -0.0225 -0.0630 -0.6082
 1173SOL    HW114981   1.688   2.418   3.995 -1.7038  1.7826 -0.8615
 1173SOL    HW214982   1.684   2.281   3.948  0.9926  0.6159  0.0418
 1174SOL     OW14983   4.137   3.929   5.241 -0.0179 -0.2351 -0.3248
 1174SOL    HW114984   4.225   3.939   5.204  0.0073  0.0625 -0.1848
 1174SOL    HW214985   4.080   3.916   5.166  0.3668  1.3981 -0.9053
 1175SOL     OW14986   0.932   4.197   9.497  0.0787  0.5351  0.0249
 1175SOL    HW114987   1.023   4.227   9.494  0.0329  0.6097 -0.7459
 1175SOL    HW214988   0.894   4.267   9.444  1.1479 -0.7209 -2.4065
 1176SOL     OW14989   1.623   4.265  14.173 -0.5104  0.2409 -0.0512
 1176SOL    HW114990   1.552   4.323  14.198 -0.1700  0.9644 -0.7252
 1176SOL    HW214991   1.590   4.176  14.159  0.5790 -0.0954 -0.5024
 1177SOL     OW14992   2.830   4.375   3.574 -0.2985  0.2398 -0.3447
 1177SOL    HW114993   2.910   4.361   3.523 -0.0499 -1.2681  0.4423
 1177SOL    HW214994   2.812   4.284   3.598  1.0751 -0.0797 -0.5046
 1178SOL     OW14995   0.883   4.497   7.690 -0.4485 -0.0676  0.7924
 1178SOL    HW114996   0.824   4.571   7.701 -0.3296  0.3413 -1.2588
 1178SOL    HW214997   0.834   4.443   7.628 -0.3510 -2.8458  3.1768
 1179SOL     OW14998   3.909   0.988   6.165 -0.3732  0.9535 -0.3294
 1179SOL    HW114999   3.966   1.033   6.103 -0.8097  1.8737 -0.0642
 1179SOL    HW215000   3.902   1.051   6.237  2.8238  0.0574  0.7646
 1180SOL     OW15001   1.347   3.937   1.786 -0.1569  0.7989 -0.1875
 1180SOL    HW115002   1.295   3.862   1.755  0.9898 -0.0459 -0.0803
 1180SOL    HW215003   1.272   3.995   1.800 -2.8769 -2.3236 -1.6169
 1181SOL     OW15004   1.107   1.808   6.682  0.0824 -0.2986 -0.0727
 1181SOL    HW115005   1.089   1.714   6.674  1.7643 -0.5302 -1.1487
 1181SOL    HW215006   1.023   1.853   6.679 -1.9860 -4.2619 -1.5920
 1182SOL     OW15007   2.883   2.903   6.670 -0.7011  0.2875 -0.0674
 1182SOL    HW115008   2.857   2.922   6.760  0.0325 -2.1941  0.6589
 1182SOL    HW215009   2.824   2.961   6.623 -1.8962 -1.7376 -1.0681
 1183SOL     OW15010   4.272   2.149   5.498  0.0433  0.1780 -0.5298
 1183SOL    HW115011   4.226   2.233   5.494 -0.2456 -0.0001 -0.8929
 1183SOL    HW215012   4.348   2.180   5.547 -0.6224 -1.4047  1.4814
 1184SOL     OW15013   3.692   0.275  13.515 -0.1974 -0.2007  0.0181
 1184SOL    HW115014   3.661   0.338  13.580 -0.5572 -0.9352  0.5570
 1184SOL    HW215015   3.622   0.285  13.451 -1.5464 -2.2684  1.1865
 1185SOL     OW15016   2.889   2.357  14.029  0.0390  0.5166 -0.3166
 1185SOL    HW115017   2.807   2.388  13.988  0.1561  2.2983  0.7891
 1185SOL    HW215018   2.890   2.263  14.016  2.2902  0.4653  0.2325
 1186SOL     OW15019   4.453   0.113  11.823  0.3848  0.3710  0.4941
 1186SOL    HW115020   4.476   0.206  11.827  0.0454  0.3822  2.2188
 1186SOL    HW215021   4.507   0.084  11.750  0.5337  2.2054 -0.1360
 1187SOL     OW15022   0.730   0.712   6.222  0.4718 -0.5616  0.0661
 1187SOL    HW115023   0.729   0.753   6.309 -0.3376 -1.6902  0.5994
 1187SOL    HW215024   0.645   0.667   6.220 -0.3278  1.0139 -1.5704
 1188SOL     OW15025   1.291   1.708   9.240  0.3178  0.0965  0.3929
 1188SOL    HW115026   1.249   1.622   9.235  1.0618 -0.1533 -1.2904
 1188SOL    HW215027   1.368   1.697   9.296 -0.5157 -1.1769  1.2929
 1189SOL     OW15028   3.345   1.585   4.845  0.3841  0.5603 -0.1632
 1189SOL    HW115029   3.392   1.533   4.779 -0.4389 -0.6003  0.1766
 1189SOL    HW215030   3.274   1.613   4.786 -1.4853  2.1683  2.8737
 1190SOL     OW15031   0.498   3.189   6.690 -0.0235  0.8312  0.1765
 1190SOL    HW115032   0.460   3.154   6.770  0.3873  0.7050  0.3170
 1190SOL    HW215033   0.586   3.181   6.725 -0.5763  2.5341  1.9513
 1191SOL     OW15034   0.654   4.449  13.254  0.4030 -0.2131 -0.0547
 1191SOL    HW115035   0.723   4.515  13.240 -0.2988  0.0423 -2.3084
 1191SOL    HW215036   0.611   4.450  13.169 -0.6549  1.5856  0.5132
 1192SOL     OW15037   2.458   1.785  16.752 -0.6446  0.3926  0.2717
 1192SOL    HW115038   2.535   1.740  16.718 -0.2431  1.2428  0.0547
 1192SOL    HW215039   2.423   1.739  16.829 -2.5701  0.6054 -0.4822
 1193SOL     OW15040   3.506   1.397  12.487 -0.2650 -0.1505 -0.1327
 1193SOL    HW115041   3.537   1.413  12.576  3.0536 -1.6524 -1.0409
 1193SOL    HW215042   3.534   1.308  12.467 -0.3651 -0.6821  2.0586
 1194SOL     OW15043   1.351   1.005   4.412  0.8198  0.4152  0.3297
 1194SOL    HW115044   1.415   1.073   4.389  0.7243  0.4306  0.1063
 1194SOL    HW215045   1.289   1.016   4.340 -0.5658  0.2392  1.4980
 1195SOL     OW15046   3.559   2.665   7.356 -0.6153  0.1700 -1.1070
 1195SOL    HW115047   3.606   2.631   7.433 -1.1146 -0.6905 -1.1868
 1195SOL    HW215048   3.543   2.758   7.371  2.5755  0.2259  1.9165
 1196SOL     OW15049   2.176   2.017   7.547  0.0610 -0.4577 -0.2670
 1196SOL    HW115050   2.129   1.940   7.515  2.6759 -2.4471  0.6458
 1196SOL    HW215051   2.268   1.993   7.530  0.2619  0.0723  0.0765
 1197SOL     OW15052   2.139   0.215  13.317 -0.4998 -0.0661  0.3988
 1197SOL    HW115053   2.154   0.140  13.374  0.3127 -0.1736  0.0468
 1197SOL    HW215054   2.102   0.282  13.375 -0.3393  0.2578  0.1284
 1198SOL     OW15055   3.478   1.175   2.775  0.2896 -0.8665  0.6101
 1198SOL    HW115056   3.498   1.244   2.838  0.9866 -0.9096  0.4350
 1198SOL    HW215057   3.434   1.226   2.707 -0.5960 -0.8615  1.1876
 1199SOL     OW15058   3.979   0.944   4.279  0.1261  0.5551 -0.2588
 1199SOL    HW115059   3.952   0.897   4.200  0.7761  1.9934 -1.3407
 1199SOL    HW215060   3.905   0.937   4.338  0.7821 -2.5998  0.1965
 1200SOL     OW15061   4.516   0.865   6.149  0.0092  0.3382  0.0194
 1200SOL    HW115062   4.448   0.875   6.082 -0.0713  0.3856  0.1081
 1200SOL    HW215063   4.568   0.787   6.130  1.3549  1.3542 -0.3916
 1201SOL     OW15064   2.520   3.057   4.684  0.3401  0.3679 -0.2967
 1201SOL    HW115065   2.590   3.007   4.642  0.8149  0.6713  0.1309
 1201SOL    HW215066   2.500   3.112   4.609 -0.2471  1.5920  0.7552
 1202SOL     OW15067   0.940   0.424   0.528  0.0762 -0.2133  0.1314
 1202SOL    HW115068   1.026   0.382   0.522  0.6138  0.9346 -0.2986
 1202SOL    HW215069   0.944   0.487   0.455  0.5468 -0.0407  0.3023
 1203SOL     OW15070   3.811   3.671   9.596  0.2159 -0.4001 -0.1601
 1203SOL    HW115071   3.794   3.699   9.686  1.0672  0.4693 -0.2749
 1203SOL    HW215072   3.818   3.576   9.602  0.5567 -0.3113  0.9376
 1204SOL     OW15073   0.674   2.640   2.281 -0.4196  0.0668 -0.0127
 1204SOL    HW115074   0.666   2.622   2.187 -1.3406  0.8629 -0.0914
 1204SOL    HW215075   0.687   2.735   2.281 -1.2575  0.1813  1.7568
 1205SOL     OW15076   1.413   3.386   4.421  0.1126  0.0530  0.2386
 1205SOL    HW115077   1.325   3.349   4.426  0.6645 -1.3059 -0.0620
 1205SOL    HW215078   1.461   3.344   4.492  0.7515 -0.0638 -0.2609
 1206SOL     OW15079   3.984   3.602  10.162 -0.3028  0.4614  0.4221
 1206SOL    HW115080   3.891   3.615  10.180 -0.5239 -0.9494  0.3236
 1206SOL    HW215081   4.002   3.640  10.248 -1.1719 -0.2749  0.9337
 1207SOL     OW15082   3.956   2.845   4.372 -0.2109  0.1086 -0.8540
 1207SOL    HW115083   3.920   2.933   4.375 -3.0442 -1.1010  0.2605
 1207SOL    HW215084   4.035   2.872   4.324 -0.0458  0.4095 -0.4143
 1208SOL     OW15085   2.486   0.975  16.165  0.5847  0.0990  0.4535
 1208SOL    HW115086   2.480   1.070  16.167  0.1676  0.0491  1.4591
 1208SOL    HW215087   2.532   0.958  16.083  0.5839  2.3567 -0.0237
 1209SOL     OW15088   2.452   2.227  17.309 -0.2515  0.3806 -0.5696
 1209SOL    HW115089   2.497   2.142  17.318 -1.5850 -0.4276 -1.6196
 1209SOL    HW215090   2.412   2.217  17.223  1.2221 -1.6892 -1.0372
 1210SOL     OW15091   0.397   2.021   1.665 -0.0909 -0.5179 -0.1622
 1210SOL    HW115092   0.418   2.086   1.598 -2.4622 -0.5426 -0.9240
 1210SOL    HW215093   0.302   2.023   1.662 -0.0794 -0.2543 -0.3739
 1211SOL     OW15094   4.679   4.439   8.652 -0.2511  0.1261  0.2773
 1211SOL    HW115095   0.046   4.411   8.633 -0.0523  0.2215  1.0727
 1211SOL    HW215096   4.622   4.387   8.595  0.9761  0.3171 -1.1232
 1212SOL     OW15097   3.096   4.376   6.420 -0.3971  0.2890  0.0919
 1212SOL    HW115098   3.128   4.390   6.509  0.5467 -1.6614  0.0665
 1212SOL    HW215099   3.001   4.382   6.423 -0.3843  0.5006  0.0676
 1213SOL     OW15100   4.220   3.993   3.555 -0.2227 -0.5238  0.1685
 1213SOL    HW115101   4.236   3.966   3.646 -0.9636 -0.0922  0.4263
 1213SOL    HW215102   4.124   4.001   3.548 -0.2998 -0.0269  1.6962
 1214SOL     OW15103   1.578   4.554  15.224 -0.8031 -0.3508 -0.0429
 1214SOL    HW115104   1.532   4.562  15.141 -0.2349  0.4706 -0.2792
 1214SOL    HW215105   1.637   4.629  15.216  1.6910 -2.5028 -1.6466
 1215SOL     OW15106   3.026   0.513  13.563 -0.2643 -0.1864  0.5128
 1215SOL    HW115107   2.998   0.526  13.472  1.1368  1.3003  0.3047
 1215SOL    HW215108   2.951   0.469  13.604 -1.6257 -0.2384 -2.0129
 1216SOL     OW15109   2.152   2.790   7.260 -0.0551 -0.1463  0.4235
 1216SOL    HW115110   2.129   2.708   7.217  1.3755  0.8987 -2.3413
 1216SOL    HW215111   2.245   2.782   7.282  0.4360 -0.7064 -1.8790
 1217SOL     OW15112   3.020   4.266  15.046  0.5301 -0.2981 -0.4742
 1217SOL    HW115113   2.976   4.347  15.022 -0.5905 -0.1092  2.1993
 1217SOL    HW215114   3.086   4.297  15.108  0.2340 -0.3112 -0.1516
 1218SOL     OW15115   0.843   2.649   3.362 -0.0794  0.1692 -0.8152
 1218SOL    HW115116   0.850   2.722   3.424  4.0803 -0.7420 -0.1844
 1218SOL    HW215117   0.793   2.587   3.415  0.1581  1.9478  1.4982
 1219SOL     OW15118   0.177   0.811   6.849 -0.6982 -0.3027 -0.0102
 1219SOL    HW115119   0.246   0.871   6.877 -3.8474  3.0841  0.4885
 1219SOL    HW215120   0.231   0.752   6.796  0.3493 -0.4389  1.1975
 1220SOL     OW15121   2.909   0.825   2.961 -0.2710 -0.7293  0.2349
 1220SOL    HW115122   2.858   0.747   2.981  0.4270 -1.1138  0.5331
 1220SOL    HW215123   2.952   0.845   3.044 -0.5113 -0.8910  0.3972
 1221SOL     OW15124   0.309   3.617   2.226 -0.4851 -0.2963  0.0989
 1221SOL    HW115125   0.319   3.538   2.280  1.9813 -1.1642 -1.6187
 1221SOL    HW215126   0.249   3.583   2.161 -1.8688  0.8740  0.7709
 1222SOL     OW15127   1.686   3.344   2.986 -0.1828 -0.0083  0.6238
 1222SOL    HW115128   1.634   3.424   2.982  0.0142  0.2356  2.9363
 1222SOL    HW215129   1.674   3.326   3.079  0.7957 -0.7475  0.6149
 1223SOL     OW15130   2.417   4.622   9.980 -0.1381 -0.9851  0.7197
 1223SOL    HW115131   2.395   4.645  10.070  0.1644 -0.2444  0.6078
 1223SOL    HW215132   2.507   4.589   9.989 -0.1519 -1.2616 -0.1695
 1224SOL     OW15133   4.295   4.425   0.587 -0.5210  0.2263 -0.2353
 1224SOL    HW115134   4.292   4.363   0.660 -0.4899 -1.7605 -1.9223
 1224SOL    HW215135   4.246   4.377   0.520 -0.0469 -1.7315  0.8105
 1225SOL     OW15136   4.689   1.866   8.864 -0.2178 -0.3861 -0.5948
 1225SOL    HW115137   0.002   1.915   8.938 -2.1936  1.2881 -0.7764
 1225SOL    HW215138   0.038   1.801   8.862 -0.1967 -0.3483 -0.9561
 1226SOL     OW15139   2.922   3.136   8.323  0.2587  0.8248  0.1199
 1226SOL    HW115140   2.997   3.094   8.366 -1.5530 -0.8357  1.6561
 1226SOL    HW215141   2.889   3.190   8.395 -0.6250  0.5434 -0.0740
 1227SOL     OW15142   2.623   1.882   8.157  0.2236 -0.3541  0.6480
 1227SOL    HW115143   2.528   1.885   8.149  0.1703  0.8630  1.6806
 1227SOL    HW215144   2.658   1.970   8.142  0.9316 -0.6791  0.3768
 1228SOL     OW15145   1.130   1.838   5.447 -1.0480  0.0370  0.5289
 1228SOL    HW115146   1.116   1.920   5.494 -0.6319  1.1567 -1.3023
 1228SOL    HW215147   1.040   1.823   5.418 -0.9612  2.8627 -1.1943
 1229SOL     OW15148   3.545   3.864   4.087 -0.0076  0.1081 -0.2640
 1229SOL    HW115149   3.584   3.949   4.066 -1.0643  0.2087 -1.8455
 1229SOL    HW215150   3.603   3.838   4.159  0.2842  1.1492 -0.1179
 1230SOL     OW15151   0.290   3.729   4.008 -0.6063 -0.2413  0.1605
 1230SOL    HW115152   0.347   3.771   3.943 -0.9855 -1.0528 -0.7017
 1230SOL    HW215153   0.349   3.656   4.029 -0.0547  0.2628  0.3615
 1231SOL     OW15154   1.621   0.328   6.681 -0.9292  0.1453 -0.2931
 1231SOL    HW115155   1.624   0.423   6.695 -0.2628 -0.0303  0.7434
 1231SOL    HW215156   1.644   0.303   6.771  1.2067 -0.0945 -0.9073
 1232SOL     OW15157   3.753   0.110   5.942  1.0155 -0.0659  0.6233
 1232SOL    HW115158   3.691   0.112   5.870 -0.5995 -1.1286  1.9671
 1232SOL    HW215159   3.699   0.110   6.021  0.9962  0.1398  0.6090
 1233SOL     OW15160   3.565   0.480   9.004 -0.5176 -0.0678  0.1551
 1233SOL    HW115161   3.525   0.464   8.918  2.4129  2.5343 -1.7121
 1233SOL    HW215162   3.508   0.543   9.048 -0.3910  0.7335 -0.8160
 1234SOL     OW15163   2.005   3.204  15.545 -0.5894  0.6094 -0.5756
 1234SOL    HW115164   2.044   3.133  15.493  1.7896  0.5497  1.3295
 1234SOL    HW215165   1.918   3.173  15.569 -0.4398 -1.1766 -2.3598
 1235SOL     OW15166   1.014   0.955  15.898  0.5867  0.1956  0.1907
 1235SOL    HW115167   0.928   0.987  15.925  0.0800  1.7807 -3.3500
 1235SOL    HW215168   1.072   0.993  15.965 -0.3676 -0.4391  1.3804
 1236SOL     OW15169   0.572   3.097  14.769 -0.1595  0.1515  0.0966
 1236SOL    HW115170   0.527   3.025  14.725 -1.7353  1.1541  0.0757
 1236SOL    HW215171   0.503   3.135  14.824 -0.4769 -0.2601 -0.0222
 1237SOL     OW15172   0.253   2.714   9.183  0.4638 -0.1064 -0.4610
 1237SOL    HW115173   0.184   2.752   9.238 -1.7005 -1.5306 -2.2125
 1237SOL    HW215174   0.305   2.792   9.163 -1.2664  1.0445 -0.4744
 1238SOL     OW15175   0.600   0.008  16.110  0.3175 -0.2675  0.0484
 1238SOL    HW115176   0.560   4.653  16.071  0.6397 -0.3710 -0.0741
 1238SOL    HW215177   0.554   0.013  16.194 -2.8826 -0.3179 -1.7262
 1239SOL     OW15178   0.051   3.111   6.558 -0.2682 -0.3660 -0.0294
 1239SOL    HW115179   0.112   3.047   6.522 -0.3767 -0.4063 -0.1404
 1239SOL    HW215180   0.007   3.116   6.473 -5.3695 -3.7239  2.4384
 1240SOL     OW15181   3.144   0.167  13.505 -0.1474 -0.0013  0.4676
 1240SOL    HW115182   3.082   0.175  13.432  0.8664  0.0535 -0.3872
 1240SOL    HW215183   3.219   0.223  13.482 -0.8704  1.5484  1.8581
 1241SOL     OW15184   1.340   4.578   7.457 -0.2363  0.2568 -0.3050
 1241SOL    HW115185   1.284   4.639   7.503 -0.8580 -1.6482  1.4833
 1241SOL    HW215186   1.400   4.549   7.526  1.0234  3.7425  0.0460
 1242SOL     OW15187   2.867   4.168   3.235  0.5698  0.1813 -0.2534
 1242SOL    HW115188   2.787   4.198   3.279 -0.1439  1.6435 -2.5405
 1242SOL    HW215189   2.907   4.248   3.201  1.5998  0.4012  1.4688
 1243SOL     OW15190   2.667   2.788  12.572  0.0717 -0.2918  0.0472
 1243SOL    HW115191   2.711   2.714  12.530  1.9729  1.7932 -1.6711
 1243SOL    HW215192   2.615   2.744  12.639 -1.6571  1.8026  0.0927
 1244SOL     OW15193   4.423   3.543  11.759 -0.1228 -0.1603 -0.5650
 1244SOL    HW115194   4.384   3.459  11.782  0.6915  0.1966  2.1943
 1244SOL    HW215195   4.436   3.576  11.848 -1.9527  0.0102 -0.3527
 1245SOL     OW15196   0.050   2.651  14.553 -0.1957  0.1195  0.6718
 1245SOL    HW115197   0.024   2.665  14.644  0.3286  0.4679  0.7639
 1245SOL    HW215198   0.076   2.740  14.530 -1.3541  0.5324  0.9204
 1246SOL     OW15199   4.425   1.277   4.874  0.0997  0.0048 -0.0697
 1246SOL    HW115200   4.507   1.322   4.853 -0.1070 -1.1891 -3.3775
 1246SOL    HW215201   4.366   1.335   4.826 -0.0467 -1.0107 -1.0969
 1247SOL     OW15202   2.290   2.330   3.018 -0.9812 -0.3405  0.2531
 1247SOL    HW115203   2.227   2.310   3.087  0.1330  1.0844  1.6930
 1247SOL    HW215204   2.299   2.251   2.966  0.8308  0.5283 -0.7517
 1248SOL     OW15205   3.395   3.936  10.069 -0.1468 -0.3871 -0.0361
 1248SOL    HW115206   3.475   3.896  10.101  0.1715 -0.9420 -1.5417
 1248SOL    HW215207   3.323   3.916  10.130 -0.1483  0.6797  0.3113
 1249SOL     OW15208   2.604   1.505   5.981 -0.3593  0.6529 -0.0081
 1249SOL    HW115209   2.560   1.440   5.926 -0.9973  0.5231  0.6733
 1249SOL    HW215210   2.527   1.555   6.006  1.6134  2.6429  2.1329
 1250SOL     OW15211   1.005   2.223  17.301  0.3372  0.3644  0.2893
 1250SOL    HW115212   0.999   2.228  17.205  0.8078 -0.8204  0.1997
 1250SOL    HW215213   0.914   2.241  17.323  0.0846 -0.2562 -0.2292
 1251SOL     OW15214   1.528   0.127   2.453  1.0213 -0.3885  0.2227
 1251SOL    HW115215   1.622   0.125   2.435  1.1182 -0.4533  0.7335
 1251SOL    HW215216   1.520   0.040   2.490 -1.5941  0.5461  1.8563
 1252SOL     OW15217   0.205   1.449   0.623  0.3365  0.2104 -0.2610
 1252SOL    HW115218   0.136   1.455   0.557  1.1934 -1.6084 -1.3487
 1252SOL    HW215219   0.145   1.449   0.697  0.7524  0.4992  0.0770
 1253SOL     OW15220   0.930   0.243   7.751 -0.4389 -0.3073  0.0942
 1253SOL    HW115221   0.915   0.211   7.662 -1.1935 -2.2494  0.9344
 1253SOL    HW215222   0.859   0.196   7.794  0.0616 -1.0745  0.0832
 1254SOL     OW15223   1.273   1.909  16.707 -0.3139  0.5176 -0.8235
 1254SOL    HW115224   1.311   1.996  16.697 -2.4819  1.7783  2.1272
 1254SOL    HW215225   1.222   1.913  16.626 -2.1370 -2.8390  0.1471
 1255SOL     OW15226   1.652   4.152   7.481 -0.5444 -0.1225  0.6419
 1255SOL    HW115227   1.650   4.152   7.385 -1.4378  2.9590  0.6391
 1255SOL    HW215228   1.598   4.230   7.497 -0.9289 -0.6411  1.8686
 1256SOL     OW15229   1.002   3.017   7.179 -0.2812 -0.2956 -0.2670
 1256SOL    HW115230   0.972   2.929   7.201  1.2482 -0.3874  1.4387
 1256SOL    HW215231   1.092   3.004   7.208 -1.0316 -1.0304  1.6958
 1257SOL     OW15232   3.120   0.599   0.432  0.1724 -0.6044  0.6112
 1257SOL    HW115233   3.082   0.520   0.393 -0.6698  0.5390 -0.8568
 1257SOL    HW215234   3.174   0.572   0.506  1.2055  1.8217  0.7179
 1258SOL     OW15235   2.170   2.944   7.500 -0.3662 -0.0327  0.4351
 1258SOL    HW115236   2.261   2.927   7.524 -0.1916  0.2174 -0.0433
 1258SOL    HW215237   2.163   2.894   7.419 -1.5362 -2.6240  2.1529
 1259SOL     OW15238   2.337   1.235   7.460  0.2924  0.5724  0.2795
 1259SOL    HW115239   2.390   1.173   7.510  0.3102 -0.1852 -0.6862
 1259SOL    HW215240   2.335   1.308   7.522 -1.6964  0.0979  0.7684
 1260SOL     OW15241   1.775   3.856  10.653 -0.4526 -0.6154  0.0317
 1260SOL    HW115242   1.782   3.947  10.682 -1.1438 -0.9229  1.1928
 1260SOL    HW215243   1.724   3.829  10.729 -0.2315  0.4356  0.5491
 1261SOL     OW15244   4.493   2.448  10.669 -0.3075 -0.6115  0.1511
 1261SOL    HW115245   4.406   2.478  10.642 -0.7723  0.6030  2.9844
 1261SOL    HW215246   4.555   2.517  10.648 -2.5972  1.4187  0.0374
 1262SOL     OW15247   0.381   2.961  15.144 -0.2165  0.1528 -0.4850
 1262SOL    HW115248   0.366   2.872  15.177  0.7396 -0.6477 -2.2044
 1262SOL    HW215249   0.433   2.935  15.067 -1.2179 -2.8578 -0.1462
 1263SOL     OW15250   3.039   2.248   0.362  0.1513  0.5210 -0.7323
 1263SOL    HW115251   3.118   2.195   0.359 -0.5997 -0.4927 -2.0973
 1263SOL    HW215252   3.080   2.335   0.355 -1.2688  1.4349  2.3999
 1264SOL     OW15253   1.728   2.673   7.007 -0.2334  0.1940 -0.5478
 1264SOL    HW115254   1.800   2.609   7.003 -0.0943  0.2428  1.1066
 1264SOL    HW215255   1.738   2.712   7.094  1.1923 -0.5948 -0.3599
 1265SOL     OW15256   3.294   4.447   3.982  0.2668 -0.3222  0.2973
 1265SOL    HW115257   3.379   4.479   4.011  0.2092 -0.0050  0.1144
 1265SOL    HW215258   3.311   4.390   3.907 -0.9286 -0.0301 -0.2080
 1266SOL     OW15259   1.573   2.285   7.053 -0.2550 -0.0732 -0.2494
 1266SOL    HW115260   1.537   2.293   6.965  0.1750  0.1200 -0.4075
 1266SOL    HW215261   1.622   2.204   7.039 -2.2430 -1.7253  2.4512
 1267SOL     OW15262   2.482   2.633   2.375  0.0759  0.2101 -0.5029
 1267SOL    HW115263   2.571   2.597   2.380  0.0203  0.1893  0.3937
 1267SOL    HW215264   2.470   2.653   2.282 -4.0867 -2.4582 -0.5275
 1268SOL     OW15265   0.999   2.268   6.407  0.6914  0.1571 -0.4902
 1268SOL    HW115266   0.981   2.174   6.405  2.8209 -0.2857  1.4683
 1268SOL    HW215267   1.039   2.297   6.325  0.2146  2.2490  0.0254
 1269SOL     OW15268   1.847   1.414   2.544 -0.3782  0.0410  0.0831
 1269SOL    HW115269   1.860   1.413   2.450 -0.6960 -0.7933  0.0540
 1269SOL    HW215270   1.828   1.504   2.570  3.0289 -0.0058  2.9112
 1270SOL     OW15271   0.975   1.574   6.652 -0.0964  0.3844  0.1943
 1270SOL    HW115272   0.964   1.524   6.571 -3.0604  0.1328  0.7583
 1270SOL    HW215273   0.899   1.540   6.700 -0.3121  0.6905  0.0708
 1271SOL     OW15274   1.265   1.097  13.329 -0.7687 -0.2838 -0.6808
 1271SOL    HW115275   1.331   1.085  13.261 -1.6324 -0.3063 -1.5162
 1271SOL    HW215276   1.325   1.114  13.401 -1.5547  1.5198 -0.4298
 1272SOL     OW15277   3.061   3.720  17.276  0.6035 -0.7283  0.1424
 1272SOL    HW115278   3.057   3.737  17.182  0.4687 -0.0347  0.2790
 1272SOL    HW215279   2.970   3.747  17.290  1.2328  1.9020 -1.0061
 1273SOL     OW15280   0.976   4.072   6.176  0.1838 -0.0146  0.8984
 1273SOL    HW115281   1.031   3.994   6.183  0.6003  0.3950  2.0269
 1273SOL    HW215282   0.972   4.092   6.082  0.7064  0.6577  1.0249
 1274SOL     OW15283   2.408   1.771  11.220 -0.5171 -0.1628 -0.0193
 1274SOL    HW115284   2.443   1.683  11.210  0.6425  0.1447  1.4335
 1274SOL    HW215285   2.433   1.780  11.312 -1.9831  1.2505  0.2320
 1275SOL     OW15286   4.522   3.682  10.735 -0.0733  0.0331  0.3072
 1275SOL    HW115287   4.484   3.606  10.692 -1.3212 -0.4982  2.3354
 1275SOL    HW215288   4.527   3.654  10.827 -3.0077  0.1213  0.4838
 1276SOL     OW15289   1.953   2.322   1.293  0.2019 -0.1649  0.3225
 1276SOL    HW115290   1.925   2.410   1.268  0.1714 -0.1908  0.2633
 1276SOL    HW215291   1.898   2.278   1.228  0.6881 -0.2009 -0.0668
 1277SOL     OW15292   3.822   1.258   8.840  0.2308 -0.0531  0.3848
 1277SOL    HW115293   3.868   1.342   8.845  0.0070  0.0705  0.3824
 1277SOL    HW215294   3.870   1.211   8.772  0.8170 -0.9169  1.3870
 1278SOL     OW15295   1.027   3.401   3.809 -0.4800  0.2497 -0.4362
 1278SOL    HW115296   1.096   3.457   3.845  0.5648 -0.7265 -0.8968
 1278SOL    HW215297   0.955   3.458   3.833 -1.2950 -0.9484 -0.0072
 1279SOL     OW15298   1.003   3.232   7.581  0.4609  0.2770 -0.1346
 1279SOL    HW115299   0.999   3.320   7.619 -0.4860 -0.6000  1.8094
 1279SOL    HW215300   1.029   3.259   7.493  0.3925  0.0456 -0.2256
 1280SOL     OW15301   0.966   2.616  14.559 -0.4597  0.1783 -0.5551
 1280SOL    HW115302   0.894   2.558  14.535  0.4501 -0.4681 -1.6585
 1280SOL    HW215303   0.934   2.685  14.501  1.0125  0.2851 -1.2296
 1281SOL     OW15304   2.790   3.707   3.725  0.1638 -0.0505  0.2751
 1281SOL    HW115305   2.838   3.750   3.653 -1.1897 -0.3012 -0.7740
 1281SOL    HW215306   2.718   3.768   3.738 -0.0030 -0.5203  1.5001
 1282SOL     OW15307   3.520   1.846   2.493  0.2402 -0.0945 -0.0284
 1282SOL    HW115308   3.431   1.840   2.526  0.7770 -0.7632  1.2893
 1282SOL    HW215309   3.540   1.753   2.483  1.1063  0.1292 -0.3823
 1283SOL     OW15310   1.987   3.429  15.251  0.0847 -0.3585 -0.0438
 1283SOL    HW115311   2.025   3.343  15.269  1.1822  0.2220  0.4043
 1283SOL    HW215312   1.941   3.422  15.168 -1.1432 -2.0028  0.7849
 1284SOL     OW15313   4.145   2.588   9.450  0.1977  0.5980  0.2867
 1284SOL    HW115314   4.126   2.536   9.371  0.4849  0.2172  0.4680
 1284SOL    HW215315   4.204   2.650   9.407 -0.2907  0.0871 -1.1227
 1285SOL     OW15316   1.039   0.940  13.647  0.2177  0.2354  0.0230
 1285SOL    HW115317   1.113   0.963  13.703  2.1338 -2.1196 -1.5213
 1285SOL    HW215318   0.971   0.982  13.700  2.4469  1.3771  1.9679
 1286SOL     OW15319   2.806   2.455   1.335 -0.1215  0.1782 -0.0634
 1286SOL    HW115320   2.732   2.410   1.374 -1.1420 -0.1487 -2.3526
 1286SOL    HW215321   2.824   2.506   1.414  0.3798 -0.9698  0.5705
 1287SOL     OW15322   4.270   1.865   4.089 -0.3621  0.0675  0.4984
 1287SOL    HW115323   4.317   1.804   4.031 -0.7970 -0.0286  0.2464
 1287SOL    HW215324   4.282   1.844   4.182  0.7715 -0.5375  0.2143
 1288SOL     OW15325   4.702   1.898   1.732 -0.3616  0.1185 -0.4815
 1288SOL    HW115326   0.051   1.852   1.775  0.9877  2.2747 -0.3862
 1288SOL    HW215327   4.631   1.863   1.786  0.8403 -0.6035  0.6439
 1289SOL     OW15328   0.909   2.803  10.291  0.3129  0.1423 -0.3198
 1289SOL    HW115329   0.863   2.721  10.307 -0.6156  1.1426  2.1157
 1289SOL    HW215330   0.996   2.765  10.279  0.4530  0.5835 -0.7305
 1290SOL     OW15331   4.187   2.003   5.278 -0.7678 -0.3020 -0.3551
 1290SOL    HW115332   4.222   2.058   5.348  0.6709 -1.4608 -0.1767
 1290SOL    HW215333   4.221   1.916   5.297  2.1518  0.3239 -2.7388
 1291SOL     OW15334   4.698   4.122   8.068 -0.3041  0.1696  0.4124
 1291SOL    HW115335   0.026   4.106   7.988 -0.0914 -0.8428  0.7373
 1291SOL    HW215336   4.612   4.146   8.034 -0.6391 -0.0714  1.0899
 1292SOL     OW15337   4.245   1.145   8.807  0.1890  0.0822  0.0741
 1292SOL    HW115338   4.261   1.184   8.893 -1.1759  2.6509 -0.8344
 1292SOL    HW215339   4.331   1.129   8.768 -0.4371 -2.2385 -0.2981
 1293SOL     OW15340   3.939   4.638   5.942 -0.6936  0.0028  0.0561
 1293SOL    HW115341   3.922   4.578   6.016 -2.6651 -0.9695 -1.1705
 1293SOL    HW215342   3.854   4.680   5.933  0.4231  2.3196  0.3603
 1294SOL     OW15343   1.317   1.809   7.763 -0.5361 -0.0808 -0.5542
 1294SOL    HW115344   1.318   1.893   7.717 -0.5548  0.1695 -0.0940
 1294SOL    HW215345   1.401   1.770   7.735 -0.4418  0.3599 -0.8944
 1295SOL     OW15346   2.838   0.111   7.341 -0.0913  0.2406  0.0036
 1295SOL    HW115347   2.792   0.192   7.320 -1.5831 -0.6202 -0.0762
 1295SOL    HW215348   2.925   0.129   7.305  1.0585 -2.9576  1.1883
 1296SOL     OW15349   2.778   4.017   4.118 -0.6483  0.0692 -0.0663
 1296SOL    HW115350   2.814   4.025   4.207 -0.7999  0.0317 -0.0015
 1296SOL    HW215351   2.855   4.025   4.062 -0.6196  2.6919  0.3510
 1297SOL     OW15352   1.629   0.098   5.902 -0.2442 -0.0524 -0.2020
 1297SOL    HW115353   1.655   0.184   5.869  0.9784  0.3680  1.8898
 1297SOL    HW215354   1.567   0.110   5.974 -0.3371  1.7193 -0.5762
 1298SOL     OW15355   3.033   2.862   3.419  0.3594  0.1396 -0.3343
 1298SOL    HW115356   3.093   2.895   3.352  1.1226 -1.7487 -0.5907
 1298SOL    HW215357   2.964   2.828   3.363  0.1806  0.7490 -0.4804
 1299SOL     OW15358   0.266   2.652   2.674 -0.0397  0.5928  0.4320
 1299SOL    HW115359   0.223   2.617   2.753  0.4670  2.8038  1.6721
 1299SOL    HW215360   0.190   2.699   2.641  0.8785  0.8552 -1.3063
 1300SOL     OW15361   3.014   0.185   9.288  0.1883  0.4043 -0.1665
 1300SOL    HW115362   2.930   0.191   9.335  2.2791  0.4312  3.5874
 1300SOL    HW215363   3.042   0.276   9.275  0.1645  0.5865  1.0480
 1301SOL     OW15364   1.020   4.265   4.864  0.5668 -0.4622 -0.0243
 1301SOL    HW115365   0.981   4.181   4.884  2.3783 -0.7833  2.1460
 1301SOL    HW215366   1.048   4.291   4.952  4.4248 -0.2778 -1.3069
 1302SOL     OW15367   1.590   4.113  14.614  0.2623  0.4361 -0.2185
 1302SOL    HW115368   1.587   4.208  14.603  0.5804  0.6304  1.4178
 1302SOL    HW215369   1.675   4.095  14.654  0.0767 -0.1477 -0.0738
 1303SOL     OW15370   0.255   0.743   3.720  0.1621 -0.9194  0.6898
 1303SOL    HW115371   0.236   0.649   3.725 -1.2657 -0.6569  0.0062
 1303SOL    HW215372   0.335   0.750   3.773  0.3617  1.4973  0.0297
 1304SOL     OW15373   0.739   2.515   6.758  0.4907  0.3141  0.2710
 1304SOL    HW115374   0.797   2.487   6.687  0.6083  1.7692 -0.2265
 1304SOL    HW215375   0.680   2.575   6.712 -0.1778 -1.9149 -1.8056
 1305SOL     OW15376   3.150   1.007   6.238  0.1251  0.1529 -0.2518
 1305SOL    HW115377   3.096   0.945   6.287  0.0365  1.1008  0.8645
 1305SOL    HW215378   3.154   0.962   6.154 -2.3885  0.5502 -0.6022
 1306SOL     OW15379   2.090   4.448  14.061  0.1483 -0.4729  0.4352
 1306SOL    HW115380   2.003   4.411  14.047  0.4847 -0.4194 -1.7247
 1306SOL    HW215381   2.087   4.540  14.034 -3.9783 -0.5650  0.6873
 1307SOL     OW15382   0.228   4.685   3.550  0.2786  0.0466  0.7051
 1307SOL    HW115383   0.309   4.692   3.599  0.2591 -0.6325  0.8382
 1307SOL    HW215384   0.173   4.705   3.626 -0.7131 -0.0517  0.0170
 1308SOL     OW15385   2.148   1.863   9.694  0.4210  0.0185  0.8382
 1308SOL    HW115386   2.238   1.865   9.726  0.6851 -0.2279  0.0842
 1308SOL    HW215387   2.150   1.894   9.604 -0.2783  1.1943  1.2180
 1309SOL     OW15388   1.395   1.474   6.760 -0.1495 -0.1683 -0.3786
 1309SOL    HW115389   1.476   1.490   6.808 -0.0883  0.4564 -0.6874
 1309SOL    HW215390   1.408   1.389   6.717 -1.7876 -0.5752 -0.0713
 1310SOL     OW15391   0.167   1.614   6.874  0.0863 -0.2977 -0.4130
 1310SOL    HW115392   0.227   1.625   6.800 -0.3741 -1.8997 -1.0199
 1310SOL    HW215393   0.210   1.546   6.926  2.3880  0.6575 -1.0516
 1311SOL     OW15394   2.062   0.369  13.537 -0.0893 -0.0325 -0.1768
 1311SOL    HW115395   2.009   0.449  13.534 -3.9037 -2.5715 -0.7500
 1311SOL    HW215396   2.064   0.367  13.633 -2.7142 -1.4800 -0.1488
 1312SOL     OW15397   1.655   2.878  16.244  0.2247  0.4396 -0.1506
 1312SOL    HW115398   1.738   2.831  16.238 -0.8921 -1.5959  0.7576
 1312SOL    HW215399   1.684   2.965  16.216  1.9681  0.3211  1.3042
 1313SOL     OW15400   1.691   3.384   7.606 -0.3269  0.1524  0.5479
 1313SOL    HW115401   1.680   3.394   7.511 -2.8704  0.8165  0.8980
 1313SOL    HW215402   1.708   3.290   7.612  2.3224  0.6891  1.4131
 1314SOL     OW15403   3.660   4.296  13.540 -0.1079 -0.4763  0.4411
 1314SOL    HW115404   3.607   4.364  13.499  1.1864 -1.1057 -2.2606
 1314SOL    HW215405   3.612   4.268  13.618  0.3135  1.4921  1.4203
 1315SOL     OW15406   3.728   2.572   6.540 -0.6112 -0.2705 -0.3783
 1315SOL    HW115407   3.775   2.522   6.473  1.1506 -0.6816  1.1544
 1315SOL    HW215408   3.653   2.515   6.555  0.0851 -1.1878 -0.4197
 1316SOL     OW15409   3.249   2.144   4.639 -0.6705 -0.5393 -0.5001
 1316SOL    HW115410   3.187   2.199   4.590  0.6309  1.5572  0.2143
 1316SOL    HW215411   3.292   2.221   4.676  1.0218 -0.2096 -3.1728
 1317SOL     OW15412   1.033   3.136  12.687 -0.2699 -0.3274  0.2421
 1317SOL    HW115413   0.986   3.135  12.771  1.4001 -0.6501  1.1627
 1317SOL    HW215414   1.009   3.052  12.648  0.1788  0.1032 -0.9621
 1318SOL     OW15415   3.990   3.419   7.539 -0.3212 -0.2663 -0.3891
 1318SOL    HW115416   4.051   3.434   7.612  1.4885 -2.0557 -1.5215
 1318SOL    HW215417   3.938   3.499   7.541  1.9218  1.1821  0.0354
 1319SOL     OW15418   0.842   0.405  10.875 -0.1608  0.3270  0.1329
 1319SOL    HW115419   0.765   0.457  10.851 -0.9035 -1.3967 -1.2452
 1319SOL    HW215420   0.887   0.421  10.792 -1.8179 -1.3902 -1.0976
 1320SOL     OW15421   0.613   3.604   9.694  0.2093  0.2119  0.2994
 1320SOL    HW115422   0.525   3.642   9.685  0.4656  0.2808 -1.8269
 1320SOL    HW215423   0.669   3.681   9.689 -0.3644  0.6560  0.6657
 1321SOL     OW15424   2.946   0.519   9.332  0.1446 -0.3787  0.3439
 1321SOL    HW115425   2.880   0.504   9.264 -0.0712  1.6962  0.0908
 1321SOL    HW215426   3.023   0.474   9.299  0.1303  0.4559 -0.8402
 1322SOL     OW15427   4.619   4.345   7.391 -0.5095  0.1843  0.3490
 1322SOL    HW115428   4.626   4.314   7.301 -1.7113 -1.7950  0.9464
 1322SOL    HW215429   4.600   4.268   7.445 -0.8036 -0.1891 -0.2781
 1323SOL     OW15430   2.238   1.923  16.648  0.6731  0.6773  0.1206
 1323SOL    HW115431   2.272   1.880  16.569 -2.8852 -1.1722 -0.4066
 1323SOL    HW215432   2.309   1.902  16.709  0.0914 -1.0961  0.1842
 1324SOL     OW15433   0.863   2.591   4.365  0.0089 -0.2903  0.4622
 1324SOL    HW115434   0.815   2.623   4.289 -1.8173 -2.1860  0.8277
 1324SOL    HW215435   0.845   2.497   4.364 -0.6527 -0.1636  0.2164
 1325SOL     OW15436   2.963   4.673   4.444  0.0226  0.1939 -0.1521
 1325SOL    HW115437   2.920   4.599   4.401  1.4439 -0.6460 -0.0964
 1325SOL    HW215438   3.054   4.665   4.418  0.2643  3.5575 -0.4359
 1326SOL     OW15439   4.254   2.851   3.007  0.8263 -0.2942 -0.5001
 1326SOL    HW115440   4.283   2.942   3.003 -1.3050  0.4747  2.3561
 1326SOL    HW215441   4.216   2.832   3.092  0.3986 -3.3135 -1.3639
 1327SOL     OW15442   1.666   1.981   2.952  0.4416 -0.6577  0.1785
 1327SOL    HW115443   1.728   2.045   2.918 -1.2511  1.7570  1.6960
 1327SOL    HW215444   1.655   1.937   2.867  0.9949 -1.7722  0.6921
 1328SOL     OW15445   0.656   3.509  12.697 -0.8813  0.0054  0.6309
 1328SOL    HW115446   0.667   3.571  12.769  0.6937  0.4721 -0.0366
 1328SOL    HW215447   0.563   3.490  12.685 -1.0216 -0.1444  1.9207
 1329SOL     OW15448   1.060   2.282  17.618 -0.2402  0.3836 -0.0993
 1329SOL    HW115449   1.102   2.262   0.012  0.8216 -0.3448 -0.8007
 1329SOL    HW215450   1.058   2.377  17.622 -3.3348  0.2681  1.2162
 1330SOL     OW15451   2.135   2.184  16.536  0.3567 -0.7051  0.3340
 1330SOL    HW115452   2.152   2.107  16.590  0.4770 -0.3717  0.7634
 1330SOL    HW215453   2.144   2.144  16.449  3.0259 -0.6688  0.6104
 1331SOL     OW15454   3.933   3.788   2.476  0.4405 -0.5437 -0.2708
 1331SOL    HW115455   3.899   3.771   2.388  1.8035 -1.0258 -0.6909
 1331SOL    HW215456   3.883   3.866   2.501 -0.6767 -0.3943 -2.8682
 1332SOL     OW15457   1.943   4.290   6.836 -0.1162 -0.1777  0.2112
 1332SOL    HW115458   1.987   4.226   6.891 -0.5442  0.0666  0.8422
 1332SOL    HW215459   1.921   4.237   6.759  0.4074 -1.0217  0.6552
 1333SOL     OW15460   4.594   3.263  11.173 -0.6631 -0.1505  0.2508
 1333SOL    HW115461   4.560   3.352  11.187  2.4856  1.3341 -1.4475
 1333SOL    HW215462   4.528   3.223  11.117  1.1857 -2.5908 -0.1800
 1334SOL     OW15463   0.264   0.505  10.042 -0.3589  0.2921 -0.4168
 1334SOL    HW115464   0.346   0.549  10.020 -0.8255  0.4392 -1.8858
 1334SOL    HW215465   0.296   0.438  10.103 -0.9710  0.8153  0.4857
 1335SOL     OW15466   0.298   2.491  17.239 -0.3473 -0.1034 -0.3466
 1335SOL    HW115467   0.363   2.423  17.256 -0.7023 -0.2573  0.4099
 1335SOL    HW215468   0.272   2.456  17.153  0.7755 -2.6954  0.3768
 1336SOL     OW15469   3.333   2.096   1.299 -0.4806  0.1584  0.1617
 1336SOL    HW115470   3.297   2.024   1.247 -1.3686 -0.5587  1.7408
 1336SOL    HW215471   3.252   2.141   1.323 -1.1968 -1.3081  0.5249
 1337SOL     OW15472   3.817   4.427   2.066  0.1105  0.3312  1.1493
 1337SOL    HW115473   3.750   4.392   2.007 -0.1242 -0.5624  1.9498
 1337SOL    HW215474   3.883   4.442   1.999 -0.1470  2.1966  1.3141
 1338SOL     OW15475   4.112   1.137   3.397 -0.1346  0.3935 -0.2855
 1338SOL    HW115476   4.031   1.119   3.351  0.1460  0.0703 -0.6539
 1338SOL    HW215477   4.086   1.104   3.483  0.1149 -0.8531 -0.6938
 1339SOL     OW15478   2.874   4.087   2.889  0.2666 -0.1026 -0.1534
 1339SOL    HW115479   2.845   4.165   2.843 -0.8717 -0.0891  0.5589
 1339SOL    HW215480   2.961   4.095   2.851  0.3279 -0.3256 -0.0620
 1340SOL     OW15481   3.401   1.473  13.719  0.2334  0.2987 -0.7101
 1340SOL    HW115482   3.361   1.523  13.791 -0.8553 -2.2527  0.4339
 1340SOL    HW215483   3.386   1.535  13.647 -0.9621  0.8623  0.0088
 1341SOL     OW15484   2.051   3.756   6.041  0.1105 -0.3385 -0.4451
 1341SOL    HW115485   2.018   3.668   6.063 -0.1387 -0.1376 -0.0161
 1341SOL    HW215486   2.118   3.721   5.982  0.3079 -2.2716  0.9128
 1342SOL     OW15487   0.492   3.741  13.585 -0.8344  0.5328  0.3933
 1342SOL    HW115488   0.472   3.794  13.663 -0.5624  0.8972  0.2185
 1342SOL    HW215489   0.557   3.683  13.623 -0.9754 -0.4960 -0.9097
 1343SOL     OW15490   1.790   2.337   0.721  0.4851  0.8818  0.0794
 1343SOL    HW115491   1.796   2.432   0.732  1.0057  0.6443  1.8302
 1343SOL    HW215492   1.834   2.304   0.799  0.7239  0.5332 -0.2031
 1344SOL     OW15493   0.652   0.524   0.302  0.3648  0.3222 -0.1723
 1344SOL    HW115494   0.621   0.614   0.310  0.8665  0.4720  0.0780
 1344SOL    HW215495   0.747   0.524   0.317  0.4600 -1.7229 -0.7472
 1345SOL     OW15496   3.750   1.689   7.044  0.2200  0.3277 -0.0335
 1345SOL    HW115497   3.775   1.617   7.101  1.4241  0.5066 -0.3534
 1345SOL    HW215498   3.689   1.640   6.989 -1.9010  1.0950  1.6022
 1346SOL     OW15499   2.006   0.598   3.336 -0.4919 -0.0093 -0.2893
 1346SOL    HW115500   1.964   0.515   3.359  0.2507  0.3219  2.2850
 1346SOL    HW215501   2.069   0.614   3.406 -0.9806 -0.3405  0.2292
 1347SOL     OW15502   3.436   3.766   0.106 -0.0684  0.3725  0.2061
 1347SOL    HW115503   3.387   3.833   0.058 -0.8992  0.3179  0.9931
 1347SOL    HW215504   3.483   3.712   0.043 -0.8188  0.0320 -0.0570
 1348SOL     OW15505   3.528   1.995   6.439 -0.4746  0.1005  0.0884
 1348SOL    HW115506   3.580   1.936   6.383 -1.0318 -1.8759  1.6617
 1348SOL    HW215507   3.443   2.004   6.395 -0.0633  0.7444 -0.5745
 1349SOL     OW15508   3.987   0.330   8.081 -0.2140 -0.1463 -0.0912
 1349SOL    HW115509   3.946   0.347   7.996  0.2021  0.5956 -0.1461
 1349SOL    HW215510   3.995   0.235   8.078 -0.2340 -0.1200 -1.1180
 1350SOL     OW15511   3.645   1.889  13.149 -0.4050 -0.1481  0.0055
 1350SOL    HW115512   3.595   1.950  13.204  0.8907 -1.1699  2.3271
 1350SOL    HW215513   3.727   1.934  13.130 -0.9094  1.4127  1.5865
 1351SOL     OW15514   3.236   4.373   4.257 -0.1924 -0.2611  0.5301
 1351SOL    HW115515   3.235   4.373   4.161  0.6034 -2.3693  0.5203
 1351SOL    HW215516   3.330   4.385   4.275  0.2468 -0.8377 -1.3099
 1352SOL     OW15517   4.713   1.409  12.396 -0.1408  0.2664 -0.0253
 1352SOL    HW115518   4.627   1.425  12.435  0.5374  1.1509  1.1165
 1352SOL    HW215519   0.003   1.330  12.448  1.5285 -0.9640 -2.2902
 1353SOL     OW15520   3.908   0.435   3.218 -0.2929 -0.0306  0.2022
 1353SOL    HW115521   3.985   0.433   3.274 -0.1700 -0.5853  0.0118
 1353SOL    HW215522   3.904   0.341   3.198 -3.2509  0.6319 -2.4086
 1354SOL     OW15523   3.074   3.441   5.137 -0.9038 -0.0427  0.1093
 1354SOL    HW115524   3.018   3.494   5.081 -0.1607  1.2333  0.5631
 1354SOL    HW215525   3.016   3.365   5.143  1.1117 -1.6117 -0.1788
 1355SOL     OW15526   2.998   3.555   8.227 -0.4458  0.6997 -0.5073
 1355SOL    HW115527   2.998   3.468   8.187  0.6867  0.2974  0.3853
 1355SOL    HW215528   3.064   3.546   8.296  0.7238  1.1294 -1.5680
 1356SOL     OW15529   0.898   3.231  14.099  0.7697 -0.6415  0.0733
 1356SOL    HW115530   0.843   3.193  14.168 -2.2695  0.0203 -1.9724
 1356SOL    HW215531   0.851   3.208  14.019  2.2193  0.0065 -0.9630
 1357SOL     OW15532   1.871   0.878  13.454  0.5543  1.1957  0.3900
 1357SOL    HW115533   1.928   0.928  13.395  0.7822 -1.1557 -1.3865
 1357SOL    HW215534   1.807   0.845  13.391  0.9562  2.5033 -0.7311
 1358SOL     OW15535   1.070   0.398   0.068 -0.0502  0.0705  0.3647
 1358SOL    HW115536   1.076   0.437   0.155  0.1657  2.8913 -0.9116
 1358SOL    HW215537   0.977   0.374   0.061  0.2779 -1.0192 -0.2190
 1359SOL     OW15538   4.119   1.266   8.374  0.4533 -0.2891  0.1965
 1359SOL    HW115539   4.087   1.353   8.397 -1.0511 -0.9223  0.4908
 1359SOL    HW215540   4.084   1.215   8.446  2.6934 -2.8279 -0.4915
 1360SOL     OW15541   3.368   3.460   8.309  0.2517 -0.2306  0.0862
 1360SOL    HW115542   3.372   3.364   8.313  2.2251 -0.1961 -0.9067
 1360SOL    HW215543   3.323   3.475   8.392  0.9844 -1.7968  0.7675
 1361SOL     OW15544   3.305   4.090   8.266 -0.0417 -0.9655  0.0987
 1361SOL    HW115545   3.252   4.110   8.343 -0.3693  2.6684 -1.1025
 1361SOL    HW215546   3.265   4.141   8.195 -0.7044  0.2122  1.3327
 1362SOL     OW15547   3.997   3.084  15.408 -0.0141 -0.5195 -0.1995
 1362SOL    HW115548   3.942   3.153  15.371  0.1490  0.7391  1.8949
 1362SOL    HW215549   3.937   3.022  15.449  0.8974  0.1017  2.0715
 1363SOL     OW15550   1.704   0.363   4.270 -1.0881  0.4313 -0.5113
 1363SOL    HW115551   1.736   0.418   4.341  1.2756 -3.0187  1.0938
 1363SOL    HW215552   1.618   0.331   4.298 -0.9748 -0.8569 -1.6508
 1364SOL     OW15553   3.160   4.510   6.196 -0.1970 -0.0826 -0.0079
 1364SOL    HW115554   3.168   4.597   6.234 -2.1067  0.7307 -1.4437
 1364SOL    HW215555   3.127   4.455   6.267  0.6595  1.3851  1.5029
 1365SOL     OW15556   0.163   3.026  11.566  0.1681  0.2177 -0.2997
 1365SOL    HW115557   0.162   2.949  11.509 -0.4309 -0.9124  1.2342
 1365SOL    HW215558   0.111   3.083  11.510  1.3682 -0.9178 -2.5965
 1366SOL     OW15559   0.841   0.890   6.046  0.2561 -0.6765  0.4299
 1366SOL    HW115560   0.789   0.835   6.103 -0.0445 -0.3847  0.4374
 1366SOL    HW215561   0.847   0.846   5.961 -0.6796 -0.2690  0.1590
 1367SOL     OW15562   0.214   0.096   9.138 -0.8399 -0.5443  0.7610
 1367SOL    HW115563   0.208   0.128   9.048 -1.0239 -0.3836  0.8285
 1367SOL    HW215564   0.127   0.121   9.170 -1.7590 -0.7863 -1.5614
 1368SOL     OW15565   2.765   3.843   5.936  0.1307 -0.1091  0.1680
 1368SOL    HW115566   2.858   3.834   5.914  0.0748  0.6592 -0.3592
 1368SOL    HW215567   2.755   3.749   5.954 -1.9428  0.4054  1.6513
 1369SOL     OW15568   4.036   2.080   8.089  0.6075  0.2165 -0.0725
 1369SOL    HW115569   4.106   2.044   8.144 -0.7835 -1.7398  0.4053
 1369SOL    HW215570   4.060   2.173   8.090  0.1302  0.3214  3.0807
 1370SOL     OW15571   1.295   2.879   6.045  0.4106 -0.3455  0.4823
 1370SOL    HW115572   1.257   2.908   6.128 -0.9914 -3.1581  0.8315
 1370SOL    HW215573   1.217   2.885   5.989  0.2158 -0.5091  0.7351
 1371SOL     OW15574   2.616   2.187   7.574 -0.0594 -0.0111  1.0146
 1371SOL    HW115575   2.680   2.226   7.514 -0.3534  0.9615  1.3291
 1371SOL    HW215576   2.671   2.192   7.653  1.0707  1.1909  0.1562
 1372SOL     OW15577   3.164   0.837   6.489 -0.8361  0.1230  0.2470
 1372SOL    HW115578   3.145   0.748   6.458 -1.8350  0.5755 -0.4789
 1372SOL    HW215579   3.215   0.820   6.568 -0.2528  0.8483  0.0205
 1373SOL     OW15580   1.049   2.889   3.761  0.9631  0.2560  0.5478
 1373SOL    HW115581   1.033   2.983   3.751 -0.1885 -0.1414 -1.4061
 1373SOL    HW215582   1.086   2.885   3.849  0.7571  0.0359  0.6246
 1374SOL     OW15583   1.181   1.371   3.244  0.3260  0.1826  0.7469
 1374SOL    HW115584   1.128   1.300   3.282  0.1971 -0.4873 -0.6990
 1374SOL    HW215585   1.257   1.369   3.302 -1.3296  0.1746  2.9397
 1375SOL     OW15586   2.574   3.454  13.177 -0.5960  0.3997 -0.3818
 1375SOL    HW115587   2.495   3.482  13.223  0.3266  0.9741  0.8657
 1375SOL    HW215588   2.605   3.390  13.241  1.8996  1.7440 -0.2392
 1376SOL     OW15589   1.435   0.223   5.567  0.7314  0.4802 -0.4193
 1376SOL    HW115590   1.431   0.310   5.527  0.7157  1.0294  0.7606
 1376SOL    HW215591   1.361   0.180   5.524 -1.0069  1.9244  1.0976
 1377SOL     OW15592   3.923   0.480  11.585 -0.5606  0.1766  0.2641
 1377SOL    HW115593   3.895   0.440  11.503 -0.0316  0.4726 -0.0605
 1377SOL    HW215594   3.984   0.548  11.555 -1.0456 -0.3734 -1.9696
 1378SOL     OW15595   0.548   3.570   2.669 -0.2937 -0.2537  0.1169
 1378SOL    HW115596   0.630   3.579   2.718  0.5565 -2.0618 -0.9856
 1378SOL    HW215597   0.578   3.581   2.579  0.2930  0.1255  0.3568
 1379SOL     OW15598   1.436   1.610   8.410 -0.1607 -0.0309  0.0867
 1379SOL    HW115599   1.445   1.639   8.319 -0.3026  0.1396  0.1265
 1379SOL    HW215600   1.348   1.576   8.421 -0.7266  1.9617  1.8504
 1380SOL     OW15601   0.325   2.448   1.411  0.0977  0.5366  0.1209
 1380SOL    HW115602   0.358   2.428   1.323  1.0592 -1.7707  1.0161
 1380SOL    HW215603   0.363   2.534   1.431 -1.8920  1.2389  0.8609
 1381SOL     OW15604   1.601   3.171   6.478 -0.2085  0.1569  0.4457
 1381SOL    HW115605   1.633   3.204   6.561 -1.7469 -2.3450  2.0635
 1381SOL    HW215606   1.507   3.187   6.489 -0.3860 -1.0343  0.7215
 1382SOL     OW15607   2.999   0.764   3.232  0.2973  0.4646 -0.6172
 1382SOL    HW115608   2.957   0.849   3.247  1.3177  1.1493 -1.6539
 1382SOL    HW215609   3.084   0.803   3.252  1.9266 -2.9234 -0.8575
 1383SOL     OW15610   2.034   3.974   7.477 -0.1845 -0.0614  0.1255
 1383SOL    HW115611   2.001   4.058   7.445 -1.5555 -1.2703 -1.6217
 1383SOL    HW215612   2.077   4.010   7.554  2.0818  1.8242 -2.0236
 1384SOL     OW15613   3.616   3.525   6.030  0.0913  0.4080  0.8872
 1384SOL    HW115614   3.591   3.436   6.055 -0.0783  0.1279 -0.2629
 1384SOL    HW215615   3.690   3.500   5.975  0.0294 -1.2296  1.5381
 1385SOL     OW15616   0.094   3.914  12.388 -0.1339  0.2968  0.0739
 1385SOL    HW115617   0.171   3.929  12.443 -1.0915  2.6087  0.7767
 1385SOL    HW215618   0.031   3.951  12.450 -0.8634  0.7481 -0.9410
 1386SOL     OW15619   2.740   0.927   6.844  0.0294  0.6976 -0.4615
 1386SOL    HW115620   2.708   0.836   6.838 -0.2066  0.7706 -0.2900
 1386SOL    HW215621   2.679   0.961   6.909  1.5582  0.2813  1.1724
 1387SOL     OW15622   4.447   1.856   6.216 -0.2979 -0.3080  0.3012
 1387SOL    HW115623   4.520   1.918   6.209  0.6245 -1.5734 -1.1908
 1387SOL    HW215624   4.487   1.783   6.262  1.9150  0.7251 -0.0209
 1388SOL     OW15625   1.207   0.561   3.233 -0.2846  0.1547  0.3782
 1388SOL    HW115626   1.275   0.606   3.282 -1.4052 -0.4615  2.4783
 1388SOL    HW215627   1.233   0.587   3.144  0.1546 -0.0449  0.4485
 1389SOL     OW15628   4.416   3.155   8.420  0.3844 -0.1221 -0.2696
 1389SOL    HW115629   4.401   3.127   8.329  0.6414  1.0883 -0.6761
 1389SOL    HW215630   4.327   3.171   8.450  0.4964 -0.5739  0.3111
 1390SOL     OW15631   3.557   3.125  15.868 -0.1997 -0.5871  0.2748
 1390SOL    HW115632   3.506   3.147  15.790  1.2955 -1.7048 -1.0425
 1390SOL    HW215633   3.524   3.180  15.938  1.2616  1.0708 -0.3382
 1391SOL     OW15634   0.897   1.960   8.646  0.5934  0.2086 -0.1043
 1391SOL    HW115635   0.870   1.902   8.717  2.0807 -0.8363 -0.3802
 1391SOL    HW215636   0.898   2.051   8.676  2.0986  1.0209 -2.6165
 1392SOL     OW15637   1.887   0.836   3.268  0.0691  0.1226 -0.3264
 1392SOL    HW115638   1.838   0.819   3.348 -0.5350 -2.5957 -1.2941
 1392SOL    HW215639   1.941   0.758   3.257 -3.2178 -2.1514 -0.2189
 1393SOL     OW15640   4.636   2.472   5.756 -0.2498  0.7961  0.1999
 1393SOL    HW115641   4.569   2.421   5.802 -0.7130  1.3931  0.1769
 1393SOL    HW215642   4.582   2.550   5.742 -1.5151 -0.4179 -1.7729
 1394SOL     OW15643   1.098   2.395   5.356 -0.2236  0.7846  0.0357
 1394SOL    HW115644   1.095   2.441   5.440  0.3903  1.1950 -0.1656
 1394SOL    HW215645   1.190   2.381   5.334 -0.5194 -2.5429  0.9342
 1395SOL     OW15646   0.915   2.053   7.484 -0.1418  0.0755 -0.0912
 1395SOL    HW115647   0.926   1.971   7.436  1.0044  0.0669  0.1809
 1395SOL    HW215648   0.844   2.034   7.546  0.3069  1.8237  0.9509
 1396SOL     OW15649   1.699   3.931   2.746 -0.1610 -0.1943  0.3904
 1396SOL    HW115650   1.688   4.024   2.766  2.2168  0.7121 -2.4495
 1396SOL    HW215651   1.722   3.934   2.653  0.2475  1.7101  0.5523
 1397SOL     OW15652   3.856   4.253   4.222 -0.7600 -0.2780 -1.1743
 1397SOL    HW115653   3.833   4.332   4.270  0.5341 -0.6611  0.0850
 1397SOL    HW215654   3.849   4.289   4.134  2.4270  2.4313 -0.3402
 1398SOL     OW15655   0.849   2.053   4.098 -0.6042  0.5650 -0.2053
 1398SOL    HW115656   0.860   1.986   4.032  3.0149  1.5373 -0.6000
 1398SOL    HW215657   0.930   2.044   4.148 -0.2121 -2.3373 -1.3757
 1399SOL     OW15658   1.296   4.482  13.588 -0.0166  0.7957  0.2335
 1399SOL    HW115659   1.311   4.417  13.656 -0.4700  2.6733  2.1166
 1399SOL    HW215660   1.316   4.433  13.508 -1.5423  0.4955  0.0380
 1400SOL     OW15661   0.032   0.904   9.524 -0.5810 -0.2464 -0.7647
 1400SOL    HW115662   0.031   0.996   9.499  0.0108  0.5500  2.1902
 1400SOL    HW215663   4.720   0.861   9.446  0.4150 -0.4438 -1.0828
 1401SOL     OW15664   4.659   3.668  11.253 -0.0663 -0.4895  0.8546
 1401SOL    HW115665   4.605   3.616  11.313 -0.4698 -0.4191  0.5587
 1401SOL    HW215666   4.669   3.751  11.299 -3.6417  1.9024 -2.6631
 1402SOL     OW15667   2.839   2.520   6.918 -0.1052  0.4780 -0.4844
 1402SOL    HW115668   2.933   2.510   6.932  0.0437  1.4553 -0.7382
 1402SOL    HW215669   2.825   2.602   6.965  0.3185  0.9278 -1.1306
 1403SOL     OW15670   1.676   1.598  16.620 -0.4385 -0.4116  0.0876
 1403SOL    HW115671   1.615   1.666  16.591 -1.3044 -1.5229 -0.7325
 1403SOL    HW215672   1.638   1.569  16.703 -0.3317  1.8752  0.9274
 1404SOL     OW15673   0.314   1.467   2.953  0.2834 -0.2589  0.9022
 1404SOL    HW115674   0.270   1.454   2.869  3.0873  3.7721 -1.2061
 1404SOL    HW215675   0.298   1.556   2.984  0.9811  0.6028 -1.1862
 1405SOL     OW15676   4.391   4.309   3.445  0.1041  0.7820 -0.1546
 1405SOL    HW115677   4.303   4.327   3.480 -0.0560 -0.6177  0.1796
 1405SOL    HW215678   4.392   4.368   3.370  0.9905 -0.4665 -1.1016
 1406SOL     OW15679   2.653   0.620   2.960  0.0304  0.0406  0.0094
 1406SOL    HW115680   2.581   0.642   3.019  0.7271 -0.7004  1.1505
 1406SOL    HW215681   2.646   0.525   2.959 -1.8209  0.1947 -0.9733
 1407SOL     OW15682   3.653   0.673  11.874 -0.1538  0.6421  0.3663
 1407SOL    HW115683   3.703   0.707  11.801  1.0113  0.6879  1.1957
 1407SOL    HW215684   3.576   0.730  11.869 -2.9093 -3.2224 -1.7655
 1408SOL     OW15685   2.697   3.278   8.491 -0.2459 -0.1431  0.1148
 1408SOL    HW115686   2.639   3.250   8.562  0.1488 -1.1733  0.0345
 1408SOL    HW215687   2.778   3.308   8.531  0.6358  1.6307 -2.9345
 1409SOL     OW15688   3.123   1.900   4.509 -1.3387 -0.1042  0.3494
 1409SOL    HW115689   3.034   1.921   4.480 -0.0445  4.1242 -0.5518
 1409SOL    HW215690   3.155   1.978   4.554 -1.8182  0.0825  0.3642
 1410SOL     OW15691   3.866   1.677   4.075  0.5667  0.4443  0.3830
 1410SOL    HW115692   3.948   1.649   4.034 -0.6768  0.8694 -2.3857
 1410SOL    HW215693   3.797   1.664   4.010  0.7702 -0.0139  0.2592
 1411SOL     OW15694   3.430   1.755   5.991 -0.0632 -0.4796 -0.5727
 1411SOL    HW115695   3.512   1.708   6.003  0.4314  0.3877 -0.6043
 1411SOL    HW215696   3.386   1.732   6.073 -1.7774 -0.6328 -1.5247
 1412SOL     OW15697   4.183   0.870   6.444 -0.2906  0.1180  0.6422
 1412SOL    HW115698   4.090   0.857   6.462 -0.2288 -1.7704 -0.4597
 1412SOL    HW215699   4.210   0.889   6.534 -2.2688 -3.9613  2.0906
 1413SOL     OW15700   0.932   1.038   6.297  0.3510  0.0546  0.7088
 1413SOL    HW115701   0.959   0.951   6.327 -1.9886 -0.9485 -0.0382
 1413SOL    HW215702   0.839   1.035   6.275  0.4190  1.3370  0.2578
 1414SOL     OW15703   2.210   4.366   8.468 -0.1683 -0.7321  0.1162
 1414SOL    HW115704   2.242   4.343   8.555 -1.5584 -0.8444  0.6007
 1414SOL    HW215705   2.204   4.460   8.486  0.8294 -0.7103  0.3490
 1415SOL     OW15706   2.498   0.295   9.121  0.3703  0.2423  0.6765
 1415SOL    HW115707   2.558   0.303   9.046 -0.1651 -1.9022  0.0255
 1415SOL    HW215708   2.449   0.377   9.111  2.2438  1.3151  0.1534
 1416SOL     OW15709   2.906   3.038  14.996  0.5154 -0.3941  0.0553
 1416SOL    HW115710   2.903   3.128  15.027 -0.0566 -0.9232  1.5157
 1416SOL    HW215711   2.851   3.038  14.917  1.9596  0.4052 -0.9347
 1417SOL     OW15712   2.656   1.166   3.405  0.2684 -0.0644 -0.5211
 1417SOL    HW115713   2.609   1.211   3.335  0.0298  0.9421  0.2778
 1417SOL    HW215714   2.684   1.244   3.454  2.7392 -1.3362  0.0752
 1418SOL     OW15715   4.136   2.737  12.468 -0.3766  0.1041  0.1171
 1418SOL    HW115716   4.117   2.702  12.555 -2.0233  3.1954  1.0006
 1418SOL    HW215717   4.180   2.657  12.438  1.3289  1.1559 -0.1961
 1419SOL     OW15718   4.601   3.882   5.709 -1.1466 -0.5872  0.6535
 1419SOL    HW115719   4.573   3.944   5.776  1.4700  0.4382  0.7983
 1419SOL    HW215720   4.519   3.835   5.694 -1.0275 -0.9030  1.0015
 1420SOL     OW15721   3.605   3.717   3.564 -0.3141  0.3890 -0.0459
 1420SOL    HW115722   3.655   3.647   3.522 -0.3556  1.8969 -2.6539
 1420SOL    HW215723   3.640   3.713   3.652  1.0828 -0.1082 -0.6324
 1421SOL     OW15724   4.103   2.295   8.556  0.2249  0.2516  0.8451
 1421SOL    HW115725   4.013   2.265   8.543  0.6244 -0.1788 -0.8852
 1421SOL    HW215726   4.123   2.255   8.640  0.1383 -1.0111  0.2670
 1422SOL     OW15727   3.949   0.228  13.620  0.0002 -0.3378  0.0597
 1422SOL    HW115728   3.880   0.231  13.553 -1.1370 -1.6965  1.1776
 1422SOL    HW215729   4.018   0.273  13.571  3.7953 -2.3108  3.6151
 1423SOL     OW15730   2.608   2.365   8.402 -0.6119  0.1962 -0.1078
 1423SOL    HW115731   2.619   2.330   8.490 -2.0626 -0.9196 -0.3843
 1423SOL    HW215732   2.670   2.306   8.359  0.0813  0.2023  0.8850
 1424SOL     OW15733   0.408   2.450   6.832 -0.1902  0.1881 -0.6053
 1424SOL    HW115734   0.424   2.379   6.769  0.7430  0.6090 -0.8460
 1424SOL    HW215735   0.324   2.433   6.873 -0.2535  1.0762 -0.3627
 1425SOL     OW15736   3.978   1.263  16.424 -0.3564  0.6666  0.0769
 1425SOL    HW115737   4.047   1.290  16.485 -0.6816 -1.9770  1.6289
 1425SOL    HW215738   3.965   1.170  16.441  0.0527  0.4928 -0.5708
 1426SOL     OW15739   2.662   3.597   5.988  0.1999  0.2198 -0.4187
 1426SOL    HW115740   2.586   3.632   6.034 -0.1487 -0.9025 -0.1502
 1426SOL    HW215741   2.639   3.504   5.991 -1.2872  0.5734 -0.7853
 1427SOL     OW15742   1.446   3.432   0.428 -0.4180  0.1215 -0.7029
 1427SOL    HW115743   1.371   3.446   0.486 -1.1786  1.3179 -1.9709
 1427SOL    HW215744   1.487   3.519   0.419  1.8538 -0.8764 -0.0513
 1428SOL     OW15745   0.436   2.464   2.534  0.2334  0.0322 -0.0949
 1428SOL    HW115746   0.530   2.482   2.534  0.2275  0.0773 -1.4829
 1428SOL    HW215747   0.403   2.526   2.599 -0.0494  0.6586 -0.8234
 1429SOL     OW15748   2.591   0.667   7.938  0.0078  0.1831 -0.3357
 1429SOL    HW115749   2.633   0.622   7.865 -0.3898 -2.0367  0.8083
 1429SOL    HW215750   2.612   0.597   8.000  0.5830 -1.8339 -2.8101
 1430SOL     OW15751   0.454   4.529   7.721 -0.0686 -0.2108 -0.2120
 1430SOL    HW115752   0.358   4.526   7.712 -0.1503  1.2413  0.2034
 1430SOL    HW215753   0.471   4.436   7.709 -0.0312 -0.3260  0.7336
 1431SOL     OW15754   2.007   2.748   2.049  0.0945  0.3685 -0.3999
 1431SOL    HW115755   2.077   2.804   2.016  2.3601 -1.4647  1.2856
 1431SOL    HW215756   2.015   2.777   2.140 -0.1567  0.4116 -0.3916
 1432SOL     OW15757   1.793   2.874  10.000  0.1419  0.0655  0.2718
 1432SOL    HW115758   1.822   2.873   9.909 -0.9616  2.5711 -0.1028
 1432SOL    HW215759   1.788   2.968  10.017 -2.2007 -0.2019  1.0541
 1433SOL     OW15760   2.103   3.329   6.449  0.2890 -0.2236 -0.1326
 1433SOL    HW115761   2.137   3.340   6.537 -3.1470 -1.5539  1.3587
 1433SOL    HW215762   2.033   3.394   6.437  1.3725  0.7557 -1.2226
 1434SOL     OW15763   0.477   2.502   5.751  0.0140  0.2489 -0.3951
 1434SOL    HW115764   0.534   2.446   5.803 -0.5465 -1.1696 -1.3299
 1434SOL    HW215765   0.479   2.577   5.811  1.6860  0.0234 -0.1635
 1435SOL     OW15766   1.519   3.734   6.620 -0.4511  0.0801 -0.4399
 1435SOL    HW115767   1.467   3.770   6.548 -1.3962 -0.1307  0.1243
 1435SOL    HW215768   1.448   3.719   6.683 -0.9829 -0.9838 -1.2867
 1436SOL     OW15769   4.484   2.157   5.271 -0.0945  0.1071 -0.4557
 1436SOL    HW115770   4.475   2.183   5.180  1.2175  0.1736 -0.5540
 1436SOL    HW215771   4.408   2.205   5.306  2.3516  1.8149  2.5669
 1437SOL     OW15772   1.119   1.454   2.079  0.5978  0.3993  0.0086
 1437SOL    HW115773   1.053   1.391   2.052  1.0910  0.2001 -0.7428
 1437SOL    HW215774   1.144   1.486   1.992 -2.2746  1.7318 -0.3014
 1438SOL     OW15775   1.388   2.047   6.115 -0.5906 -0.2101  0.0075
 1438SOL    HW115776   1.461   1.985   6.111 -0.2407  0.2166 -0.0806
 1438SOL    HW215777   1.315   1.990   6.087 -0.7658  0.4615 -0.8853
 1439SOL     OW15778   4.265   0.514   0.769  0.5291 -0.1571 -0.1281
 1439SOL    HW115779   4.288   0.603   0.743 -1.3310  0.4154  0.1406
 1439SOL    HW215780   4.322   0.471   0.706  1.4270 -1.6228  1.6755
 1440SOL     OW15781   0.810   4.498   1.876 -0.4131  0.2387 -0.2406
 1440SOL    HW115782   0.788   4.591   1.878 -2.8038 -0.3805  1.2088
 1440SOL    HW215783   0.905   4.512   1.870 -0.0055 -1.9487  0.9709
 1441SOL     OW15784   4.628   2.918   5.634 -0.0781  0.0237  0.0901
 1441SOL    HW115785   4.603   3.002   5.672  0.6614  0.8235 -1.1721
 1441SOL    HW215786   4.721   2.928   5.613 -0.0143 -0.1690  0.2830
 1442SOL     OW15787   1.144   1.490   2.628 -0.1629  0.3137 -0.3996
 1442SOL    HW115788   1.086   1.417   2.605 -0.8006  0.6591  0.0966
 1442SOL    HW215789   1.090   1.557   2.587  1.2977 -0.6273 -3.7989
 1443SOL     OW15790   0.994   3.612   2.381 -0.4737  0.2731 -0.5046
 1443SOL    HW115791   0.929   3.589   2.314  1.5777 -1.2793 -1.9485
 1443SOL    HW215792   1.077   3.597   2.337  0.4063 -2.2502  2.0066
 1444SOL     OW15793   1.066   4.222  16.642 -0.1113 -0.4405 -0.0243
 1444SOL    HW115794   1.085   4.302  16.592 -2.6934 -1.3407 -2.4692
 1444SOL    HW215795   1.054   4.267  16.725  1.4808 -1.0661  0.5344
 1445SOL     OW15796   3.334   0.031   3.672  0.6151 -0.0107 -0.5217
 1445SOL    HW115797   3.263   0.093   3.657  0.0658 -0.4255  0.3159
 1445SOL    HW215798   3.300   4.664   3.659  2.2726 -0.7715  0.2898
 1446SOL     OW15799   2.992   0.883   5.767 -0.2861 -0.3373  0.5734
 1446SOL    HW115800   2.965   0.975   5.775  2.1198  0.4756 -0.6776
 1446SOL    HW215801   2.991   0.867   5.672  1.0202 -0.1187  0.5291
 1447SOL     OW15802   4.358   1.189   5.447 -0.3714  0.8377 -0.2896
 1447SOL    HW115803   4.362   1.094   5.453 -1.1748  0.8118 -0.1092
 1447SOL    HW215804   4.279   1.194   5.393 -0.7063  1.0435  0.2149
 1448SOL     OW15805   2.575   3.316  12.815  0.2712  0.4157 -0.5607
 1448SOL    HW115806   2.659   3.275  12.836 -0.0900  0.5776  1.2458
 1448SOL    HW215807   2.608   3.403  12.792 -1.1415  0.7845 -1.1631
 1449SOL     OW15808   1.740   3.589   1.088  0.2452  0.1756  0.0804
 1449SOL    HW115809   1.736   3.599   1.183 -0.2640  0.5824  0.0109
 1449SOL    HW215810   1.680   3.516   1.071 -0.0428 -0.1058  2.3148
 1450SOL     OW15811   4.636   1.540  16.150  0.3104  0.3185 -0.7453
 1450SOL    HW115812   4.717   1.589  16.154  1.1944 -1.5085  3.1719
 1450SOL    HW215813   4.651   1.486  16.228 -0.8530  1.9095  0.5862
 1451SOL     OW15814   4.263   4.255   8.034  0.0530 -0.7461  1.1571
 1451SOL    HW115815   4.276   4.202   8.112 -0.2294  0.1439  1.8130
 1451SOL    HW215816   4.341   4.229   7.986  1.7654  1.5392  2.7073
 1452SOL     OW15817   1.330   1.128   8.807  0.1219  0.3924 -0.2535
 1452SOL    HW115818   1.342   1.054   8.866  0.3648  0.4607 -0.2152
 1452SOL    HW215819   1.236   1.143   8.803 -0.4111 -2.7328  1.3330
 1453SOL     OW15820   2.934   2.247  14.819  0.2216 -0.0845  0.4528
 1453SOL    HW115821   2.932   2.299  14.739  3.5545 -2.7110 -1.3437
 1453SOL    HW215822   3.018   2.281  14.850  1.1687 -2.3705  0.4143
 1454SOL     OW15823   1.900   2.996   4.168 -0.4223 -0.4368  0.4741
 1454SOL    HW115824   1.888   3.071   4.110  0.3493  0.4145  1.4054
 1454SOL    HW215825   1.930   2.927   4.110  0.5199 -0.4141  0.9374
 1455SOL     OW15826   2.533   1.569   1.358  0.0948  0.2832 -0.8556
 1455SOL    HW115827   2.584   1.490   1.336 -1.0771 -0.9180  0.7513
 1455SOL    HW215828   2.588   1.604   1.428 -0.0254 -0.9516 -0.1438
 1456SOL     OW15829   4.438   4.669   1.558 -0.0541 -0.7111  0.2500
 1456SOL    HW115830   4.489   4.626   1.489  0.4958 -2.4059  1.7225
 1456SOL    HW215831   4.399   4.591   1.597  0.7951 -0.7236  1.0817
 1457SOL     OW15832   3.904   4.712   2.713 -0.4501  0.0412 -0.0083
 1457SOL    HW115833   3.900   4.720   2.808  2.9494  1.7841 -0.0283
 1457SOL    HW215834   3.992   4.681   2.694  0.9795  2.3640  2.8003
 1458SOL     OW15835   3.371   3.711   3.172  0.1807 -0.2483 -0.2579
 1458SOL    HW115836   3.372   3.730   3.266  1.5855  2.2913 -0.8085
 1458SOL    HW215837   3.457   3.743   3.146 -0.0365  0.0676 -0.5805
 1459SOL     OW15838   4.486   0.658  13.349 -0.6415  0.3184  0.2544
 1459SOL    HW115839   4.555   0.724  13.338  0.9597 -1.1996  1.1668
 1459SOL    HW215840   4.538   0.580  13.327 -1.6654 -0.5211  0.8182
 1460SOL     OW15841   2.672   2.746   8.140 -0.4053 -0.1352  0.1602
 1460SOL    HW115842   2.654   2.833   8.176 -0.8360  0.7341 -2.1270
 1460SOL    HW215843   2.736   2.766   8.072  1.3675  1.6970  2.3974
 1461SOL     OW15844   2.495   0.447  13.416  0.2742  0.1966 -0.0215
 1461SOL    HW115845   2.435   0.452  13.491 -2.4655  1.1008 -2.2753
 1461SOL    HW215846   2.560   0.515  13.432 -0.5214  1.0080 -0.1943
 1462SOL     OW15847   3.777   1.631   4.652  0.3618 -0.3274  0.0303
 1462SOL    HW115848   3.809   1.656   4.565 -0.1412 -1.6891 -0.5602
 1462SOL    HW215849   3.848   1.664   4.707 -0.0132  0.7061 -0.1071
 1463SOL     OW15850   2.227   3.071   8.182  0.6254 -0.5841 -0.7925
 1463SOL    HW115851   2.269   3.083   8.267 -0.4088  0.2758 -0.4011
 1463SOL    HW215852   2.166   2.999   8.197  0.3641  0.2135  1.8657
 1464SOL     OW15853   3.487   0.531   8.721 -0.4806 -0.3501 -0.0925
 1464SOL    HW115854   3.544   0.530   8.644  0.1547  0.8432  0.3567
 1464SOL    HW215855   3.445   0.447   8.704 -2.1416  0.8931 -2.0930
 1465SOL     OW15856   4.246   1.696   6.819  0.2377 -0.3695 -0.6119
 1465SOL    HW115857   4.217   1.610   6.789 -1.7418  1.0244 -2.6888
 1465SOL    HW215858   4.199   1.709   6.901  0.2869 -0.8362 -0.5131
 1466SOL     OW15859   0.228   1.763   6.635 -0.2968  0.3514 -0.0845
 1466SOL    HW115860   0.305   1.727   6.680 -0.1117 -1.4050 -1.8075
 1466SOL    HW215861   0.185   1.699   6.579 -1.5933  0.3501  0.9237
 1467SOL     OW15862   2.104   2.252   4.541  0.2726  0.4959 -0.7606
 1467SOL    HW115863   2.049   2.315   4.588  1.2234  0.7241  0.0444
 1467SOL    HW215864   2.189   2.290   4.564 -0.2204  0.0425  1.8341
 1468SOL     OW15865   4.382   2.538   2.127 -0.2248 -0.0430  0.4871
 1468SOL    HW115866   4.376   2.464   2.188  1.1236 -0.8997 -0.4177
 1468SOL    HW215867   4.469   2.577   2.138 -0.2086  0.4070 -1.2902
 1469SOL     OW15868   0.717   4.477   2.343 -0.0746 -0.0181 -0.2130
 1469SOL    HW115869   0.707   4.450   2.434  2.4893 -1.1408 -0.2580
 1469SOL    HW215870   0.666   4.407   2.302 -1.0887  1.1441 -0.9425
 1470SOL     OW15871   2.053   0.483  17.031  0.3486  0.6850 -0.2397
 1470SOL    HW115872   2.061   0.392  17.059  1.1047  0.7732 -0.1719
 1470SOL    HW215873   2.127   0.521  17.079  0.7513  1.2904 -1.3297
 1471SOL     OW15874   2.560   1.273   3.947  0.4688  0.0555  0.6496
 1471SOL    HW115875   2.576   1.186   3.910  0.9024  0.1888  0.5273
 1471SOL    HW215876   2.542   1.321   3.866 -1.5121  2.1501  2.3170
 1472SOL     OW15877   0.006   4.440   3.091 -0.5526 -0.3612 -0.0987
 1472SOL    HW115878   0.087   4.490   3.107 -1.1405  0.3239  0.7816
 1472SOL    HW215879   4.657   4.500   3.115 -0.7177 -2.6821  5.1698
 1473SOL     OW15880   0.644   2.821  10.518  0.1553 -0.6338  0.3955
 1473SOL    HW115881   0.646   2.732  10.482 -0.2408  0.1268 -1.4688
 1473SOL    HW215882   0.649   2.875  10.440 -1.1028 -1.7998 -0.4797
 1474SOL     OW15883   2.156   0.786   7.339  0.0609 -0.2523 -0.6366
 1474SOL    HW115884   2.234   0.842   7.337 -0.1037  0.0305  1.1862
 1474SOL    HW215885   2.103   0.849   7.388 -0.5926 -0.0213 -1.6543
 1475SOL     OW15886   0.204   0.128   0.838 -0.3585  0.3934  0.4684
 1475SOL    HW115887   0.167   0.054   0.789 -0.3766  0.7589 -0.0627
 1475SOL    HW215888   0.123   0.178   0.846  1.6050  3.7281 -0.5711
 1476SOL     OW15889   1.835   3.494   6.738  0.6112  0.1639 -0.1125
 1476SOL    HW115890   1.858   3.401   6.743  1.6233  0.4535  0.5619
 1476SOL    HW215891   1.777   3.498   6.815  2.3592 -0.4885  1.2506
 1477SOL     OW15892   2.807   1.814   4.328  0.4119 -0.8352  0.5269
 1477SOL    HW115893   2.751   1.737   4.334 -2.5828  1.3355  0.0234
 1477SOL    HW215894   2.833   1.825   4.420 -1.1997  0.3404  0.8376
 1478SOL     OW15895   2.383   2.296   7.917 -0.3144 -0.7425  0.4215
 1478SOL    HW115896   2.405   2.229   7.852 -2.1278 -0.3093 -0.6337
 1478SOL    HW215897   2.362   2.358   7.847 -0.5461 -1.0915  0.1848
 1479SOL     OW15898   0.822   3.334   4.543 -0.0242  0.3983 -0.1009
 1479SOL    HW115899   0.881   3.345   4.468  0.4214  0.9485  0.3423
 1479SOL    HW215900   0.877   3.282   4.602 -0.0872  0.1841 -0.2303
 1480SOL     OW15901   1.289   3.447  12.266 -0.0483  0.1575 -0.1664
 1480SOL    HW115902   1.224   3.477  12.330  1.4894  0.4631  1.2521
 1480SOL    HW215903   1.258   3.486  12.184 -0.3068  0.8716  0.2643
 1481SOL     OW15904   1.926   2.903  17.264  0.2374  0.1574  0.6590
 1481SOL    HW115905   1.931   2.996  17.242 -0.0638 -0.5650 -2.4984
 1481SOL    HW215906   2.001   2.864  17.218 -0.0151 -0.3329  0.6638
 1482SOL     OW15907   3.294   3.338   7.020 -0.1551 -0.0436  0.1942
 1482SOL    HW115908   3.261   3.398   6.953  2.0873 -1.0973 -1.8646
 1482SOL    HW215909   3.354   3.288   6.965 -1.0909 -0.0441 -0.8232
 1483SOL     OW15910   2.457   0.874   8.238 -0.0170  1.0056 -0.1745
 1483SOL    HW115911   2.405   0.945   8.275  1.1113  1.6926  0.0843
 1483SOL    HW215912   2.441   0.885   8.145  0.9275  1.0389 -0.3398
 1484SOL     OW15913   1.495   1.354   0.020 -0.6330  0.0469 -0.2462
 1484SOL    HW115914   1.543   1.400   0.089 -0.1924  2.1829 -1.9539
 1484SOL    HW215915   1.448   1.295   0.079 -0.9478  0.0653 -0.4807
 1485SOL     OW15916   1.324   1.730   0.277  0.1396  0.1184  0.1239
 1485SOL    HW115917   1.265   1.675   0.226  3.0619 -2.6654 -0.3084
 1485SOL    HW215918   1.361   1.665   0.338  1.7327 -0.0561 -1.0154
 1486SOL     OW15919   3.122   4.417   2.136  0.0318 -0.7524  0.0344
 1486SOL    HW115920   3.129   4.400   2.042  0.4315 -3.2422  0.5047
 1486SOL    HW215921   3.028   4.404   2.149 -0.4321  1.6612 -0.8457
 1487SOL     OW15922   2.845   4.437  15.168  0.1195  0.8315  0.1158
 1487SOL    HW115923   2.752   4.458  15.174 -0.6472 -2.7041  0.4521
 1487SOL    HW215924   2.885   4.497  15.232 -1.8848  0.6411  1.5479
 1488SOL     OW15925   0.304   2.533  11.446  0.1189 -0.0771 -0.4097
 1488SOL    HW115926   0.298   2.608  11.387 -0.9114 -0.2581 -0.5394
 1488SOL    HW215927   0.383   2.552  11.495 -0.9003 -0.9759  1.5583
 1489SOL     OW15928   0.958   0.701  10.723  0.4087 -0.1868  0.2335
 1489SOL    HW115929   0.964   0.689  10.628 -0.1170 -0.8978  0.2876
 1489SOL    HW215930   0.881   0.645  10.738 -0.5477  0.5921 -1.7511
 1490SOL     OW15931   1.242   0.066   4.998  0.3820 -0.2119 -0.2891
 1490SOL    HW115932   1.255   4.714   4.938  1.2260 -1.7733  1.8191
 1490SOL    HW215933   1.151   0.048   5.021  0.7588  1.2641  2.3200
 1491SOL     OW15934   1.734   0.743  13.230  0.2956 -0.2511  0.3986
 1491SOL    HW115935   1.802   0.757  13.165 -2.0685  0.7643 -1.8511
 1491SOL    HW215936   1.656   0.775  13.184 -0.4702 -0.0355  1.8455
 1492SOL     OW15937   3.110   1.052   2.113  0.1648 -0.1024  0.3872
 1492SOL    HW115938   3.176   0.985   2.096  2.1942  1.9331  0.2037
 1492SOL    HW215939   3.123   1.116   2.043  0.1397 -0.1052  0.3801
 1493SOL     OW15940   0.391   0.316   5.480  0.0708  0.3280 -0.4496
 1493SOL    HW115941   0.330   0.379   5.518 -0.9666 -2.0026  1.6757
 1493SOL    HW215942   0.461   0.313   5.546  0.4239 -1.1800 -0.8846
 1494SOL     OW15943   1.455   0.331   3.148  0.6669 -0.1582  0.0480
 1494SOL    HW115944   1.501   0.269   3.091 -2.1018 -1.6181 -0.6495
 1494SOL    HW215945   1.493   0.309   3.233 -0.0059  1.5924  0.8035
 1495SOL     OW15946   4.180   3.459   4.082  0.1006 -0.0360 -0.0288
 1495SOL    HW115947   4.130   3.537   4.106 -1.2960 -0.6985 -0.7794
 1495SOL    HW215948   4.232   3.489   4.008 -1.3291  2.7260  0.1077
 1496SOL     OW15949   3.861   1.756  16.304  0.4657 -0.4417 -0.2088
 1496SOL    HW115950   3.805   1.717  16.236  1.0512 -0.2229 -0.8152
 1496SOL    HW215951   3.935   1.696  16.293 -1.3896 -2.0186 -4.3729
 1497SOL     OW15952   4.577   1.148  13.023  0.1273  0.2668 -0.1613
 1497SOL    HW115953   4.556   1.161  12.930  0.6603 -0.2770 -0.3610
 1497SOL    HW215954   4.571   1.052  13.024  2.1349  0.1348  0.7270
 1498SOL     OW15955   0.402   2.803   3.087 -0.3212 -0.1782  0.0014
 1498SOL    HW115956   0.477   2.781   3.141 -2.5543 -0.1683  3.1031
 1498SOL    HW215957   0.416   2.730   3.025 -0.4487 -0.0040 -0.2352
 1499SOL     OW15958   0.783   1.039  13.680  0.2684  0.2575 -0.5552
 1499SOL    HW115959   0.704   1.090  13.660  0.9325  0.8671 -1.6174
 1499SOL    HW215960   0.768   0.961  13.627 -1.2603  0.9297 -1.1422
 1500SOL     OW15961   2.290   3.178  14.363  0.4712  0.2147 -0.0669
 1500SOL    HW115962   2.305   3.118  14.290 -1.9652 -1.3229  0.7020
 1500SOL    HW215963   2.373   3.226  14.361 -0.5578  1.9705 -0.2199
 1501SOL     OW15964   4.475   3.124   5.410  0.1528  0.0338 -0.3598
 1501SOL    HW115965   4.412   3.175   5.460  1.5733  0.0350  1.4377
 1501SOL    HW215966   4.446   3.140   5.321  1.0189  3.5291 -0.0013
 1502SOL     OW15967   2.510   4.422   6.458  0.0679  0.4900  0.0657
 1502SOL    HW115968   2.450   4.497   6.455 -0.5095 -0.0479 -1.7898
 1502SOL    HW215969   2.568   4.437   6.384  1.5444  0.5032  1.2248
 1503SOL     OW15970   0.213   4.238   3.247 -0.3056  0.1264 -0.4800
 1503SOL    HW115971   0.215   4.332   3.229 -0.6248 -0.4201 -3.3181
 1503SOL    HW215972   0.118   4.229   3.254 -0.1392  0.6715  2.5802
 1504SOL     OW15973   0.257   2.514   8.365  0.4977  0.0198  0.3145
 1504SOL    HW115974   0.344   2.552   8.381  1.0791 -0.6707 -1.2313
 1504SOL    HW215975   0.210   2.596   8.348  1.6407  0.7214  0.4514
 1505SOL     OW15976   0.013   3.803   3.930 -0.2039  0.0483  0.0509
 1505SOL    HW115977   0.053   3.827   3.846 -1.0070 -0.7857 -0.5676
 1505SOL    HW215978   0.076   3.738   3.961 -0.2087  0.7776  1.5904
 1506SOL     OW15979   1.265   2.271   3.562 -0.2561  0.0881 -0.2841
 1506SOL    HW115980   1.297   2.254   3.650 -1.8450 -0.7233  0.1325
 1506SOL    HW215981   1.177   2.237   3.573  0.2053 -1.2393 -0.7315
 1507SOL     OW15982   4.303   4.282  15.758  0.5968 -0.0649 -0.0083
 1507SOL    HW115983   4.252   4.209  15.724  1.2820 -0.3744 -0.3759
 1507SOL    HW215984   4.328   4.250  15.845  1.7505 -2.2440 -1.1276
 1508SOL     OW15985   0.113   0.895   2.907 -0.0110 -0.0331 -0.2129
 1508SOL    HW115986   0.145   0.805   2.912  2.1703  0.7236 -0.5237
 1508SOL    HW215987   0.173   0.946   2.854 -0.1093 -0.2875 -0.5734
 1509SOL     OW15988   3.151   1.698   5.552  0.1381 -0.3316 -0.1645
 1509SOL    HW115989   3.137   1.791   5.572  0.4239 -0.5278  0.9949
 1509SOL    HW215990   3.061   1.667   5.553  0.0557 -0.1397 -3.0489
 1510SOL     OW15991   3.111   0.422   3.787 -0.1069 -0.1592  0.4884
 1510SOL    HW115992   3.027   0.404   3.830 -0.7361  0.3026 -0.5330
 1510SOL    HW215993   3.148   0.479   3.855  2.4963 -0.4558 -0.7014
 1511SOL     OW15994   1.943   2.110   5.632  0.3046 -0.2259 -0.2322
 1511SOL    HW115995   2.012   2.167   5.600 -0.4846  0.0115 -1.4979
 1511SOL    HW215996   1.887   2.158   5.694 -0.4149  0.4725 -1.4314
 1512SOL     OW15997   1.524   1.329   2.280 -0.2331 -0.3036  0.0777
 1512SOL    HW115998   1.619   1.332   2.288 -0.3586 -0.0485  1.4369
 1512SOL    HW215999   1.503   1.418   2.252 -1.3142 -0.6656 -0.2942
 1513SOL     OW16000   1.520   1.576  10.986  0.2314  0.4018 -0.3718
 1513SOL    HW116001   1.575   1.529  11.049  0.8308 -1.1565 -2.0806
 1513SOL    HW216002   1.549   1.665  11.006  0.4821 -0.0156  1.1142
 1514SOL     OW16003   1.024   0.044   4.686 -0.4613  0.0326  0.5283
 1514SOL    HW116004   1.116   0.023   4.701 -0.9568 -1.0727  2.0066
 1514SOL    HW216005   0.977   4.683   4.697  1.5182 -1.5872 -2.7742
 1515SOL     OW16006   4.301   1.024   4.854  0.5492 -0.5193  0.2242
 1515SOL    HW116007   4.349   1.105   4.845 -1.2650  0.7257  1.6139
 1515SOL    HW216008   4.318   1.007   4.947  1.4987  1.3847  0.3822
 1516SOL     OW16009   3.339   0.874   7.831  0.6957  0.4261 -0.0142
 1516SOL    HW116010   3.285   0.893   7.908  0.1066  0.7473 -0.4989
 1516SOL    HW216011   3.409   0.826   7.875  2.2712  3.6164  0.9891
 1517SOL     OW16012   3.702   3.466   2.256 -0.5295  0.0183  0.3272
 1517SOL    HW116013   3.727   3.558   2.252 -1.3321  0.1394 -2.2422
 1517SOL    HW216014   3.667   3.446   2.169 -0.7076  0.5859  0.2689
 1518SOL     OW16015   0.039   1.015   2.250  0.3500 -0.1082  0.3164
 1518SOL    HW116016   4.703   1.040   2.178  0.5885 -0.6031 -0.0482
 1518SOL    HW216017   0.114   0.986   2.198  0.4944  0.8431 -0.0003
 1519SOL     OW16018   1.934   0.940   2.956 -0.0372 -0.2099 -0.1910
 1519SOL    HW116019   1.895   0.970   3.038 -0.5822 -0.0717 -0.5010
 1519SOL    HW216020   1.871   0.971   2.890 -1.7474 -1.1513  1.0036
 1520SOL     OW16021   3.186   2.018   2.434 -0.4238  0.2637  0.0118
 1520SOL    HW116022   3.225   1.931   2.437 -1.8089 -0.3190  0.9304
 1520SOL    HW216023   3.177   2.022   2.530 -0.6280 -1.3553  0.0550
 1521SOL     OW16024   2.625   0.761   1.877 -0.2895 -0.1194  0.1333
 1521SOL    HW116025   2.687   0.703   1.833  0.2496 -1.1100  2.2108
 1521SOL    HW216026   2.678   0.797   1.947 -0.0912 -1.9449  0.9283
 1522SOL     OW16027   4.387   2.118  12.659  0.5966 -0.2575  0.2704
 1522SOL    HW116028   4.435   2.195  12.691 -1.4296  1.1604 -0.1622
 1522SOL    HW216029   4.317   2.156  12.607  0.5039 -1.7007 -0.6495
 1523SOL     OW16030   3.800   1.005   6.455  0.0096  0.4988 -0.5234
 1523SOL    HW116031   3.851   0.926   6.439  0.4788  0.4094  1.4106
 1523SOL    HW216032   3.714   0.962   6.462 -0.0398  0.7061  0.1544
 1524SOL     OW16033   1.172   4.096   8.503  0.2062 -0.1811  0.5911
 1524SOL    HW116034   1.239   4.141   8.554 -0.3117 -0.7869  1.8038
 1524SOL    HW216035   1.120   4.056   8.573 -1.9629  2.7535  0.6815
 1525SOL     OW16036   1.459   3.977   8.450  0.5075 -0.3663  0.1033
 1525SOL    HW116037   1.541   3.973   8.400  0.0292  1.1953 -0.8144
 1525SOL    HW216038   1.461   4.067   8.483  1.2146  0.3830 -1.9869
 1526SOL     OW16039   2.091   0.039   2.123 -0.3045 -0.1968  0.5163
 1526SOL    HW116040   2.081   0.130   2.095  0.0512 -0.2165  0.3281
 1526SOL    HW216041   2.182   0.039   2.096 -0.3312 -0.2162  0.4250
 1527SOL     OW16042   1.175   3.638   6.139 -0.0332  0.1032  0.3925
 1527SOL    HW116043   1.119   3.566   6.168  0.1277 -0.5877 -1.0139
 1527SOL    HW216044   1.263   3.605   6.159  0.3029 -0.8449 -2.5419
 1528SOL     OW16045   4.343   0.758   9.998 -0.1423  0.2212  0.3914
 1528SOL    HW116046   4.411   0.819  10.027 -0.7429  0.6366  0.9325
 1528SOL    HW216047   4.386   0.707   9.929  1.7283  1.2857  0.7576
 1529SOL     OW16048   1.131   2.705   5.257  0.0326  0.9489 -0.0036
 1529SOL    HW116049   1.119   2.631   5.317  0.9444  0.9717  0.2080
 1529SOL    HW216050   1.157   2.771   5.321 -1.2020 -0.8017  2.3065
 1530SOL     OW16051   1.911   1.433   0.417 -0.4043  0.0741 -0.3567
 1530SOL    HW116052   1.830   1.383   0.423  0.4828 -1.1603  1.2530
 1530SOL    HW216053   1.951   1.407   0.334  1.4126 -1.9962  1.1648
 1531SOL     OW16054   0.886   1.552  11.451 -0.2576  0.5994 -0.4512
 1531SOL    HW116055   0.939   1.631  11.455  1.3379 -0.4498 -1.3354
 1531SOL    HW216056   0.800   1.587  11.426  0.9602  1.7790 -2.9253
 1532SOL     OW16057   3.334   1.978   3.659 -0.4511  0.2059  0.3877
 1532SOL    HW116058   3.318   1.959   3.752 -0.5943  0.3423  0.3901
 1532SOL    HW216059   3.392   2.054   3.662 -0.4528  0.2184  0.0713
 1533SOL     OW16060   4.542   1.893  12.195  0.4352  0.2621  0.0962
 1533SOL    HW116061   4.448   1.908  12.202  0.7868  1.4289  2.1279
 1533SOL    HW216062   4.550   1.889  12.099  2.8269  1.7392  0.2376
 1534SOL     OW16063   2.483   1.427   2.677  0.5204  0.2642 -0.6470
 1534SOL    HW116064   2.544   1.497   2.698  2.3405 -1.5057  0.0234
 1534SOL    HW216065   2.525   1.352   2.719 -0.9715 -0.5878 -0.6445
 1535SOL     OW16066   4.168   0.476   9.269  0.2215  0.6171  0.0046
 1535SOL    HW116067   4.151   0.465   9.362 -0.2045  1.0193 -0.0238
 1535SOL    HW216068   4.077   0.467   9.241  0.6573 -1.1248 -0.8509
 1536SOL     OW16069   1.264   1.413   4.777  0.3788 -0.4363 -0.6361
 1536SOL    HW116070   1.348   1.443   4.813 -0.2259  1.0766 -0.4956
 1536SOL    HW216071   1.249   1.341   4.839 -1.2192  0.1361 -0.3627
 1537SOL     OW16072   3.902   1.674   2.571 -0.6280  0.0076  0.2655
 1537SOL    HW116073   3.840   1.610   2.536  0.7085 -1.2052  0.0889
 1537SOL    HW216074   3.852   1.738   2.621  0.3195  1.3068 -0.4388
 1538SOL     OW16075   4.569   1.000   2.855 -0.5641 -0.3349 -0.1012
 1538SOL    HW116076   4.587   0.976   2.945 -0.8218 -1.4907 -0.3587
 1538SOL    HW216077   4.655   0.989   2.815  0.1001 -1.0898  1.5820
 1539SOL     OW16078   2.178   2.335   1.006  0.1011 -0.0325  0.0933
 1539SOL    HW116079   2.151   2.306   0.919 -0.3798 -1.0188  0.5757
 1539SOL    HW216080   2.102   2.390   1.028 -1.0586 -0.6366 -2.4440
 1540SOL     OW16081   1.643   0.601   6.231 -0.3492  0.4690  0.2826
 1540SOL    HW116082   1.592   0.579   6.309 -2.6935  0.5897 -1.1990
 1540SOL    HW216083   1.629   0.695   6.221 -0.0728  0.3960 -0.8211
 1541SOL     OW16084   3.256   3.370   8.858 -0.1112  0.0659 -0.1172
 1541SOL    HW116085   3.174   3.419   8.867 -0.0042  0.3900 -0.9268
 1541SOL    HW216086   3.233   3.284   8.894  1.7655 -0.5458 -0.3807
 1542SOL     OW16087   1.452   3.421   1.191 -0.1976 -0.3752 -0.1829
 1542SOL    HW116088   1.395   3.495   1.171 -0.4072 -0.4165  0.2653
 1542SOL    HW216089   1.502   3.464   1.260  0.9744 -0.8509 -0.7278
 1543SOL     OW16090   2.947   4.666   7.538  0.3558  0.1281  0.1614
 1543SOL    HW116091   2.992   4.631   7.461  1.2505 -0.9215  1.1673
 1543SOL    HW216092   2.882   4.722   7.494  1.5852  2.2305  1.0228
 1544SOL     OW16093   3.821   0.383  11.354  0.0992  0.3761  0.1813
 1544SOL    HW116094   3.805   0.435  11.276  0.0314  2.0257  1.3016
 1544SOL    HW216095   3.850   0.303  11.310 -0.1621  0.3546  0.0494
 1545SOL     OW16096   2.616   0.973  15.933  0.7483  0.3332 -0.4236
 1545SOL    HW116097   2.640   0.944  15.845  0.3774 -0.7915 -0.1516
 1545SOL    HW216098   2.690   0.933  15.979 -1.0018 -0.0657  2.0523
 1546SOL     OW16099   2.702   0.016   5.625  0.1974 -0.3017  0.1721
 1546SOL    HW116100   2.727   0.109   5.622 -1.3923  0.1358  0.5143
 1546SOL    HW216101   2.768   4.711   5.688 -0.2275 -0.9193  0.3462
 1547SOL     OW16102   4.190   0.443   6.744  0.0121 -0.2271  0.6472
 1547SOL    HW116103   4.098   0.472   6.740 -0.1266 -0.6043  1.1112
 1547SOL    HW216104   4.186   0.368   6.684  0.9253 -0.4164  0.8316
 1548SOL     OW16105   0.133   3.496   9.062 -0.1920 -0.2170 -0.1433
 1548SOL    HW116106   0.079   3.573   9.047  0.8101  1.1692  3.3392
 1548SOL    HW216107   0.178   3.521   9.143  0.3317 -1.7999  0.0460
 1549SOL     OW16108   3.763   4.564   1.627  0.2602 -0.4492 -1.0011
 1549SOL    HW116109   3.723   4.477   1.626  0.2211 -0.4597  1.7060
 1549SOL    HW216110   3.841   4.533   1.581  0.6058 -2.4640  0.9698
 1550SOL     OW16111   2.127   0.630  14.954  0.1339 -0.5594  0.2928
 1550SOL    HW116112   2.151   0.547  14.911  0.6499  0.0102 -0.5299
 1550SOL    HW216113   2.032   0.615  14.956  0.3148 -1.8132 -0.3679
 1551SOL     OW16114   4.436   3.875   4.775 -0.0097 -0.4401  0.1562
 1551SOL    HW116115   4.518   3.827   4.761  0.3434  0.1637  0.1469
 1551SOL    HW216116   4.381   3.815   4.725 -1.3032  1.4815 -0.7139
 1552SOL     OW16117   1.768   3.522   8.073  0.2206  0.1607 -0.1794
 1552SOL    HW116118   1.749   3.445   8.127  2.3095  0.2369  0.6645
 1552SOL    HW216119   1.834   3.570   8.123  2.2353 -0.4182 -2.2912
 1553SOL     OW16120   4.152   0.371  13.473  0.4319  0.1186  0.5355
 1553SOL    HW116121   4.183   0.450  13.517 -0.0513  0.7445 -0.2492
 1553SOL    HW216122   4.233   0.344  13.429 -0.0557  1.0775 -0.9694
 1554SOL     OW16123   2.581   0.046   3.343 -0.0938  0.2151  0.0239
 1554SOL    HW116124   2.631   0.009   3.415 -0.9169 -0.0657  0.4566
 1554SOL    HW216125   2.604   0.139   3.343  0.1362  0.1534 -0.8321
 1555SOL     OW16126   4.357   0.639   1.480 -0.1776  0.1386  0.0670
 1555SOL    HW116127   4.335   0.584   1.405  1.3472 -1.5911  0.8582
 1555SOL    HW216128   4.402   0.711   1.436 -0.5677  0.8192  0.7840
 1556SOL     OW16129   1.161   4.153   8.228  0.1053 -0.4893 -0.4452
 1556SOL    HW116130   1.081   4.102   8.214 -1.1910  1.7677 -1.3950
 1556SOL    HW216131   1.171   4.157   8.323 -1.8436 -1.7358 -0.1821
 1557SOL     OW16132   3.693   3.013  13.569 -0.1288 -0.1041  0.1710
 1557SOL    HW116133   3.733   2.951  13.631  0.8482  0.3986  0.0474
 1557SOL    HW216134   3.763   3.040  13.510  0.8025  1.8840  2.1650
 1558SOL     OW16135   4.654   1.318   7.934 -0.1042 -0.4349 -0.0664
 1558SOL    HW116136   4.562   1.314   7.907 -0.2571  1.3122  0.1316
 1558SOL    HW216137   4.665   1.408   7.966  1.2940 -0.4112 -0.6010
 1559SOL     OW16138   2.356   0.239  13.657  0.2942  0.1889 -0.1976
 1559SOL    HW116139   2.268   0.277  13.645 -0.7894 -2.0795  0.5776
 1559SOL    HW216140   2.397   0.295  13.723  0.5405 -1.1617  0.7957
 1560SOL     OW16141   1.523   1.963   7.412  0.3520  0.5964  0.4507
 1560SOL    HW116142   1.469   2.006   7.345  0.8743 -2.6898 -2.1118
 1560SOL    HW216143   1.606   2.003   7.386 -0.2167  0.5761 -1.4520
 1561SOL     OW16144   1.127   4.489   3.386 -0.2868  0.5018 -0.2458
 1561SOL    HW116145   1.126   4.442   3.302  1.1886  0.1910 -0.0924
 1561SOL    HW216146   1.088   4.571   3.356  0.9324  0.2623 -2.5037
 1562SOL     OW16147   4.522   0.036   6.346  0.1974  0.1846 -0.9061
 1562SOL    HW116148   4.506   0.113   6.292 -0.5360  0.5735 -0.1343
 1562SOL    HW216149   4.575   4.705   6.287  0.3984 -0.0580 -0.5050
 1563SOL     OW16150   0.202   0.938  12.071  0.4676  0.2995  0.1079
 1563SOL    HW116151   0.271   0.951  12.137 -0.9719 -1.7477  2.0161
 1563SOL    HW216152   0.176   1.030  12.061  0.4933  0.2991  0.0394
 1564SOL     OW16153   0.041   1.355   6.347  0.4737  0.0582 -0.3404
 1564SOL    HW116154   0.106   1.286   6.334  0.9999  0.3861  0.5923
 1564SOL    HW216155   4.683   1.306   6.366  0.0960  1.4865  1.6825
 1565SOL     OW16156   3.866   2.193   3.913  0.5571 -0.1759  0.5916
 1565SOL    HW116157   3.855   2.131   3.841  0.3000 -0.0094  0.4894
 1565SOL    HW216158   3.822   2.270   3.877  1.8921  0.4558  0.3036
 1566SOL     OW16159   0.988   3.762   9.086 -0.2097 -0.1020  0.4282
 1566SOL    HW116160   0.965   3.819   9.013 -2.5405 -0.0608  1.1871
 1566SOL    HW216161   1.067   3.716   9.057 -0.3223 -0.5586  0.8387
 1567SOL     OW16162   0.714   4.577   7.075  0.3050 -0.0511 -0.1597
 1567SOL    HW116163   0.760   4.499   7.046 -1.1537 -0.7684 -0.5496
 1567SOL    HW216164   0.785   4.637   7.099 -0.5772 -0.1012  2.5878
 1568SOL     OW16165   2.812   3.353   2.299  0.4542  0.3943  0.3958
 1568SOL    HW116166   2.742   3.326   2.239 -0.2433  1.8784  0.5529
 1568SOL    HW216167   2.760   3.396   2.367  1.2481  1.6196  0.2201
 1569SOL     OW16168   4.638   4.239   0.858 -0.0115  0.2170 -0.1422
 1569SOL    HW116169   4.658   4.234   0.951 -1.4077 -0.3309  0.1343
 1569SOL    HW216170   4.695   4.311   0.831 -0.8192  0.4485 -1.2214
 1570SOL     OW16171   2.823   0.620   4.830 -0.2933  0.3719  0.1276
 1570SOL    HW116172   2.830   0.557   4.758  2.1765  0.4999  0.2443
 1570SOL    HW216173   2.856   0.573   4.907 -0.4833 -2.8903 -1.7792
 1571SOL     OW16174   3.951   3.415   6.402  0.9212 -0.2913 -0.1275
 1571SOL    HW116175   4.034   3.444   6.363  1.2676 -1.6414 -0.3739
 1571SOL    HW216176   3.913   3.501   6.423  1.1704 -0.2100 -0.0099
 1572SOL     OW16177   0.403   0.073   7.598  0.1467  0.2502 -0.7259
 1572SOL    HW116178   0.328   0.126   7.570 -0.7082 -1.1177 -1.0030
 1572SOL    HW216179   0.425   0.119   7.679 -1.3426  0.7840 -0.6206
 1573SOL     OW16180   3.452   2.559   4.942  0.2737 -0.1995  0.6067
 1573SOL    HW116181   3.477   2.646   4.971 -0.7510  0.2285  0.2044
 1573SOL    HW216182   3.540   2.520   4.944 -0.3487 -1.5004  2.4785
 1574SOL     OW16183   0.280   0.234   5.863  0.3576  0.3302  0.2529
 1574SOL    HW116184   0.199   0.184   5.872  0.4721 -0.0455 -0.8631
 1574SOL    HW216185   0.255   0.323   5.837 -2.6257 -0.2172  1.2547
 1575SOL     OW16186   4.570   4.533   0.588  0.6909  0.3984  0.2958
 1575SOL    HW116187   4.482   4.520   0.553  0.8679  0.4025 -0.1554
 1575SOL    HW216188   4.630   4.476   0.540 -1.0458 -0.3153 -1.0021
 1576SOL     OW16189   1.016   1.031   0.315  0.2327 -0.8459  0.1878
 1576SOL    HW116190   1.068   1.014   0.394 -2.6023  0.0905  2.2445
 1576SOL    HW216191   1.070   0.978   0.256 -1.6764 -0.6807 -1.6808
 1577SOL     OW16192   4.099   0.789  12.752 -0.3219 -0.0831 -0.3538
 1577SOL    HW116193   4.182   0.785  12.801  0.2555  1.1568 -1.2458
 1577SOL    HW216194   4.066   0.876  12.774  0.0406  0.3238 -1.4032
 1578SOL     OW16195   2.864   4.053   8.266 -0.3760  0.0957 -0.6788
 1578SOL    HW116196   2.899   4.141   8.276  0.8148 -0.4205 -0.2176
 1578SOL    HW216197   2.938   4.013   8.220  0.9787 -0.1668  1.7268
 1579SOL     OW16198   3.809   2.008   8.380 -0.0476  0.2419  0.0378
 1579SOL    HW116199   3.873   1.951   8.336 -2.7492 -1.0481 -2.1977
 1579SOL    HW216200   3.870   2.079   8.401  0.6219 -0.0927 -0.7437
 1580SOL     OW16201   1.547   3.586  10.125 -0.2759 -0.3008 -0.6652
 1580SOL    HW116202   1.452   3.574  10.127 -0.1221 -1.1960  1.0081
 1580SOL    HW216203   1.567   3.562  10.215 -0.6698  1.1428 -0.1892
 1581SOL     OW16204   2.725   0.637   1.517  0.1576 -0.0719  0.4282
 1581SOL    HW116205   2.669   0.714   1.527  1.2082  0.7594 -0.0766
 1581SOL    HW216206   2.754   0.619   1.607 -0.1256 -1.2567  0.2791
 1582SOL     OW16207   4.246   1.806   9.997 -0.1845  0.1654  0.0950
 1582SOL    HW116208   4.188   1.729  10.001  1.1180 -0.8686 -0.9840
 1582SOL    HW216209   4.263   1.811   9.903 -0.9913  0.8575 -0.0190
 1583SOL     OW16210   0.143   0.957  17.027  0.0770 -0.2173 -0.5890
 1583SOL    HW116211   0.179   0.919  17.106 -1.3280  1.0984  0.6808
 1583SOL    HW216212   0.188   0.903  16.962  0.5168 -1.8779  1.0998
 1584SOL     OW16213   4.255   4.445   7.464 -0.2089 -0.3036  0.4325
 1584SOL    HW116214   4.301   4.411   7.387 -0.2614  0.0769  0.2369
 1584SOL    HW216215   4.178   4.488   7.428 -0.0101 -0.6947 -0.4641
 1585SOL     OW16216   1.542   0.321   8.449  0.7195  0.1754 -0.2219
 1585SOL    HW116217   1.493   0.336   8.529  1.9785  1.5935  0.2833
 1585SOL    HW216218   1.474   0.277   8.399 -0.8542 -0.0551  2.1740
 1586SOL     OW16219   2.287   2.975  13.123  0.6292 -0.2532 -0.1253
 1586SOL    HW116220   2.340   3.048  13.091  1.9887 -0.8026  0.9120
 1586SOL    HW216221   2.247   3.020  13.198  0.7179 -2.8739  1.4724
 1587SOL     OW16222   1.358   2.184  17.603 -0.0875  0.9356  0.7066
 1587SOL    HW116223   1.352   2.099  17.647 -1.5648  1.4403  1.4841
 1587SOL    HW216224   1.442   2.218  17.634  0.3908 -0.3571  0.8262
 1588SOL     OW16225   3.532   2.371   3.245  0.5032  0.0007  0.5234
 1588SOL    HW116226   3.613   2.348   3.289  0.4447 -1.1363  0.0441
 1588SOL    HW216227   3.501   2.282   3.226 -1.7772  0.1397  3.7044
 1589SOL     OW16228   1.866   2.080   4.554  0.6423 -0.3922 -0.2422
 1589SOL    HW116229   1.874   2.137   4.477  0.1962  2.2812  1.6826
 1589SOL    HW216230   1.920   2.120   4.622  0.2422 -1.1389  0.5070
 1590SOL     OW16231   0.978   1.079   6.787  0.2474 -0.0460 -0.4159
 1590SOL    HW116232   1.004   1.167   6.815  2.2743 -0.4436 -0.9889
 1590SOL    HW216233   0.954   1.100   6.697 -0.3836 -1.3511 -0.5456
 1591SOL     OW16234   3.308   3.182   6.027  0.6082 -0.0687  0.5065
 1591SOL    HW116235   3.255   3.235   5.968  0.0699 -0.3251  0.7648
 1591SOL    HW216236   3.310   3.098   5.980 -0.9486  0.9247 -1.3132
 1592SOL     OW16237   0.737   3.308   2.426  0.1303 -0.0996  0.1714
 1592SOL    HW116238   0.711   3.398   2.404  2.3036  1.0857  2.4578
 1592SOL    HW216239   0.800   3.334   2.493 -0.5557  0.4590  0.6026
 1593SOL     OW16240   4.231   4.038  12.304  0.1549 -0.1347  0.2917
 1593SOL    HW116241   4.257   4.128  12.286 -0.8766  0.3477  1.2120
 1593SOL    HW216242   4.319   4.000  12.303 -0.0488 -0.6621  1.4936
 1594SOL     OW16243   1.616   1.929   1.801 -0.2217 -0.0691  0.0450
 1594SOL    HW116244   1.587   1.917   1.892  0.6419 -0.9308  0.2102
 1594SOL    HW216245   1.699   1.880   1.803 -0.0825  0.1178 -1.4452
 1595SOL     OW16246   3.272   2.404  11.728  0.0213  0.0854 -0.8022
 1595SOL    HW116247   3.350   2.456  11.709  1.0131 -0.0241  2.9430
 1595SOL    HW216248   3.274   2.367  11.640  0.5301 -0.8170 -0.4163
 1596SOL     OW16249   1.054   0.332   1.501  0.4911  0.5602 -0.3958
 1596SOL    HW116250   1.135   0.374   1.475 -0.7922  2.7027 -0.9008
 1596SOL    HW216251   1.038   0.402   1.563 -2.9509 -2.1602  1.7829
 1597SOL     OW16252   4.334   3.141   7.915 -0.0854 -0.6276  0.2855
 1597SOL    HW116253   4.348   3.136   7.821  0.0394 -1.0118  0.3251
 1597SOL    HW216254   4.334   3.235   7.933  0.0707 -0.5637 -0.0515
 1598SOL     OW16255   1.573   2.232   6.064  0.7325  0.4517 -0.0698
 1598SOL    HW116256   1.530   2.219   6.148  0.0255  0.3309 -0.4486
 1598SOL    HW216257   1.581   2.138   6.043 -0.1041 -0.0978  2.1448
 1599SOL     OW16258   0.986   2.481   7.207 -0.0362 -0.1443 -0.7251
 1599SOL    HW116259   0.942   2.474   7.292  0.0843  0.0810 -0.6424
 1599SOL    HW216260   1.001   2.393   7.174 -2.3627 -0.2061 -1.5979
 1600SOL     OW16261   0.807   2.060   6.237 -0.3182  0.0190  0.6623
 1600SOL    HW116262   0.849   2.026   6.316  0.0291 -0.3271  0.3315
 1600SOL    HW216263   0.873   2.116   6.195  0.1539  0.0902  1.5007
 1601SOL     OW16264   3.295   4.241   3.435 -0.5472 -0.5285 -0.3990
 1601SOL    HW116265   3.340   4.315   3.395  0.7185 -1.8816 -1.4891
 1601SOL    HW216266   3.350   4.163   3.424  0.0076 -0.0545 -0.9685
 1602SOL     OW16267   3.196   2.556   7.945  0.4052  0.0521 -0.9885
 1602SOL    HW116268   3.251   2.632   7.963 -1.0851  1.2632 -1.6414
 1602SOL    HW216269   3.132   2.556   8.016  1.4675 -0.2826 -0.0174
 1603SOL     OW16270   3.840   4.406  17.062  0.0360  0.0056 -0.2610
 1603SOL    HW116271   3.846   4.349  16.986 -2.7331  1.6369 -1.6823
 1603SOL    HW216272   3.928   4.405  17.099  0.5124  0.0531 -1.4221
 1604SOL     OW16273   4.520   0.444   4.142 -0.1180 -0.1200  0.4270
 1604SOL    HW116274   4.585   0.509   4.115 -0.9610  1.1922  1.5756
 1604SOL    HW216275   4.497   0.483   4.226  1.0633  1.1174  0.1714
 1605SOL     OW16276   0.272   2.778   7.448 -0.3957 -0.2038  0.1420
 1605SOL    HW116277   0.272   2.726   7.368 -2.2724 -0.1893  0.1205
 1605SOL    HW216278   0.250   2.716   7.518  1.3318  0.2688  1.1019
 1606SOL     OW16279   3.636   1.997   5.344  0.2166 -0.0306  0.5065
 1606SOL    HW116280   3.717   1.952   5.318  0.1154  1.6266 -2.6302
 1606SOL    HW216281   3.594   2.004   5.258 -0.9047  0.4989  1.1065
 1607SOL     OW16282   0.522   3.405   0.562  0.0188 -0.8570  0.1446
 1607SOL    HW116283   0.439   3.425   0.604  0.0733 -1.5037  0.5614
 1607SOL    HW216284   0.593   3.426   0.624 -0.2641  0.1907  0.1253
 1608SOL     OW16285   0.859   2.828   3.560  0.4232 -0.7094  0.7643
 1608SOL    HW116286   0.783   2.795   3.609  0.2144 -0.3473  0.6840
 1608SOL    HW216287   0.925   2.830   3.629  0.0645  0.9837  1.0571
 1609SOL     OW16288   4.085   0.111  17.485 -0.0322  0.2336  0.2608
 1609SOL    HW116289   4.145   0.178  17.520  1.6272 -0.3887 -1.3776
 1609SOL    HW216290   4.114   0.036  17.536  0.6434  1.4482  1.6757
 1610SOL     OW16291   1.054   1.142   9.582  0.7996  0.0035  0.2609
 1610SOL    HW116292   0.987   1.141   9.650 -1.6350 -0.8647 -2.1403
 1610SOL    HW216293   1.119   1.077   9.607  1.0725 -0.4759 -1.6424
 1611SOL     OW16294   3.167   2.116   0.964 -0.2674  0.3807  0.0540
 1611SOL    HW116295   3.099   2.063   0.921  1.0613  0.5849 -2.2621
 1611SOL    HW216296   3.157   2.079   1.052  1.6285  4.0165  1.8116
 1612SOL     OW16297   1.569   4.634   2.629 -0.6427 -0.0373 -0.1811
 1612SOL    HW116298   1.533   4.696   2.693 -3.9679 -1.9090 -0.2216
 1612SOL    HW216299   1.633   4.587   2.683  3.0068  4.7429 -0.3298
 1613SOL     OW16300   1.298   0.650   2.422 -0.1030 -0.1758  0.1647
 1613SOL    HW116301   1.381   0.609   2.398 -0.0117  0.8258 -1.2160
 1613SOL    HW216302   1.297   0.639   2.517 -0.2105  0.7805  0.2690
 1614SOL     OW16303   4.708   3.613  12.240  0.1332  0.4542 -0.2844
 1614SOL    HW116304   4.709   3.526  12.200 -0.4749  0.1085  0.4411
 1614SOL    HW216305   0.042   3.595  12.316 -0.3786 -1.8741 -0.4390
 1615SOL     OW16306   1.522   2.695   5.749  0.4583 -0.0999  0.3058
 1615SOL    HW116307   1.468   2.624   5.783  2.2860 -1.4935  0.2765
 1615SOL    HW216308   1.573   2.730   5.822  0.1181 -1.2320  1.0744
 1616SOL     OW16309   3.516   4.643  12.682 -0.0583  0.4029  0.4074
 1616SOL    HW116310   3.534   4.581  12.611 -2.0808  0.8268 -0.4654
 1616SOL    HW216311   3.605   4.655  12.716 -0.5801  0.5755  1.7108
 1617SOL     OW16312   3.740   3.340   7.655 -0.1849  0.3183 -0.2281
 1617SOL    HW116313   3.826   3.356   7.616  0.1396  1.4409  0.9383
 1617SOL    HW216314   3.762   3.310   7.743  1.9543  1.5895 -0.3244
 1618SOL     OW16315   1.599   1.749   6.974 -0.2390 -0.1090  0.1682
 1618SOL    HW116316   1.591   1.732   7.067 -3.0550  1.1675  0.1416
 1618SOL    HW216317   1.535   1.818   6.958 -1.0393 -0.5931  1.2870
 1619SOL     OW16318   3.370   1.558   5.615  0.2665  0.1347 -0.0286
 1619SOL    HW116319   3.290   1.607   5.599 -0.5562 -0.2348  2.8900
 1619SOL    HW216320   3.419   1.621   5.668  0.6518  0.7598 -1.1369
 1620SOL     OW16321   2.982   0.317   2.033 -0.1189  0.2314  0.5168
 1620SOL    HW116322   2.989   0.391   1.972 -0.6928  0.4044  0.6573
 1620SOL    HW216323   2.917   0.258   1.995  0.0309 -1.1771  2.4329
 1621SOL     OW16324   4.598   0.675   2.621 -0.4255  0.0049 -0.2573
 1621SOL    HW116325   4.670   0.724   2.659 -1.8075  0.3745  1.8592
 1621SOL    HW216326   4.644   0.643   2.543 -0.5571 -0.3117 -0.2052
 1622SOL     OW16327   1.410   3.930   4.153  0.0319  0.2439 -0.4346
 1622SOL    HW116328   1.410   3.943   4.058  3.0727  0.1294 -0.4583
 1622SOL    HW216329   1.454   4.004   4.194 -0.5417  1.7444 -2.4870
 1623SOL     OW16330   1.603   3.413  12.166  0.2928  0.3893 -0.3101
 1623SOL    HW116331   1.557   3.486  12.124  1.5217  2.0075  1.1493
 1623SOL    HW216332   1.691   3.435  12.135  0.9657 -1.1545  0.4936
 1624SOL     OW16333   3.452   1.658   2.240  0.0995 -1.3099  0.1911
 1624SOL    HW116334   3.533   1.709   2.249 -1.1656  0.4882  1.2546
 1624SOL    HW216335   3.447   1.646   2.145  0.9497 -0.8328  0.0856
 1625SOL     OW16336   4.280   3.052   7.035  0.1718  0.2788  0.3561
 1625SOL    HW116337   4.294   3.128   7.091 -0.0177  0.7545 -0.2519
 1625SOL    HW216338   4.338   2.990   7.080  0.6751  0.3552 -0.1794
 1626SOL     OW16339   2.585   0.720   4.884 -0.6736  0.3101  0.4021
 1626SOL    HW116340   2.679   0.698   4.883 -0.8768 -0.5686  0.0097
 1626SOL    HW216341   2.550   0.639   4.846 -0.5039 -0.0039  0.9200
 1627SOL     OW16342   2.003   2.572   2.917  0.1610 -0.0461 -0.6101
 1627SOL    HW116343   1.966   2.644   2.968  0.6179 -0.1801 -0.0881
 1627SOL    HW216344   2.069   2.624   2.871 -0.1247 -0.9500 -2.0500
 1628SOL     OW16345   4.554   3.182   5.973  0.3711 -0.2449 -0.2588
 1628SOL    HW116346   4.630   3.124   5.978  0.7910  0.5695  2.8192
 1628SOL    HW216347   4.586   3.258   6.021  0.1897 -0.1241 -0.3286
 1629SOL     OW16348   3.917   1.082  15.361  0.3107  0.4878 -0.0446
 1629SOL    HW116349   3.997   1.047  15.401 -0.5783 -0.0648  1.2745
 1629SOL    HW216350   3.868   1.113  15.437  0.6393 -1.2422  0.8769
 1630SOL     OW16351   3.850   3.020   6.837  0.5337  0.0654 -0.1768
 1630SOL    HW116352   3.756   3.013   6.822  0.2598  0.0289  1.4690
 1630SOL    HW216353   3.863   3.098   6.783 -0.4848 -0.3478 -1.0114
 1631SOL     OW16354   3.405   2.408   1.440 -0.2588  0.6292  0.1309
 1631SOL    HW116355   3.474   2.342   1.434 -0.2366  0.5167  1.5011
 1631SOL    HW216356   3.338   2.369   1.497  0.5574 -0.0960  0.6011
 1632SOL     OW16357   2.193   1.235   4.105  0.3488  0.2857 -0.5661
 1632SOL    HW116358   2.166   1.301   4.041  0.9383  1.8151  0.7606
 1632SOL    HW216359   2.232   1.288   4.174 -1.8714  2.4450 -0.9651
 1633SOL     OW16360   1.930   0.125   0.930 -0.2210  0.4472 -0.0686
 1633SOL    HW116361   1.970   0.145   1.015  0.9967  0.2209 -0.5804
 1633SOL    HW216362   1.929   0.212   0.888 -2.4149  0.7218  0.5782
 1634SOL     OW16363   3.929   1.069  14.968  0.3826 -0.1548 -0.5472
 1634SOL    HW116364   3.890   0.986  14.940  0.1909  0.3783 -1.8461
 1634SOL    HW216365   3.945   1.052  15.061  1.3615 -0.1756 -0.7163
 1635SOL     OW16366   2.801   3.414   1.240  0.1687 -0.4084  0.2479
 1635SOL    HW116367   2.807   3.443   1.149 -0.3954 -1.8214 -0.2391
 1635SOL    HW216368   2.710   3.385   1.254  0.3376  0.6347  3.4843
 1636SOL     OW16369   3.427   2.248   8.242  0.8204  0.3501  0.7280
 1636SOL    HW116370   3.341   2.230   8.280  1.0128  0.8895  1.4162
 1636SOL    HW216371   3.471   2.163   8.236  1.1433  0.6473 -0.9900
 1637SOL     OW16372   2.762   1.687   8.034 -0.2836  0.0171 -0.5122
 1637SOL    HW116373   2.817   1.753   7.992  0.0239 -0.2426 -0.5157
 1637SOL    HW216374   2.711   1.751   8.085 -0.3827 -1.8464  1.7348
 1638SOL     OW16375   1.884   0.706  16.283  0.8514  0.2474 -0.5232
 1638SOL    HW116376   1.898   0.621  16.242  2.0764  0.1868  0.0129
 1638SOL    HW216377   1.961   0.721  16.338  0.0780  0.5225  0.4700
 1639SOL     OW16378   0.271   3.599   5.575  0.1298 -0.4363  0.2964
 1639SOL    HW116379   0.334   3.671   5.582  1.7138 -1.9759  2.0331
 1639SOL    HW216380   0.195   3.656   5.583  2.1213  2.2296  0.4254
 1640SOL     OW16381   3.408   4.226  15.444  0.7350 -0.8541  0.1469
 1640SOL    HW116382   3.435   4.268  15.526 -0.5224  1.9886 -0.8697
 1640SOL    HW216383   3.420   4.305  15.391  1.9848  0.0372  1.7722
 1641SOL     OW16384   2.142   2.979   2.741  0.1041 -0.1381  0.5958
 1641SOL    HW116385   2.136   2.981   2.836  0.2597 -0.9397  0.6208
 1641SOL    HW216386   2.171   3.069   2.726 -1.0539  0.2073  0.4219
 1642SOL     OW16387   1.426   1.108   3.189  0.3008  0.2482  0.0044
 1642SOL    HW116388   1.491   1.038   3.179  1.6388  1.3740  0.7601
 1642SOL    HW216389   1.365   1.062   3.247 -0.9278  2.4287  0.4243
 1643SOL     OW16390   4.304   0.747   8.897  0.1804  0.2507  0.1169
 1643SOL    HW116391   4.382   0.750   8.842  2.9569  3.5307  4.2147
 1643SOL    HW216392   4.320   0.674   8.957  0.7528 -0.6667 -1.1452
 1644SOL     OW16393   1.652   1.518   6.855  0.7039  0.0204 -0.3796
 1644SOL    HW116394   1.644   1.602   6.900 -1.7693 -0.5883  0.2927
 1644SOL    HW216395   1.724   1.472   6.899  0.1870 -0.9913 -0.5870
 1645SOL     OW16396   2.360   2.841  11.766  0.1179 -0.6508  0.0790
 1645SOL    HW116397   2.289   2.820  11.706  1.2721  0.4106 -1.6413
 1645SOL    HW216398   2.316   2.828  11.851 -1.2874 -2.4177 -0.9292
 1646SOL     OW16399   2.606   1.682  15.169  0.0865  0.2581 -0.2256
 1646SOL    HW116400   2.546   1.707  15.239 -0.0050  2.0981 -0.9654
 1646SOL    HW216401   2.609   1.587  15.185 -1.3830 -0.2272 -2.7604
 1647SOL     OW16402   4.570   4.167   6.361  0.3211  0.1309  0.1365
 1647SOL    HW116403   4.646   4.181   6.304  0.4197 -1.1274 -0.0350
 1647SOL    HW216404   4.577   4.073   6.378 -2.6574 -0.0182  0.5597
 1648SOL     OW16405   2.429   1.102  15.135 -0.1573 -0.1990  0.5619
 1648SOL    HW116406   2.449   1.189  15.100 -2.6790  1.0525  2.2742
 1648SOL    HW216407   2.519   1.070  15.133 -0.2846 -0.5861  1.2014
 1649SOL     OW16408   4.517   4.093   2.961 -0.2439 -0.5807 -0.6692
 1649SOL    HW116409   4.493   4.130   2.876 -0.8460  1.3625  0.3565
 1649SOL    HW216410   4.611   4.102   2.949 -0.4221  2.5998  0.3448
 1650SOL     OW16411   3.961   2.381   4.123  0.2808 -0.6941  0.1301
 1650SOL    HW116412   3.889   2.441   4.146  3.7426  2.8352  1.7643
 1650SOL    HW216413   3.929   2.326   4.051  0.0058 -0.1376 -0.1819
 1651SOL     OW16414   2.145   0.335   4.861 -0.0759 -0.0407 -0.3836
 1651SOL    HW116415   2.191   0.263   4.818 -2.9017 -0.7182 -2.2297
 1651SOL    HW216416   2.073   0.292   4.908  0.6292 -0.7189  0.0800
 1652SOL     OW16417   1.505   0.963   2.886  0.3394 -0.0036 -0.0298
 1652SOL    HW116418   1.501   0.997   2.796 -1.3032  0.1452  0.0928
 1652SOL    HW216419   1.410   0.956   2.899  0.4710 -2.2986 -0.3391
 1653SOL     OW16420   0.224   3.937   4.159  0.3497 -0.1492 -0.3081
 1653SOL    HW116421   0.261   3.880   4.092 -0.2809 -1.5790  0.5608
 1653SOL    HW216422   0.198   4.012   4.104  0.0631 -0.0443 -0.0273
 1654SOL     OW16423   4.061   1.526  15.915  0.0278 -0.3854 -1.1235
 1654SOL    HW116424   4.102   1.593  15.861  0.4333 -0.6939 -1.1960
 1654SOL    HW216425   3.996   1.579  15.961  0.6745 -0.1926 -0.4259
 1655SOL     OW16426   4.081   0.215   4.770  0.5443 -0.4516  0.2755
 1655SOL    HW116427   4.025   0.158   4.717  1.1204 -0.4785 -0.2969
 1655SOL    HW216428   4.018   0.282   4.795  1.8148  0.2995  1.4422
 1656SOL     OW16429   1.688   0.208   5.354  0.1938  0.0871  0.6910
 1656SOL    HW116430   1.603   0.233   5.389 -0.4125 -3.5812  1.8622
 1656SOL    HW216431   1.746   0.223   5.429 -0.3487  1.5829  0.7912
 1657SOL     OW16432   0.550   2.020   0.817  0.4675  0.1182 -0.1589
 1657SOL    HW116433   0.547   1.993   0.908 -1.7490  0.4191 -0.1476
 1657SOL    HW216434   0.597   1.941   0.791  0.2785 -0.1327  0.2774
 1658SOL     OW16435   1.130   0.942   6.059  0.1060 -0.0776  0.2478
 1658SOL    HW116436   1.125   0.870   5.995  4.5703  0.6103 -0.8321
 1658SOL    HW216437   1.036   0.960   6.060  0.3545  1.4161 -2.1766
 1659SOL     OW16438   1.849   2.044   8.873  0.1074 -0.2739 -0.3623
 1659SOL    HW116439   1.775   1.991   8.844 -0.3889  0.4901 -0.4736
 1659SOL    HW216440   1.909   1.972   8.895  0.1748 -0.3091 -0.6539
 1660SOL     OW16441   0.616   4.037  13.352  0.2920  0.0441 -0.0219
 1660SOL    HW116442   0.642   4.062  13.263 -1.2386 -0.2915 -0.5761
 1660SOL    HW216443   0.522   4.053  13.343 -0.2902 -1.9385  2.5861
 1661SOL     OW16444   3.726   3.714   8.284  0.4037 -0.4978 -0.1423
 1661SOL    HW116445   3.656   3.677   8.230  0.4549 -0.9362  0.0948
 1661SOL    HW216446   3.700   3.807   8.286  0.8509 -0.3884  0.7637
 1662SOL     OW16447   1.239   0.095   5.370  0.2993 -0.7461  0.1544
 1662SOL    HW116448   1.157   0.134   5.338  1.6670 -0.1422 -2.5973
 1662SOL    HW216449   1.296   0.103   5.294  0.6491  0.9692  0.6026
 1663SOL     OW16450   1.675   3.405   9.939  0.3270  0.4625 -0.5071
 1663SOL    HW116451   1.764   3.433   9.961  0.0952  0.4859  0.3976
 1663SOL    HW216452   1.619   3.459   9.994 -1.7576 -0.8444 -1.3322
 1664SOL     OW16453   2.345   0.777   9.053  0.0824 -0.2539 -0.1435
 1664SOL    HW116454   2.281   0.716   9.088  0.6557 -0.8532 -0.1318
 1664SOL    HW216455   2.278   0.845   9.045  1.1866  0.8609  0.1354
 1665SOL     OW16456   0.711   3.867   3.291  0.1818 -0.2372  0.2920
 1665SOL    HW116457   0.646   3.904   3.231  1.4212  1.8748  0.2715
 1665SOL    HW216458   0.729   3.780   3.255  3.1786  0.7956 -0.6685
 1666SOL     OW16459   1.303   0.204   1.218 -0.8329  0.1977 -0.5831
 1666SOL    HW116460   1.297   0.243   1.305  1.5896 -0.1149 -0.2782
 1666SOL    HW216461   1.286   0.284   1.168 -2.2216  1.0613  1.2690
 1667SOL     OW16462   2.851   1.994  14.894  0.3503  0.3209 -0.2154
 1667SOL    HW116463   2.807   1.959  14.816 -0.2010  0.5319 -0.0005
 1667SOL    HW216464   2.864   2.083  14.861  2.7872 -0.1147 -0.4340
 1668SOL     OW16465   2.902   1.652  16.194  0.1224 -0.0058  0.3181
 1668SOL    HW116466   2.869   1.669  16.106 -0.2646  0.6212  0.5809
 1668SOL    HW216467   2.858   1.723  16.241  0.0074  0.6165 -0.7402
 1669SOL     OW16468   4.060   3.941   8.140  0.0452 -0.1188 -0.2352
 1669SOL    HW116469   4.144   3.982   8.157  1.2328 -2.1189 -1.3176
 1669SOL    HW216470   4.012   4.020   8.114  1.8772  0.9378 -0.3408
 1670SOL     OW16471   4.243   2.821   4.512  0.1042  0.3517 -0.0202
 1670SOL    HW116472   4.305   2.845   4.444 -0.0868  0.8547 -0.0157
 1670SOL    HW216473   4.234   2.905   4.557 -2.0912  1.2288 -2.1307
 1671SOL     OW16474   0.008   0.692   6.062  0.0200  0.0166  0.3938
 1671SOL    HW116475   0.046   0.778   6.044  0.7382 -0.1652  1.0529
 1671SOL    HW216476   4.701   0.654   5.980  2.4750 -1.8399  0.3961
 1672SOL     OW16477   0.675   3.317  16.230 -0.7323 -0.5754  0.1672
 1672SOL    HW116478   0.627   3.337  16.150  0.6913 -2.7402 -1.2508
 1672SOL    HW216479   0.742   3.385  16.226 -2.8168  1.4804  0.4126
 1673SOL     OW16480   2.263   2.404   2.732 -0.5485  0.1776  0.7022
 1673SOL    HW116481   2.243   2.372   2.820 -1.0827  0.6157  0.7367
 1673SOL    HW216482   2.331   2.471   2.741 -1.9571  1.3227  2.8372
 1674SOL     OW16483   1.743   4.416   7.942  0.4249  0.0858 -0.4211
 1674SOL    HW116484   1.690   4.347   7.982  0.7760 -0.9651 -1.7985
 1674SOL    HW216485   1.796   4.433   8.020 -1.2911  1.8315  0.3932
 1675SOL     OW16486   3.368   2.993  11.093  0.8973  0.4904  0.3037
 1675SOL    HW116487   3.395   3.035  11.175 -1.0699  1.3144  0.5481
 1675SOL    HW216488   3.456   2.967  11.066  0.0181  0.9070 -3.0040
 1676SOL     OW16489   1.348   2.266   7.415 -0.6079 -0.2003 -0.3404
 1676SOL    HW116490   1.334   2.203   7.344 -0.6904  0.3986 -0.8492
 1676SOL    HW216491   1.284   2.238   7.481 -0.5728 -0.8550 -0.5838
 1677SOL     OW16492   4.161   2.418   7.064  0.1200 -0.4074  0.1310
 1677SOL    HW116493   4.096   2.373   7.010 -1.9316 -0.0330  2.3016
 1677SOL    HW216494   4.237   2.432   7.007 -1.6380  0.4439 -1.9882
 1678SOL     OW16495   1.258   0.149   1.971  0.0807 -0.5638  0.0829
 1678SOL    HW116496   1.179   0.170   2.020 -0.0491  0.2025 -0.4603
 1678SOL    HW216497   1.227   0.164   1.882  2.0872  1.2800 -0.3034
 1679SOL     OW16498   2.645   0.315   8.692  0.1407  0.3157  1.0615
 1679SOL    HW116499   2.603   0.400   8.685  0.6854  0.5740  0.9312
 1679SOL    HW216500   2.675   0.304   8.602 -2.3326 -2.7342  0.6099
 1680SOL     OW16501   4.691   1.689   5.274  0.0832  0.1488  0.0575
 1680SOL    HW116502   0.013   1.711   5.356 -1.6324 -0.5809  1.1639
 1680SOL    HW216503   4.629   1.762   5.270 -1.5901 -1.4016 -1.7072
 1681SOL     OW16504   2.274   0.052   0.456 -0.2381  0.2054  0.0912
 1681SOL    HW116505   2.339   0.035   0.389 -0.1781  1.7855 -0.2415
 1681SOL    HW216506   2.286   4.695   0.509  1.5931 -0.4600 -1.3269
 1682SOL     OW16507   3.687   4.605  16.919  0.3855  0.3294 -0.0387
 1682SOL    HW116508   3.656   4.654  16.995  0.8263 -0.6563  0.7837
 1682SOL    HW216509   3.721   4.528  16.965  0.8539  1.3499  1.3039
 1683SOL     OW16510   3.040   2.990   1.651  0.0591  0.5400  0.2042
 1683SOL    HW116511   3.059   2.993   1.745  0.6221 -0.9793  0.1345
 1683SOL    HW216512   3.084   2.912   1.619 -3.1242 -2.1481  2.3254
 1684SOL     OW16513   4.117   2.472   5.127  0.0157 -0.2203  0.4308
 1684SOL    HW116514   4.176   2.456   5.201  1.2952 -2.8686 -1.1560
 1684SOL    HW216515   4.062   2.547   5.150  0.8908  0.7500 -0.6258
 1685SOL     OW16516   2.362   0.779   2.349  0.1091 -0.0836 -0.0075
 1685SOL    HW116517   2.441   0.799   2.298  0.9015 -2.8588  0.1376
 1685SOL    HW216518   2.304   0.826   2.290 -0.8647 -1.6969 -0.3416
 1686SOL     OW16519   2.337   0.896   9.352  0.1645 -0.3057  0.0606
 1686SOL    HW116520   2.243   0.907   9.336 -0.3999 -2.0621  2.0629
 1686SOL    HW216521   2.374   0.963   9.295 -2.5209  0.4624 -0.7756
 1687SOL     OW16522   4.476   0.150   5.433 -0.4256  0.7912 -0.2897
 1687SOL    HW116523   4.499   0.073   5.381  1.1235  1.4793 -0.6264
 1687SOL    HW216524   4.380   0.150   5.431 -0.4526  0.7698  0.9995
 1688SOL     OW16525   2.073   4.415   5.997  0.8344  0.4559 -0.3718
 1688SOL    HW116526   2.057   4.409   6.091  0.0551 -1.9733 -0.6622
 1688SOL    HW216527   1.986   4.409   5.957  0.7405 -2.7419  0.3122
 1689SOL     OW16528   0.244   0.995   1.458 -0.3696 -0.2724 -0.4258
 1689SOL    HW116529   0.244   1.029   1.369  0.1082  2.2228  0.5323
 1689SOL    HW216530   0.308   0.925   1.444  0.5116  0.9109 -2.3156
 1690SOL     OW16531   1.240   3.769   7.343  0.3186 -0.1184 -0.1105
 1690SOL    HW116532   1.232   3.680   7.376  0.1322  0.1296  0.4953
 1690SOL    HW216533   1.224   3.829   7.416 -0.9565  1.4166 -1.6536
 1691SOL     OW16534   1.874   1.892   6.649 -0.3043 -0.0824 -0.2341
 1691SOL    HW116535   1.781   1.916   6.655 -0.7795 -2.5591  1.9667
 1691SOL    HW216536   1.880   1.843   6.731  0.2424  3.8728  2.0961
 1692SOL     OW16537   2.413   0.237  13.211  0.0725  0.2205 -0.0465
 1692SOL    HW116538   2.424   0.323  13.253 -1.7021  1.8617 -2.9875
 1692SOL    HW216539   2.326   0.223  13.249  0.6740 -1.2149  0.7692
 1693SOL     OW16540   0.736   4.121   4.672 -0.1696 -0.5385 -0.4063
 1693SOL    HW116541   0.690   4.184   4.616  2.1548  1.0540 -0.5282
 1693SOL    HW216542   0.791   4.095   4.598 -0.0688  0.8309 -0.8302
 1694SOL     OW16543   2.001   2.720  15.531  0.3028 -1.2151  0.7218
 1694SOL    HW116544   1.980   2.723  15.625  1.6953  3.5738  0.9044
 1694SOL    HW216545   2.053   2.642  15.514 -1.3907 -2.5267  1.5424
 1695SOL     OW16546   2.130   4.329   2.974  0.8048 -0.4433 -0.1383
 1695SOL    HW116547   2.049   4.349   2.927  0.3400 -2.3824 -0.1713
 1695SOL    HW216548   2.157   4.420   2.985 -1.4743  0.2464 -0.3429
 1696SOL     OW16549   0.072   0.022   7.933  0.1965  0.1974  0.9638
 1696SOL    HW116550   0.157   0.016   7.976 -0.2692  0.0519  1.8470
 1696SOL    HW216551   0.018   4.680   7.979  2.1462 -0.7037  1.9946
 1697SOL     OW16552   3.197   3.382   1.218 -0.3571  0.2391  0.0583
 1697SOL    HW116553   3.188   3.366   1.312 -0.9875  1.9216  0.2883
 1697SOL    HW216554   3.243   3.464   1.205 -0.8320  0.5437  0.2690
 1698SOL     OW16555   4.180   3.446   2.723 -0.1041  1.0688 -0.5956
 1698SOL    HW116556   4.179   3.536   2.689  1.4998  0.4910 -2.1339
 1698SOL    HW216557   4.270   3.420   2.705  0.2275  1.0879  1.0694
 1699SOL     OW16558   1.796   3.318  17.623  0.3354 -0.6359 -0.1967
 1699SOL    HW116559   1.858   3.266  17.573  0.9857  0.6372 -0.7075
 1699SOL    HW216560   1.733   3.336  17.553 -2.2041 -0.3556  2.1459
 1700SOL     OW16561   4.284   4.119   8.275  0.1509 -0.6548 -0.6199
 1700SOL    HW116562   4.362   4.100   8.326  0.2945  1.7035  0.0386
 1700SOL    HW216563   4.223   4.134   8.348  2.4459  3.0595  0.5535
 1701SOL     OW16564   0.395   3.631   6.329 -0.1876  0.3246 -0.6809
 1701SOL    HW116565   0.369   3.579   6.253 -1.4606  1.1599 -0.8197
 1701SOL    HW216566   0.323   3.692   6.341 -0.5378 -0.5678  1.7340
 1702SOL     OW16567   1.935   0.451  11.738 -0.8184 -0.1980  0.6912
 1702SOL    HW116568   1.864   0.474  11.678 -0.9025 -1.3748  0.3430
 1702SOL    HW216569   2.002   0.494  11.684 -1.6138 -0.5778 -0.5970
 1703SOL     OW16570   1.833   1.663   5.337  0.5270 -0.6539  0.5168
 1703SOL    HW116571   1.848   1.633   5.247 -0.4139 -0.4353  0.2826
 1703SOL    HW216572   1.821   1.756   5.319 -1.9117 -0.2819  4.0454
 1704SOL     OW16573   4.691   0.176   9.253 -0.1173  0.1547  0.1586
 1704SOL    HW116574   4.661   0.261   9.286 -1.0446 -0.2944  0.4503
 1704SOL    HW216575   4.612   0.123   9.248  0.2606 -0.4234  0.3137
 1705SOL     OW16576   2.372   4.238   8.995 -0.0139  0.0111 -0.5258
 1705SOL    HW116577   2.446   4.195   9.038  0.3311  0.8126 -0.3249
 1705SOL    HW216578   2.368   4.320   9.044  1.8628 -0.5211  0.4916
 1706SOL     OW16579   3.507   4.338  17.070  0.0339 -0.0610  0.3143
 1706SOL    HW116580   3.496   4.303  16.981  1.4248 -0.6695  0.3835
 1706SOL    HW216581   3.531   4.264  17.126  1.5344 -0.6080 -1.0500
 1707SOL     OW16582   3.780   0.124   1.731  0.0008  0.1037  0.3429
 1707SOL    HW116583   3.860   0.124   1.783  0.9477  1.0822 -1.0981
 1707SOL    HW216584   3.793   0.034   1.698 -0.2825 -0.5339  1.9881
 1708SOL     OW16585   3.490   2.270   2.289  0.3757  0.2613 -0.1293
 1708SOL    HW116586   3.544   2.217   2.348 -0.8859 -3.2081 -2.1293
 1708SOL    HW216587   3.548   2.345   2.269  1.9541 -1.5814 -2.4691
 1709SOL     OW16588   4.505   3.362   8.134 -0.0041 -0.3514 -0.2269
 1709SOL    HW116589   4.437   3.424   8.160  0.5098 -0.4452  1.2985
 1709SOL    HW216590   4.580   3.418   8.117  0.0182 -1.0560 -2.5302
 1710SOL     OW16591   2.393   3.487   5.285 -0.6437 -0.1798 -0.2707
 1710SOL    HW116592   2.302   3.509   5.303  0.3134  1.6741  2.1607
 1710SOL    HW216593   2.436   3.467   5.368 -0.8506 -0.3828 -0.2133
 1711SOL     OW16594   4.460   4.080  15.937 -0.2415 -0.0560 -0.1690
 1711SOL    HW116595   4.511   4.111  15.862 -0.1791  0.7921  0.2209
 1711SOL    HW216596   4.490   4.128  16.014 -0.3198 -1.8367  0.9582
 1712SOL     OW16597   2.979   2.154   4.882  0.2055  0.1259 -0.3956
 1712SOL    HW116598   2.988   2.235   4.831  0.2922  1.3835  1.6125
 1712SOL    HW216599   3.013   2.184   4.966 -1.2834 -0.0751  0.2651
 1713SOL     OW16600   1.935   4.070   5.122 -0.2225  0.4074 -0.5456
 1713SOL    HW116601   1.881   4.148   5.121 -0.7194  0.0644 -0.2991
 1713SOL    HW216602   1.971   4.081   5.210  0.0061 -0.4876 -0.5273
 1714SOL     OW16603   3.084   0.752   9.124  0.0516 -0.3568  0.7268
 1714SOL    HW116604   3.000   0.725   9.163 -2.1899  2.5842 -1.9943
 1714SOL    HW216605   3.141   0.684   9.159 -0.7408  0.2226  3.1749
 1715SOL     OW16606   0.009   0.919   4.239 -0.9323  0.4425  0.0560
 1715SOL    HW116607   4.653   0.913   4.294  1.1528 -0.0294  2.9074
 1715SOL    HW216608   0.014   1.013   4.218  0.3072  0.6758  1.4044
 1716SOL     OW16609   2.270   3.374   5.590 -0.4358  0.2602  0.6668
 1716SOL    HW116610   2.362   3.368   5.616 -0.7406 -0.3311  1.6027
 1716SOL    HW216611   2.230   3.331   5.665  2.4931 -1.6450  1.1654
 1717SOL     OW16612   4.712   1.047   1.528  0.4784 -0.5154  0.0801
 1717SOL    HW116613   4.709   1.122   1.588 -1.1378  0.1253 -0.8093
 1717SOL    HW216614   0.084   1.031   1.516  0.3913 -2.0702  1.3767
 1718SOL     OW16615   3.226   0.129   7.028 -0.0876  0.1800  0.1642
 1718SOL    HW116616   3.295   0.081   6.983 -0.5179 -0.6448  0.3873
 1718SOL    HW216617   3.169   0.125   6.951  0.0034  2.5361 -0.0489
 1719SOL     OW16618   0.009   0.335  11.523  0.2640  0.0912 -0.0011
 1719SOL    HW116619   0.027   0.428  11.532  1.1868  0.2963 -3.7380
 1719SOL    HW216620   4.643   0.339  11.485 -0.1792 -1.4844  0.8634
 1720SOL     OW16621   1.211   3.881   8.361  0.1236 -0.2855  0.3896
 1720SOL    HW116622   1.174   3.961   8.398  1.8120  0.1343  1.1717
 1720SOL    HW216623   1.300   3.912   8.378  0.2049 -0.1514 -0.2674
 1721SOL     OW16624   2.463   1.212   5.233  0.1968  0.3691  0.1007
 1721SOL    HW116625   2.463   1.168   5.318 -0.2010 -1.8469 -1.0667
 1721SOL    HW216626   2.425   1.293   5.268  1.2074  1.1552 -0.6466
 1722SOL     OW16627   4.479   4.144   4.740  0.3739  0.0830 -0.1040
 1722SOL    HW116628   4.512   4.159   4.829 -1.6747  0.6364  0.5536
 1722SOL    HW216629   4.457   4.052   4.753 -2.7924  0.5740 -2.0571
 1723SOL     OW16630   2.974   1.830   5.977  0.3765 -0.1198  0.0768
 1723SOL    HW116631   2.942   1.899   5.919  2.6590  1.4603  0.6915
 1723SOL    HW216632   2.963   1.876   6.060  1.2943 -0.5961  0.4623
 1724SOL     OW16633   1.031   0.024   2.902 -0.3459  0.3445 -0.0652
 1724SOL    HW116634   0.940   0.056   2.897  0.5295  2.9218  0.2639
 1724SOL    HW216635   1.070   0.068   2.826  1.6405  1.3449  1.5639
 1725SOL     OW16636   2.576   1.286   0.157  0.2553  0.2831  0.5193
 1725SOL    HW116637   2.574   1.234   0.076  0.3378  0.1109  0.6276
 1725SOL    HW216638   2.652   1.256   0.207  0.0076  0.8210  1.2084
 1726SOL     OW16639   2.349   2.833   8.405 -0.0536 -0.4305  0.2987
 1726SOL    HW116640   2.373   2.757   8.351 -1.4018  0.6326 -1.8245
 1726SOL    HW216641   2.267   2.803   8.444 -0.7634  0.3925 -0.5331
 1727SOL     OW16642   2.771   3.788  17.299 -0.2519  0.2873  0.7631
 1727SOL    HW116643   2.722   3.706  17.306 -0.2294  0.4649  2.9222
 1727SOL    HW216644   2.712   3.820  17.231  0.7707 -2.3873 -1.3931
 1728SOL     OW16645   2.728   1.100   3.783  0.2681 -0.0038 -0.6020
 1728SOL    HW116646   2.814   1.142   3.777  1.4421 -2.3062 -0.0494
 1728SOL    HW216647   2.746   1.008   3.805  0.5274  0.3220  0.5305
 1729SOL     OW16648   3.236   4.468  15.133  0.0438  0.1954 -0.0119
 1729SOL    HW116649   3.272   4.557  15.133  0.3968  0.0517  1.6651
 1729SOL    HW216650   3.194   4.461  15.219 -1.1465 -2.8892 -0.8322
 1730SOL     OW16651   3.958   2.262  12.557 -0.4039 -0.1323  0.3412
 1730SOL    HW116652   3.928   2.217  12.478  0.3732 -1.7355  0.9591
 1730SOL    HW216653   3.890   2.328  12.561 -2.2202 -1.9001 -1.4025
 1731SOL     OW16654   1.729   2.123   4.179  0.5494 -0.6285 -0.4340
 1731SOL    HW116655   1.788   2.190   4.215  2.3549 -1.8928 -1.0273
 1731SOL    HW216656   1.653   2.145   4.233  1.2195 -0.4483  0.4529
 1732SOL     OW16657   1.128   4.105   5.747 -0.1337 -0.2762 -0.6323
 1732SOL    HW116658   1.202   4.164   5.732 -0.3576 -0.1173 -1.1353
 1732SOL    HW216659   1.164   4.032   5.796 -0.8915  0.3747  0.8933
 1733SOL     OW16660   1.368   2.894   2.570  0.0047  0.4881  0.7023
 1733SOL    HW116661   1.306   2.898   2.643  1.9293  2.6840  2.2001
 1733SOL    HW216662   1.416   2.972   2.598  2.6482 -0.3716 -1.4636
 1734SOL     OW16663   0.433   1.665   6.777 -0.0059 -0.4434 -0.0627
 1734SOL    HW116664   0.475   1.704   6.854  0.1284 -0.1024 -0.3062
 1734SOL    HW216665   0.505   1.647   6.717  0.1341 -1.0133  0.2832
 1735SOL     OW16666   4.675   1.741  11.328  0.0996  0.0644  0.4213
 1735SOL    HW116667   0.036   1.750  11.374 -0.7014  1.1302  1.6398
 1735SOL    HW216668   4.689   1.671  11.264  1.0374 -0.3910  1.1240
 1736SOL     OW16669   3.572   2.152   3.958 -0.0332  0.1497  0.1500
 1736SOL    HW116670   3.530   2.124   4.040 -0.7379  1.2862  0.1826
 1736SOL    HW216671   3.662   2.125   3.973  0.7132  3.2039  1.1904
 1737SOL     OW16672   2.553   0.139   7.049  0.1314 -0.5719  0.4509
 1737SOL    HW116673   2.468   0.158   7.089  1.0629  0.9662  1.7028
 1737SOL    HW216674   2.554   0.043   7.050 -2.8263 -0.5911  1.3498
 1738SOL     OW16675   1.251   1.153   0.072 -0.1472 -0.1405 -0.4622
 1738SOL    HW116676   1.291   1.066   0.077  2.6487  1.2349  0.9465
 1738SOL    HW216677   1.269   1.172   0.164  0.7088 -0.5838 -0.5363
 1739SOL     OW16678   1.498   3.448   7.782  0.1181  0.0463 -0.4655
 1739SOL    HW116679   1.560   3.425   7.713 -1.1860 -2.8583 -0.6869
 1739SOL    HW216680   1.535   3.527   7.822  1.3199 -1.0471  0.5874
 1740SOL     OW16681   4.398   1.508   5.296 -0.1232 -0.0892  0.2841
 1740SOL    HW116682   4.377   1.424   5.255  1.2941 -2.0237  3.5193
 1740SOL    HW216683   4.473   1.540   5.247 -0.3123 -2.2206 -1.3772
 1741SOL     OW16684   1.526   0.525   2.352  0.1801 -0.4793 -0.0616
 1741SOL    HW116685   1.617   0.536   2.380 -0.0372  2.5559 -0.5608
 1741SOL    HW216686   1.495   0.445   2.394  1.0533 -1.2290 -0.8643
 1742SOL     OW16687   4.545   0.507   3.576  0.4653  0.3058 -0.0329
 1742SOL    HW116688   4.629   0.518   3.532  1.0637  0.7681  1.2244
 1742SOL    HW216689   4.558   0.421   3.616 -0.9586  0.0994 -0.0180
 1743SOL     OW16690   1.485   2.980   4.189 -0.0426 -0.0153 -0.0705
 1743SOL    HW116691   1.449   3.014   4.107 -0.2840  0.1985  0.1224
 1743SOL    HW216692   1.551   3.047   4.208  0.6722 -1.1952  1.5967
 1744SOL     OW16693   3.750   2.341   3.418  0.2690 -0.4072 -0.1451
 1744SOL    HW116694   3.789   2.257   3.394  1.8830  0.5299 -0.7937
 1744SOL    HW216695   3.830   2.383   3.446 -1.2899  2.3392  0.1955
 1745SOL     OW16696   3.036   0.336   8.183 -0.4133 -0.7576 -0.1631
 1745SOL    HW116697   3.035   0.364   8.092 -1.2930  2.0670  0.6956
 1745SOL    HW216698   2.944   0.355   8.205 -0.1740  0.0008  0.1815
 1746SOL     OW16699   1.728   4.619  14.686 -0.3880 -0.2668 -0.1138
 1746SOL    HW116700   1.800   4.578  14.733  0.2266 -0.0665 -0.8770
 1746SOL    HW216701   1.717   4.563  14.609  1.8334  0.0440 -0.6627
 1747SOL     OW16702   0.233   2.300   7.939 -0.0957  0.8777 -0.2239
 1747SOL    HW116703   0.325   2.319   7.924 -0.0783  1.1844  0.2885
 1747SOL    HW216704   0.191   2.375   7.897 -1.8410 -0.2883 -0.5995
 1748SOL     OW16705   0.499   2.153   5.618  0.1390 -0.3488  0.4619
 1748SOL    HW116706   0.463   2.095   5.685  3.3721 -0.2959  2.2682
 1748SOL    HW216707   0.536   2.228   5.665  0.8120 -0.5830  0.3086
 1749SOL     OW16708   1.071   0.740   8.655 -0.8612 -0.2251  0.3901
 1749SOL    HW116709   1.069   0.822   8.703 -0.1415 -0.9808  1.7017
 1749SOL    HW216710   1.001   0.763   8.593  1.5747 -0.3018 -2.4060
 1750SOL     OW16711   2.082   3.664   5.615 -0.0657 -0.1917  0.2248
 1750SOL    HW116712   2.098   3.595   5.550  2.5413 -0.5559  1.2729
 1750SOL    HW216713   2.056   3.731   5.550 -1.0817 -1.8639 -1.1040
 1751SOL     OW16714   3.580   1.249   8.951 -0.4173  0.1425  0.0318
 1751SOL    HW116715   3.671   1.249   8.923  0.8236  1.6357  4.0123
 1751SOL    HW216716   3.579   1.224   9.044 -0.8366  0.0647  0.0085
 1752SOL     OW16717   2.706   1.837   2.233  0.1380  0.1073  0.3916
 1752SOL    HW116718   2.799   1.844   2.256  0.2072  1.6120 -0.3857
 1752SOL    HW216719   2.673   1.798   2.314  0.7524 -1.6996 -0.2325
 1753SOL     OW16720   1.283   3.767   5.019 -0.4841 -0.1954 -0.1246
 1753SOL    HW116721   1.230   3.706   5.071 -3.0430  2.2368  0.1130
 1753SOL    HW216722   1.336   3.712   4.961 -1.6203 -1.1796 -0.2347
 1754SOL     OW16723   4.057   4.709  13.701  0.4322  0.0428  0.4030
 1754SOL    HW116724   4.124   4.672  13.643  1.8785 -0.4019  2.3407
 1754SOL    HW216725   4.032   0.067  13.657  0.2031  0.8125  1.9376
 1755SOL     OW16726   1.561   1.753   3.904 -0.8697  0.0307 -0.1391
 1755SOL    HW116727   1.619   1.784   3.973  0.5562  2.6620 -2.5404
 1755SOL    HW216728   1.550   1.664   3.937 -0.4644 -0.4476 -1.3258
 1756SOL     OW16729   1.922   1.487   5.079  0.6872  0.0287 -0.1988
 1756SOL    HW116730   1.847   1.537   5.046  0.5602  0.3033  0.5118
 1756SOL    HW216731   1.997   1.524   5.032  0.8863 -1.0410 -0.7468
 1757SOL     OW16732   0.141   1.370  16.243  0.4163 -0.8134 -0.0692
 1757SOL    HW116733   0.171   1.279  16.245  1.6963 -0.3562  1.8232
 1757SOL    HW216734   0.060   1.363  16.294  0.0764 -2.4659 -0.8423
 1758SOL     OW16735   3.690   1.729   2.967  0.1136 -0.1740  0.8085
 1758SOL    HW116736   3.775   1.765   2.992 -0.0812  1.4235 -0.7807
 1758SOL    HW216737   3.681   1.761   2.877 -0.0992 -0.0844  0.8614
 1759SOL     OW16738   3.015   3.510  10.508 -0.1058 -0.2701  0.0629
 1759SOL    HW116739   2.965   3.479  10.432  2.1688 -4.9150  0.4657
 1759SOL    HW216740   3.030   3.430  10.558 -0.7512 -1.3224 -1.4043
 1760SOL     OW16741   2.220   3.036   9.169 -0.0002 -0.0023  0.0281
 1760SOL    HW116742   2.188   2.951   9.139  0.7908  0.0013 -0.8321
 1760SOL    HW216743   2.147   3.076   9.215 -1.6571 -0.9644 -1.7620
 1761SOL     OW16744   2.433   0.056   0.237 -0.5416 -0.2505 -0.1481
 1761SOL    HW116745   2.495   4.711   0.267 -3.6260 -2.7478  0.5701
 1761SOL    HW216746   2.494   0.091   0.172 -1.7018 -0.6206 -1.4393
 1762SOL     OW16747   2.135   1.409   1.520  0.2822 -0.1577  0.0737
 1762SOL    HW116748   2.183   1.363   1.588 -2.2982 -1.6008  0.9066
 1762SOL    HW216749   2.161   1.497   1.548 -1.4658  0.9118 -1.6349
 1763SOL     OW16750   2.828   2.558   7.733 -0.6341  0.0806  0.4017
 1763SOL    HW116751   2.765   2.544   7.662 -0.3963 -0.9371  0.4034
 1763SOL    HW216752   2.880   2.479   7.725 -0.8115 -0.0168  0.2106
 1764SOL     OW16753   3.446   1.256   7.499  0.1088 -0.1561  0.1314
 1764SOL    HW116754   3.386   1.284   7.568 -0.4813  0.7704 -0.7583
 1764SOL    HW216755   3.426   1.313   7.425  0.1219 -1.6080 -0.9980
 1765SOL     OW16756   4.046   0.994   2.192  0.1861  0.4601 -0.2348
 1765SOL    HW116757   3.987   0.983   2.267 -0.3815  0.3563 -0.7017
 1765SOL    HW216758   4.126   0.951   2.223  0.0784  0.2656 -0.2284
 1766SOL     OW16759   1.922   1.437   4.758  0.4689 -0.0719  0.1719
 1766SOL    HW116760   1.871   1.470   4.684  0.1399 -2.5555 -0.7135
 1766SOL    HW216761   1.981   1.513   4.760  0.2638  0.0876  0.1497
 1767SOL     OW16762   4.107   4.556   8.999 -0.5216  0.0613 -0.3950
 1767SOL    HW116763   4.043   4.593   8.938 -0.3723  2.6594  1.0203
 1767SOL    HW216764   4.141   4.628   9.053  1.6906 -0.9206 -0.5213
 1768SOL     OW16765   4.661   3.276   7.338 -0.3728 -0.1776  0.1885
 1768SOL    HW116766   4.577   3.320   7.330 -0.2979 -0.5910 -2.7616
 1768SOL    HW216767   4.713   3.356   7.334  0.9989 -1.1964 -2.1155
 1769SOL     OW16768   4.351   1.820   3.013 -0.0722  0.0532  0.0411
 1769SOL    HW116769   4.363   1.820   2.918  1.5981 -0.1884  0.2544
 1769SOL    HW216770   4.304   1.737   3.024 -1.1766  0.6866  0.1848
 1770SOL     OW16771   1.506   1.806  16.593 -0.0366  0.5419  0.3885
 1770SOL    HW116772   1.470   1.855  16.520 -0.4436 -1.5854 -0.8405
 1770SOL    HW216773   1.430   1.810  16.651 -1.0290  1.1677 -0.9598
 1771SOL     OW16774   2.057   0.679   2.338  0.0403 -0.2516  0.6462
 1771SOL    HW116775   2.055   0.769   2.305 -0.0654 -0.8240 -0.9234
 1771SOL    HW216776   2.083   0.624   2.264  0.0946  2.3309 -1.2591
 1772SOL     OW16777   1.478   1.507   3.123 -0.2890  0.3665  0.4822
 1772SOL    HW116778   1.470   1.452   3.046  1.5146  0.3871  0.2831
 1772SOL    HW216779   1.482   1.444   3.195  1.0645 -1.6907 -1.4053
 1773SOL     OW16780   1.934   1.727  16.629 -0.5263 -0.6951 -0.9514
 1773SOL    HW116781   1.910   1.781  16.704 -0.4711 -1.5370 -0.3370
 1773SOL    HW216782   1.848   1.691  16.608 -1.4227  1.4972 -1.0933
 1774SOL     OW16783   3.906   2.908   2.980 -0.1470 -0.2412 -0.2396
 1774SOL    HW116784   3.845   2.874   3.046 -0.1138 -0.2773 -0.2273
 1774SOL    HW216785   3.922   2.839   2.916  1.6911 -1.6690  1.7725
 1775SOL     OW16786   3.301   3.765   9.699  0.5017 -0.2100  0.6454
 1775SOL    HW116787   3.308   3.693   9.636 -0.4308  0.7703 -0.5596
 1775SOL    HW216788   3.234   3.732   9.759 -0.3346  1.4830  0.6373
 1776SOL     OW16789   0.439   1.776  10.783 -0.3267 -0.4171  0.1935
 1776SOL    HW116790   0.352   1.767  10.822 -0.6471  0.0010 -0.4417
 1776SOL    HW216791   0.484   1.813  10.859 -0.1627  0.4930 -0.3457
 1777SOL     OW16792   0.236   3.874   4.506 -0.0431  0.6648  0.1781
 1777SOL    HW116793   0.158   3.841   4.551  0.7074 -0.7025  0.4630
 1777SOL    HW216794   0.256   3.794   4.457 -0.2995  1.0261 -0.5209
 1778SOL     OW16795   4.646   0.192   6.777 -0.0796 -0.0595  0.0142
 1778SOL    HW116796   4.652   0.127   6.847 -2.3231 -1.4523 -1.0823
 1778SOL    HW216797   4.695   0.266   6.814 -2.5713  1.6459 -0.0727
 1779SOL     OW16798   2.147   0.512  15.744  0.5986 -0.2253  0.3194
 1779SOL    HW116799   2.109   0.538  15.660  0.3204  0.9867  0.8201
 1779SOL    HW216800   2.237   0.514  15.713  1.5064  1.5566  3.0114
 1780SOL     OW16801   0.224   2.293   8.526 -0.0918  0.1250 -0.1680
 1780SOL    HW116802   0.253   2.373   8.484  0.0859 -0.0517 -0.3840
 1780SOL    HW216803   0.145   2.336   8.559 -0.6572  0.6598 -2.2597
 1781SOL     OW16804   1.781   0.002   6.476  0.3253 -0.0412  0.4102
 1781SOL    HW116805   1.818   4.646   6.435 -0.0583  0.6866 -1.3156
 1781SOL    HW216806   1.782   0.062   6.402 -1.7752  1.2045  1.4178
 1782SOL     OW16807   0.571   4.519  15.639  0.0515  0.3041 -0.3073
 1782SOL    HW116808   0.516   4.443  15.620  0.5641 -0.6164  1.8745
 1782SOL    HW216809   0.504   4.569  15.685  1.1028  1.1966  0.2365
 1783SOL     OW16810   0.988   0.344   9.821 -0.1413 -0.4462  0.1566
 1783SOL    HW116811   0.893   0.342   9.814 -0.1852  1.3751  0.2351
 1783SOL    HW216812   1.001   0.417   9.882 -0.5550 -0.6100  0.4328
 1784SOL     OW16813   2.633   0.828   1.158  0.2917  0.1791 -0.4343
 1784SOL    HW116814   2.550   0.847   1.114 -2.0068 -1.3881  3.2041
 1784SOL    HW216815   2.623   0.735   1.178 -2.1127  1.1312  2.6982
 1785SOL     OW16816   2.175   2.698  13.314 -0.5173  0.2537  0.2412
 1785SOL    HW116817   2.106   2.633  13.300  0.3737 -0.7068  0.2979
 1785SOL    HW216818   2.244   2.653  13.266  0.2188  2.5129 -0.8375
 1786SOL     OW16819   3.180   3.672   4.613  0.5587  0.3784  0.1127
 1786SOL    HW116820   3.208   3.619   4.538  0.6917  1.3077 -0.4914
 1786SOL    HW216821   3.242   3.650   4.682 -0.8804  0.7067  1.5297
 1787SOL     OW16822   1.074   0.738   6.533  0.1836 -0.2799  0.5431
 1787SOL    HW116823   1.014   0.722   6.606  0.0771  1.8801  0.9158
 1787SOL    HW216824   1.027   0.701   6.457  0.0861 -0.2986  0.6122
 1788SOL     OW16825   1.978   2.551  17.321  0.0078  0.1796 -0.4870
 1788SOL    HW116826   2.038   2.477  17.328  1.5065  1.3900 -0.5638
 1788SOL    HW216827   1.984   2.563  17.227  0.1563  1.5246 -0.3075
 1789SOL     OW16828   4.138   3.001   4.193  0.2601  0.0615 -0.1525
 1789SOL    HW116829   4.149   3.096   4.193  0.0626  0.0766 -1.2791
 1789SOL    HW216830   4.221   2.979   4.235 -0.0627 -0.1598  0.3821
 1790SOL     OW16831   4.010   2.137   7.233 -0.0170  0.6466  0.0382
 1790SOL    HW116832   3.946   2.196   7.272  0.7894  0.4901  1.6109
 1790SOL    HW216833   3.955   2.071   7.191  0.6489 -0.1540  0.4249
 1791SOL     OW16834   2.367   0.913  10.115  0.3320 -0.2481 -1.1137
 1791SOL    HW116835   2.354   0.990  10.170 -0.1756 -0.6991 -0.6024
 1791SOL    HW216836   2.423   0.857  10.169  1.2751  2.5511  0.7923
 1792SOL     OW16837   1.552   1.790   7.608  0.4785 -0.0511  0.5833
 1792SOL    HW116838   1.530   1.847   7.534  0.4869 -2.7889 -1.5236
 1792SOL    HW216839   1.647   1.799   7.598  0.6936 -2.9437  0.0393
 1793SOL     OW16840   4.074   1.736   0.904  0.0194 -0.2078 -0.3587
 1793SOL    HW116841   4.115   1.733   0.991  2.2243  0.4164 -1.3561
 1793SOL    HW216842   3.999   1.678   0.916 -0.2130  0.0881 -0.3750
 1794SOL     OW16843   4.390   4.321  16.881  0.0062 -0.3862 -0.9306
 1794SOL    HW116844   4.385   4.416  16.891 -2.5016 -0.6961  0.6490
 1794SOL    HW216845   4.399   4.313  16.786 -1.7425 -2.0914 -0.9374
 1795SOL     OW16846   3.142   4.083   2.798  0.6466 -0.4684  0.0688
 1795SOL    HW116847   3.202   4.011   2.813  0.7013 -0.1768  1.2399
 1795SOL    HW216848   3.128   4.081   2.703 -1.4302 -0.9609  0.3781
 1796SOL     OW16849   2.576   2.242  11.621 -0.0461  0.5557  0.3385
 1796SOL    HW116850   2.509   2.310  11.633 -1.6079 -1.0718  0.9977
 1796SOL    HW216851   2.644   2.286  11.572 -1.1219  1.6980 -0.1328
 1797SOL     OW16852   1.584   3.094   7.167 -0.2141 -0.7661 -0.9847
 1797SOL    HW116853   1.524   3.091   7.091 -2.8639  1.2382  1.0109
 1797SOL    HW216854   1.574   3.183   7.200 -0.5291 -0.6491 -1.3913
 1798SOL     OW16855   4.331   1.493  11.191 -0.0216  0.7544 -0.0357
 1798SOL    HW116856   4.364   1.404  11.177  0.7965  1.0581 -0.0746
 1798SOL    HW216857   4.414   1.540  11.203  1.5027 -1.6080 -1.3222
 1799SOL     OW16858   2.806   4.404   8.357  0.1476 -0.4431 -0.1124
 1799SOL    HW116859   2.890   4.393   8.313  0.3522 -0.5118  0.2907
 1799SOL    HW216860   2.797   4.499   8.352  0.1615 -0.6227 -3.4822
 1800SOL     OW16861   2.700   4.405  15.450 -0.5544 -0.2643 -0.0249
 1800SOL    HW116862   2.768   4.471  15.435  0.9693 -1.9491 -0.5439
 1800SOL    HW216863   2.628   4.455  15.488 -0.9898 -0.8180 -0.1302
 1801SOL     OW16864   1.319   1.258   8.345  0.1299  0.6481 -0.3155
 1801SOL    HW116865   1.371   1.248   8.425 -0.3902 -0.7936 -0.1668
 1801SOL    HW216866   1.265   1.332   8.369 -0.8285  0.0699 -0.6984
 1802SOL     OW16867   1.792   1.990   0.188 -0.5393 -0.0011 -0.3879
 1802SOL    HW116868   1.747   1.906   0.188 -2.4092  0.9881  2.8496
 1802SOL    HW216869   1.883   1.969   0.207 -0.9452 -1.8326 -0.4728
 1803SOL     OW16870   2.783   0.544  17.625 -0.2383 -1.1208  0.3002
 1803SOL    HW116871   2.836   0.508  17.554 -0.2765  0.9105 -0.7372
 1803SOL    HW216872   2.742   0.466  17.663 -0.5508 -0.8940  0.4294
 1804SOL     OW16873   4.208   2.298   1.086 -0.6475  0.2719 -0.5875
 1804SOL    HW116874   4.203   2.356   1.010  0.7525  1.4785  0.2542
 1804SOL    HW216875   4.120   2.322   1.113  1.1190  4.0249  1.8225
 1805SOL     OW16876   0.232   3.496  10.673 -0.7177 -0.0621  0.5229
 1805SOL    HW116877   0.298   3.428  10.664 -0.3945  0.2812  0.2978
 1805SOL    HW216878   0.188   3.496  10.588 -0.8180  0.4558  0.5742
 1806SOL     OW16879   4.231   2.452   2.823 -0.1221  0.3012  0.3682
 1806SOL    HW116880   4.276   2.536   2.822 -1.7241  1.1284 -2.8965
 1806SOL    HW216881   4.199   2.446   2.733 -0.3005 -2.2972  0.5900
 1807SOL     OW16882   2.438   4.386   2.354 -0.4278  0.7423 -0.3119
 1807SOL    HW116883   2.533   4.385   2.347 -0.3399 -0.4846  1.0892
 1807SOL    HW216884   2.421   4.349   2.267  2.2991  1.8517 -1.3016
 1808SOL     OW16885   2.181   4.350   5.310  0.5187  0.4244 -0.3858
 1808SOL    HW116886   2.152   4.432   5.271  1.1327  1.3088  1.0413
 1808SOL    HW216887   2.240   4.312   5.244  0.6445  0.3269 -0.2154
 1809SOL     OW16888   3.835   4.718  15.021  0.0313  0.0679  0.2472
 1809SOL    HW116889   3.865   0.086  15.018 -1.2465  0.5663  2.1610
 1809SOL    HW216890   3.763   0.009  15.083 -0.9536  2.0097 -1.3098
 1810SOL     OW16891   3.019   2.943   9.517 -0.1413  0.2911  0.1744
 1810SOL    HW116892   2.989   3.032   9.539  0.9040  0.4075  1.0783
 1810SOL    HW216893   3.038   2.907   9.603 -1.4391  2.7398  1.4945
 1811SOL     OW16894   0.285   3.714   8.615  0.1914  0.3798  0.3291
 1811SOL    HW116895   0.291   3.633   8.666  0.9646 -0.1896 -0.6547
 1811SOL    HW216896   0.219   3.762   8.664  0.6251  0.2054  1.0866
 1812SOL     OW16897   0.336   1.799   7.795 -0.1995  0.7453  0.2944
 1812SOL    HW116898   0.271   1.837   7.854 -2.5786 -1.8771 -0.6341
 1812SOL    HW216899   0.422   1.828   7.824  0.7650 -1.2514 -0.5852
 1813SOL     OW16900   3.832   4.669   5.521 -0.2529  0.0145  0.3815
 1813SOL    HW116901   3.766   4.708   5.577 -2.9248 -1.0453 -2.0534
 1813SOL    HW216902   3.911   4.701   5.565 -0.1461  1.5021 -0.8841
 1814SOL     OW16903   3.790   1.127   0.896  0.4552 -0.2858 -0.6809
 1814SOL    HW116904   3.728   1.180   0.946 -0.7941  1.0033 -3.5360
 1814SOL    HW216905   3.859   1.187   0.868  0.1068  0.0000 -0.9267
 1815SOL     OW16906   2.977   4.143   5.171 -0.6063  0.2977  0.0546
 1815SOL    HW116907   3.053   4.198   5.190  0.4783 -0.4796 -2.0844
 1815SOL    HW216908   2.999   4.086   5.098 -1.0946 -1.5461  1.3426
 1816SOL     OW16909   0.475   3.545   4.091  0.2830 -0.3133 -0.2167
 1816SOL    HW116910   0.530   3.522   4.016  2.6913  2.6000  0.6528
 1816SOL    HW216911   0.537   3.599   4.140  0.8467 -2.0872  1.0161
 1817SOL     OW16912   2.032   1.981   2.231 -0.2350  0.0070  0.3908
 1817SOL    HW116913   1.946   2.011   2.203  0.8241  0.2880 -2.6168
 1817SOL    HW216914   2.052   1.918   2.162  0.9693 -1.7161  2.2982
 1818SOL     OW16915   0.451   0.941   8.644  0.4466  0.0446 -0.6574
 1818SOL    HW116916   0.389   0.872   8.621  0.2595  0.2175 -0.6739
 1818SOL    HW216917   0.532   0.900   8.612  0.5946 -0.9712  1.0439
 1819SOL     OW16918   3.639   2.246   5.436  0.1875  0.5192  0.0580
 1819SOL    HW116919   3.643   2.161   5.392  0.1028  0.2851  0.4953
 1819SOL    HW216920   3.546   2.266   5.426 -0.2293 -2.0750 -1.1082
 1820SOL     OW16921   3.850   1.988  10.550 -0.2525 -0.0864  0.0537
 1820SOL    HW116922   3.824   1.909  10.503 -1.5490 -0.5574  1.5531
 1820SOL    HW216923   3.773   2.000  10.605 -1.5190 -2.3013 -1.2331
 1821SOL     OW16924   0.748   0.286   3.720  0.2465 -0.2390  0.7784
 1821SOL    HW116925   0.751   0.375   3.753  3.2326  0.3674 -1.0873
 1821SOL    HW216926   0.842   0.270   3.711 -0.2204 -2.2427 -0.5504
 1822SOL     OW16927   4.319   0.715   2.475  0.4402 -0.7078 -0.0148
 1822SOL    HW116928   4.345   0.646   2.414 -1.4196  0.2989 -1.9467
 1822SOL    HW216929   4.334   0.791   2.418 -1.2072 -1.0361 -0.8957
 1823SOL     OW16930   0.774   4.315   9.291  0.0181 -0.2080 -0.2635
 1823SOL    HW116931   0.700   4.355   9.335  2.1648  0.8527  2.3854
 1823SOL    HW216932   0.804   4.394   9.247  0.5947 -0.0543  0.4134
 1824SOL     OW16933   1.097   4.365  11.916 -0.3261 -0.1657  0.1352
 1824SOL    HW116934   1.014   4.317  11.912 -0.2371 -0.1152 -2.1812
 1824SOL    HW216935   1.059   4.448  11.944  0.6579  0.3328 -0.0150
 1825SOL     OW16936   0.207   1.657   2.643 -0.4132  0.2626 -0.2517
 1825SOL    HW116937   0.302   1.655   2.635 -0.1268  0.6062  3.0975
 1825SOL    HW216938   0.183   1.565   2.638 -0.5932  0.2790  0.3323
 1826SOL     OW16939   4.049   3.034  14.526 -0.1978 -0.6634  0.2400
 1826SOL    HW116940   4.005   3.104  14.477  0.4558 -2.5013 -3.0292
 1826SOL    HW216941   4.070   3.078  14.608 -1.2333 -0.1011  0.2160
 1827SOL     OW16942   0.220   1.301   5.217  0.1658 -0.0334 -0.5716
 1827SOL    HW116943   0.146   1.262   5.171 -1.1158  2.2327 -0.4480
 1827SOL    HW216944   0.217   1.390   5.181  1.2142 -0.6232 -2.0857
 1828SOL     OW16945   3.130   1.846  11.590 -0.0465 -0.6881  0.0133
 1828SOL    HW116946   3.185   1.769  11.573  2.4286  1.9745 -3.7835
 1828SOL    HW216947   3.043   1.808  11.604  0.7886 -2.3380  0.8495
 1829SOL     OW16948   4.225   2.002   0.951  0.2163 -0.8880  0.8548
 1829SOL    HW116949   4.224   1.949   1.030  0.2046 -0.2781  1.2693
 1829SOL    HW216950   4.228   2.091   0.988  0.2906 -0.3958 -0.3309
 1830SOL     OW16951   0.490   4.641   4.193 -0.5710  0.4516  0.0777
 1830SOL    HW116952   0.579   4.656   4.226  0.0223  0.9392 -1.7463
 1830SOL    HW216953   0.471   4.556   4.231 -0.8714  1.6527  2.6363
 1831SOL     OW16954   4.676   3.221   8.330 -0.6318  0.3924  0.8355
 1831SOL    HW116955   4.631   3.254   8.252 -1.9712  1.9460  2.2701
 1831SOL    HW216956   4.591   3.207   8.372 -0.8855  1.6387  0.7210
 1832SOL     OW16957   4.436   4.381   1.260 -0.4135  0.4939  0.1270
 1832SOL    HW116958   4.376   4.453   1.241  0.9262  1.0730 -1.9874
 1832SOL    HW216959   4.503   4.412   1.199 -1.0492 -0.1228 -0.8865
 1833SOL     OW16960   0.294   4.563   4.834  0.2255  0.4711  0.2724
 1833SOL    HW116961   0.379   4.592   4.867  1.6859  0.2535 -3.3506
 1833SOL    HW216962   0.244   4.611   4.900  1.8690  1.5975  0.7110
 1834SOL     OW16963   3.758   0.235   3.443 -0.1971  0.3517 -0.4828
 1834SOL    HW116964   3.847   0.199   3.437 -0.1139  0.6550 -1.1113
 1834SOL    HW216965   3.786   0.313   3.492  3.1431 -0.7724 -0.5772
 1835SOL     OW16966   0.289   2.490   1.700  0.2759  0.5251 -0.0458
 1835SOL    HW116967   0.319   2.475   1.610 -0.2848  1.8517 -0.4613
 1835SOL    HW216968   0.239   2.410   1.714 -2.1157  1.7948 -1.2559
 1836SOL     OW16969   4.287   4.654   6.277  0.4621 -0.2381 -0.0664
 1836SOL    HW116970   4.365   4.677   6.328 -0.3274  0.9757  0.5946
 1836SOL    HW216971   4.275   0.018   6.236 -1.7698 -0.6253 -0.2116
 1837SOL     OW16972   1.808   0.505  13.370  0.4212 -0.4044  0.0453
 1837SOL    HW116973   1.835   0.546  13.453 -0.1454  0.3926 -0.1605
 1837SOL    HW216974   1.820   0.583  13.316  0.1675 -1.1470 -1.0647
 1838SOL     OW16975   3.917   2.048  10.893  0.0445  0.2926  0.6070
 1838SOL    HW116976   3.986   2.033  10.828 -0.0393 -0.9830  0.8100
 1838SOL    HW216977   3.861   2.108  10.844 -1.7595 -0.7637  1.3770
 1839SOL     OW16978   2.735   2.617  11.609  0.0947  0.2970 -0.2779
 1839SOL    HW116979   2.694   2.588  11.691  0.5172  0.3593 -0.0409
 1839SOL    HW216980   2.752   2.535  11.563  1.7962  0.5542 -0.1111
 1840SOL     OW16981   1.923   0.085   6.684 -0.0201 -0.7334  0.2820
 1840SOL    HW116982   1.869   0.097   6.762 -0.2196 -0.3297  0.0801
 1840SOL    HW216983   1.867   0.046   6.617  0.9721  0.6090 -1.3174
 1841SOL     OW16984   1.547   4.513  16.647 -0.1343 -0.0793  0.1865
 1841SOL    HW116985   1.574   4.603  16.625 -0.7998  0.1395  0.2549
 1841SOL    HW216986   1.594   4.477  16.572  0.6788  0.6511  0.3385
 1842SOL     OW16987   2.838   4.097   6.496 -0.0394  0.1985 -0.1872
 1842SOL    HW116988   2.919   4.077   6.449 -0.8731 -2.2626 -0.5483
 1842SOL    HW216989   2.837   4.193   6.486 -0.1840  0.3163  0.9375
 1843SOL     OW16990   3.994   1.508  14.369  0.3062 -0.1481  0.6183
 1843SOL    HW116991   3.953   1.574  14.314 -0.5852 -1.6873 -0.5774
 1843SOL    HW216992   4.044   1.566  14.427  1.4865 -1.5313  0.9837
 1844SOL     OW16993   0.547   1.749   8.608  0.5422  0.1901  0.7008
 1844SOL    HW116994   0.525   1.820   8.669 -1.3134 -1.3044  1.7483
 1844SOL    HW216995   0.618   1.797   8.565  0.7251 -0.1380  0.6391
 1845SOL     OW16996   1.404   0.602   1.587 -0.3470 -0.1143  0.0719
 1845SOL    HW116997   1.456   0.672   1.625 -0.5042  1.7037 -3.1118
 1845SOL    HW216998   1.317   0.620   1.624 -0.8351  0.0383 -1.1440
 1846SOL     OW16999   4.306   4.300   3.989  0.3656  0.0806  0.1790
 1846SOL    HW117000   4.257   4.270   3.912 -3.0786  2.5452  1.4324
 1846SOL    HW217001   4.246   4.362   4.031 -0.1179 -0.9223  0.9894
 1847SOL     OW17002   4.412   3.918   3.769 -0.4719 -0.2017 -0.6023
 1847SOL    HW117003   4.457   3.997   3.739 -0.2773  0.6434  1.9735
 1847SOL    HW217004   4.372   3.952   3.849 -2.6504 -1.6563 -1.0666
 1848SOL     OW17005   0.766   3.483   5.173 -0.1071 -0.6262 -0.8426
 1848SOL    HW117006   0.817   3.543   5.119 -0.4159  1.6501  1.4335
 1848SOL    HW217007   0.715   3.441   5.103  1.4963 -2.1446 -1.0983
 1849SOL     OW17008   1.789   4.501   3.125 -0.0889  0.0402 -0.1389
 1849SOL    HW117009   1.776   4.464   3.213 -1.0523 -0.1207 -0.3470
 1849SOL    HW217010   1.866   4.555   3.140  0.8844 -0.3370 -3.7790
 1850SOL     OW17011   2.191   1.381   9.446  0.0957 -0.0392 -0.8278
 1850SOL    HW117012   2.135   1.457   9.461  0.2677 -0.7097  3.1873
 1850SOL    HW217013   2.150   1.318   9.505  2.5434 -0.9353 -0.0817
 1851SOL     OW17014   0.847   4.217   5.450  0.3239 -0.0814  0.3284
 1851SOL    HW117015   0.764   4.229   5.495  1.0315 -0.2771  1.6979
 1851SOL    HW217016   0.830   4.269   5.372 -0.5603 -0.0331  0.5570
 1852SOL     OW17017   3.653   4.065  11.702 -0.3344  0.1917 -0.2509
 1852SOL    HW117018   3.561   4.065  11.728  0.2697  0.7819  1.8286
 1852SOL    HW217019   3.672   3.984  11.654 -0.2601 -0.1588  0.3717
 1853SOL     OW17020   0.742   1.632   6.330  0.2101  0.2540  0.5789
 1853SOL    HW117021   0.687   1.710   6.325 -1.8627 -1.1842  1.0172
 1853SOL    HW217022   0.742   1.605   6.238  1.4468  1.0217  0.3499
 1854SOL     OW17023   1.847   1.087  11.643 -0.8309  0.8193  1.1031
 1854SOL    HW117024   1.914   1.039  11.692 -0.1115  0.3193 -0.3536
 1854SOL    HW217025   1.878   1.172  11.674 -0.4415  0.9636  0.3101
 1855SOL     OW17026   2.379   2.369   5.047  0.5848  0.2044  0.5111
 1855SOL    HW117027   2.434   2.308   5.096  0.2730  1.1073  1.9690
 1855SOL    HW217028   2.389   2.452   5.094 -2.2290  1.1685 -0.6167
 1856SOL     OW17029   1.477   1.793   4.225  0.5064  0.2219  0.1637
 1856SOL    HW117030   1.472   1.720   4.162 -2.7138 -0.0316  0.6838
 1856SOL    HW217031   1.402   1.780   4.284 -0.1639 -0.0078 -0.7291
 1857SOL     OW17032   1.967   2.655   1.348 -0.0205  0.1258  0.5084
 1857SOL    HW117033   1.930   2.648   1.260  2.6421 -0.7778 -0.5467
 1857SOL    HW217034   2.031   2.722   1.327 -2.6211  2.1756 -0.8486
 1858SOL     OW17035   2.819   0.737   8.516  0.1034  0.0135 -0.1416
 1858SOL    HW117036   2.843   0.690   8.596 -1.7407  0.6934  0.8029
 1858SOL    HW217037   2.817   0.824   8.556  0.8783  0.0849 -0.2484
 1859SOL     OW17038   3.724   3.532   3.400  0.1580  0.6169 -0.8652
 1859SOL    HW117039   3.811   3.563   3.377  0.7766 -0.3300  0.2167
 1859SOL    HW217040   3.703   3.492   3.315  0.9170  0.4602 -0.9816
 1860SOL     OW17041   0.558   1.695   2.911 -0.0031 -0.8038  0.6976
 1860SOL    HW117042   0.630   1.643   2.946  0.6668  0.0733  0.6184
 1860SOL    HW217043   0.555   1.667   2.820  0.5209 -1.1968  0.8041
 1861SOL     OW17044   3.213   1.590   8.562 -0.0490 -0.8873  0.2784
 1861SOL    HW117045   3.151   1.603   8.634 -0.8002 -1.4538 -0.2577
 1861SOL    HW217046   3.270   1.514   8.575  2.0848  0.2715 -2.3331
 1862SOL     OW17047   1.090   4.562   5.978 -0.5148  0.0288  0.3593
 1862SOL    HW117048   1.014   4.514   5.945 -0.5339 -0.7381  1.5507
 1862SOL    HW217049   1.138   4.595   5.901  1.5943  0.3701  1.8302
 1863SOL     OW17050   0.201   3.678   6.999 -0.3588 -0.1585 -0.4869
 1863SOL    HW117051   0.108   3.674   7.021 -0.4430  2.4214 -0.3141
 1863SOL    HW217052   0.205   3.589   6.966 -0.9488  0.7105 -2.8977
 1864SOL     OW17053   4.616   1.492  14.417  0.1344 -0.2610  0.6782
 1864SOL    HW117054   4.658   1.430  14.357  0.9458  0.5610  0.4011
 1864SOL    HW217055   4.523   1.471  14.404  0.0585  0.5185 -0.0131
 1865SOL     OW17056   3.948   3.670  11.408  0.2773 -0.3883 -0.0064
 1865SOL    HW117057   3.974   3.718  11.487  0.7993 -0.6264 -0.0358
 1865SOL    HW217058   3.963   3.581  11.438 -0.9982 -0.4111  0.5671
 1866SOL     OW17059   2.314   0.087   9.078  0.2871  0.3261  0.2087
 1866SOL    HW117060   2.356   0.168   9.108  0.2992  0.8297 -1.1940
 1866SOL    HW217061   2.253   0.122   9.014  0.2187 -0.1411  0.0148
 1867SOL     OW17062   0.657   3.370   8.808 -0.5986 -0.3720 -0.0880
 1867SOL    HW117063   0.588   3.357   8.872  0.4967 -2.5323  0.6480
 1867SOL    HW217064   0.708   3.438   8.853  0.0911 -2.4936  2.3258
 1868SOL     OW17065   3.646   4.335   1.516 -0.0120 -0.0975  0.5359
 1868SOL    HW117066   3.580   4.268   1.530  1.3218 -0.8794  3.0676
 1868SOL    HW217067   3.640   4.350   1.421  0.1245  0.1356  0.5627
 1869SOL     OW17068   0.806   2.439   5.329 -0.0528  0.0090  0.5740
 1869SOL    HW117069   0.770   2.453   5.417 -0.2869 -1.0821  0.6523
 1869SOL    HW217070   0.890   2.398   5.347  1.4011  1.7628 -2.2769
 1870SOL     OW17071   1.745   0.872   2.143 -0.8468 -0.5349  0.4486
 1870SOL    HW117072   1.731   0.964   2.164  0.4680  0.0636 -1.3772
 1870SOL    HW217073   1.777   0.833   2.225  1.6402 -0.3991 -0.4528
 1871SOL     OW17074   2.428   1.963   4.504  0.1453 -0.0396 -0.2051
 1871SOL    HW117075   2.372   1.886   4.496  0.6569 -0.4081 -0.2618
 1871SOL    HW217076   2.491   1.958   4.432 -0.0749 -0.9740 -0.3345
 1872SOL     OW17077   1.874   3.396   2.541  0.6255  0.2348 -0.3254
 1872SOL    HW117078   1.876   3.442   2.625  0.2752  0.5306 -0.4811
 1872SOL    HW217079   1.850   3.307   2.568  3.1512  0.0683  1.3506
 1873SOL     OW17080   0.119   0.344  14.865  0.5498 -0.2584  0.0645
 1873SOL    HW117081   0.185   0.410  14.846 -0.2821  0.4894 -0.1962
 1873SOL    HW217082   0.150   0.264  14.822  1.7601  1.0001 -1.3835
 1874SOL     OW17083   1.903   2.637   4.616 -0.2413 -0.0925 -0.2527
 1874SOL    HW117084   1.843   2.664   4.686 -1.0656 -0.6233 -0.7533
 1874SOL    HW217085   1.960   2.714   4.620  0.9474 -0.9654 -0.5389
 1875SOL     OW17086   2.262   2.543   7.442 -0.2586 -0.5280  0.4181
 1875SOL    HW117087   2.249   2.530   7.348 -1.3245  1.5671  0.2938
 1875SOL    HW217088   2.171   2.552   7.469 -0.8835 -1.0379 -1.5136
 1876SOL     OW17089   3.554   2.033   8.341  0.4174 -0.4369 -0.1557
 1876SOL    HW117090   3.648   2.020   8.351  1.0650  3.7150 -0.8068
 1876SOL    HW217091   3.526   1.947   8.310 -1.5874  0.1566  0.0098
 1877SOL     OW17092   2.557   1.161   2.756  0.0273 -0.0084 -0.5323
 1877SOL    HW117093   2.527   1.081   2.712  1.4966  0.0342 -1.6419
 1877SOL    HW217094   2.634   1.124   2.799 -0.4032 -1.0115 -0.6164
 1878SOL     OW17095   4.208   1.072   1.084 -0.3550  0.7036 -0.5228
 1878SOL    HW117096   4.149   1.104   1.152 -0.7842 -2.7892  0.7354
 1878SOL    HW217097   4.290   1.069   1.133 -1.7620  0.3940  1.7849
 1879SOL     OW17098   4.358   4.471   4.285  0.7420  0.7105 -0.2621
 1879SOL    HW117099   4.268   4.503   4.280  0.6640  0.7152  1.2984
 1879SOL    HW217100   4.406   4.517   4.354  0.4294  1.3004 -0.4417
 1880SOL     OW17101   2.684   3.657   2.977  0.1840 -0.1146  0.0007
 1880SOL    HW117102   2.606   3.712   2.968  1.2670  1.1465 -1.8229
 1880SOL    HW217103   2.717   3.672   3.066  1.5434  0.6883 -0.6431
 1881SOL     OW17104   4.089   0.286   1.461  0.3139 -0.1753  0.3366
 1881SOL    HW117105   4.048   0.199   1.454  1.1846 -0.5739  0.2660
 1881SOL    HW217106   4.171   0.262   1.502  0.4234 -0.8677 -0.2819
 1882SOL     OW17107   1.117   1.283  16.877 -0.2794 -0.4281  0.0629
 1882SOL    HW117108   1.189   1.311  16.819  1.6968 -3.0861  1.2354
 1882SOL    HW217109   1.040   1.322  16.835  0.4196  0.8709 -0.0472
 1883SOL     OW17110   3.494   3.924   7.549  0.1327  0.1038  0.3267
 1883SOL    HW117111   3.580   3.954   7.516 -1.1082  0.6279 -2.4740
 1883SOL    HW217112   3.437   3.994   7.516 -0.4491 -0.6473 -0.2570
 1884SOL     OW17113   1.452   3.709   8.466  0.2481 -0.2824 -0.1350
 1884SOL    HW117114   1.453   3.792   8.514  2.1017 -0.2959 -0.1381
 1884SOL    HW217115   1.460   3.728   8.373 -0.1587  2.8879  0.4987
 1885SOL     OW17116   2.093   3.711   7.647 -0.3167 -0.3564 -0.4795
 1885SOL    HW117117   2.072   3.619   7.631  1.6082 -0.6469 -1.2801
 1885SOL    HW217118   2.086   3.748   7.559  0.0027 -1.2204 -0.8665
 1886SOL     OW17119   3.741   2.286  10.711  0.5080 -0.3475  0.0433
 1886SOL    HW117120   3.668   2.234  10.746 -0.3291  0.2781 -0.7543
 1886SOL    HW217121   3.739   2.357  10.774 -0.3649  0.3982 -0.8155
 1887SOL     OW17122   4.417   3.194   1.574 -0.1149 -0.3138 -0.1054
 1887SOL    HW117123   4.417   3.182   1.668 -1.8250 -1.6418 -0.2616
 1887SOL    HW217124   4.495   3.144   1.554  1.4786  2.7523 -1.5947
 1888SOL     OW17125   0.896   2.343   4.745  0.3822 -0.4217 -0.3761
 1888SOL    HW117126   0.880   2.289   4.667 -0.7605 -1.5524  0.6216
 1888SOL    HW217127   0.847   2.301   4.817 -0.1029  0.8825  0.0582
 1889SOL     OW17128   3.659   1.193   0.595  0.4850 -0.4007 -0.2023
 1889SOL    HW117129   3.600   1.122   0.621  1.2839 -1.7804 -2.1679
 1889SOL    HW217130   3.608   1.273   0.609  0.5499 -0.5065  0.5929
 1890SOL     OW17131   4.191   3.407   4.756 -0.1259  0.3404 -0.2491
 1890SOL    HW117132   4.139   3.360   4.821 -1.0482  1.5250 -0.1268
 1890SOL    HW217133   4.149   3.367   4.680  1.1942  0.4142 -1.0164
 1891SOL     OW17134   3.190   2.336  14.897  0.3138  0.1355 -0.4398
 1891SOL    HW117135   3.221   2.329  14.987 -0.0271 -1.1270 -0.4133
 1891SOL    HW217136   3.229   2.253  14.870 -0.3934 -0.5508  0.6448
 1892SOL     OW17137   0.371   1.024   2.318  0.4586  0.8021 -0.3044
 1892SOL    HW117138   0.323   0.977   2.249  0.4187  0.0307  0.2520
 1892SOL    HW217139   0.447   0.966   2.306 -0.8847 -0.8835 -0.7623
 1893SOL     OW17140   1.125   2.611   2.764  0.7625  0.6675 -0.2839
 1893SOL    HW117141   1.209   2.565   2.767  0.0768 -0.3924  3.0728
 1893SOL    HW217142   1.148   2.704   2.766  0.5181  0.6677  2.9819
 1894SOL     OW17143   3.168   0.963  13.624  0.0409  0.1805 -0.9552
 1894SOL    HW117144   3.078   0.930  13.632  0.8650 -1.5072  1.1388
 1894SOL    HW217145   3.204   0.877  13.602  1.8477  0.1247  2.1887
 1895SOL     OW17146   3.141   3.085  12.841  0.3763  0.3278 -0.2732
 1895SOL    HW117147   3.084   3.010  12.857  0.9197  0.0757  0.4946
 1895SOL    HW217148   3.231   3.053  12.844  0.3967  0.5825  1.4797
 1896SOL     OW17149   1.136   2.106   7.741  0.0647 -0.5079  0.3015
 1896SOL    HW117150   1.068   2.109   7.673  2.4730  4.5975 -1.8561
 1896SOL    HW217151   1.216   2.094   7.690  0.1618  1.7539 -0.0744
 1897SOL     OW17152   0.848   3.644  11.607 -0.8190  0.2409  0.5236
 1897SOL    HW117153   0.929   3.612  11.646 -1.0409 -1.7494 -0.6038
 1897SOL    HW217154   0.792   3.566  11.613  1.5563 -1.6013 -1.1583
 1898SOL     OW17155   1.627   0.467  10.407 -0.0435 -0.0965  0.0557
 1898SOL    HW117156   1.549   0.506  10.448  0.1273  1.2126 -0.8565
 1898SOL    HW217157   1.696   0.526  10.438 -2.8784  2.6997  1.1566
 1899SOL     OW17158   0.605   1.445   5.866 -0.0888  0.6590  0.4639
 1899SOL    HW117159   0.618   1.351   5.872  0.6389  0.7795  0.8083
 1899SOL    HW217160   0.523   1.458   5.818  1.4492 -2.9075 -3.0943
 1900SOL     OW17161   4.478   0.600   9.786  0.4455  0.0561 -0.1005
 1900SOL    HW117162   4.458   0.568   9.698  1.9224  1.1303 -0.8164
 1900SOL    HW217163   4.521   0.521   9.820 -0.2366  0.1735  1.0403
 1901SOL     OW17164   4.476   3.737   7.841 -0.2967 -0.7934 -0.5060
 1901SOL    HW117165   4.475   3.753   7.935 -0.0137  0.0833 -0.6517
 1901SOL    HW217166   4.569   3.757   7.828 -0.9522  3.5303  1.2928
 1902SOL     OW17167   1.630   1.683   3.489 -0.5856  0.1341 -0.0372
 1902SOL    HW117168   1.638   1.778   3.475 -3.3102  0.7827  2.7870
 1902SOL    HW217169   1.685   1.649   3.418 -1.4651  0.2813 -0.7887
 1903SOL     OW17170   1.226   4.049   6.571  0.2494  0.3056 -0.3213
 1903SOL    HW117171   1.195   4.138   6.587  1.9262  1.0209 -1.0917
 1903SOL    HW217172   1.144   4.000   6.565 -0.2447  1.3437 -1.8588
 1904SOL     OW17173   3.128   2.642   1.364  0.1427 -0.3774  0.6994
 1904SOL    HW117174   3.137   2.656   1.458  0.0716 -2.7910  1.0740
 1904SOL    HW217175   3.049   2.693   1.348  0.6527 -0.7072 -2.8086
 1905SOL     OW17176   4.079   1.292  14.483  0.4827  0.0560 -0.1953
 1905SOL    HW117177   4.022   1.268  14.556  1.2537  0.5106  0.5550
 1905SOL    HW217178   4.037   1.371  14.449  0.3961 -0.1399 -0.5461
 1906SOL     OW17179   3.462   1.036   8.060 -0.1548 -0.2225  0.4823
 1906SOL    HW117180   3.492   0.945   8.054 -0.5218 -0.3094 -0.1263
 1906SOL    HW217181   3.398   1.038   8.131  0.2028 -2.3930  0.8672
 1907SOL     OW17182   0.238   1.550  12.320 -0.8835  0.0740 -0.3443
 1907SOL    HW117183   0.223   1.502  12.402 -0.9396  0.5263 -0.0904
 1907SOL    HW217184   0.321   1.596  12.331  0.8648 -3.0969 -0.0617
 1908SOL     OW17185   4.702   0.478  13.015 -0.0566 -0.1352 -0.2245
 1908SOL    HW117186   4.691   0.408  12.951 -0.8188 -1.1490  1.0069
 1908SOL    HW217187   0.056   0.527  12.984  0.7972 -0.3537  1.5443
 1909SOL     OW17188   4.454   4.441   7.838  0.1989 -0.3761  0.4586
 1909SOL    HW117189   4.493   4.486   7.763 -0.4832 -1.1688 -0.3717
 1909SOL    HW217190   4.388   4.504   7.867  0.2885 -0.0193 -0.1082
 1910SOL     OW17191   2.737   3.778   8.415 -0.0228  0.4393 -0.0251
 1910SOL    HW117192   2.719   3.872   8.408  0.2130  0.3622 -1.6176
 1910SOL    HW217193   2.825   3.783   8.453  0.4719  0.7276 -1.2073
 1911SOL     OW17194   2.774   0.337   9.782  0.2487 -0.0629 -0.3459
 1911SOL    HW117195   2.808   0.261   9.734 -2.3441 -1.4768  0.0239
 1911SOL    HW217196   2.804   0.306   9.867  0.6838  0.3324 -0.3534
 1912SOL     OW17197   4.340   1.173   4.400  0.2858  0.5673  0.3236
 1912SOL    HW117198   4.257   1.204   4.436 -0.8181 -1.0748 -0.7974
 1912SOL    HW217199   4.312   1.107   4.337  0.0595 -1.1570  2.2331
 1913SOL     OW17200   1.119   4.374   7.666  0.4814 -0.0620 -0.2132
 1913SOL    HW117201   1.164   4.404   7.746  0.5861 -0.5622 -0.0849
 1913SOL    HW217202   1.033   4.417   7.666 -0.2694 -1.6049 -2.4113
 1914SOL     OW17203   4.285   2.630   2.534 -0.5034 -0.2791  0.1167
 1914SOL    HW117204   4.295   2.537   2.551  0.1052 -0.2835 -0.2683
 1914SOL    HW217205   4.316   2.675   2.613 -0.1525  0.6507 -0.5474
 1915SOL     OW17206   2.141   4.455   6.615 -0.0589  0.4008 -0.0025
 1915SOL    HW117207   2.175   4.366   6.626  0.6631  0.6760  0.0116
 1915SOL    HW217208   2.073   4.437   6.550 -1.6502  0.3573  1.6772
 1916SOL     OW17209   4.076   0.701   7.953 -0.5798  0.1328  0.1174
 1916SOL    HW117210   4.089   0.707   8.048  2.1030  3.1098 -0.4452
 1916SOL    HW217211   4.115   0.615   7.937 -1.9117  0.2743 -3.8320
 1917SOL     OW17212   3.348   1.152   6.656  0.0132  0.1899  0.8922
 1917SOL    HW117213   3.443   1.167   6.659  0.2029 -1.0106  0.9751
 1917SOL    HW217214   3.310   1.222   6.603 -0.9887 -0.9016  0.1832
 1918SOL     OW17215   4.230   2.844   5.067  0.0336  0.4399  0.5898
 1918SOL    HW117216   4.177   2.910   5.113  0.7304  0.1744  1.7887
 1918SOL    HW217217   4.186   2.843   4.982  0.1581  1.2150  0.5095
 1919SOL     OW17218   0.959   1.007  16.798  1.2161 -0.5246  0.0003
 1919SOL    HW117219   0.881   1.061  16.799  0.9432 -0.8988 -1.3024
 1919SOL    HW217220   1.011   1.056  16.862 -0.2896 -0.7565  1.3936
 1920SOL     OW17221   3.969   1.825  16.019 -0.0556  0.5606 -0.2579
 1920SOL    HW117222   3.919   1.766  16.074 -0.4188  1.7839  0.7311
 1920SOL    HW217223   3.899   1.876  15.979 -1.7376 -2.3570 -1.0244
 1921SOL     OW17224   4.192   3.463   6.272 -0.4869  0.4353  0.1828
 1921SOL    HW117225   4.243   3.542   6.253 -2.0231  0.9452 -1.7750
 1921SOL    HW217226   4.207   3.403   6.200  1.3893 -1.3659  2.0874
 1922SOL     OW17227   4.697   4.119   6.000  0.1943 -0.2649 -0.0357
 1922SOL    HW117228   0.026   4.166   6.066 -1.1644  1.1424  0.0199
 1922SOL    HW217229   0.043   4.068   5.957  0.6438 -1.2917  1.9023
 1923SOL     OW17230   4.238   0.914  14.534  0.3483 -0.5814  0.3809
 1923SOL    HW117231   4.241   0.947  14.444 -1.4953 -0.2598  0.4300
 1923SOL    HW217232   4.269   0.994  14.577  1.1864 -0.6038 -0.1699
 1924SOL     OW17233   2.575   4.656   2.452 -0.3147  0.0742  0.1129
 1924SOL    HW117234   2.611   4.707   2.380  1.7464 -1.2229  0.2444
 1924SOL    HW217235   2.597   4.565   2.431  2.3076  0.6056  0.5639
 1925SOL     OW17236   4.006   0.696   3.541  0.5255  0.1671  0.3088
 1925SOL    HW117237   4.087   0.744   3.523  0.0344  0.3218 -1.5148
 1925SOL    HW217238   3.988   0.721   3.632  2.6005 -1.5257  1.1656
 1926SOL     OW17239   2.588   2.243   2.875  0.2467 -0.6597 -0.5301
 1926SOL    HW117240   2.522   2.174   2.872  0.4203 -0.7895 -1.2736
 1926SOL    HW217241   2.635   2.213   2.953  0.8519  1.4132 -0.0791
 1927SOL     OW17242   3.606   3.802   3.116  0.6675 -0.0010 -0.3788
 1927SOL    HW117243   3.608   3.856   3.037  1.8304  3.3805  1.9395
 1927SOL    HW217244   3.677   3.837   3.170  0.3793 -1.0020  0.6539
 1928SOL     OW17245   3.681   1.648   7.434 -0.2739 -0.0455  0.7764
 1928SOL    HW117246   3.761   1.685   7.471 -2.2326  1.0908  3.8251
 1928SOL    HW217247   3.630   1.620   7.510  0.0915 -1.5774  0.4616
 1929SOL     OW17248   1.551   3.291   6.730 -0.8485  0.4307 -0.0233
 1929SOL    HW117249   1.498   3.231   6.782 -1.0380  0.1079 -0.5944
 1929SOL    HW217250   1.592   3.345   6.798 -1.1503  2.1015 -1.1587
 1930SOL     OW17251   2.352   4.615   6.514 -0.5476  0.0105  0.5026
 1930SOL    HW117252   2.275   4.569   6.546 -1.2833  0.4302 -0.6630
 1930SOL    HW217253   2.327   4.706   6.528 -0.9344 -0.0553  0.2481
 1931SOL     OW17254   3.015   1.241   7.369 -0.6081  0.6380  1.0167
 1931SOL    HW117255   2.958   1.253   7.293 -1.9881  0.3504  2.0032
 1931SOL    HW217256   2.949   1.233   7.438 -1.0443  1.6623  0.7220
 1932SOL     OW17257   0.964   1.012   2.757  0.5439 -0.3177  0.5290
 1932SOL    HW117258   0.903   0.959   2.807  1.1661  0.3631  2.0172
 1932SOL    HW217259   0.972   0.971   2.671 -0.2838 -1.0407  0.8038
 1933SOL     OW17260   0.038   0.009   3.739 -0.1764  0.3497  0.1306
 1933SOL    HW117261   0.066   4.707   3.827  2.3843  0.6522 -0.6125
 1933SOL    HW217262   4.705   4.654   3.719  2.6977 -1.1181 -2.1074
 1934SOL     OW17263   2.374   3.752  15.733  0.3521 -0.2200  0.0097
 1934SOL    HW117264   2.445   3.785  15.677 -0.3571 -0.1564 -0.8422
 1934SOL    HW217265   2.316   3.731  15.660 -0.1680  1.4129 -0.0468
 1935SOL     OW17266   1.433   1.303   2.696  0.2169  0.3481 -0.1307
 1935SOL    HW117267   1.462   1.279   2.784  1.4926 -0.0853 -0.6773
 1935SOL    HW217268   1.346   1.263   2.699  0.3432  0.2905  2.6858
 1936SOL     OW17269   4.181   3.513   3.658  0.1855 -0.2776  0.2424
 1936SOL    HW117270   4.113   3.447   3.645  0.0588 -0.0165 -0.4127
 1936SOL    HW217271   4.239   3.505   3.583 -0.6126  0.5969 -0.4764
 1937SOL     OW17272   1.303   0.797  17.449  0.2622 -0.0766  0.5535
 1937SOL    HW117273   1.264   0.881  17.422  2.4478  1.0955  1.0429
 1937SOL    HW217274   1.379   0.830  17.496  0.2562 -0.2983  0.7151
 1938SOL     OW17275   2.163   4.081   7.751  0.5051 -0.0086 -0.7064
 1938SOL    HW117276   2.184   3.991   7.775 -1.4087 -0.1507  0.4204
 1938SOL    HW217277   2.251   4.110   7.724 -0.8507  3.9383 -0.8198
 1939SOL     OW17278   0.418   4.665  15.803  0.7875  0.5155 -0.0365
 1939SOL    HW117279   0.328   4.699  15.804  0.6548  0.1569  0.3397
 1939SOL    HW217280   0.436   4.639  15.894  1.8042  0.5978 -0.2175
 1940SOL     OW17281   3.331   1.388   4.018  0.2689 -0.6648  0.1652
 1940SOL    HW117282   3.378   1.466   4.048 -0.0027 -0.7108  0.7119
 1940SOL    HW217283   3.324   1.352   4.106 -0.4151  0.0908  0.4162
 1941SOL     OW17284   1.201   3.546  12.022  0.5191  0.5961  0.2626
 1941SOL    HW117285   1.189   3.474  11.960  0.6349 -0.2375  1.2064
 1941SOL    HW217286   1.180   3.624  11.971  0.2664 -0.7564 -1.7157
 1942SOL     OW17287   3.461   4.311   2.936  0.5514  0.0442 -0.4945
 1942SOL    HW117288   3.493   4.225   2.908  0.3726  0.0310 -0.6588
 1942SOL    HW217289   3.540   4.362   2.920  0.1099  0.5413 -1.0670
 1943SOL     OW17290   2.587   0.201   6.682 -0.1076  0.1902 -0.2712
 1943SOL    HW117291   2.664   0.160   6.722 -0.6450  1.1671  1.7472
 1943SOL    HW217292   2.515   0.157   6.727  0.5148 -0.7796 -0.2253
 1944SOL     OW17293   0.284   0.807   0.297  0.1317  0.5500 -0.2103
 1944SOL    HW117294   0.192   0.786   0.311 -0.3594  0.6421 -3.4111
 1944SOL    HW217295   0.301   0.888   0.345 -1.7322 -0.0763  1.4866
 1945SOL     OW17296   0.513   1.032   8.181 -0.1494  0.1144 -0.2502
 1945SOL    HW117297   0.514   1.127   8.178  0.6334  0.1092 -0.0867
 1945SOL    HW217298   0.440   1.022   8.120  0.8471  1.2938 -1.6331
 1946SOL     OW17299   4.159   2.053  14.920  0.6455  0.3789 -0.3297
 1946SOL    HW117300   4.232   1.998  14.950  0.7917  0.4422 -0.5757
 1946SOL    HW217301   4.204   2.123  14.873  0.7192  0.8208  0.3966
 1947SOL     OW17302   1.886   0.551   6.057  0.6393  0.9618 -0.2221
 1947SOL    HW117303   1.945   0.498   6.112  0.8471  1.9931  0.5564
 1947SOL    HW217304   1.818   0.567   6.123 -0.1331 -4.3203  0.2576
 1948SOL     OW17305   1.786   2.742  15.371 -0.0070  0.2037 -0.2746
 1948SOL    HW117306   1.872   2.736  15.414 -0.2096 -0.2938  0.0536
 1948SOL    HW217307   1.777   2.837  15.365 -1.1006  0.2445  2.1884
 1949SOL     OW17308   2.268   3.418  16.744 -0.3132 -0.5661 -0.0542
 1949SOL    HW117309   2.361   3.408  16.767 -0.0404  0.2953 -0.7624
 1949SOL    HW217310   2.265   3.506  16.707  0.7283 -0.6992 -0.4759
 1950SOL     OW17311   1.519   0.581   4.627  0.6489 -0.2339 -0.0233
 1950SOL    HW117312   1.468   0.659   4.608 -0.7233 -1.3247 -0.8114
 1950SOL    HW217313   1.450   0.522   4.658 -0.0910  1.7050  1.9500
 1951SOL     OW17314   4.061   1.044  16.709 -0.1535  0.1314 -0.2224
 1951SOL    HW117315   3.995   1.031  16.642 -2.2129 -1.6830  2.1668
 1951SOL    HW217316   4.049   1.131  16.748 -0.5424 -0.5533  1.1887
 1952SOL     OW17317   4.689   3.288   5.442  0.6451  0.0636  0.1575
 1952SOL    HW117318   4.602   3.256   5.418  0.6556 -0.7681  1.2453
 1952SOL    HW217319   0.025   3.239   5.385  0.5229 -0.8458  0.8079
 1953SOL     OW17320   4.061   4.111   4.584 -0.3155  0.0720 -0.0377
 1953SOL    HW117321   4.126   4.132   4.517  0.0339  1.1882  0.6535
 1953SOL    HW217322   3.992   4.078   4.527  0.1208 -1.2186  0.1817
 1954SOL     OW17323   1.191   3.905   6.151  0.1579  0.5702 -0.2671
 1954SOL    HW117324   1.196   3.810   6.156 -1.6148  0.5408  1.1608
 1954SOL    HW217325   1.256   3.918   6.082 -2.5329  3.3557 -2.2910
 1955SOL     OW17326   3.380   2.382  14.624 -0.5595 -0.6355  0.2213
 1955SOL    HW117327   3.336   2.375  14.709 -0.4066  0.9269  0.4207
 1955SOL    HW217328   3.473   2.379  14.648 -0.1090  0.3718 -1.3727
 1956SOL     OW17329   2.574   0.123  11.798 -0.1085  0.4660  0.1432
 1956SOL    HW117330   2.593   0.174  11.876  0.8592  0.8668 -0.3555
 1956SOL    HW217331   2.652   0.151  11.750 -0.1316  0.0745 -0.1245
 1957SOL     OW17332   2.208   0.893  16.253  0.2080  0.8805 -0.2975
 1957SOL    HW117333   2.221   0.841  16.174  0.4546  0.2766  0.1371
 1957SOL    HW217334   2.274   0.957  16.228  0.8289  0.0890 -0.6798
 1958SOL     OW17335   0.784   0.917  14.654  0.0162  0.4912  0.3454
 1958SOL    HW117336   0.752   0.856  14.587  4.3467 -1.2105 -0.1248
 1958SOL    HW217337   0.873   0.937  14.627 -0.7053 -0.7942 -3.0753
 1959SOL     OW17338   0.263   3.428   3.847  0.2465 -0.6057 -0.1639
 1959SOL    HW117339   0.203   3.444   3.919  1.0404 -1.6279  0.7220
 1959SOL    HW217340   0.348   3.448   3.886  0.5907 -1.2963 -0.5535
 1960SOL     OW17341   1.560   1.698   7.231  0.2779  0.1186  0.0896
 1960SOL    HW117342   1.546   1.635   7.301  0.3080  1.2892  1.1452
 1960SOL    HW217343   1.559   1.778   7.283 -0.2496  1.5077 -2.0508
 1961SOL     OW17344   3.851   3.553   9.244  0.4254  0.5632  0.6379
 1961SOL    HW117345   3.780   3.565   9.307 -0.1175  1.3868 -0.1380
 1961SOL    HW217346   3.808   3.535   9.160  2.3631 -1.2968  0.0467
 1962SOL     OW17347   1.767   0.846   2.452  0.2091  0.3053  0.2740
 1962SOL    HW117348   1.742   0.766   2.498  1.0701 -0.7712 -1.0883
 1962SOL    HW217349   1.773   0.913   2.519 -1.1115  1.7725 -1.0826
 1963SOL     OW17350   0.279   0.385   3.302 -0.7542 -0.2569  0.0994
 1963SOL    HW117351   0.325   0.301   3.294 -0.7948 -0.1312 -1.5459
 1963SOL    HW217352   0.341   0.434   3.356 -1.3694  0.9541 -0.2823
 1964SOL     OW17353   0.175   2.607  11.668  0.3357 -0.6907  0.5963
 1964SOL    HW117354   0.203   2.548  11.738  3.1247  0.5890  0.5609
 1964SOL    HW217355   0.208   2.567  11.587  0.2035  1.4359 -0.5204
 1965SOL     OW17356   1.594   0.720  12.863 -0.9171  0.2402 -0.1455
 1965SOL    HW117357   1.670   0.734  12.808 -0.8237  0.9708  0.1708
 1965SOL    HW217358   1.523   0.748  12.805 -1.3155  1.2384  0.8316
 1966SOL     OW17359   1.650   4.308   0.185 -0.4361 -0.0613  0.1818
 1966SOL    HW117360   1.731   4.257   0.196 -0.3351 -0.6102 -3.1162
 1966SOL    HW217361   1.655   4.323   0.091 -1.2334  1.2381  0.3465
 1967SOL     OW17362   0.629   2.041   2.732 -0.5383 -0.3833 -0.1983
 1967SOL    HW117363   0.676   2.108   2.781 -1.6143  0.5334 -0.4036
 1967SOL    HW217364   0.600   1.981   2.801 -4.5799  1.1539 -0.5731
 1968SOL     OW17365   1.249   0.676   0.571  0.1366  0.1617  0.0954
 1968SOL    HW117366   1.209   0.589   0.564 -1.9042  1.2116 -1.4223
 1968SOL    HW217367   1.308   0.670   0.495 -0.0448 -1.1605  0.0616
 1969SOL     OW17368   1.575   2.462   8.714  0.0956 -0.0726  0.3052
 1969SOL    HW117369   1.657   2.453   8.763 -0.2462  2.1066  1.3088
 1969SOL    HW217370   1.532   2.384   8.749 -0.2274 -0.6129 -1.3173
 1970SOL     OW17371   1.557   3.237  17.458  0.6054  0.3461 -0.0951
 1970SOL    HW117372   1.626   3.171  17.461  0.9001  0.6754  0.4912
 1970SOL    HW217373   1.506   3.215  17.381 -2.2220  0.0182  1.8851
 1971SOL     OW17374   3.849   3.200   7.084  0.5151  0.2922  0.2140
 1971SOL    HW117375   3.753   3.205   7.085  0.6094  2.5945 -0.3613
 1971SOL    HW217376   3.882   3.290   7.086 -0.4530  0.6516  0.1921
 1972SOL     OW17377   3.404   0.199  16.067 -0.0268  0.3210  0.1542
 1972SOL    HW117378   3.372   0.287  16.088  1.9250  1.3795 -1.4263
 1972SOL    HW217379   3.457   0.215  15.990  0.0227 -0.5280  0.0117
 1973SOL     OW17380   0.520   3.923   3.103  0.2722 -0.0185 -0.0209
 1973SOL    HW117381   0.553   3.866   3.034 -0.7941  0.8166 -1.2020
 1973SOL    HW217382   0.440   3.876   3.127  0.1483  0.3994  0.4087
 1974SOL     OW17383   0.935   1.469   8.543  0.6914  0.0531 -0.5376
 1974SOL    HW117384   0.953   1.517   8.624  3.4579 -2.8424  0.5583
 1974SOL    HW217385   0.857   1.517   8.515 -0.1186 -1.1282 -0.2784
 1975SOL     OW17386   1.038   2.094   3.812 -0.0105 -0.1276 -0.7150
 1975SOL    HW117387   0.958   2.045   3.831  0.4195 -1.3070 -1.9719
 1975SOL    HW217388   1.014   2.125   3.724 -0.9703  0.6968 -0.1532
 1976SOL     OW17389   2.204   0.104  15.708 -0.8379 -0.7700 -0.2221
 1976SOL    HW117390   2.216   0.093  15.614 -1.0925  1.5671 -0.5249
 1976SOL    HW217391   2.265   0.176  15.721 -1.1920 -0.5483  0.2224
 1977SOL     OW17392   0.475   1.838   2.406 -0.0025  0.1180  0.2874
 1977SOL    HW117393   0.412   1.848   2.335  0.8491 -1.7006 -0.7209
 1977SOL    HW217394   0.500   1.929   2.425  1.3153 -0.8654  3.1664
 1978SOL     OW17395   0.067   1.449   3.196  0.3867 -0.2509  0.0780
 1978SOL    HW117396   0.072   1.505   3.119 -0.8215  0.9510  0.8685
 1978SOL    HW217397   0.121   1.508   3.249  1.7935  0.5480 -2.2783
 1979SOL     OW17398   1.656   0.346   2.626 -0.4072  1.0293 -0.6378
 1979SOL    HW117399   1.674   0.388   2.710  1.6227 -2.7667  0.8347
 1979SOL    HW217400   1.719   0.275   2.619 -1.2604  0.2131 -0.0666
 1980SOL     OW17401   3.272   3.130  10.452  0.1687 -0.2596  0.2618
 1980SOL    HW117402   3.298   3.055  10.506  0.7386 -0.7204 -0.6501
 1980SOL    HW217403   3.313   3.106  10.369  1.7823 -1.2097  1.3253
 1981SOL     OW17404   2.623   1.547   7.162  0.0416  0.1941 -0.3885
 1981SOL    HW117405   2.672   1.470   7.189  1.5823 -0.2840 -4.4873
 1981SOL    HW217406   2.615   1.595   7.244  0.4749  0.4899 -0.5203
 1982SOL     OW17407   4.218   0.277   6.528  0.2268 -0.5696  0.1545
 1982SOL    HW117408   4.294   0.223   6.549  0.0881 -0.6179  0.5434
 1982SOL    HW217409   4.248   0.320   6.448  1.3373 -0.7787  0.4477
 1983SOL     OW17410   3.903   3.809  13.261  0.3657 -0.1812  0.4272
 1983SOL    HW117411   3.861   3.726  13.239 -2.0258  0.6768  1.7222
 1983SOL    HW217412   3.886   3.846  13.175  0.3620  1.7728  1.2853
 1984SOL     OW17413   0.567   0.452   7.343 -0.5330 -0.5293 -0.4552
 1984SOL    HW117414   0.512   0.526   7.367 -1.8991 -0.4896 -3.6917
 1984SOL    HW217415   0.639   0.494   7.295 -2.7547  0.8389 -2.5585
 1985SOL     OW17416   3.393   4.588   5.740 -0.0036  0.1761 -0.4276
 1985SOL    HW117417   3.328   4.554   5.802 -0.1906 -1.3889 -1.4928
 1985SOL    HW217418   3.336   4.638   5.682  0.5823  0.7409 -0.5185
 1986SOL     OW17419   3.286   3.746   6.314 -0.3246  0.4700  0.1179
 1986SOL    HW117420   3.326   3.741   6.227 -1.0112 -0.5969 -0.1435
 1986SOL    HW217421   3.283   3.653   6.339  1.8667  0.4584  0.3663
 1987SOL     OW17422   1.657   4.027   8.295  0.8076  0.1992  0.2551
 1987SOL    HW117423   1.752   4.022   8.282  0.9203  0.2243  1.1155
 1987SOL    HW217424   1.630   4.012   8.204  0.5355 -2.2033  0.7464
 1988SOL     OW17425   4.483   2.395   4.757  0.1310 -0.2176 -0.1516
 1988SOL    HW117426   4.415   2.358   4.814  0.3340  0.3266  0.4414
 1988SOL    HW217427   4.426   2.458   4.712 -1.5045 -2.2181 -0.8711
 1989SOL     OW17428   3.435   1.595   7.078 -0.1353 -0.5293  0.5518
 1989SOL    HW117429   3.349   1.583   7.118 -0.5536  1.8057  0.3916
 1989SOL    HW217430   3.470   1.677   7.113 -0.2534 -1.1538  2.1356
 1990SOL     OW17431   1.988   3.442   7.685  0.3351  0.3498  0.0184
 1990SOL    HW117432   1.920   3.454   7.751 -0.5365  1.0688 -0.9956
 1990SOL    HW217433   1.939   3.395   7.617  0.9548 -0.4930  0.1560
 1991SOL     OW17434   2.055   0.141  14.715 -0.0480 -0.2303  0.3564
 1991SOL    HW117435   2.129   0.199  14.734 -1.0071  1.5750 -1.4435
 1991SOL    HW217436   2.029   0.167  14.626 -0.9120 -0.4726  0.5361
 1992SOL     OW17437   1.348   0.523   5.119  0.2066 -0.5617  0.4443
 1992SOL    HW117438   1.397   0.604   5.106 -0.0295 -0.7633 -1.6396
 1992SOL    HW217439   1.418   0.465   5.149 -0.7652 -1.7505  0.4194
 1993SOL     OW17440   4.215   1.329   7.358 -0.5999  0.0078 -0.1995
 1993SOL    HW117441   4.154   1.364   7.424 -0.2062  3.4043 -1.6824
 1993SOL    HW217442   4.155   1.340   7.284 -1.0937  0.2204  0.2302
 1994SOL     OW17443   1.004   3.325   0.085  0.0131 -0.8620 -0.0850
 1994SOL    HW117444   0.940   3.342   0.016 -1.5704 -1.5537  1.2121
 1994SOL    HW217445   1.035   3.416   0.089 -0.7183 -0.5741 -0.8515
 1995SOL     OW17446   3.378   1.474   7.952  0.3785 -0.0559 -0.0933
 1995SOL    HW117447   3.358   1.567   7.962 -0.2562 -0.0753 -1.1240
 1995SOL    HW217448   3.467   1.478   7.985  0.4491 -1.0865 -0.1549
 1996SOL     OW17449   4.059   3.768   7.905 -0.1867  0.4067  0.7101
 1996SOL    HW117450   4.077   3.810   7.989 -1.4252 -1.8331  2.1108
 1996SOL    HW217451   3.965   3.748   7.912 -0.0947  0.3119  1.6238
 1997SOL     OW17452   4.704   3.252   2.672  0.0384  0.5485  0.0121
 1997SOL    HW117453   4.685   3.159   2.662  0.5885  0.7616 -3.0149
 1997SOL    HW217454   0.060   3.256   2.726  0.1012 -1.1951  0.0528
 1998SOL     OW17455   4.339   4.321   6.663  0.1767 -0.0481 -0.0373
 1998SOL    HW117456   4.343   4.229   6.689 -3.8184  0.1089  1.1531
 1998SOL    HW217457   4.246   4.346   6.659  0.3873  1.0870  2.0429
 1999SOL     OW17458   2.139   3.591   8.124  0.3867 -0.0835 -0.2406
 1999SOL    HW117459   2.082   3.515   8.113 -0.3054  0.6505 -1.8194
 1999SOL    HW217460   2.184   3.579   8.040  1.0757 -2.0763  0.4072
 2000SOL     OW17461   3.971   0.238   7.248  0.3883  0.2977 -0.1736
 2000SOL    HW117462   4.015   0.322   7.239 -0.0891  0.6936  1.1507
 2000SOL    HW217463   3.891   0.245   7.195  1.4140 -1.0602 -1.8781
 2001SOL     OW17464   4.626   4.315  17.183 -0.0044 -0.0929  0.0344
 2001SOL    HW117465   4.558   4.375  17.152  0.4643  0.9521  1.0331
 2001SOL    HW217466   4.593   4.285  17.268  3.0186  0.7417  1.4928
 2002SOL     OW17467   2.656   0.472   2.614  0.2624 -0.1845  0.0252
 2002SOL    HW117468   2.713   0.407   2.656  1.4494  1.4051  0.8329
 2002SOL    HW217469   2.692   0.462   2.526 -1.5858  0.1177 -0.7611
 2003SOL     OW17470   4.687   0.722   9.312 -0.7504  0.5067 -0.3007
 2003SOL    HW117471   4.609   0.674   9.340 -0.8216 -0.4366 -2.1160
 2003SOL    HW217472   4.655   0.757   9.228 -0.2578 -0.9142 -1.0635
 2004SOL     OW17473   0.701   2.117  14.758  0.1059 -0.7687  0.0237
 2004SOL    HW117474   0.715   2.146  14.668  0.5591  1.5834  0.8578
 2004SOL    HW217475   0.738   2.029  14.753  1.4880 -0.0263 -3.1970
 2005SOL     OW17476   0.725   1.959   8.447 -0.1378  0.1483 -0.0208
 2005SOL    HW117477   0.678   2.020   8.504 -0.3044 -0.5770  0.6148
 2005SOL    HW217478   0.807   1.951   8.496 -0.2120  1.4677  0.3164
 2006SOL     OW17479   2.223   2.701  17.633 -0.0303  0.3104 -0.1661
 2006SOL    HW117480   2.206   2.741  17.548 -0.3738  1.0995  0.2780
 2006SOL    HW217481   2.312   2.734  17.647 -0.6382  1.5597  0.7394
 2007SOL     OW17482   3.197   3.515   7.353  0.1633  0.1779 -0.0966
 2007SOL    HW117483   3.154   3.436   7.386  0.0556  0.5955  0.7531
 2007SOL    HW217484   3.148   3.515   7.271 -0.9075  0.5718  0.5474
 2008SOL     OW17485   2.184   4.405   7.755 -0.1945  1.0340  0.1235
 2008SOL    HW117486   2.090   4.422   7.761 -0.1827  0.3546  2.0191
 2008SOL    HW217487   2.193   4.310   7.761 -1.3488  0.9504  0.4876
 2009SOL     OW17488   0.060   0.857   5.345  0.0184  0.2340  0.3524
 2009SOL    HW117489   0.101   0.823   5.266 -0.5099  0.9450 -0.2292
 2009SOL    HW217490   0.093   0.947   5.355 -0.5181  0.6340 -1.6159
 2010SOL     OW17491   2.714   2.251  14.982 -0.2584 -0.5644 -0.0585
 2010SOL    HW117492   2.798   2.260  14.938  0.3318  0.4740  1.2954
 2010SOL    HW217493   2.716   2.175  15.040 -0.0243 -0.0679  0.5790
 2011SOL     OW17494   1.135   2.046  16.436  0.1406  0.5843 -0.6857
 2011SOL    HW117495   1.095   2.118  16.485 -0.6059  1.0386 -1.9627
 2011SOL    HW217496   1.076   2.013  16.368  0.5283 -4.9849  1.6599
 2012SOL     OW17497   3.484   4.144  17.685  0.3147  0.5170  0.5777
 2012SOL    HW117498   3.475   4.118   0.086 -0.8426 -0.7816  0.0897
 2012SOL    HW217499   3.417   4.086  17.649 -1.1192  2.8367 -0.5713
 2013SOL     OW17500   4.354   4.711   8.156  0.5663  0.1025 -0.2308
 2013SOL    HW117501   4.379   0.055   8.092 -1.0402 -0.6254 -1.6027
 2013SOL    HW217502   4.316   4.648   8.095  0.3116  0.0704 -0.0389
 2014SOL     OW17503   3.196   1.131   5.064 -0.3121  0.2956  0.2310
 2014SOL    HW117504   3.141   1.090   4.997  0.7759 -2.7198  1.1545
 2014SOL    HW217505   3.271   1.072   5.050  0.9574  1.6819  1.2772
 2015SOL     OW17506   2.668   3.996  10.560  0.6104 -0.0365  0.3663
 2015SOL    HW117507   2.657   4.091  10.568 -1.9872 -0.3162  0.2608
 2015SOL    HW217508   2.744   3.982  10.617  1.5695  0.5536 -0.7775
 2016SOL     OW17509   4.311   2.538   7.778  0.3028  0.5052 -0.4098
 2016SOL    HW117510   4.377   2.468   7.780  1.0219  1.0900 -3.1949
 2016SOL    HW217511   4.292   2.551   7.685 -0.1992 -0.4112 -0.4355
 2017SOL     OW17512   1.855   2.690  12.682  0.6716  0.3361  0.5083
 2017SOL    HW117513   1.892   2.613  12.725  1.6307 -0.5476 -1.9176
 2017SOL    HW217514   1.817   2.731  12.760  0.3155 -0.8616  0.9735
 2018SOL     OW17515   1.691   4.538   4.318 -0.3824  0.0734 -0.6652
 2018SOL    HW117516   1.623   4.485   4.277 -0.9896  0.6855 -0.4442
 2018SOL    HW217517   1.680   4.519   4.411 -0.0106 -0.6541 -0.7635
 2019SOL     OW17518   0.991   0.088  13.465 -0.6120  0.0476 -0.9554
 2019SOL    HW117519   0.940   0.117  13.389 -3.6424 -2.3073  0.2074
 2019SOL    HW217520   1.017   0.167  13.513 -2.2047 -1.1024  1.7975
 2020SOL     OW17521   2.686   4.710   6.502 -1.0578  0.1063  0.1106
 2020SOL    HW117522   2.720   0.010   6.415  1.5468  1.7619  1.5653
 2020SOL    HW217523   2.611   0.048   6.506 -0.3813  0.8871  0.9154
 2021SOL     OW17524   4.490   0.147  16.027  1.0711  0.0065  0.0172
 2021SOL    HW117525   4.458   0.218  15.971 -2.3332 -0.7031  1.1005
 2021SOL    HW217526   4.571   0.186  16.061  0.6208 -1.0957  2.3717
 2022SOL     OW17527   0.572   3.304   3.300 -0.4379 -0.6163 -0.1309
 2022SOL    HW117528   0.610   3.346   3.223  0.0753  0.2062  0.5810
 2022SOL    HW217529   0.647   3.252   3.329 -0.9988 -1.2111  0.2802
 2023SOL     OW17530   1.373   4.655   1.125  0.2191  0.0124 -0.1101
 2023SOL    HW117531   1.417   4.639   1.209  0.9862 -0.6518 -0.6394
 2023SOL    HW217532   1.355   0.026   1.131 -0.0998 -0.2408  2.7624
 2024SOL     OW17533   0.585   2.270   5.085  0.4185 -0.6860  0.6491
 2024SOL    HW117534   0.583   2.234   5.173  1.0176 -1.7317  0.2424
 2024SOL    HW217535   0.494   2.267   5.057  1.6035 -0.1905 -3.2941
 2025SOL     OW17536   1.265   0.984   3.383  0.1375  0.0096 -0.1403
 2025SOL    HW117537   1.254   0.915   3.448  0.6493  0.2406  0.1875
 2025SOL    HW217538   1.236   0.937   3.305 -0.1916 -0.9242  0.5398
 2026SOL     OW17539   3.773   3.468  16.040 -0.3881  0.2888  0.0798
 2026SOL    HW117540   3.752   3.473  16.134  0.1365 -1.8158  0.2989
 2026SOL    HW217541   3.797   3.560  16.026  3.4484 -0.8805 -0.9708
 2027SOL     OW17542   4.509   1.938  11.384 -0.3973 -0.5082 -0.1484
 2027SOL    HW117543   4.578   2.001  11.407  1.1757 -2.2526 -0.1417
 2027SOL    HW217544   4.560   1.872  11.338  0.8603 -1.0061  1.9584
 2028SOL     OW17545   4.079   0.075   5.061  0.4618 -0.5521 -0.6592
 2028SOL    HW117546   4.055   0.115   4.977 -2.3229 -1.7328 -0.4308
 2028SOL    HW217547   3.998   0.083   5.112  0.1143 -1.3254 -1.0796
 2029SOL     OW17548   2.295   2.029   2.168 -0.0178  0.3725 -0.0103
 2029SOL    HW117549   2.316   1.937   2.186 -0.9655  0.1535 -0.0433
 2029SOL    HW217550   2.203   2.011   2.189 -0.2507 -2.1487 -3.2606
 2030SOL     OW17551   0.364   1.936   7.537  0.0271  0.0351 -0.0462
 2030SOL    HW117552   0.384   1.876   7.609 -2.4644  1.0075  1.4266
 2030SOL    HW217553   0.300   1.882   7.490  1.6333 -2.0969  0.1895
 2031SOL     OW17554   3.608   3.545   2.482  0.3085  0.2091  0.6252
 2031SOL    HW117555   3.624   3.502   2.398  1.1410  2.1673 -0.2267
 2031SOL    HW217556   3.654   3.489   2.545  0.2264  1.0863  1.4671
 2032SOL     OW17557   4.547   3.540  11.487  0.0492  0.2974  0.6696
 2032SOL    HW117558   4.567   3.463  11.540 -0.4598 -0.6513 -0.5380
 2032SOL    HW217559   4.526   3.603  11.556  1.5479  0.5620  0.9057
 2033SOL     OW17560   2.351   1.706   9.106 -0.5909  0.2524  0.3405
 2033SOL    HW117561   2.262   1.727   9.133 -1.6036 -3.6998  0.1567
 2033SOL    HW217562   2.355   1.764   9.030  1.2667  1.5635  1.4434
 2034SOL     OW17563   1.754   1.700   0.087 -0.0740 -0.3773 -0.0161
 2034SOL    HW117564   1.710   1.738   0.163  2.0891 -1.0220  1.5502
 2034SOL    HW217565   1.756   1.607   0.106  0.8164 -0.4629 -0.5269
 2035SOL     OW17566   3.702   2.606   5.367 -0.4560 -0.0295 -0.6199
 2035SOL    HW117567   3.642   2.566   5.304  0.6260  1.3066 -2.5187
 2035SOL    HW217568   3.644   2.623   5.441 -0.6858 -0.5156 -0.6934
 2036SOL     OW17569   1.567   4.525   0.979  0.7296 -0.7407  0.2194
 2036SOL    HW117570   1.581   4.612   1.016  0.4281 -0.3987 -0.4522
 2036SOL    HW217571   1.553   4.552   0.888  0.8739  1.5663  0.8769
 2037SOL     OW17572   0.006   3.953   4.313  0.3324 -0.1992 -0.3018
 2037SOL    HW117573   0.032   4.041   4.340 -0.5322 -0.0734  0.1411
 2037SOL    HW217574   0.091   3.925   4.281  0.5902  1.7590 -1.3518
 2038SOL     OW17575   2.250   0.667   1.792 -0.5208  0.6086  0.0078
 2038SOL    HW117576   2.302   0.659   1.711  1.8131  0.5950  1.4978
 2038SOL    HW217577   2.288   0.740   1.841 -0.5483  0.6991 -0.1057
 2039SOL     OW17578   1.504   4.147   4.297 -0.2886  0.0403  0.0744
 2039SOL    HW117579   1.598   4.137   4.282 -0.0912  1.1855  0.5155
 2039SOL    HW217580   1.502   4.165   4.391  0.1294 -1.2387  0.3256
 2040SOL     OW17581   3.251   4.230  16.658  0.3330  0.4425 -0.0087
 2040SOL    HW117582   3.278   4.169  16.727 -1.6002 -1.3148 -0.7978
 2040SOL    HW217583   3.275   4.313  16.700  1.4418  0.0037  0.2272
 2041SOL     OW17584   4.312   1.732   6.564  0.2456 -0.7444  0.3635
 2041SOL    HW117585   4.267   1.724   6.648 -3.9697  2.2685 -1.6560
 2041SOL    HW217586   4.401   1.758   6.590 -0.1727  2.4740 -1.3805
 2042SOL     OW17587   1.837   3.121   5.281 -0.0818 -0.1772  0.0609
 2042SOL    HW117588   1.860   3.190   5.219 -1.5559  0.4862  0.2647
 2042SOL    HW217589   1.926   3.113   5.316 -1.0112  1.1919  2.6740
 2043SOL     OW17590   3.536   0.287   7.579 -0.1725  0.0746 -0.6317
 2043SOL    HW117591   3.532   0.371   7.533  0.8985 -0.0553 -0.9469
 2043SOL    HW217592   3.589   0.314   7.654 -0.2787 -1.9655  0.1785
 2044SOL     OW17593   1.791   1.145   4.592  0.0041 -0.1782  0.0331
 2044SOL    HW117594   1.816   1.123   4.502 -0.8136  0.1341 -0.2700
 2044SOL    HW217595   1.874   1.175   4.629  0.0839  0.3995 -0.6289
 2045SOL     OW17596   3.512   4.102   9.328 -0.1310 -0.2700  0.7650
 2045SOL    HW117597   3.497   4.029   9.388 -1.0082 -0.2427  0.5840
 2045SOL    HW217598   3.577   4.157   9.371  0.5920  0.0896 -0.7946
 2046SOL     OW17599   0.703   4.279   7.571  0.0957 -0.9824  0.2465
 2046SOL    HW117600   0.709   4.274   7.475 -0.4695 -2.5196  0.2887
 2046SOL    HW217601   0.618   4.237   7.583  0.1964 -1.3766 -0.3828
 2047SOL     OW17602   3.486   0.720   9.101 -0.5218 -0.1558 -0.7233
 2047SOL    HW117603   3.424   0.694   9.169  0.8507 -0.5834  0.3462
 2047SOL    HW217604   3.544   0.765   9.162 -0.6815 -0.0289 -0.6642
 2048SOL     OW17605   2.551   1.170  14.327 -0.3423  0.0126 -0.3208
 2048SOL    HW117606   2.591   1.097  14.278  1.8274 -0.9641  2.9111
 2048SOL    HW217607   2.485   1.209  14.270 -2.4811 -0.7807  1.6068
 2049SOL     OW17608   1.075   3.283  10.517 -0.4098  0.5030 -0.2703
 2049SOL    HW117609   1.125   3.231  10.454 -0.1565  1.9128 -1.2227
 2049SOL    HW217610   1.002   3.224  10.538 -0.3402  0.2137 -0.8460
 2050SOL     OW17611   3.111   1.959   5.663 -0.6909  0.2423  0.1615
 2050SOL    HW117612   3.030   1.974   5.711 -1.0354  0.8630 -0.6048
 2050SOL    HW217613   3.169   1.967   5.739 -1.4387 -0.0494  0.7592
 2051SOL     OW17614   1.948   0.458   7.697  0.0051  0.2107 -0.3872
 2051SOL    HW117615   1.939   0.551   7.674 -1.8477 -0.1315 -1.0631
 2051SOL    HW217616   1.889   0.422   7.630  2.4628  0.9050 -2.9512
 2052SOL     OW17617   4.072   4.587  16.892 -0.4373  0.3927  0.1235
 2052SOL    HW117618   4.066   4.665  16.947  2.0898  0.0431  0.9217
 2052SOL    HW217619   4.162   4.588  16.859  0.4348 -0.1101  2.5112
 2053SOL     OW17620   0.966   3.270   2.888 -0.0378 -0.3433  0.5272
 2053SOL    HW117621   0.988   3.297   2.977 -0.6558 -0.4380  0.7021
 2053SOL    HW217622   0.892   3.211   2.900 -2.5845  2.3194 -2.0367
 2054SOL     OW17623   3.292   4.089  16.348 -0.2926  0.3478  0.1254
 2054SOL    HW117624   3.343   4.165  16.320 -0.7479  0.6034 -0.0063
 2054SOL    HW217625   3.239   4.071  16.270  1.3883 -3.2760 -0.1740
 2055SOL     OW17626   0.799   3.237   7.379 -0.8916  0.0977  0.0057
 2055SOL    HW117627   0.811   3.186   7.459  2.2681  0.7745 -0.0519
 2055SOL    HW217628   0.714   3.276   7.401 -0.4433  0.9060  0.3069
 2056SOL     OW17629   0.689   1.336   7.213 -0.5966  0.0391 -0.4045
 2056SOL    HW117630   0.685   1.413   7.269 -1.5332  1.0451 -1.8307
 2056SOL    HW217631   0.662   1.276   7.282 -0.9127 -0.4943 -0.9862
 2057SOL     OW17632   1.471   2.943   3.569  0.0996  0.7080  0.0218
 2057SOL    HW117633   1.396   2.935   3.628  0.7377 -0.8933  0.6020
 2057SOL    HW217634   1.501   2.853   3.558 -0.2349  0.4982  0.8306
 2058SOL     OW17635   4.231   3.947   7.431 -0.2353  0.2756  0.0929
 2058SOL    HW117636   4.297   3.911   7.490  0.8866 -0.4679 -1.6208
 2058SOL    HW217637   4.212   4.032   7.473  0.2424  0.0075  0.8600
 2059SOL     OW17638   0.008   3.206  14.077  0.2644  0.2679 -0.0661
 2059SOL    HW117639   0.048   3.138  14.131 -0.6564  1.6537  2.3246
 2059SOL    HW217640   0.060   3.201  13.997 -0.2071 -0.1333 -0.3488
 2060SOL     OW17641   0.866   0.318   9.518  0.3940  0.1253 -0.6070
 2060SOL    HW117642   0.819   0.335   9.437 -0.8553  2.2597  0.5765
 2060SOL    HW217643   0.801   0.345   9.582  0.8276 -0.2496 -0.0130
 2061SOL     OW17644   2.123   1.535  10.063 -0.4086 -0.0266 -0.3040
 2061SOL    HW117645   2.090   1.445  10.063 -1.1744  0.2505  0.4614
 2061SOL    HW217646   2.046   1.590  10.049 -0.1755  0.7036  1.2288
 2062SOL     OW17647   2.701   1.615   0.642 -0.3676  0.1505 -0.2034
 2062SOL    HW117648   2.747   1.658   0.570 -1.4420  2.6682  0.6032
 2062SOL    HW217649   2.689   1.681   0.711  0.4441 -0.2402  0.3132
 2063SOL     OW17650   2.375   1.637   5.994 -0.0485  0.0545  0.6999
 2063SOL    HW117651   2.329   1.665   6.073 -1.5451 -0.6787  0.0951
 2063SOL    HW217652   2.352   1.544   6.002  1.1460 -0.2780  0.1548
 2064SOL     OW17653   4.359   3.039   6.667 -0.2839  0.2869 -0.0997
 2064SOL    HW117654   4.271   3.019   6.701  0.5922 -1.7827  0.9471
 2064SOL    HW217655   4.410   2.971   6.710  2.3119  3.0762  1.1809
 2065SOL     OW17656   0.567   2.526  14.896 -0.1701 -0.1740 -0.3560
 2065SOL    HW117657   0.481   2.516  14.937  0.7686  0.6802  1.8376
 2065SOL    HW217658   0.558   2.496  14.806 -0.6225 -0.5275 -0.1930
 2066SOL     OW17659   4.646   2.661   4.604 -0.0880  0.3464 -0.0932
 2066SOL    HW117660   4.704   2.604   4.655 -0.0932 -0.6025 -1.1481
 2066SOL    HW217661   4.700   2.688   4.530  1.2588 -1.6606  0.1641
 2067SOL     OW17662   0.478   4.280  13.845  0.1192  0.3606  0.0472
 2067SOL    HW117663   0.489   4.322  13.931  1.2637  0.6162 -0.2216
 2067SOL    HW217664   0.549   4.218  13.858 -0.2930 -0.3401 -1.1317
 2068SOL     OW17665   3.075   1.523   7.791  0.1381  0.1798  0.2357
 2068SOL    HW117666   3.056   1.558   7.878 -1.0389  1.2297 -0.4437
 2068SOL    HW217667   3.030   1.439   7.787  1.0244 -0.1233 -2.8577
 2069SOL     OW17668   0.299   3.679   2.677 -0.7394  0.1578  0.1425
 2069SOL    HW117669   0.382   3.639   2.700 -0.4515  1.6816  1.7443
 2069SOL    HW217670   0.322   3.739   2.606  0.2852 -1.1357 -0.6142
 2070SOL     OW17671   3.267   4.230   3.735 -0.2477  0.1592 -0.4336
 2070SOL    HW117672   3.173   4.213   3.726 -0.1535 -0.0957 -0.9756
 2070SOL    HW217673   3.288   4.214   3.643  2.6482 -1.4456  0.4724
 2071SOL     OW17674   4.259   1.139   3.709 -0.0122  0.1640 -0.5297
 2071SOL    HW117675   4.180   1.087   3.724  0.7066 -0.9420 -0.6300
 2071SOL    HW217676   4.233   1.230   3.725  0.3770  0.0399  0.8647
 2072SOL     OW17677   4.488   0.269   7.708 -0.0541 -0.5570  0.2826
 2072SOL    HW117678   4.447   0.212   7.773 -0.3256 -0.8662 -0.1597
 2072SOL    HW217679   4.420   0.280   7.641  1.2939  0.0160 -1.0070
 2073SOL     OW17680   3.755   4.097  17.484 -0.0198  0.4051 -0.3476
 2073SOL    HW117681   3.834   4.053  17.515 -0.6487  0.9584  1.9671
 2073SOL    HW217682   3.699   4.085  17.560  0.3584  0.2396 -0.0932
 2074SOL     OW17683   2.508   1.714   1.136  0.1742 -0.0343 -0.1012
 2074SOL    HW117684   2.415   1.728   1.156  0.4503 -0.2522  1.2699
 2074SOL    HW217685   2.523   1.661   1.213 -5.1011  1.0388  1.6478
 2075SOL     OW17686   2.296   0.449   5.981 -0.4757 -0.4599  0.4419
 2075SOL    HW117687   2.213   0.402   5.980 -1.4235  1.1918  1.5192
 2075SOL    HW217688   2.281   0.529   6.030 -1.3522  1.3556 -2.8116
 2076SOL     OW17689   1.724   0.844   9.799 -0.7303  0.0570 -0.3144
 2076SOL    HW117690   1.817   0.847   9.820 -0.6953  1.6655 -0.6578
 2076SOL    HW217691   1.707   0.751   9.787 -1.5914  0.0273  1.1287
 2077SOL     OW17692   3.663   1.425   9.219 -0.7973 -0.2604  0.2491
 2077SOL    HW117693   3.645   1.445   9.127 -0.4801  1.0910  0.4780
 2077SOL    HW217694   3.759   1.432   9.219 -0.6381 -2.3397  1.2904
 2078SOL     OW17695   2.807   4.599   8.998 -0.0884  0.0488 -0.0051
 2078SOL    HW117696   2.741   4.634   9.058  0.9888 -0.1216  1.2762
 2078SOL    HW217697   2.883   4.657   9.005  0.4515 -0.6348 -0.1334
 2079SOL     OW17698   3.898   0.995   9.271  0.0453 -0.2086  0.1258
 2079SOL    HW117699   3.943   0.994   9.355 -1.3568  0.0696  0.8823
 2079SOL    HW217700   3.865   1.085   9.268 -1.8728 -0.9058 -0.0016
 2080SOL     OW17701   2.532   0.905   4.156  0.7650  0.6676  0.0498
 2080SOL    HW117702   2.462   0.939   4.100 -1.2208 -3.4208  0.0632
 2080SOL    HW217703   2.500   0.913   4.246  2.5538  1.1602  0.6405
 2081SOL     OW17704   1.151   4.251   6.898  0.1835 -0.2902 -0.0991
 2081SOL    HW117705   1.181   4.289   6.815  1.5281 -0.2375  0.3984
 2081SOL    HW217706   1.219   4.273   6.962  0.7859 -1.9692 -0.1766
 2082SOL     OW17707   4.246   4.654   2.625 -0.8536  0.1546 -0.0707
 2082SOL    HW117708   4.334   4.620   2.614 -0.9264  0.3392 -1.3027
 2082SOL    HW217709   4.195   4.624   2.550 -0.9448  0.8849 -0.3034
 2083SOL     OW17710   3.319   0.340   4.768 -0.2928 -0.1378  0.3400
 2083SOL    HW117711   3.233   0.300   4.782 -0.4393 -0.7496 -2.2713
 2083SOL    HW217712   3.333   0.333   4.673  0.1887  1.1238  0.3137
 2084SOL     OW17713   2.557   3.361   5.995 -0.0321 -0.1333  0.2760
 2084SOL    HW117714   2.598   3.282   5.960  1.2576  0.8798 -0.4776
 2084SOL    HW217715   2.498   3.340   6.068 -0.3412 -1.4967 -0.3701
 2085SOL     OW17716   4.715   0.798   1.676 -0.0773 -0.2077 -0.0274
 2085SOL    HW117717   0.079   0.837   1.686 -0.3830  0.6995 -0.8819
 2085SOL    HW217718   4.676   0.815   1.761 -3.1027 -1.4853 -1.1345
 2086SOL     OW17719   4.356   0.016  11.175  0.0132 -0.7000  0.4200
 2086SOL    HW117720   4.355   0.092  11.233 -3.0266 -0.0753 -0.4588
 2086SOL    HW217721   4.316   4.671  11.232 -1.0678 -1.3325 -1.0671
 2087SOL     OW17722   4.332   1.610  12.605 -0.0962 -0.6191 -0.4602
 2087SOL    HW117723   4.318   1.662  12.684  0.3628  1.4493 -1.7395
 2087SOL    HW217724   4.251   1.558  12.600 -2.0015  1.9372  3.6926
 2088SOL     OW17725   4.659   4.688   8.372  0.5742  0.0757  0.0324
 2088SOL    HW117726   4.642   4.601   8.335 -1.8469  0.8484 -0.6447
 2088SOL    HW217727   4.717   4.671   8.446 -1.5451  2.3337  2.1959
 2089SOL     OW17728   3.952   2.337   5.769  0.3721  0.1199  0.1782
 2089SOL    HW117729   4.006   2.267   5.732  1.0948  1.0905 -0.6232
 2089SOL    HW217730   3.884   2.349   5.702 -0.6644  1.0619  1.3978
 2090SOL     OW17731   3.024   1.218   4.025 -0.1309  0.3101  0.0583
 2090SOL    HW117732   3.036   1.310   4.045  1.1943  0.4725 -1.4586
 2090SOL    HW217733   3.007   1.215   3.931  0.0481  2.1731 -0.0329
 2091SOL     OW17734   2.898   1.062  16.772 -0.5248  0.3357  0.2920
 2091SOL    HW117735   2.846   1.038  16.849 -1.1503  0.9515  0.0626
 2091SOL    HW217736   2.866   1.150  16.755  3.3820  1.9715  1.3764
 2092SOL     OW17737   3.560   2.970   1.115 -0.2343 -0.5239 -0.5425
 2092SOL    HW117738   3.591   3.033   1.051  0.0296  2.1148  2.1823
 2092SOL    HW217739   3.464   2.967   1.117 -0.2190 -0.3854  0.6604
 2093SOL     OW17740   0.359   1.100   3.643  0.2169  0.2524 -0.7826
 2093SOL    HW117741   0.329   1.184   3.679 -3.2105 -0.3208 -2.3308
 2093SOL    HW217742   0.275   1.056   3.656  0.2218  1.2122  2.4646
 2094SOL     OW17743   4.221   3.812   1.640 -0.7563  0.5385 -0.4299
 2094SOL    HW117744   4.199   3.877   1.573 -2.6756  0.6548  0.3205
 2094SOL    HW217745   4.141   3.806   1.692 -0.8795 -0.1215 -0.6996
 2095SOL     OW17746   0.095   4.659   1.855  0.3219  0.4003 -0.2230
 2095SOL    HW117747   0.061   4.595   1.792  2.3933  0.6457 -1.5917
 2095SOL    HW217748   0.185   4.628   1.856  0.1260 -0.1383  0.4574
 2096SOL     OW17749   2.294   3.979   5.489 -0.0928 -0.7013 -0.7471
 2096SOL    HW117750   2.338   3.899   5.460  2.4637  0.1913  0.6874
 2096SOL    HW217751   2.336   4.004   5.571  0.3668  0.7051 -1.4156
 2097SOL     OW17752   3.432   0.771   6.661 -0.0043  0.1861  0.2157
 2097SOL    HW117753   3.393   0.686   6.644 -0.0239 -0.2005  2.1840
 2097SOL    HW217754   3.366   0.806   6.721  0.3360  1.0579  0.0779
 2098SOL     OW17755   0.084   3.446  10.926 -0.5027 -0.0379 -0.3370
 2098SOL    HW117756   0.157   3.497  10.958 -3.2987  3.2762  0.7146
 2098SOL    HW217757   0.110   3.449  10.833  0.5679 -4.0682 -0.1613
 2099SOL     OW17758   0.025   4.240   9.251  0.2092 -0.4514  0.8814
 2099SOL    HW117759   0.074   4.198   9.181 -2.0127 -2.2201  0.3839
 2099SOL    HW217760   4.661   4.241   9.208  0.6040  3.1782  0.1564
 2100SOL     OW17761   2.604   1.237  11.067  0.0702 -0.3991  0.1172
 2100SOL    HW117762   2.570   1.321  11.036 -0.9189 -1.0129 -0.4518
 2100SOL    HW217763   2.667   1.212  10.999  0.9276  2.0520 -0.0136
 2101SOL     OW17764   0.821   0.607   8.508 -0.2561  0.4465 -0.1013
 2101SOL    HW117765   0.814   0.703   8.506 -0.2916  0.4538  0.2742
 2101SOL    HW217766   0.733   0.593   8.473  0.3468  0.7726 -1.7698
 2102SOL     OW17767   1.940   4.404  14.327  0.4279  0.8620 -0.0922
 2102SOL    HW117768   1.890   4.339  14.277  0.8428  1.2896 -1.0634
 2102SOL    HW217769   2.028   4.380  14.300  0.0545 -1.6248  0.9611
 2103SOL     OW17770   4.076   4.679   3.074 -0.5029  0.5496  0.3348
 2103SOL    HW117771   4.167   4.652   3.056 -0.5137  0.3983  0.5097
 2103SOL    HW217772   4.075   4.712   2.984  0.8626  2.7512  1.1204
 2104SOL     OW17773   2.342   0.246   2.210  0.5641 -0.0085  0.3156
 2104SOL    HW117774   2.356   0.312   2.278  1.0939 -1.3680  1.5390
 2104SOL    HW217775   2.257   0.268   2.173 -0.2918  0.8324  2.7879
 2105SOL     OW17776   1.183   0.382   7.178  0.0670 -0.5231  0.2792
 2105SOL    HW117777   1.256   0.325   7.152  0.3420  1.1217 -2.5027
 2105SOL    HW217778   1.134   0.314   7.225 -2.1848  0.9976  0.1218
 2106SOL     OW17779   1.980   0.882   9.890 -0.0116  0.3745  0.4301
 2106SOL    HW117780   2.074   0.898   9.890  0.2855 -1.3292 -0.4557
 2106SOL    HW217781   1.954   0.908   9.978 -0.8791 -2.2056  0.9265
 2107SOL     OW17782   2.334   1.671   1.543  0.3195 -0.7492 -0.1265
 2107SOL    HW117783   2.389   1.620   1.482 -1.3153 -1.4329 -1.0351
 2107SOL    HW217784   2.318   1.750   1.491 -2.7580 -0.2065  1.6436
 2108SOL     OW17785   4.175   3.173   6.362  0.7548 -0.2144 -0.1115
 2108SOL    HW117786   4.149   3.145   6.449  1.7176 -1.0345 -0.0949
 2108SOL    HW217787   4.131   3.257   6.347  0.3154 -0.6205 -1.1089
 2109SOL     OW17788   4.094   2.743   9.133 -0.2800 -0.2337  0.3749
 2109SOL    HW117789   4.165   2.804   9.110  0.1248 -0.3428  1.3346
 2109SOL    HW217790   4.046   2.744   9.051 -1.1866  0.6408  0.9104
 2110SOL     OW17791   3.264   2.369   7.736 -0.2434 -0.3749 -0.3896
 2110SOL    HW117792   3.269   2.305   7.807 -1.6858  0.0023  0.0561
 2110SOL    HW217793   3.261   2.455   7.779 -2.0150  0.3332 -1.9114
 2111SOL     OW17794   3.090   4.290  14.767  0.6583  0.4672 -0.6628
 2111SOL    HW117795   3.029   4.238  14.820  0.2568  2.0623  0.4312
 2111SOL    HW217796   3.086   4.376  14.810  1.6089  0.3270 -0.3083
 2112SOL     OW17797   3.915   1.706   7.601  0.3341  0.0982 -0.3727
 2112SOL    HW117798   3.974   1.762   7.652  0.0617  0.5840 -0.5894
 2112SOL    HW217799   3.910   1.623   7.647  0.4644  0.1950 -0.1862
 2113SOL     OW17800   0.496   3.997   7.961  0.3254  0.7670  0.0821
 2113SOL    HW117801   0.556   3.947   7.907 -0.0345  2.8199 -2.1835
 2113SOL    HW217802   0.542   4.073   7.998 -1.3037  1.6397  0.3103
 2114SOL     OW17803   2.915   2.833   1.352 -0.1136 -0.3493 -0.1626
 2114SOL    HW117804   2.880   2.915   1.317 -2.4407 -0.5513  1.6879
 2114SOL    HW217805   2.848   2.819   1.419 -0.6611 -1.5561 -0.9732
 2115SOL     OW17806   2.818   2.651  14.829 -0.7814 -0.1718 -0.0768
 2115SOL    HW117807   2.819   2.725  14.768  3.4925  1.1380  1.5986
 2115SOL    HW217808   2.911   2.636  14.847 -1.2883 -1.7343  1.2007
 2116SOL     OW17809   0.244   3.758   6.733  0.1016  0.6347 -0.2480
 2116SOL    HW117810   0.329   3.793   6.761 -0.4720 -0.5173  2.8630
 2116SOL    HW217811   0.211   3.726   6.817 -2.7974 -0.8549 -1.9617
 2117SOL     OW17812   0.382   0.533   9.730  0.2511 -0.0126  0.0773
 2117SOL    HW117813   0.375   0.619   9.689 -0.3298  0.3418  0.9020
 2117SOL    HW217814   0.351   0.554   9.819  1.3929  0.1332  0.4408
 2118SOL     OW17815   3.019   3.093  13.349  0.1441 -0.6370 -0.1509
 2118SOL    HW117816   2.964   3.024  13.386  0.2585  0.8069  2.6881
 2118SOL    HW217817   2.971   3.174  13.365  2.1087  0.4525  0.3008
 2119SOL     OW17818   3.573   3.130  10.303 -0.4361  0.0457 -0.0706
 2119SOL    HW117819   3.664   3.132  10.274 -0.7744  1.0797 -1.0787
 2119SOL    HW217820   3.593   3.127  10.397  1.5471  0.7554 -0.4689
 2120SOL     OW17821   2.489   2.822  17.051  0.1140  0.1551  0.5875
 2120SOL    HW117822   2.512   2.914  17.065  0.9816  0.1089 -0.4871
 2120SOL    HW217823   2.498   2.811  16.956  2.8567 -0.9675  0.9767
 2121SOL     OW17824   0.931   2.021   8.271 -0.0085 -0.3414  0.5131
 2121SOL    HW117825   0.894   1.996   8.186  0.9739 -4.0882  1.1778
 2121SOL    HW217826   0.857   2.012   8.331  0.9132  0.5119  1.7739
 2122SOL     OW17827   3.474   4.230   4.794  0.2215 -0.1583  0.0603
 2122SOL    HW117828   3.407   4.276   4.744  1.7243  0.9897 -0.9063
 2122SOL    HW217829   3.472   4.145   4.751  1.0998 -0.8407  1.3568
 2123SOL     OW17830   2.425   4.123   7.666 -0.0591 -0.1079 -0.5296
 2123SOL    HW117831   2.456   4.088   7.583  1.6982 -1.4822  0.6960
 2123SOL    HW217832   2.487   4.196   7.674  1.9146 -1.8963  0.3002
 2124SOL     OW17833   1.690   0.799  13.938 -0.1360  0.0709  0.2350
 2124SOL    HW117834   1.784   0.790  13.954 -0.1915  0.3500  0.7198
 2124SOL    HW217835   1.652   0.796  14.025 -2.5636  2.5627 -0.7493
 2125SOL     OW17836   2.142   2.992   3.727 -0.3497 -0.0068  0.1278
 2125SOL    HW117837   2.051   3.023   3.724 -0.5936 -0.6793  0.8424
 2125SOL    HW217838   2.167   3.025   3.813 -0.2885 -1.3904  0.6219
 2126SOL     OW17839   0.285   2.337   5.527 -0.0014  0.0870  0.0960
 2126SOL    HW117840   0.284   2.297   5.440 -2.8827 -1.8142  0.9871
 2126SOL    HW217841   0.362   2.300   5.570 -0.5156  2.0101  2.6525
 2127SOL     OW17842   2.252   3.331   4.002  0.2826  0.4144  0.9404
 2127SOL    HW117843   2.188   3.331   4.073 -2.1900  0.2644 -1.3175
 2127SOL    HW217844   2.242   3.244   3.963  0.1200 -0.0068  1.9326
 2128SOL     OW17845   0.694   3.976  16.333 -1.1703  0.3100 -0.4958
 2128SOL    HW117846   0.708   4.039  16.262  0.8629 -0.3936 -0.7257
 2128SOL    HW217847   0.688   4.032  16.411 -0.9091  1.2220 -1.1273
 2129SOL     OW17848   3.157   2.052   7.066  0.1695  0.6311 -0.0013
 2129SOL    HW117849   3.169   2.138   7.028  0.3140  2.3366  3.8907
 2129SOL    HW217850   3.121   2.075   7.152  3.0950  0.2913  1.3326
 2130SOL     OW17851   2.917   0.711   0.559 -0.4115  0.1696  0.1310
 2130SOL    HW117852   2.888   0.629   0.600 -0.5500  1.2650  2.2032
 2130SOL    HW217853   3.001   0.691   0.518  0.2222  2.1300  0.4698
 2131SOL     OW17854   1.830   2.998   0.511  0.3486  0.1239  0.9151
 2131SOL    HW117855   1.795   3.004   0.422  2.7825 -1.9621 -0.1919
 2131SOL    HW217856   1.806   2.906   0.527 -0.3235  0.2666  0.7404
 2132SOL     OW17857   2.006   2.212   1.872  0.2279 -0.3011 -0.7635
 2132SOL    HW117858   2.097   2.237   1.890 -0.6101  2.6798 -0.5873
 2132SOL    HW217859   1.970   2.300   1.882 -0.7625 -0.7367 -0.5540
 2133SOL     OW17860   3.470   2.032   4.482  0.3316 -0.0682  0.0974
 2133SOL    HW117861   3.543   2.079   4.523  0.5857 -0.7345  0.4093
 2133SOL    HW217862   3.400   2.050   4.544  0.7087  0.4943  0.3706
 2134SOL     OW17863   3.652   3.662   4.921  0.0754  0.2172 -0.4598
 2134SOL    HW117864   3.640   3.739   4.977 -0.0687  0.1025 -0.3302
 2134SOL    HW217865   3.698   3.600   4.977 -2.1360 -1.0027  0.0313
 2135SOL     OW17866   3.758   2.410   3.794  0.5767 -0.7423  0.5004
 2135SOL    HW117867   3.685   2.416   3.733  1.0879  0.7188  0.0324
 2135SOL    HW217868   3.786   2.500   3.810 -0.0304 -0.5407  0.4123
 2136SOL     OW17869   4.158   0.272   2.429 -0.1485  0.6855 -0.1096
 2136SOL    HW117870   4.165   0.198   2.368 -1.6279  1.3690 -1.1148
 2136SOL    HW217871   4.075   0.247   2.468  0.2979 -0.3544  0.1789
 2137SOL     OW17872   3.032   4.374   8.230  0.3582 -0.3490  0.2683
 2137SOL    HW117873   3.096   4.434   8.267  2.2447 -2.8414  0.9809
 2137SOL    HW217874   3.081   4.332   8.160 -1.4408 -0.2684 -1.0373
 2138SOL     OW17875   1.417   2.184  11.280 -0.2518 -0.4553 -0.1271
 2138SOL    HW117876   1.470   2.158  11.204  1.2933  1.5856  0.2410
 2138SOL    HW217877   1.398   2.098  11.318  3.1164 -1.0255  0.3319
 2139SOL     OW17878   2.059   0.471   1.833 -0.1292 -0.0442 -0.6680
 2139SOL    HW117879   2.113   0.540   1.797 -0.6691 -0.3056 -1.9957
 2139SOL    HW217880   2.014   0.454   1.750  0.3584 -3.6206 -0.2310
 2140SOL     OW17881   4.664   2.905  10.538  0.4941  0.0579 -0.6219
 2140SOL    HW117882   4.648   2.958  10.461  1.0166  1.2862  0.1089
 2140SOL    HW217883   4.583   2.855  10.548  1.0785 -0.3185  2.3661
 2141SOL     OW17884   1.111   2.581   7.616  0.0848  0.2536 -0.2616
 2141SOL    HW117885   1.186   2.551   7.667 -0.1800 -2.1296 -1.2627
 2141SOL    HW217886   1.090   2.503   7.566  2.1104 -1.5351  1.6648
 2142SOL     OW17887   1.516   1.497   5.693 -0.3010  0.4750 -0.6815
 2142SOL    HW117888   1.586   1.558   5.715  0.7208 -0.4725 -1.3064
 2142SOL    HW217889   1.453   1.557   5.651 -0.8828 -1.4271 -2.5150
 2143SOL     OW17890   2.170   0.153   7.813 -0.3390 -0.1241  0.1454
 2143SOL    HW117891   2.190   0.104   7.893  2.5330  0.6115 -0.1395
 2143SOL    HW217892   2.075   0.142   7.815 -0.4715  1.0521 -0.0235
 2144SOL     OW17893   1.533   3.365   4.880 -0.4318  0.1084  0.1670
 2144SOL    HW117894   1.624   3.340   4.870 -0.4706  0.5935 -1.3318
 2144SOL    HW217895   1.516   3.347   4.973 -0.3279 -1.6705 -0.1611
 2145SOL     OW17896   2.996   1.196  11.532 -0.9860  0.2390  0.5514
 2145SOL    HW117897   2.981   1.181  11.439  1.9221  0.9474 -0.0308
 2145SOL    HW217898   2.933   1.139  11.576 -0.9152  0.4991  0.9915
 2146SOL     OW17899   1.343   3.745  15.822 -0.0442 -0.2161 -0.5496
 2146SOL    HW117900   1.266   3.692  15.800 -1.0847  2.3109 -2.9240
 2146SOL    HW217901   1.304   3.831  15.837  1.6477  0.5111 -0.3702
 2147SOL     OW17902   0.449   2.715   5.142  0.2466  0.4383 -0.0965
 2147SOL    HW117903   0.471   2.622   5.132  1.5406  0.9008 -1.5711
 2147SOL    HW217904   0.365   2.695   5.101  0.2564  1.1740 -0.4730
 2148SOL     OW17905   1.017   1.661   8.301 -0.2732  0.1097 -0.3332
 2148SOL    HW117906   1.054   1.742   8.336  0.2607 -0.9423  1.5377
 2148SOL    HW217907   0.983   1.686   8.215 -1.0596 -0.7343 -0.2713
 2149SOL     OW17908   1.442   0.106  13.854  0.4269  0.5148 -0.0553
 2149SOL    HW117909   1.411   0.096  13.764  0.2615  0.6462 -0.0130
 2149SOL    HW217910   1.508   0.037  13.860 -1.7303 -1.4699  0.5010
 2150SOL     OW17911   2.713   2.505   2.394 -0.1545  0.2893 -0.3921
 2150SOL    HW117912   2.795   2.519   2.345 -0.6789  1.1754 -1.0140
 2150SOL    HW217913   2.728   2.420   2.435  0.7933  0.9336  0.6008
 2151SOL     OW17914   4.267   0.512   3.557  0.3936 -0.0441 -0.0421
 2151SOL    HW117915   4.277   0.534   3.464 -1.2691 -0.0502 -0.2348
 2151SOL    HW217916   4.353   0.531   3.595  0.1234 -0.1658  0.6363
 2152SOL     OW17917   1.631   2.044  13.245  0.4749  0.0502 -0.1815
 2152SOL    HW117918   1.582   2.018  13.323 -3.6766  1.4546 -2.2969
 2152SOL    HW217919   1.683   2.113  13.285 -1.2680  0.6455  1.0115
 2153SOL     OW17920   3.025   3.159   2.825  0.2470 -0.2274 -0.1117
 2153SOL    HW117921   3.078   3.236   2.845  1.1846 -0.6532 -0.9716
 2153SOL    HW217922   3.077   3.116   2.757  0.6069  1.3708 -0.8501
 2154SOL     OW17923   1.875   3.353   2.236 -0.0804 -0.5613  0.0100
 2154SOL    HW117924   1.933   3.429   2.237 -1.4061  0.4396  1.4983
 2154SOL    HW217925   1.853   3.358   2.329 -1.2338 -0.9533 -0.2401
 2155SOL     OW17926   0.685   1.327   0.249  0.6719  0.0373  0.7618
 2155SOL    HW117927   0.702   1.234   0.264 -1.4587 -0.6784 -1.3386
 2155SOL    HW217928   0.618   1.317   0.182  0.5490  0.2045  0.8588
 2156SOL     OW17929   4.701   3.186   0.535  0.5005  0.4685 -0.1470
 2156SOL    HW117930   0.014   3.165   0.622  1.0237 -1.1221 -0.7387
 2156SOL    HW217931   4.625   3.239   0.560  0.5552  0.1172  0.7920
 2157SOL     OW17932   3.435   0.570   5.490  0.1779 -0.8012 -0.0656
 2157SOL    HW117933   3.398   0.618   5.416 -0.7625  0.0937  0.9736
 2157SOL    HW217934   3.476   0.495   5.446 -0.9831 -1.1646 -0.5143
 2158SOL     OW17935   0.238   4.266   4.116  0.4103  0.8857 -0.5325
 2158SOL    HW117936   0.239   4.269   4.020  4.1407  0.9403 -0.4836
 2158SOL    HW217937   0.147   4.249   4.139  0.5308 -0.9633 -1.4063
 2159SOL     OW17938   0.308   1.588   6.072 -0.0490 -0.1698 -0.4066
 2159SOL    HW117939   0.272   1.672   6.046  0.8041 -0.5991 -2.9871
 2159SOL    HW217940   0.292   1.544   5.989  0.4873 -0.4403 -0.3700
 2160SOL     OW17941   1.172   0.932   8.385 -0.1443  0.0252  0.4381
 2160SOL    HW117942   1.221   1.014   8.382  2.1873 -1.4067 -1.3075
 2160SOL    HW217943   1.114   0.948   8.458  0.3810 -0.7193  1.0239
 2161SOL     OW17944   3.226   1.336  11.658 -0.0794  0.5851  0.4954
 2161SOL    HW117945   3.284   1.261  11.671  0.4425  0.9597  0.3459
 2161SOL    HW217946   3.149   1.293  11.621 -0.5601  2.0038 -0.1961
 2162SOL     OW17947   2.153   0.149   5.217 -0.1244 -0.1155 -0.1999
 2162SOL    HW117948   2.142   0.235   5.256  1.5242  0.0649 -0.1229
 2162SOL    HW217949   2.248   0.141   5.227 -0.1856  1.4099  1.7222
 2163SOL     OW17950   2.600   2.006   4.286  0.3423 -0.4491 -0.6656
 2163SOL    HW117951   2.676   1.947   4.286  0.1958 -0.6287 -2.6084
 2163SOL    HW217952   2.614   2.059   4.207  1.8148  1.1013  0.6341
 2164SOL     OW17953   2.830   4.656   8.503 -0.3004 -0.6105 -0.3863
 2164SOL    HW117954   2.889   4.646   8.578 -0.7810 -1.0989 -0.0746
 2164SOL    HW217955   2.889   4.684   8.433 -0.2223 -1.3697 -0.6188
 2165SOL     OW17956   3.750   1.521  11.376 -0.1746  0.5072  0.2285
 2165SOL    HW117957   3.786   1.567  11.300  0.3431  2.0208  1.3830
 2165SOL    HW217958   3.684   1.469  11.331  0.0322  0.5043 -0.0700
 2166SOL     OW17959   3.521   1.758   5.734 -0.3820  1.2507 -0.4115
 2166SOL    HW117960   3.455   1.780   5.801 -0.8242 -1.0240 -0.1057
 2166SOL    HW217961   3.549   1.847   5.710  1.3188  1.1038  0.9989
 2167SOL     OW17962   1.860   3.207  16.591 -0.4606  0.0004 -0.5458
 2167SOL    HW117963   1.863   3.120  16.552 -3.3625  0.2001 -1.2085
 2167SOL    HW217964   1.948   3.208  16.629  0.5499 -1.5066 -2.8459
 2168SOL     OW17965   1.323   0.983   6.266  0.3565 -0.0892  0.2518
 2168SOL    HW117966   1.280   1.067   6.282  1.6367  0.3431  1.3943
 2168SOL    HW217967   1.275   0.966   6.184  0.1562  1.1222  0.1128
 2169SOL     OW17968   0.294   0.426   8.468  0.4180 -0.6374 -0.3288
 2169SOL    HW117969   0.276   0.350   8.523  0.0272  1.0138  1.8341
 2169SOL    HW217970   0.231   0.402   8.400 -0.2111 -0.0174  0.0505
 2170SOL     OW17971   0.287   2.317  11.276  0.9342 -0.1356  0.3854
 2170SOL    HW117972   0.381   2.304  11.284  0.6703 -0.5201  2.7843
 2170SOL    HW217973   0.275   2.381  11.346 -1.1425 -0.0269 -0.0707
 2171SOL     OW17974   1.494   2.486  14.574  0.6071  0.3907 -0.6227
 2171SOL    HW117975   1.489   2.571  14.531 -1.3766  1.0504  0.9576
 2171SOL    HW217976   1.412   2.484  14.624  1.7736 -3.2413  1.1547
 2172SOL     OW17977   1.055   0.391   8.059  0.3250  0.0881 -0.3496
 2172SOL    HW117978   0.967   0.427   8.048  0.2175 -0.9974 -3.0868
 2172SOL    HW217979   1.036   0.303   8.024 -1.3431  0.4847 -0.4544
 2173SOL     OW17980   3.598   3.859   5.114 -0.1110  0.0576  0.0418
 2173SOL    HW117981   3.630   3.870   5.204 -0.6226 -0.9591  0.3504
 2173SOL    HW217982   3.627   3.940   5.071  0.4587 -0.7882 -1.1633
 2174SOL     OW17983   2.383   3.090   1.174  0.2495  0.3040 -0.3853
 2174SOL    HW117984   2.437   3.057   1.246 -0.0759 -0.1815 -0.3616
 2174SOL    HW217985   2.320   3.139   1.226  0.3493  0.2933 -0.2523
 2175SOL     OW17986   2.455   4.508  13.098  0.6456 -0.0349  0.6353
 2175SOL    HW117987   2.410   4.587  13.069  2.1363  0.3826 -0.5647
 2175SOL    HW217988   2.401   4.432  13.075  0.3333 -0.3118  2.3027
 2176SOL     OW17989   3.147   2.249   8.398 -0.2882  0.4757 -0.3185
 2176SOL    HW117990   3.114   2.169   8.437 -0.3117 -0.8500 -3.0740
 2176SOL    HW217991   3.206   2.281   8.466 -0.2786  0.0145 -0.1139
 2177SOL     OW17992   2.556   1.510  11.216  0.2564 -0.4165  0.8023
 2177SOL    HW117993   2.624   1.443  11.204 -0.8059 -1.5802  1.2687
 2177SOL    HW217994   2.478   1.465  11.182 -0.3270  2.7677 -2.1548
 2178SOL     OW17995   2.599   2.313  14.153 -0.9003  0.0302  0.0757
 2178SOL    HW117996   2.649   2.303  14.234  1.4967  1.4915 -1.2087
 2178SOL    HW217997   2.546   2.392  14.166 -0.0964  0.8326 -1.5015
 2179SOL     OW17998   3.530   3.430   0.745  0.1593  0.3979 -0.2005
 2179SOL    HW117999   3.516   3.370   0.819 -2.4008  0.2716 -0.7851
 2179SOL    HW218000   3.620   3.402   0.729  0.9298  1.4176  2.4168
 2180SOL     OW18001   2.110   1.419   6.992 -0.6007 -0.5062 -0.1869
 2180SOL    HW118002   2.077   1.479   6.926 -2.7794  0.9658  2.2132
 2180SOL    HW218003   2.203   1.438   6.996 -0.6905 -0.0309 -0.3974
 2181SOL     OW18004   4.431   3.315   5.148 -0.3907  0.0578  0.0934
 2181SOL    HW118005   4.412   3.341   5.057 -0.1141 -0.6874 -0.1759
 2181SOL    HW218006   4.524   3.296   5.132 -0.2018  0.1366  1.1075
 2182SOL     OW18007   3.954   2.808   8.545  0.2985 -0.2623  0.2313
 2182SOL    HW118008   3.956   2.725   8.593 -1.0173  0.0615  0.8394
 2182SOL    HW218009   4.041   2.806   8.505  0.5408 -0.0677  0.7631
 2183SOL     OW18010   3.202   4.278   8.038 -0.0294  0.1323 -0.2329
 2183SOL    HW118011   3.176   4.207   7.979 -2.4357  2.0735 -1.5069
 2183SOL    HW218012   3.247   4.336   7.977  1.2590 -0.4796  0.1379
 2184SOL     OW18013   1.237   2.543   3.825 -0.4931  0.0591 -0.1562
 2184SOL    HW118014   1.216   2.631   3.795  1.5739  0.3305 -0.8017
 2184SOL    HW218015   1.321   2.530   3.782 -1.5568 -2.0080 -1.6324
 2185SOL     OW18016   1.943   0.409   5.152 -0.2934 -0.0143 -0.3815
 2185SOL    HW118017   1.934   0.486   5.095  0.5018 -1.7625 -2.8803
 2185SOL    HW218018   1.937   0.336   5.091 -2.0431  0.1400 -0.3917
 2186SOL     OW18019   3.138   3.771  16.357  0.2880 -0.3422  0.8169
 2186SOL    HW118020   3.111   3.827  16.429  0.0077  2.1843 -1.2471
 2186SOL    HW218021   3.110   3.690  16.400 -0.9453 -0.5098 -0.3132
 2187SOL     OW18022   3.172   2.036  13.120 -0.3803 -0.6803  0.7106
 2187SOL    HW118023   3.212   2.080  13.045 -1.6673 -0.5855  0.0838
 2187SOL    HW218024   3.168   1.945  13.090  1.2566 -0.3294 -0.5902
 2188SOL     OW18025   2.344   4.114   7.382  0.5889 -0.6439 -0.3129
 2188SOL    HW118026   2.271   4.176   7.393  0.9682 -0.0316 -1.1919
 2188SOL    HW218027   2.372   4.137   7.293 -1.4412  1.1220 -0.5127
 2189SOL     OW18028   3.080   1.380   7.069  0.3642  0.4558  0.3967
 2189SOL    HW118029   3.085   1.285   7.069  0.7921  0.4816  2.6167
 2189SOL    HW218030   3.030   1.404   6.991 -0.3535  2.2554  1.3953
 2190SOL     OW18031   3.453   0.572  14.676 -0.2053 -0.1982  0.1038
 2190SOL    HW118032   3.508   0.526  14.613 -1.2331 -0.1871 -0.7985
 2190SOL    HW218033   3.394   0.619  14.617 -1.5804 -1.8451  0.1624
 2191SOL     OW18034   4.360   0.135   5.052 -0.0839  0.5582 -0.7265
 2191SOL    HW118035   4.265   0.128   5.063  0.0205  0.5151  0.1510
 2191SOL    HW218036   4.372   0.229   5.067  1.5339  0.2463 -0.0774
 2192SOL     OW18037   0.445   3.394   4.637  0.4437  0.5408 -0.6012
 2192SOL    HW118038   0.378   3.346   4.686  0.2537  1.4473  0.0314
 2192SOL    HW218039   0.479   3.330   4.574  1.7595  2.0996 -1.4796
 2193SOL     OW18040   0.309   4.347   8.223 -0.4267 -0.0076 -0.0381
 2193SOL    HW118041   0.397   4.347   8.186 -0.2285  3.3930  0.4775
 2193SOL    HW218042   0.336   4.372   8.311  1.0276 -2.2199  0.1582
 2194SOL     OW18043   4.183   3.186   2.411  0.7998 -0.1088  0.4247
 2194SOL    HW118044   4.266   3.181   2.460  1.8782 -1.1312 -1.5331
 2194SOL    HW218045   4.169   3.093   2.397  2.9481 -0.1588 -1.4266
 2195SOL     OW18046   1.001   2.125  11.712  0.0467 -0.0808  0.5795
 2195SOL    HW118047   1.057   2.059  11.752  0.9916 -0.0162 -0.6294
 2195SOL    HW218048   0.918   2.080  11.727 -0.0436  0.5231  1.9831
 2196SOL     OW18049   2.176   1.421   3.359 -0.1750 -0.2800  0.2096
 2196SOL    HW118050   2.246   1.485   3.348 -1.5272  1.1989  0.1958
 2196SOL    HW218051   2.207   1.346   3.309 -1.5181 -1.0539  0.5192
 2197SOL     OW18052   0.400   0.386  11.654 -0.2234  0.1859  0.1300
 2197SOL    HW118053   0.408   0.464  11.598 -1.0951 -0.6984 -1.2222
 2197SOL    HW218054   0.354   0.413  11.733 -1.1747  0.9479 -0.6993
 2198SOL     OW18055   2.236   4.365  16.175 -0.0627 -0.5835 -0.2966
 2198SOL    HW118056   2.165   4.422  16.207 -0.8026 -1.9877  0.5796
 2198SOL    HW218057   2.266   4.417  16.101 -0.6253  0.1683 -0.0052
 2199SOL     OW18058   4.349   4.415  16.066  0.0332  0.0033 -0.1666
 2199SOL    HW118059   4.436   4.376  16.067 -0.1146 -0.3567 -1.6699
 2199SOL    HW218060   4.308   4.350  16.123 -0.9271 -3.0846 -4.3484
 2200SOL     OW18061   3.488   4.382   4.328  0.6370 -0.4950  0.3478
 2200SOL    HW118062   3.539   4.422   4.398 -0.3572  0.3702  0.5849
 2200SOL    HW218063   3.499   4.452   4.264 -0.3734 -0.5192  0.1350
 2201SOL     OW18064   2.437   2.526   4.807  0.1003  0.6711 -0.4767
 2201SOL    HW118065   2.405   2.607   4.846 -0.8578 -0.1327  0.3799
 2201SOL    HW218066   2.518   2.506   4.854 -0.5626 -1.5213 -0.2882
 2202SOL     OW18067   3.883   0.370   5.429  0.2607  0.3316  0.0661
 2202SOL    HW118068   3.933   0.452   5.429  0.0751  0.4505 -0.5997
 2202SOL    HW218069   3.907   0.330   5.513  1.2965  0.3721 -0.2049
 2203SOL     OW18070   0.884   2.650  10.845  0.1194 -0.5825  0.0589
 2203SOL    HW118071   0.903   2.663  10.938 -0.5671  1.3997 -0.0797
 2203SOL    HW218072   0.855   2.738  10.819 -0.2072 -0.6971  0.0337
 2204SOL     OW18073   1.370   3.750   2.744 -0.1532 -0.5412  0.2964
 2204SOL    HW118074   1.372   3.688   2.671 -2.6352 -0.6911  0.3510
 2204SOL    HW218075   1.462   3.773   2.754  0.3507 -1.6146 -1.9814
 2205SOL     OW18076   4.026   1.521   8.461  0.2886 -0.2463  0.8160
 2205SOL    HW118077   4.014   1.614   8.439  0.5055 -0.3748  0.1449
 2205SOL    HW218078   4.072   1.533   8.544 -0.0542 -0.6952  1.0689
 2206SOL     OW18079   3.594   2.623  14.273 -0.2130  0.0226 -0.0765
 2206SOL    HW118080   3.514   2.589  14.312 -0.5744  1.1575  0.1650
 2206SOL    HW218081   3.654   2.558  14.308 -0.2154  0.2793  0.3976
 2207SOL     OW18082   1.122   3.978   0.966 -0.4107  0.0238  0.3997
 2207SOL    HW118083   1.153   4.068   0.977  2.4795 -0.8242 -0.8637
 2207SOL    HW218084   1.093   3.977   0.874 -1.5442  1.0761  0.7376
 2208SOL     OW18085   1.632   1.543   8.939  0.5164 -0.3602  0.7914
 2208SOL    HW118086   1.549   1.588   8.958  0.5237  0.4009 -1.0213
 2208SOL    HW218087   1.598   1.460   8.906 -0.7888 -0.0047  1.2250
 2209SOL     OW18088   1.835   2.470   2.728  0.4467  0.6525  0.3066
 2209SOL    HW118089   1.888   2.496   2.803 -0.3073 -0.1726  1.1302
 2209SOL    HW218090   1.883   2.398   2.687  2.1621  0.9248  1.8290
 2210SOL     OW18091   0.345   1.107   7.996  0.2178  0.2385  0.4386
 2210SOL    HW118092   0.304   1.193   7.992 -1.3705 -0.4351  2.3209
 2210SOL    HW218093   0.282   1.048   7.954 -0.2807  2.4767 -1.9527
 2211SOL     OW18094   0.574   3.198   8.451 -0.1093 -0.6064  0.1974
 2211SOL    HW118095   0.593   3.119   8.400  0.9348 -1.7074  2.2790
 2211SOL    HW218096   0.479   3.190   8.455 -0.0099  0.1104  4.1090
 2212SOL     OW18097   4.697   2.273   5.459 -0.1010 -0.0377 -0.4245
 2212SOL    HW118098   4.616   2.288   5.409 -0.6400  0.4251  0.5921
 2212SOL    HW218099   0.036   2.307   5.394 -0.0427  0.6684 -0.0050
 2213SOL     OW18100   0.930   2.922   6.035  0.6215 -0.0444  0.1497
 2213SOL    HW118101   0.962   2.882   6.116 -0.4400 -2.0271 -0.4190
 2213SOL    HW218102   0.987   2.884   5.969  1.3725  0.2827  0.6159
 2214SOL     OW18103   1.465   1.477  10.746 -0.4288  0.4135 -0.2355
 2214SOL    HW118104   1.380   1.439  10.768  0.9889 -1.2692  2.3852
 2214SOL    HW218105   1.490   1.521  10.827  0.6282 -0.4113 -0.1012
 2215SOL     OW18106   3.713   4.172   4.619  0.3943  0.9391  0.3690
 2215SOL    HW118107   3.675   4.231   4.554  0.9867  3.9617  2.7686
 2215SOL    HW218108   3.803   4.157   4.590 -0.3175  0.1144 -1.4007
 2216SOL     OW18109   1.651   1.154  10.928 -0.5412  0.4129  0.3513
 2216SOL    HW118110   1.717   1.087  10.913 -1.9656 -0.6032 -1.3159
 2216SOL    HW218111   1.606   1.144  10.845 -2.6332 -1.4055  1.7159
 2217SOL     OW18112   1.953   4.307   3.872  0.3551  0.0586 -0.0023
 2217SOL    HW118113   1.903   4.366   3.816 -0.6708 -0.6185  0.1898
 2217SOL    HW218114   2.031   4.359   3.890  0.8195  0.1502 -2.3665
 2218SOL     OW18115   4.089   1.067   8.062 -0.0734  0.1036 -0.0915
 2218SOL    HW118116   4.119   1.046   8.151 -0.8406  1.4935  0.4982
 2218SOL    HW218117   4.131   0.998   8.011  0.9228 -0.5405  1.6014
 2219SOL     OW18118   2.233   2.317  10.112 -0.1955 -0.0994 -0.1911
 2219SOL    HW118119   2.279   2.273  10.184 -0.0639 -1.0119 -0.8252
 2219SOL    HW218120   2.220   2.404  10.151 -0.3180  0.5849 -1.7602
 2220SOL     OW18121   0.037   2.265  14.650 -0.4202 -0.3611 -0.7372
 2220SOL    HW118122   4.664   2.265  14.639 -0.6878  1.3786  1.3135
 2220SOL    HW218123   0.046   2.170  14.654 -1.0820 -0.4362 -1.0488
 2221SOL     OW18124   0.545   3.666   6.868  0.3904 -0.4186  0.0372
 2221SOL    HW118125   0.621   3.615   6.895  1.1017 -0.3794 -1.8646
 2221SOL    HW218126   0.528   3.613   6.790 -0.4334  2.2170 -1.5688
 2222SOL     OW18127   3.908   0.451   3.521  0.1393 -0.6034 -0.2426
 2222SOL    HW118128   3.995   0.415   3.506  0.4933  0.1924 -0.1124
 2222SOL    HW218129   3.942   0.540   3.533  0.5846 -1.1662  2.8489
 2223SOL     OW18130   0.214   3.521   5.832  0.6696 -0.2135  0.6329
 2223SOL    HW118131   0.173   3.435   5.824 -0.0484  0.2776 -0.9047
 2223SOL    HW218132   0.250   3.529   5.743  1.0208 -0.0784  0.7850
 2224SOL     OW18133   3.813   1.812   3.701  0.5724 -0.5887 -0.5258
 2224SOL    HW118134   3.824   1.907   3.690 -1.4028 -0.1662  0.9273
 2224SOL    HW218135   3.898   1.770   3.691  1.1480  0.1808  0.9949
 2225SOL     OW18136   1.396   2.889   6.445  0.5547  0.0554 -0.5028
 2225SOL    HW118137   1.386   2.972   6.492  1.8141 -0.9559  1.5782
 2225SOL    HW218138   1.486   2.877   6.414  0.1942 -0.0894 -1.4828
 2226SOL     OW18139   3.533   1.287   3.198  0.0944 -0.6633  0.7278
 2226SOL    HW118140   3.569   1.312   3.113 -1.0836  0.5289  0.5827
 2226SOL    HW218141   3.480   1.363   3.218  0.6910 -0.0489 -0.0553
 2227SOL     OW18142   1.192   4.413   0.035  0.0534  0.3368 -0.5339
 2227SOL    HW118143   1.158   4.393  17.638  1.0393 -2.5971 -0.2437
 2227SOL    HW218144   1.264   4.465   0.000  0.8897 -1.7926 -1.9852
 2228SOL     OW18145   1.613   2.625  15.195 -0.1783 -0.0561  0.5971
 2228SOL    HW118146   1.546   2.601  15.259 -0.3451  1.3347  0.9364
 2228SOL    HW218147   1.680   2.659  15.254 -1.3859  0.1314  1.8801
 2229SOL     OW18148   3.225   3.912  15.797  0.8708 -0.1942  0.1388
 2229SOL    HW118149   3.319   3.899  15.810  1.0853 -0.2884 -1.5447
 2229SOL    HW218150   3.213   3.872  15.711  2.0222  3.3814 -1.6415
 2230SOL     OW18151   3.425   4.412   1.884  0.7069 -0.4999  1.1561
 2230SOL    HW118152   3.475   4.333   1.861 -0.1877 -0.6520 -0.3136
 2230SOL    HW218153   3.402   4.392   1.974 -0.4246  2.0908  1.4134
 2231SOL     OW18154   3.941   4.558   1.149  0.6005 -0.6532  0.0975
 2231SOL    HW118155   3.888   4.481   1.129  0.1978 -0.0670 -1.1116
 2231SOL    HW218156   3.887   4.629   1.114  1.7139  1.1855  2.0817
 2232SOL     OW18157   4.665   3.093   3.386  0.7646  0.4662 -0.0586
 2232SOL    HW118158   4.698   3.182   3.374  1.4234  0.2286 -0.0261
 2232SOL    HW218159   0.020   3.054   3.427 -0.0854 -1.5101 -0.3291
 2233SOL     OW18160   4.664   3.906   2.061  0.4810  0.0417 -0.3240
 2233SOL    HW118161   4.674   3.899   2.156  1.0298 -0.3123 -0.4039
 2233SOL    HW218162   4.630   3.817   2.047  0.5701 -0.1766  0.7785
 2234SOL     OW18163   4.370   2.863   7.738  0.0401  0.4131 -0.3254
 2234SOL    HW118164   4.380   2.955   7.715  3.7288  0.2445  0.6862
 2234SOL    HW218165   4.372   2.832   7.647  1.9593  0.3927 -0.2777
 2235SOL     OW18166   3.494   0.712  10.198  0.3774  0.0058  0.8810
 2235SOL    HW118167   3.571   0.716  10.141 -0.1182 -0.7238  0.1590
 2235SOL    HW218168   3.453   0.795  10.173  1.6715  0.3793  0.0330
 2236SOL     OW18169   2.434   4.717   5.017 -0.0918  0.4163 -0.4742
 2236SOL    HW118170   2.409   0.009   5.108  0.0955 -2.4233  0.0145
 2236SOL    HW218171   2.469   0.082   4.996  2.9906 -0.4028  1.3174
 2237SOL     OW18172   0.997   1.504  12.461  0.4325 -0.1345 -0.2251
 2237SOL    HW118173   1.077   1.546  12.493  0.4655 -0.3790  0.0199
 2237SOL    HW218174   1.037   1.464  12.384 -0.3019 -1.7931  0.2487
 2238SOL     OW18175   4.257   2.744   1.171 -0.6175  0.1101  0.5083
 2238SOL    HW118176   4.305   2.661   1.166  0.4357  0.8066 -0.9464
 2238SOL    HW218177   4.240   2.763   1.263  1.2266  1.5699  0.5550
 2239SOL     OW18178   1.002   4.233   2.099 -0.0451  0.7047 -0.2986
 2239SOL    HW118179   1.060   4.162   2.128  0.4275  2.1201  2.1928
 2239SOL    HW218180   1.070   4.270   2.042  0.7124  0.7454  0.6132
 2240SOL     OW18181   4.489   2.054  13.838  0.4879  0.1266  0.2129
 2240SOL    HW118182   4.423   2.110  13.797  1.6418  0.1405 -1.6059
 2240SOL    HW218183   4.564   2.084  13.788 -1.1124  1.8143 -1.1834
 2241SOL     OW18184   1.654   4.009   3.384 -0.3956  0.2141 -0.0212
 2241SOL    HW118185   1.560   4.026   3.394 -0.5743 -0.1295 -1.1586
 2241SOL    HW218186   1.671   3.978   3.295  1.0448  1.5582 -0.2261
 2242SOL     OW18187   1.442   3.218   8.114  0.3686  0.0066  0.2291
 2242SOL    HW118188   1.392   3.141   8.139 -2.8493  1.8751 -0.5000
 2242SOL    HW218189   1.385   3.287   8.147 -0.1319 -0.8901  1.1997
 2243SOL     OW18190   2.635   4.474   9.424  0.3588 -0.1158 -0.5912
 2243SOL    HW118191   2.715   4.465   9.373  0.2749 -0.5016 -0.6595
 2243SOL    HW218192   2.577   4.415   9.376  0.2404 -0.3759 -0.1314
 2244SOL     OW18193   1.161   3.604   7.041  0.1987 -0.1303 -0.2099
 2244SOL    HW118194   1.217   3.544   6.991  0.2554 -0.6809  0.5223
 2244SOL    HW218195   1.213   3.685   7.045 -2.3432  1.4827 -0.0048
 2245SOL     OW18196   3.907   3.911  16.493  0.5243  0.0894  0.1563
 2245SOL    HW118197   3.959   3.982  16.530  0.7044  0.4791 -0.8462
 2245SOL    HW218198   3.887   3.857  16.569  1.4717 -0.3227  0.1141
 2246SOL     OW18199   0.454   1.777   4.036  0.0615 -0.2557  0.6371
 2246SOL    HW118200   0.548   1.793   4.039 -0.1434  0.9519  0.8511
 2246SOL    HW218201   0.422   1.839   3.971  1.6844 -3.7714 -3.4766
 2247SOL     OW18202   0.783   0.588   3.766 -0.0289  0.4004  0.6662
 2247SOL    HW118203   0.775   0.681   3.747  0.0158  0.0602 -1.0114
 2247SOL    HW218204   0.877   0.579   3.782 -0.0560 -0.4519  0.3652
 2248SOL     OW18205   1.548   1.217   4.447  0.0268 -0.5759  0.1998
 2248SOL    HW118206   1.613   1.187   4.511  0.6284 -2.7945 -1.4335
 2248SOL    HW218207   1.460   1.211   4.486 -0.1702 -0.9675 -0.3045
 2249SOL     OW18208   2.889   1.005   3.309 -0.0172 -0.1533  0.1047
 2249SOL    HW118209   2.945   1.077   3.337 -0.7189  0.2977  0.3207
 2249SOL    HW218210   2.808   1.019   3.358 -0.1199  2.2075 -0.7755
 2250SOL     OW18211   1.729   2.880   7.219  0.0834 -0.2399  0.4957
 2250SOL    HW118212   1.671   2.955   7.204  2.1546  0.8331 -2.1593
 2250SOL    HW218213   1.720   2.880   7.314 -1.7228  0.2794  0.3235
 2251SOL     OW18214   3.917   2.101  15.048 -0.3500  0.3192  0.3282
 2251SOL    HW118215   3.991   2.048  15.018 -0.7116  0.1254 -0.2348
 2251SOL    HW218216   3.949   2.123  15.135 -0.6272  0.9400  0.2720
 2252SOL     OW18217   3.589   1.683  15.204  0.4918 -0.8665 -0.1823
 2252SOL    HW118218   3.662   1.732  15.242 -0.7808  1.0043 -0.1511
 2252SOL    HW218219   3.571   1.623  15.277 -1.1746 -2.4712 -1.9152
 2253SOL     OW18220   1.486   0.095   4.247 -0.3659 -0.6375  0.1014
 2253SOL    HW118221   1.511   0.134   4.331  1.0212  0.5512 -0.8514
 2253SOL    HW218222   1.497   0.002   4.264 -1.0458 -0.5474  1.0388
 2254SOL     OW18223   3.561   3.436   3.195  0.5275 -0.3091  0.5359
 2254SOL    HW118224   3.586   3.351   3.160 -1.1928  0.2159 -2.0359
 2254SOL    HW218225   3.546   3.494   3.120  0.5202  0.5252  1.1869
 2255SOL     OW18226   0.991   4.418   2.305 -0.4788 -0.4568 -0.2483
 2255SOL    HW118227   0.972   4.370   2.225 -0.2788  2.0351 -1.7842
 2255SOL    HW218228   0.915   4.475   2.302 -0.8685 -0.8912  1.4187
 2256SOL     OW18229   3.248   0.521   1.868 -0.6110 -0.2132  0.2695
 2256SOL    HW118230   3.267   0.442   1.918 -0.5241 -1.5678 -1.9250
 2256SOL    HW218231   3.323   0.531   1.810 -2.6810  0.6775 -2.2630
 2257SOL     OW18232   2.901   0.628  14.165  0.1922  0.0511 -0.2626
 2257SOL    HW118233   2.875   0.539  14.145  0.8397 -0.5239  1.4136
 2257SOL    HW218234   2.843   0.628  14.241  2.3642  1.1741  1.4141
 2258SOL     OW18235   1.149   0.419   5.382  0.2418 -0.1252 -0.5568
 2258SOL    HW118236   1.244   0.424   5.375  0.1083  0.9798 -1.8210
 2258SOL    HW218237   1.135   0.403   5.288 -1.2502  2.6221 -0.8061
 2259SOL     OW18238   3.811   3.883   9.419 -0.6695 -0.4376 -0.2155
 2259SOL    HW118239   3.849   3.835   9.493 -1.2843  2.3036  1.9149
 2259SOL    HW218240   3.841   3.969   9.449 -0.2116 -0.7123  0.1057
 2260SOL     OW18241   0.091   3.762  10.699 -0.0606  0.0581  0.5172
 2260SOL    HW118242   0.034   3.838  10.715 -0.8936 -0.5400  0.3819
 2260SOL    HW218243   0.028   3.701  10.660 -0.9089  0.7356  0.8119
 2261SOL     OW18244   4.202   4.501   1.212  0.3675  0.8340 -0.3327
 2261SOL    HW118245   4.226   4.594   1.212  0.2552  0.8560  2.3023
 2261SOL    HW218246   4.108   4.499   1.195  0.2029 -0.3662  0.7082
 2262SOL     OW18247   1.162   4.306   6.603  0.4451 -0.3269  0.5444
 2262SOL    HW118248   1.106   4.316   6.526  2.5738 -1.1848 -1.1369
 2262SOL    HW218249   1.203   4.392   6.608 -0.9339  0.3984 -0.4613
 2263SOL     OW18250   1.360   4.490   8.693 -0.2942  0.6566 -0.1296
 2263SOL    HW118251   1.295   4.503   8.624 -0.4637  1.3192  0.1596
 2263SOL    HW218252   1.429   4.545   8.656  2.0490 -2.2151  0.0192
 2264SOL     OW18253   3.740   3.300   4.840 -0.0359 -0.9180 -0.7994
 2264SOL    HW118254   3.725   3.225   4.896 -1.1325 -0.3986 -0.4072
 2264SOL    HW218255   3.719   3.373   4.898  0.1265  0.2302 -2.1646
 2265SOL     OW18256   4.271   4.398   1.561 -0.3947 -0.3128 -0.2412
 2265SOL    HW118257   4.292   4.376   1.470  0.7321 -1.3274  0.2517
 2265SOL    HW218258   4.298   4.321   1.613 -1.0657  0.6497  1.5357
 2266SOL     OW18259   3.403   0.784   7.590  0.1098  0.2622 -0.4766
 2266SOL    HW118260   3.406   0.832   7.673 -1.0032 -0.2834 -0.1230
 2266SOL    HW218261   3.310   0.799   7.571 -0.5122 -2.2195  0.5397
 2267SOL     OW18262   0.181   2.633   3.667  0.1324  0.2377  0.5030
 2267SOL    HW118263   0.149   2.597   3.749  0.3339 -0.0900  0.4373
 2267SOL    HW218264   0.108   2.606   3.612  1.7582  1.7966 -2.4023
 2268SOL     OW18265   0.238   4.447   5.154 -0.3482 -0.1005 -0.0894
 2268SOL    HW118266   0.310   4.508   5.136 -0.5551  0.1588 -0.0503
 2268SOL    HW218267   0.176   4.513   5.187 -1.3445  0.2534 -2.6389
 2269SOL     OW18268   2.209   3.711   6.707  0.1444  0.6345  0.0161
 2269SOL    HW118269   2.122   3.744   6.730 -0.1962  0.6429 -1.2694
 2269SOL    HW218270   2.212   3.747   6.618 -0.0848 -0.2352 -0.3473
 2270SOL     OW18271   0.930   3.047  13.261  0.1239 -0.4081 -0.5078
 2270SOL    HW118272   0.950   3.075  13.171 -1.1126 -1.4099 -1.0857
 2270SOL    HW218273   0.968   2.959  13.255 -3.1987 -2.0241  3.0061
 2271SOL     OW18274   1.659   3.086   2.364  0.4973  0.0758  0.6815
 2271SOL    HW118275   1.749   3.089   2.397  0.4669 -3.3446  1.0637
 2271SOL    HW218276   1.682   3.040   2.283 -0.4901  2.4969 -0.9795
 2272SOL     OW18277   4.358   3.461  10.614  0.2586  0.2202 -0.1740
 2272SOL    HW118278   4.324   3.414  10.690  0.7171  0.0679 -0.0625
 2272SOL    HW218279   4.298   3.434  10.544 -0.5205  1.6212 -0.0444
 2273SOL     OW18280   4.426   2.401   8.067 -0.9256 -0.4454  0.3012
 2273SOL    HW118281   4.488   2.328   8.072 -0.3563  0.0675  0.6672
 2273SOL    HW218282   4.402   2.406   7.974 -0.3813  1.4555  0.2680
 2274SOL     OW18283   1.019   3.479   6.295  0.2305  0.2111  0.6912
 2274SOL    HW118284   0.988   3.563   6.328  0.0313  0.3971  0.0309
 2274SOL    HW218285   1.031   3.426   6.374  0.6894 -0.5585  0.1140
 2275SOL     OW18286   3.256   1.616   5.181 -0.0918  0.0031  0.1272
 2275SOL    HW118287   3.163   1.598   5.172  0.1546 -0.6796 -1.1484
 2275SOL    HW218288   3.288   1.567   5.256  2.0668 -0.2565 -0.9392
 2276SOL     OW18289   0.026   2.834  11.725  0.0501 -0.7058 -0.6131
 2276SOL    HW118290   0.078   2.772  11.672 -0.6870  0.6019 -2.8809
 2276SOL    HW218291   0.056   2.921  11.698  2.1296 -0.6359  1.9787
 2277SOL     OW18292   3.445   0.501  13.189  0.1984  0.8988 -0.0005
 2277SOL    HW118293   3.471   0.444  13.117  0.3714 -1.8631  2.2524
 2277SOL    HW218294   3.443   0.585  13.144 -0.9410  1.2077  0.6173
 2278SOL     OW18295   3.408   1.145   4.490  0.6163 -0.3217  0.2523
 2278SOL    HW118296   3.416   1.051   4.505  1.2404 -0.1982  0.6611
 2278SOL    HW218297   3.457   1.175   4.566 -0.8937  1.9065  0.3632
 2279SOL     OW18298   0.236   0.674  16.093 -0.1639 -0.3190 -0.3837
 2279SOL    HW118299   0.143   0.697  16.093 -0.2773 -0.7844 -0.2648
 2279SOL    HW218300   0.240   0.625  16.012 -0.1043 -1.1632  0.1291
 2280SOL     OW18301   1.048   0.348   6.643  0.1221 -0.3399 -0.3253
 2280SOL    HW118302   1.003   0.274   6.684  0.1327 -1.4431 -2.2955
 2280SOL    HW218303   1.116   0.296   6.601  0.5626  0.7147 -0.9089
 2281SOL     OW18304   3.996   1.572   6.796 -0.4927  0.3255  0.4271
 2281SOL    HW118305   3.979   1.518   6.873  3.1342  0.1234  1.0954
 2281SOL    HW218306   4.030   1.504   6.738 -0.4258  0.0765  0.7595
 2282SOL     OW18307   1.179   2.517   5.804  0.2178 -0.4585  0.4483
 2282SOL    HW118308   1.122   2.522   5.727 -0.9858 -1.2928  1.2778
 2282SOL    HW218309   1.250   2.456   5.786  1.6622  0.3235  3.4808
 2283SOL     OW18310   1.014   2.378   3.893 -0.1161  0.2794 -0.5517
 2283SOL    HW118311   1.044   2.288   3.881 -1.4013 -0.2471  0.1461
 2283SOL    HW218312   1.091   2.434   3.884 -0.4055  0.4673 -1.7608
 2284SOL     OW18313   2.999   3.500   2.979  0.3919  0.2079 -1.2469
 2284SOL    HW118314   3.062   3.430   2.962  0.8069  0.0163  1.1016
 2284SOL    HW218315   3.058   3.575   2.980  2.3025 -1.3120  0.5965
 2285SOL     OW18316   1.463   1.961   9.192 -0.0074 -0.1440 -0.2801
 2285SOL    HW118317   1.434   1.870   9.202 -0.1218  0.3570  3.9295
 2285SOL    HW218318   1.386   2.011   9.218 -0.6728 -0.9660 -0.6679
 2286SOL     OW18319   4.350   4.279   0.820 -1.4279  0.3691 -0.0930
 2286SOL    HW118320   4.350   4.191   0.858 -2.4204  0.3518 -0.1533
 2286SOL    HW218321   4.445   4.279   0.832 -1.1382  2.4407 -2.5316
 2287SOL     OW18322   0.613   3.966   2.526 -0.5864  0.5702  0.5379
 2287SOL    HW118323   0.596   3.903   2.457  1.6688 -0.2623  0.7447
 2287SOL    HW218324   0.554   4.038   2.503 -1.5682  0.1821  1.8083
 2288SOL     OW18325   1.914   3.667  10.132 -0.2509  0.3014  0.1968
 2288SOL    HW118326   1.876   3.704  10.211  1.0829  0.5492  0.7226
 2288SOL    HW218327   1.954   3.743  10.089  1.0766  0.1046  1.1046
 2289SOL     OW18328   2.624   0.580   3.604  0.1659 -0.3831  0.0072
 2289SOL    HW118329   2.614   0.643   3.533  1.6457 -0.0878  0.0485
 2289SOL    HW218330   2.708   0.536   3.593  0.3740 -0.0612  0.2829
 2290SOL     OW18331   0.706   3.598  17.048  0.2034 -0.3621 -0.3006
 2290SOL    HW118332   0.679   3.570  16.961 -1.9051  1.3778 -0.2010
 2290SOL    HW218333   0.684   3.689  17.032 -1.0346 -0.4096  1.1753
 2291SOL     OW18334   0.912   3.306   5.917  0.4840 -0.0740  0.3084
 2291SOL    HW118335   0.939   3.267   6.000  1.9020 -2.8217 -1.4236
 2291SOL    HW218336   0.902   3.399   5.939 -0.7403  0.1756 -1.3282
 2292SOL     OW18337   0.976   3.942   6.629  0.2170  0.0876 -0.2901
 2292SOL    HW118338   0.885   3.913   6.639 -0.3082  1.5868 -0.7783
 2292SOL    HW218339   0.995   3.941   6.723 -1.2674 -0.0384  0.0019
 2293SOL     OW18340   0.167   0.172   2.642 -0.4232  0.1191  0.5963
 2293SOL    HW118341   0.230   0.236   2.674 -0.6710  1.6727 -2.0274
 2293SOL    HW218342   0.227   0.098   2.640 -0.4999  0.0555  0.6817
 2294SOL     OW18343   2.799   2.499   8.066  0.2989 -0.0163  0.1802
 2294SOL    HW118344   2.744   2.577   8.070 -1.0254 -0.8903 -1.1690
 2294SOL    HW218345   2.847   2.527   7.988 -0.5128  3.2453  0.8586
 2295SOL     OW18346   3.387   4.241   7.240 -1.0675 -0.1889 -0.2083
 2295SOL    HW118347   3.304   4.276   7.207 -0.7841  0.5120 -0.1915
 2295SOL    HW218348   3.368   4.189   7.318 -0.6386 -1.5040 -0.9966
 2296SOL     OW18349   3.182   2.234   8.829  0.1573  0.0508 -0.5224
 2296SOL    HW118350   3.241   2.264   8.761  0.3556  2.8510  0.8807
 2296SOL    HW218351   3.232   2.157   8.853 -0.4086 -0.6390 -1.5560
 2297SOL     OW18352   0.583   2.893   7.789  0.2605  0.0811  0.2635
 2297SOL    HW118353   0.613   2.809   7.823  0.7745 -0.1950 -0.8757
 2297SOL    HW218354   0.516   2.865   7.727 -0.5021  1.0228  0.6462
 2298SOL     OW18355   0.284   1.195   5.873  0.7620  0.5595 -0.0225
 2298SOL    HW118356   0.208   1.235   5.916 -0.0202 -0.0255 -0.8511
 2298SOL    HW218357   0.245   1.169   5.790 -0.7888  0.8207  0.6239
 2299SOL     OW18358   1.236   4.398   6.202 -0.6127 -0.1196  0.2281
 2299SOL    HW118359   1.200   4.474   6.156 -0.6165  0.7806  1.7356
 2299SOL    HW218360   1.203   4.404   6.291 -0.1413  0.1404  0.3800
 2300SOL     OW18361   4.565   4.479  15.330 -0.0303  0.3469  0.0222
 2300SOL    HW118362   4.493   4.487  15.268  0.1054 -1.3164 -0.3587
 2300SOL    HW218363   4.565   4.384  15.347  0.8650  0.1926 -0.9084
 2301SOL     OW18364   1.281   0.957   0.396  0.0574 -0.4822 -0.4224
 2301SOL    HW118365   1.337   0.900   0.344  1.0344  0.9937 -0.9738
 2301SOL    HW218366   1.327   0.969   0.479  1.3039 -3.5783 -0.6633
 2302SOL     OW18367   1.047   1.447   5.443  1.0947 -0.0967 -0.2972
 2302SOL    HW118368   1.014   1.404   5.364 -1.4218 -0.1020  0.7519
 2302SOL    HW218369   1.132   1.462   5.401  2.3313 -0.3476  2.0845
 2303SOL     OW18370   3.404   0.735   8.534  0.5573 -0.0946 -0.3261
 2303SOL    HW118371   3.393   0.688   8.451 -1.2931 -0.9907  0.4223
 2303SOL    HW218372   3.442   0.817   8.505  0.0443 -0.0573 -0.8705
 2304SOL     OW18373   0.780   1.337   5.590  0.1521  0.0966 -0.5781
 2304SOL    HW118374   0.852   1.375   5.540 -1.1753  2.5839 -0.6072
 2304SOL    HW218375   0.752   1.269   5.528  0.6107  2.1616 -3.0341
 2305SOL     OW18376   0.001   4.098   5.434 -0.2028  0.8156 -0.1930
 2305SOL    HW118377   0.089   4.078   5.400 -0.0683  0.8700  0.1237
 2305SOL    HW218378   0.029   4.109   5.525  1.7839  0.7825 -0.7870
 2306SOL     OW18379   3.243   1.796  13.029  0.6171 -0.2533 -0.0297
 2306SOL    HW118380   3.166   1.739  13.019 -1.4805  2.2830  1.4253
 2306SOL    HW218381   3.279   1.751  13.105 -2.2607 -1.9166  0.3777
 2307SOL     OW18382   0.005   2.032  14.322  0.4363  0.2178  0.3213
 2307SOL    HW118383   0.024   2.017  14.229 -3.1862  0.0757 -0.3996
 2307SOL    HW218384   4.682   1.949  14.341 -1.2825  0.6434 -1.8767
 2308SOL     OW18385   1.572   2.322   4.480 -0.0621 -0.3317 -0.1542
 2308SOL    HW118386   1.559   2.235   4.445  0.7718 -1.3356  2.0047
 2308SOL    HW218387   1.494   2.332   4.534 -0.1741 -0.2029 -0.3396
 2309SOL     OW18388   2.053   4.452  16.712  0.3578 -0.3497 -0.4463
 2309SOL    HW118389   2.014   4.500  16.640  1.5237  1.6166  0.2382
 2309SOL    HW218390   2.052   4.364  16.675 -2.0001 -0.1553 -0.8808
 2310SOL     OW18391   2.726   4.475  16.945 -0.2058  0.6113  0.5044
 2310SOL    HW118392   2.794   4.462  16.878 -0.1101 -2.1783  1.1677
 2310SOL    HW218393   2.698   4.566  16.930  1.2237  0.9905  0.0995
 2311SOL     OW18394   1.189   1.190   4.944  0.4007 -0.2719  0.5279
 2311SOL    HW118395   1.167   1.263   5.003  1.7614 -1.4809  2.5191
 2311SOL    HW218396   1.247   1.149   5.008  1.5026 -3.0068 -2.2955
 2312SOL     OW18397   2.254   1.084   0.971 -0.3633 -0.1006 -0.4097
 2312SOL    HW118398   2.259   1.179   0.962  1.6589 -0.1955 -0.1852
 2312SOL    HW218399   2.168   1.071   0.930  0.7577 -0.5075 -2.6398
 2313SOL     OW18400   4.599   1.036  11.904 -0.0693  0.7095  0.2704
 2313SOL    HW118401   4.626   0.963  11.959  0.3484 -0.8819 -2.0215
 2313SOL    HW218402   4.518   1.005  11.864  0.7942 -0.2959 -0.6853
 2314SOL     OW18403   2.113   1.696   1.021 -0.1622  0.2153 -0.2072
 2314SOL    HW118404   2.111   1.766   0.955  0.3288  3.0165  2.7126
 2314SOL    HW218405   2.020   1.675   1.031 -0.4753  1.9661  0.5915
 2315SOL     OW18406   0.583   4.165  12.398  0.4700  0.8308 -0.8815
 2315SOL    HW118407   0.651   4.204  12.453 -1.0526  1.1672  0.7612
 2315SOL    HW218408   0.630   4.149  12.315  0.7109  0.3178 -0.6487
 2316SOL     OW18409   3.942   2.356   2.552  0.4637  0.0966  0.3272
 2316SOL    HW118410   4.034   2.340   2.574  0.6604  0.4631 -0.2511
 2316SOL    HW218411   3.942   2.300   2.474  2.1440  0.5383  0.0284
 2317SOL     OW18412   2.951   1.291   5.639 -0.3876  0.1422  0.7744
 2317SOL    HW118413   3.021   1.226   5.638 -0.9170 -0.3903 -0.8060
 2317SOL    HW218414   2.968   1.321   5.729 -0.8919 -0.2227  0.9867
 2318SOL     OW18415   4.038   1.164  15.881 -0.5567 -0.3156  0.1962
 2318SOL    HW118416   4.060   1.089  15.825 -0.9043 -0.4694  0.2659
 2318SOL    HW218417   4.122   1.209  15.888 -0.4734 -0.0349 -2.5227
 2319SOL     OW18418   1.909   0.165   4.023  0.1592  0.2560  0.1395
 2319SOL    HW118419   1.876   0.227   4.089 -0.4161  0.3495 -0.2312
 2319SOL    HW218420   1.932   0.101   4.091 -1.0076  1.3967  1.6291
 2320SOL     OW18421   3.938   2.571   1.720 -0.2799 -0.3112  0.4221
 2320SOL    HW118422   3.910   2.657   1.689 -2.1653 -0.8391  0.6426
 2320SOL    HW218423   4.016   2.565   1.665 -1.0431 -1.7060 -0.5387
 2321SOL     OW18424   2.317   4.415   4.125  0.3745 -0.7439  0.1340
 2321SOL    HW118425   2.319   4.403   4.220 -0.7288 -1.6343  0.0461
 2321SOL    HW218426   2.336   4.327   4.094 -1.2840 -0.8667 -0.5234
 2322SOL     OW18427   1.403   3.683  16.745 -0.4520 -0.1447 -0.4478
 2322SOL    HW118428   1.384   3.657  16.655  1.2219 -0.5763 -0.6811
 2322SOL    HW218429   1.317   3.718  16.767  0.2985  1.1463  0.3949
 2323SOL     OW18430   1.604   2.349  12.204 -0.7161  0.3120  0.8493
 2323SOL    HW118431   1.558   2.425  12.166 -0.9393 -0.1118  0.2693
 2323SOL    HW218432   1.534   2.296  12.242 -1.1361 -0.2887 -0.7408
 2324SOL     OW18433   1.987   2.315  15.469  0.2067  0.7879 -0.3879
 2324SOL    HW118434   2.050   2.362  15.524  1.4485  0.9909 -1.9724
 2324SOL    HW218435   1.917   2.342  15.528  0.3468 -1.2065  0.6843
 2325SOL     OW18436   3.336   3.082   4.599  0.1005  0.0996  0.1794
 2325SOL    HW118437   3.358   3.151   4.661  2.0594 -1.8836  1.6975
 2325SOL    HW218438   3.320   3.013   4.664 -0.3641  0.5628  0.5554
 2326SOL     OW18439   2.595   4.015   8.319 -0.3669  0.5494  0.1715
 2326SOL    HW118440   2.677   4.034   8.274 -0.2346  1.0803  0.6339
 2326SOL    HW218441   2.580   4.073   8.393 -0.7856  0.5155  0.1134
 2327SOL     OW18442   4.345   4.395   5.827 -0.3051  0.1262  0.0000
 2327SOL    HW118443   4.390   4.321   5.869  3.3375  1.5122 -1.4414
 2327SOL    HW218444   4.312   4.439   5.904  0.2180  0.6449 -0.0737
 2328SOL     OW18445   3.607   3.164  10.606  0.3729 -0.5652 -0.4897
 2328SOL    HW118446   3.520   3.152  10.643  0.1338  0.6078 -0.6768
 2328SOL    HW218447   3.624   3.255  10.631  2.6205 -0.4058 -2.4926
 2329SOL     OW18448   3.099   1.992   2.006  0.1112  0.4180 -0.6420
 2329SOL    HW118449   3.177   1.990   2.062 -0.8434 -0.8072  0.6513
 2329SOL    HW218450   3.045   1.923   2.044  0.8349  0.8119  1.0907
 2330SOL     OW18451   4.493   0.049   4.847 -0.8324  0.2018 -0.0138
 2330SOL    HW118452   4.448   4.686   4.850 -0.2381 -0.1012  0.2173
 2330SOL    HW218453   4.447   0.093   4.919  0.4207 -0.4513  1.1853
 2331SOL     OW18454   4.121   2.129   6.207 -0.2562 -0.4173  0.2787
 2331SOL    HW118455   4.121   2.146   6.301 -0.4518  1.4271 -0.0626
 2331SOL    HW218456   4.049   2.067   6.194 -1.3647  1.1731 -1.1461
 2332SOL     OW18457   4.347   2.344  16.640 -0.9548 -0.5691  0.0087
 2332SOL    HW118458   4.364   2.426  16.594  0.9360  0.3643  2.3946
 2332SOL    HW218459   4.291   2.298  16.577  0.3279  0.7732 -2.1181
 2333SOL     OW18460   0.020   2.218  13.999 -0.0476 -0.1967  0.4519
 2333SOL    HW118461   0.024   2.181  13.910  1.5633  1.8693 -0.3425
 2333SOL    HW218462   4.658   2.259  13.979  0.7147  0.8295 -0.6478
 2334SOL     OW18463   0.890   1.432   6.931  0.0939 -1.4105 -0.3420
 2334SOL    HW118464   0.871   1.524   6.944 -0.9832 -1.5594 -0.8719
 2334SOL    HW218465   0.984   1.432   6.909  0.4397 -0.7662  1.1939
 2335SOL     OW18466   1.171   3.842   4.318  0.3283  0.1479 -0.6979
 2335SOL    HW118467   1.266   3.850   4.319  0.3101  0.0054  1.6232
 2335SOL    HW218468   1.149   3.934   4.302 -2.0049 -0.1307  0.9155
 2336SOL     OW18469   3.156   4.217   2.325  0.2929 -0.7530  0.0056
 2336SOL    HW118470   3.237   4.169   2.308 -0.1990 -1.1527 -1.2389
 2336SOL    HW218471   3.164   4.294   2.269 -2.8602 -0.6265 -0.2274
 2337SOL     OW18472   3.121   1.292   2.305 -0.2899 -0.2865  1.1887
 2337SOL    HW118473   3.207   1.316   2.269 -1.0793  1.3251  0.3791
 2337SOL    HW218474   3.106   1.204   2.270  2.1595  0.5911 -2.2086
 2338SOL     OW18475   2.363   3.129   4.924  0.5794 -0.3366  0.0750
 2338SOL    HW118476   2.408   3.101   4.845 -0.1957  1.6028 -1.0418
 2338SOL    HW218477   2.274   3.105   4.900 -0.1411  0.4896  1.8721
 2339SOL     OW18478   1.209   0.056   4.218 -0.3044  0.2579  0.5655
 2339SOL    HW118479   1.299   0.071   4.247  0.9057 -2.7586 -1.6804
 2339SOL    HW218480   1.224   4.686   4.201  0.4812  0.5096 -0.1333
 2340SOL     OW18481   3.018   4.685  17.473  0.0057  0.0620  0.0683
 2340SOL    HW118482   3.019   4.695  17.378 -1.0657  0.4515  0.0930
 2340SOL    HW218483   3.109   4.668  17.498 -0.5564 -0.5704  1.7136
 2341SOL     OW18484   2.955   3.008   4.199 -0.1813  0.0337  0.2754
 2341SOL    HW118485   2.950   2.935   4.138 -1.3047 -0.8236  1.4136
 2341SOL    HW218486   2.936   2.978   4.287  2.2188 -4.0507 -0.5914
 2342SOL     OW18487   3.388   2.702   1.798  0.0309 -0.3519 -0.5182
 2342SOL    HW118488   3.421   2.723   1.886 -1.4504 -2.4856  0.5428
 2342SOL    HW218489   3.373   2.793   1.772  0.2114  0.4929  2.2957
 2343SOL     OW18490   3.752   0.489  12.556  0.5886  0.3493 -0.4083
 2343SOL    HW118491   3.754   0.584  12.540  0.6239  0.2279 -1.0928
 2343SOL    HW218492   3.724   0.456  12.471 -1.5261  0.3388  0.2779
 2344SOL     OW18493   2.430   4.248   6.669 -0.2434  0.1211 -0.1791
 2344SOL    HW118494   2.358   4.195   6.637 -0.5196  0.6509 -0.4341
 2344SOL    HW218495   2.435   4.304   6.592 -1.3950 -1.9643 -1.7750
 2345SOL     OW18496   0.496   1.970   1.925 -0.3270  0.1478  0.0867
 2345SOL    HW118497   0.500   2.000   1.835  0.2917  1.0189  0.4074
 2345SOL    HW218498   0.562   2.029   1.961 -0.9196  1.0511 -0.3007
 2346SOL     OW18499   2.018   3.742   7.061 -0.1744  0.6249 -0.2534
 2346SOL    HW118500   1.943   3.790   7.025  0.1934  0.4111 -1.3201
 2346SOL    HW218501   2.069   3.803   7.114 -1.1339  0.7309  0.5366
 2347SOL     OW18502   1.524   2.968   5.068  0.2810  0.0135 -0.3421
 2347SOL    HW118503   1.514   3.002   4.979  1.7348  0.9319 -0.1611
 2347SOL    HW218504   1.482   3.040   5.115  1.0302  1.1073 -1.3398
 2348SOL     OW18505   2.361   0.137   6.793 -0.1702  0.5941 -0.1753
 2348SOL    HW118506   2.295   0.142   6.724  0.3442 -1.1009 -0.7872
 2348SOL    HW218507   2.327   0.063   6.843 -1.8130  1.0060 -0.6969
 2349SOL     OW18508   3.253   3.554   2.609 -0.3059  0.1818  0.5756
 2349SOL    HW118509   3.260   3.472   2.559 -3.3111  1.1691 -1.4417
 2349SOL    HW218510   3.339   3.594   2.597  0.1610 -1.2772 -1.1134
 2350SOL     OW18511   0.755   3.438  10.272  0.4050  0.2657  0.2954
 2350SOL    HW118512   0.827   3.460  10.331  0.7663  1.7405 -0.7012
 2350SOL    HW218513   0.772   3.485  10.190 -0.3862 -0.1157 -0.0874
 2351SOL     OW18514   2.250   3.863   3.194 -0.5482 -0.4362  0.2436
 2351SOL    HW118515   2.296   3.876   3.277 -0.6831 -0.9849  0.4026
 2351SOL    HW218516   2.280   3.938   3.143  1.6091  0.0909  2.2985
 2352SOL     OW18517   3.992   0.283   2.801  0.0991 -0.0676 -0.7840
 2352SOL    HW118518   4.027   0.194   2.804 -0.1354 -0.1716 -1.1458
 2352SOL    HW218519   3.939   0.270   2.723  0.5038 -2.8433 -0.5859
 2353SOL     OW18520   2.006   4.512  16.262 -0.3300  0.1919  0.1683
 2353SOL    HW118521   1.953   4.567  16.321 -1.2760  0.8097 -1.2512
 2353SOL    HW218522   1.965   4.520  16.176 -2.0668 -2.0344  0.7869
 2354SOL     OW18523   3.614   1.096  13.497 -0.0457 -0.0725 -0.3632
 2354SOL    HW118524   3.566   1.108  13.579  2.1426 -0.4997  0.9906
 2354SOL    HW218525   3.674   1.171  13.496  1.4691 -1.2864 -1.3884
 2355SOL     OW18526   2.582   3.214   6.333  0.4984 -0.0879 -0.6425
 2355SOL    HW118527   2.487   3.209   6.321  0.6361 -0.4999 -1.6163
 2355SOL    HW218528   2.606   3.305   6.314 -0.2158  0.3459  0.5245
 2356SOL     OW18529   3.358   1.837   1.923 -0.0138 -0.0488  0.1250
 2356SOL    HW118530   3.424   1.769   1.938 -0.7345 -0.2976  2.0898
 2356SOL    HW218531   3.409   1.917   1.935  1.8694 -1.2417  0.1222
 2357SOL     OW18532   4.066   4.160   1.974  0.1188  0.7540  0.6860
 2357SOL    HW118533   4.106   4.156   1.888  0.5235 -0.4741  0.9246
 2357SOL    HW218534   3.978   4.182   1.945 -0.7886 -0.7509  2.3115
 2358SOL     OW18535   4.161   4.503   2.411  0.4654 -0.7218  0.3440
 2358SOL    HW118536   4.149   4.425   2.464 -1.9214 -0.0306  0.7915
 2358SOL    HW218537   4.109   4.471   2.337  0.7696 -0.2502 -0.0829
 2359SOL     OW18538   0.484   3.642   4.514  0.4232  0.0445  0.1058
 2359SOL    HW118539   0.563   3.637   4.567 -1.0169  0.5257  2.2733
 2359SOL    HW218540   0.448   3.555   4.532  0.0925  0.5366  1.7753
 2360SOL     OW18541   1.138   3.955   5.151  0.6292  0.2135  0.2831
 2360SOL    HW118542   1.197   3.947   5.226  0.6789 -0.7048  0.1424
 2360SOL    HW218543   1.181   3.890   5.096 -0.8482  0.4352 -1.1254
 2361SOL     OW18544   0.663   1.084   1.309  0.2868  0.5553 -0.1230
 2361SOL    HW118545   0.616   1.004   1.334 -0.5162  1.5708  1.5825
 2361SOL    HW218546   0.608   1.109   1.235 -0.1191  0.1136  0.0353
 2362SOL     OW18547   0.849   1.487   3.824 -0.2370  0.1887  0.2446
 2362SOL    HW118548   0.786   1.416   3.838  1.3886 -0.7834  2.7551
 2362SOL    HW218549   0.788   1.560   3.822 -0.5401 -0.0976 -1.2570
 2363SOL     OW18550   3.859   1.690  13.193  0.1521 -0.1661 -0.3208
 2363SOL    HW118551   3.883   1.676  13.285  1.1038  0.9663 -0.3895
 2363SOL    HW218552   3.764   1.704  13.193  0.2652  0.5594  0.8657
 2364SOL     OW18553   4.143   2.186   0.757 -0.3445 -0.1956  0.5258
 2364SOL    HW118554   4.171   2.154   0.671  0.3161 -2.8386  1.7217
 2364SOL    HW218555   4.207   2.256   0.769  1.5696 -1.9655  0.5929
 2365SOL     OW18556   3.254   3.380   5.662 -0.2033  0.3895 -0.0530
 2365SOL    HW118557   3.217   3.430   5.589  1.0855  1.6943  0.1902
 2365SOL    HW218558   3.324   3.330   5.619 -1.4227 -2.2393  1.0226
 2366SOL     OW18559   2.911   1.809   7.840 -0.0433  0.1771  0.2427
 2366SOL    HW118560   2.959   1.762   7.772  3.1858  1.8478  1.3176
 2366SOL    HW218561   2.876   1.888   7.798  2.4501  0.2144 -1.7768
 2367SOL     OW18562   1.768   3.697   4.004  0.2771 -0.1321  0.4555
 2367SOL    HW118563   1.802   3.608   3.991 -2.3518 -0.8436 -1.5366
 2367SOL    HW218564   1.766   3.725   3.913  2.6025  1.4635  0.8997
 2368SOL     OW18565   3.260   4.088   6.945 -0.2727  0.9028  1.1733
 2368SOL    HW118566   3.166   4.086   6.926  0.2669 -1.1276 -1.3135
 2368SOL    HW218567   3.285   4.180   6.953  2.5877  0.3115 -1.0633
 2369SOL     OW18568   3.258   2.111   0.257  0.5445 -0.3388  0.0345
 2369SOL    HW118569   3.241   2.041   0.194 -1.8690  2.2164 -2.1385
 2369SOL    HW218570   3.294   2.174   0.195 -1.9526  1.6994  0.6714
 2370SOL     OW18571   2.298   3.899  10.046 -0.4176  0.4461  0.1474
 2370SOL    HW118572   2.316   3.990  10.021 -1.0683 -0.1638 -2.5347
 2370SOL    HW218573   2.339   3.848   9.976 -1.3359 -0.2206  0.0912
 2371SOL     OW18574   2.304   4.023   8.165 -0.7855 -0.1627 -0.6639
 2371SOL    HW118575   2.250   3.945   8.153 -1.0183 -0.5110  2.8047
 2371SOL    HW218576   2.372   3.982   8.219 -1.0729  0.0748 -0.1243
 2372SOL     OW18577   0.210   2.815  17.481  0.1284 -0.7133  0.1947
 2372SOL    HW118578   0.192   2.902  17.446  0.2863 -1.2181 -1.1281
 2372SOL    HW218579   0.141   2.801  17.546 -0.4398 -1.1597 -0.4960
 2373SOL     OW18580   4.566   2.948  11.119 -0.3432 -0.6361  0.7586
 2373SOL    HW118581   4.552   2.875  11.059  0.3394  0.8065 -1.1779
 2373SOL    HW218582   4.544   3.025  11.066  1.1262 -0.2953  0.6372
 2374SOL     OW18583   2.375   0.822   5.362 -0.2219 -0.0420 -0.0169
 2374SOL    HW118584   2.452   0.824   5.305 -1.0065  1.7631 -1.0389
 2374SOL    HW218585   2.400   0.788   5.448  0.0527  1.6498  0.5729
 2375SOL     OW18586   0.978   0.626   3.473 -0.5006  0.0195  0.1510
 2375SOL    HW118587   0.892   0.619   3.433 -1.0742  0.6803  1.2629
 2375SOL    HW218588   1.023   0.671   3.402 -0.0098  2.5127  2.0417
 2376SOL     OW18589   2.192   4.027   4.991  0.0704 -0.4283  0.0794
 2376SOL    HW118590   2.114   4.055   5.040  1.2892  1.0286  1.1845
 2376SOL    HW218591   2.214   3.944   5.032 -2.0229 -0.1142  1.8212
 2377SOL     OW18592   0.970   2.337   7.519  0.4575 -0.5252 -0.2191
 2377SOL    HW118593   0.945   2.245   7.505 -1.7158 -0.1008  0.7737
 2377SOL    HW218594   0.890   2.384   7.497  0.9349  0.7538  0.7662
 2378SOL     OW18595   0.015   2.875  11.333 -0.0079  0.0976  0.4215
 2378SOL    HW118596   4.671   2.916  11.276 -0.5452  0.3178  1.2051
 2378SOL    HW218597   4.708   2.784  11.327 -1.5860  0.7194 -1.4634
 2379SOL     OW18598   0.206   3.151   3.059 -0.1511  0.2371 -0.4365
 2379SOL    HW118599   0.166   3.237   3.051  1.5817  1.1115  0.3397
 2379SOL    HW218600   0.127   3.098   3.048 -0.5752  0.7603  0.1460
 2380SOL     OW18601   2.975   4.328  16.302 -0.9345 -0.3763 -0.1618
 2380SOL    HW118602   3.023   4.396  16.254  1.0002 -1.1568  0.6723
 2380SOL    HW218603   2.985   4.251  16.245  1.8857  0.3216 -0.6017
 2381SOL     OW18604   1.297   4.310   3.569 -0.1004  0.2772 -0.0572
 2381SOL    HW118605   1.272   4.392   3.526  1.3118  1.0561  0.6061
 2381SOL    HW218606   1.364   4.341   3.630  1.9956 -0.2244 -2.1045
 2382SOL     OW18607   2.815   1.152  10.912 -0.1778  0.3188  0.2096
 2382SOL    HW118608   2.881   1.193  10.967  1.2811  0.0183 -1.3238
 2382SOL    HW218609   2.851   1.180  10.828  0.4406 -0.3747  0.2503
 2383SOL     OW18610   4.338   3.747   0.057  0.3643  0.1142  0.3082
 2383SOL    HW118611   4.349   3.723  17.655  0.0055  0.1265  0.2637
 2383SOL    HW218612   4.293   3.672   0.098 -0.0501  0.1387 -0.1092
 2384SOL     OW18613   1.555   4.329  12.338  0.4137 -0.5308  0.1978
 2384SOL    HW118614   1.540   4.388  12.264  2.8210 -0.8122 -0.5309
 2384SOL    HW218615   1.515   4.249  12.303 -0.6969  1.1150 -2.2890
 2385SOL     OW18616   2.780   3.024  12.404  0.3082 -0.5658 -0.4644
 2385SOL    HW118617   2.861   2.979  12.424  0.0562 -0.7553  0.1136
 2385SOL    HW218618   2.719   3.001  12.474  0.2429  1.7196  0.2298
 2386SOL     OW18619   0.868   3.023   5.124 -0.4537  0.6174  0.1361
 2386SOL    HW118620   0.916   3.048   5.203 -0.9680 -0.4527  0.7886
 2386SOL    HW218621   0.856   2.932   5.153 -0.0745  0.4791 -0.1347
 2387SOL     OW18622   4.485   0.446   0.622 -0.0515 -0.5810  0.1293
 2387SOL    HW118623   4.485   0.472   0.530 -2.1022  1.3874  0.6659
 2387SOL    HW218624   4.468   0.352   0.619 -1.0054 -0.4357  0.8425
 2388SOL     OW18625   1.018   0.263   2.074 -0.1474  0.3256 -0.2249
 2388SOL    HW118626   1.031   0.351   2.108  1.4413  1.2877 -3.3106
 2388SOL    HW218627   0.972   0.277   1.991 -0.9682  0.3133  0.2277
 2389SOL     OW18628   2.298   0.861   3.509 -0.5013  0.4179 -0.2489
 2389SOL    HW118629   2.318   0.896   3.596 -2.8612  1.1928 -0.0035
 2389SOL    HW218630   2.352   0.922   3.458 -1.0306  1.9779  1.0296
 2390SOL     OW18631   0.793   3.634   2.793  0.2723 -0.0125 -0.5812
 2390SOL    HW118632   0.883   3.655   2.816  0.4239 -1.1644 -0.1206
 2390SOL    HW218633   0.765   3.723   2.771  0.4797  0.8211  2.4857
 2391SOL     OW18634   3.630   2.715   0.918 -0.1123 -0.3023  0.2715
 2391SOL    HW118635   3.557   2.764   0.880 -0.6917 -0.6009  0.9890
 2391SOL    HW218636   3.662   2.681   0.835  0.9802 -0.4537  0.7632
 2392SOL     OW18637   4.358   3.168  11.068 -0.2185 -0.1651 -0.2313
 2392SOL    HW118638   4.319   3.158  11.156 -0.5430 -0.1962 -0.3766
 2392SOL    HW218639   4.284   3.135  11.016 -1.2687 -3.1398  3.1262
 2393SOL     OW18640   4.394   3.562   7.595 -0.4484 -0.7443 -0.5982
 2393SOL    HW118641   4.309   3.569   7.639 -0.8602  1.3159 -1.6905
 2393SOL    HW218642   4.444   3.595   7.670 -0.2885 -1.8872 -0.2048
 2394SOL     OW18643   0.138   2.917   2.872  0.5629  0.6836 -0.7061
 2394SOL    HW118644   0.204   2.882   2.931  0.6445  1.7213 -0.1909
 2394SOL    HW218645   0.182   2.927   2.787  2.8087  0.3242  0.4208
 2395SOL     OW18646   1.048   0.574   3.808  0.8629 -0.4190 -0.1737
 2395SOL    HW118647   1.068   0.546   3.719 -0.1296 -1.5518 -0.0382
 2395SOL    HW218648   1.067   0.667   3.799  0.1748 -0.3507 -0.9337
 2396SOL     OW18649   1.300   1.772   2.138  0.8574  0.7474 -0.2016
 2396SOL    HW118650   1.232   1.823   2.095 -1.9557 -0.6009  2.6709
 2396SOL    HW218651   1.263   1.766   2.226 -1.0463  1.9248 -0.9237
 2397SOL     OW18652   1.376   1.485   1.909  0.1918  0.6046  0.1964
 2397SOL    HW118653   1.440   1.483   1.838  0.7487 -1.3437  0.7575
 2397SOL    HW218654   1.428   1.526   1.978 -1.6744 -0.1306  2.0602
 2398SOL     OW18655   2.466   1.905   3.666 -0.0702  0.3114 -0.0573
 2398SOL    HW118656   2.541   1.929   3.720 -0.0035  0.9466 -0.4330
 2398SOL    HW218657   2.405   1.976   3.683 -1.2706 -0.5232 -0.8747
 2399SOL     OW18658   3.565   1.055   7.801 -0.3813  0.0992  0.6897
 2399SOL    HW118659   3.558   1.093   7.889 -3.5967  1.1321 -0.0085
 2399SOL    HW218660   3.476   1.022   7.789  0.1440 -0.8850 -0.4702
 2400SOL     OW18661   0.653   4.010   3.786 -0.1563  0.1895 -0.6026
 2400SOL    HW118662   0.652   4.102   3.759 -1.0127 -0.5376 -3.0448
 2400SOL    HW218663   0.711   4.020   3.861  0.0972 -0.0301 -0.7705
 2401SOL     OW18664   4.100   1.938   2.322  0.3457  0.0880 -0.5197
 2401SOL    HW118665   4.111   1.853   2.366  1.1880 -1.2394 -3.3411
 2401SOL    HW218666   4.100   1.916   2.229 -2.3679 -2.4236  0.0451
 2402SOL     OW18667   4.085   0.565   5.467 -0.2364  0.0806 -0.4434
 2402SOL    HW118668   4.164   0.533   5.423  1.8050  1.4356  2.2209
 2402SOL    HW218669   4.097   0.528   5.555 -1.6090 -0.9279 -0.6726
 2403SOL     OW18670   3.161   3.922  16.571 -0.0958 -0.1347  0.2097
 2403SOL    HW118671   3.178   3.968  16.654  1.0830 -0.7759  0.3275
 2403SOL    HW218672   3.212   3.980  16.514  0.1236  0.5176  1.0516
 2404SOL     OW18673   2.464   2.448   4.277  0.0665  0.3587  0.1680
 2404SOL    HW118674   2.541   2.428   4.330  0.4040 -0.2747 -0.5447
 2404SOL    HW218675   2.385   2.426   4.327  0.8325 -0.8287  0.8680
 2405SOL     OW18676   3.658   4.452  13.825  0.3683  0.7952 -1.0109
 2405SOL    HW118677   3.594   4.384  13.806 -0.0166  0.5064  1.3163
 2405SOL    HW218678   3.672   4.492  13.739 -2.0755 -1.2327 -2.3702
 2406SOL     OW18679   2.897   3.078   2.358  0.5603  0.6925  0.6325
 2406SOL    HW118680   2.943   3.053   2.278 -0.2285 -0.0368  0.4096
 2406SOL    HW218681   2.888   3.172   2.347 -1.1046  0.4902  0.2539
 2407SOL     OW18682   0.446   2.392   7.479  0.0486  0.0476 -0.2263
 2407SOL    HW118683   0.446   2.300   7.504  1.7279 -0.3102 -1.5420
 2407SOL    HW218684   0.370   2.399   7.422  0.0707  1.1367 -0.1200
 2408SOL     OW18685   0.316   1.764  17.507  0.3703  0.5279  0.1114
 2408SOL    HW118686   0.316   1.688  17.448 -1.7099  0.3580  0.3605
 2408SOL    HW218687   0.222   1.755  17.518  0.5266  0.2029  1.1335
 2409SOL     OW18688   0.651   2.857   5.623  0.1226  0.0296  0.2763
 2409SOL    HW118689   0.608   2.904   5.551 -1.8267 -0.3045  1.2240
 2409SOL    HW218690   0.726   2.832   5.570  0.1448  0.0611  0.2931
 2410SOL     OW18691   3.071   1.324   9.168 -0.5373 -0.4744 -0.8092
 2410SOL    HW118692   3.131   1.250   9.175  1.5866  1.5942  3.1429
 2410SOL    HW218693   3.126   1.383   9.220 -1.0005 -1.1669  0.4341
 2411SOL     OW18694   3.025   0.187   1.527  0.3444 -0.4434 -0.2088
 2411SOL    HW118695   3.091   0.253   1.546 -1.3695  1.9632 -2.6322
 2411SOL    HW218696   3.064   0.107   1.563 -0.5797  0.4911  2.8750
 2412SOL     OW18697   1.529   4.344   7.598 -0.0097 -0.0043  0.4186
 2412SOL    HW118698   1.520   4.277   7.665  0.6370  1.2487  1.7705
 2412SOL    HW218699   1.547   4.428   7.642  1.5866  0.0957 -0.4331
 2413SOL     OW18700   2.902   3.633  12.079  0.3944  0.6330 -0.1546
 2413SOL    HW118701   2.867   3.631  12.168 -1.0631  1.2114 -0.6969
 2413SOL    HW218702   2.932   3.543  12.070  2.4993  1.6561 -3.4307
 2414SOL     OW18703   3.724   2.317  17.462 -0.2283 -0.3444 -0.2135
 2414SOL    HW118704   3.743   2.405  17.428 -0.6732 -1.0512 -2.2983
 2414SOL    HW218705   3.680   2.279  17.386 -2.2293 -0.8917  1.2233
 2415SOL     OW18706   2.344   1.402   6.296 -0.2755  0.3144 -0.5033
 2415SOL    HW118707   2.346   1.355   6.212  0.7504  1.4959 -1.1395
 2415SOL    HW218708   2.409   1.356   6.349 -0.7090 -2.3100 -2.2032
 2416SOL     OW18709   0.184   3.895   2.324 -0.0769 -0.4183  0.1693
 2416SOL    HW118710   0.135   3.898   2.407  0.6874 -2.2081  0.6898
 2416SOL    HW218711   0.187   3.801   2.305 -0.5612 -0.4634  0.3110
 2417SOL     OW18712   1.340   4.291   5.752  0.4266  0.0757  0.0115
 2417SOL    HW118713   1.359   4.285   5.846 -1.7191 -1.0203  0.3577
 2417SOL    HW218714   1.416   4.340   5.720  0.1532  0.0740 -0.6240
 2418SOL     OW18715   1.004   0.309   4.789  0.0305  0.3809  0.0302
 2418SOL    HW118716   1.027   0.217   4.781 -1.8377 -0.0674 -0.1477
 2418SOL    HW218717   1.063   0.338   4.859 -0.2577 -0.4379  0.6073
 2419SOL     OW18718   0.463   2.289  17.272  0.3108 -0.3177  0.2111
 2419SOL    HW118719   0.470   2.207  17.320 -1.0557  1.4161  3.3904
 2419SOL    HW218720   0.485   2.256  17.185 -1.7492  0.5688 -0.6567
 2420SOL     OW18721   0.373   0.669   7.753  0.3268 -0.4745  0.2524
 2420SOL    HW118722   0.301   0.732   7.761  0.7396 -0.1817  1.6119
 2420SOL    HW218723   0.350   0.616   7.676  0.5457  1.9985 -1.5064
 2421SOL     OW18724   1.414   3.146   1.194  0.0058 -0.0390 -0.0871
 2421SOL    HW118725   1.401   3.147   1.099  1.2251  0.5751 -0.2508
 2421SOL    HW218726   1.424   3.240   1.208 -2.0477 -0.0527  1.4900
 2422SOL     OW18727   1.862   0.029   8.674 -0.0776  0.4600  0.3376
 2422SOL    HW118728   1.839   0.121   8.686 -1.9009  0.1991 -1.1499
 2422SOL    HW218729   1.796   4.703   8.624  0.6507  0.8329 -0.9813
 2423SOL     OW18730   1.450   4.359   3.123 -0.8115 -0.4051  0.3193
 2423SOL    HW118731   1.529   4.306   3.136 -1.3416 -0.6697  2.4645
 2423SOL    HW218732   1.475   4.393   3.037  0.0332  2.2373  1.6037
 2424SOL     OW18733   3.065   1.997   8.457 -0.0528  0.0004  0.1635
 2424SOL    HW118734   3.032   1.936   8.523  1.2001  1.9207  2.6011
 2424SOL    HW218735   3.049   1.944   8.380 -2.3447 -0.0264  0.6444
 2425SOL     OW18736   1.413   0.104   8.986  0.2931  0.1544 -0.2848
 2425SOL    HW118737   1.416   0.134   9.077 -0.0185  1.0452 -0.5661
 2425SOL    HW218738   1.466   0.024   8.987  2.8961  1.9180  0.9334
 2426SOL     OW18739   0.966   4.001  16.490 -1.0568 -0.1111 -0.3212
 2426SOL    HW118740   1.015   4.077  16.519 -1.6578  1.0366 -2.2723
 2426SOL    HW218741   0.875   4.025  16.504 -1.1600 -0.5294 -0.2603
 2427SOL     OW18742   4.409   1.296   6.825 -0.6369  0.4264  0.6057
 2427SOL    HW118743   4.376   1.271   6.738 -1.9929  1.4289  0.8302
 2427SOL    HW218744   4.334   1.267   6.878 -2.1274  1.7091 -0.7866
 2428SOL     OW18745   2.115   3.027  13.333  0.1986 -0.1411 -0.5344
 2428SOL    HW118746   2.022   3.042  13.354 -0.3135 -2.4776 -1.1181
 2428SOL    HW218747   2.137   3.059  13.420 -0.5744 -0.0117 -0.3796
 2429SOL     OW18748   2.516   1.839   5.876  0.4969  0.7579 -0.5182
 2429SOL    HW118749   2.452   1.904   5.904 -0.1701 -0.3567  0.5466
 2429SOL    HW218750   2.472   1.762   5.913  1.8071  1.2579  2.0142
 2430SOL     OW18751   3.618   1.252  15.778 -0.1200  0.0826  0.1382
 2430SOL    HW118752   3.681   1.246  15.849  0.5360  0.5927 -0.4029
 2430SOL    HW218753   3.548   1.192  15.805  0.8557  0.0219  2.4892
 2431SOL     OW18754   3.869   3.680   7.513  0.2314  0.3126 -0.6447
 2431SOL    HW118755   3.910   3.738   7.448  1.3970 -2.4143 -2.3266
 2431SOL    HW218756   3.880   3.740   7.587  4.8480 -1.9315  0.5543
 2432SOL     OW18757   2.168   4.482   3.905 -0.2855  0.1095 -0.2940
 2432SOL    HW118758   2.209   4.468   3.990 -0.4956 -2.0230 -0.5461
 2432SOL    HW218759   2.249   4.460   3.859 -0.8179 -1.4191 -0.4852
 2433SOL     OW18760   3.597   0.024   3.565 -0.0440 -0.0147  0.2709
 2433SOL    HW118761   3.644   0.090   3.514  1.0409 -0.6111  0.4852
 2433SOL    HW218762   3.513   0.063   3.587  0.4975  1.4382 -0.2298
 2434SOL     OW18763   0.357   3.340  14.664 -0.9551  0.1310 -0.3613
 2434SOL    HW118764   0.409   3.385  14.598  0.7598 -0.2695  0.7172
 2434SOL    HW218765   0.418   3.311  14.731  0.1277 -2.8212 -2.6311
 2435SOL     OW18766   2.254   3.088   4.264 -0.2772  0.2045  0.1993
 2435SOL    HW118767   2.321   3.129   4.319 -0.7083  0.1680  0.7511
 2435SOL    HW218768   2.181   3.068   4.324 -0.2506  1.2386  0.5742
 2436SOL     OW18769   1.096   2.973   0.968  0.3824  0.4346 -0.7082
 2436SOL    HW118770   1.120   2.920   0.892 -0.8353 -1.0758 -0.0491
 2436SOL    HW218771   1.114   3.062   0.938  0.1112  0.1850 -1.6060
 2437SOL     OW18772   4.357   0.263   2.834  0.4769 -0.1088 -0.0114
 2437SOL    HW118773   4.411   0.334   2.867 -0.5930  0.1951  1.0648
 2437SOL    HW218774   4.356   0.215   2.917  1.8373 -0.6551 -0.2957
 2438SOL     OW18775   3.259   0.866  11.454  0.2423 -0.2317  0.3177
 2438SOL    HW118776   3.266   0.806  11.379  0.8082  1.5592 -1.0698
 2438SOL    HW218777   3.199   0.813  11.505 -0.1468 -1.2846 -1.2189
 2439SOL     OW18778   1.053   0.897  13.966 -0.0104  0.4138  0.1537
 2439SOL    HW118779   1.091   0.884  14.053 -0.7209 -0.6001  0.3190
 2439SOL    HW218780   0.971   0.847  13.964 -0.3190  0.9630 -0.7466
 2440SOL     OW18781   3.439   0.014   1.536 -0.1703 -0.2736 -0.2542
 2440SOL    HW118782   3.513   4.687   1.500  0.0125  0.5978 -1.0643
 2440SOL    HW218783   3.473   0.045   1.620 -3.2061  1.3792  0.3653
 2441SOL     OW18784   3.225   1.527   6.130 -0.1597  0.5435 -0.5301
 2441SOL    HW118785   3.319   1.510   6.140 -0.2377 -0.3482 -1.2551
 2441SOL    HW218786   3.188   1.441   6.148  0.6357  0.1506 -0.7423
 2442SOL     OW18787   3.886   3.427   5.950 -0.0155 -0.2005 -0.2408
 2442SOL    HW118788   3.953   3.464   6.007 -0.7781 -0.8697  1.0859
 2442SOL    HW218789   3.913   3.442   5.859 -0.3792  0.9974 -0.1477
 2443SOL     OW18790   0.470   4.302   3.482  0.1150  0.1697  0.8078
 2443SOL    HW118791   0.490   4.296   3.389  0.5639 -1.0279  0.9718
 2443SOL    HW218792   0.382   4.340   3.480 -0.3304 -0.9199 -0.0493
 2444SOL     OW18793   4.390   1.948   5.003  0.2722 -0.4359 -0.4495
 2444SOL    HW118794   4.307   1.978   4.966  1.3097  1.1865 -1.4625
 2444SOL    HW218795   4.429   2.032   5.026 -0.5006  0.1063 -1.1031
 2445SOL     OW18796   4.140   0.500   1.879  0.2174  0.0727 -0.3192
 2445SOL    HW118797   4.106   0.534   1.961 -1.6016 -0.9941 -0.6378
 2445SOL    HW218798   4.173   0.416   1.911 -1.3070 -1.0132 -1.5862
 2446SOL     OW18799   4.544   1.831   3.225 -0.0645  0.9857 -0.0095
 2446SOL    HW118800   4.523   1.743   3.259 -0.5835 -0.2644 -3.5846
 2446SOL    HW218801   4.465   1.845   3.173 -0.8810 -0.7299  0.7435
 2447SOL     OW18802   1.266   1.660  11.524  0.8705 -0.1156 -0.0973
 2447SOL    HW118803   1.351   1.698  11.546  0.6172  1.3701 -1.6549
 2447SOL    HW218804   1.299   1.592  11.465  1.7907  0.0625  0.2069
 2448SOL     OW18805   3.722   0.773  12.584  0.4487  0.4183  0.3886
 2448SOL    HW118806   3.626   0.774  12.587  0.4569 -1.9404  1.4603
 2448SOL    HW218807   3.746   0.798  12.674  0.9718 -0.0529  0.3740
 2449SOL     OW18808   3.424   4.663   8.812 -0.3871 -0.2084  0.4743
 2449SOL    HW118809   3.486   4.591   8.809 -1.5803 -1.2386  0.5892
 2449SOL    HW218810   3.376   4.643   8.732 -1.2112 -2.1218  1.4698
 2450SOL     OW18811   0.806   1.612   5.738  0.2072  0.1466 -0.3867
 2450SOL    HW118812   0.749   1.535   5.741  0.5677 -0.0725  0.7206
 2450SOL    HW218813   0.893   1.577   5.753 -0.0617 -0.2206  0.3215
 2451SOL     OW18814   3.638   1.145   3.679 -0.5379  0.2097  0.1950
 2451SOL    HW118815   3.652   1.062   3.634  0.1343 -0.7446  2.1563
 2451SOL    HW218816   3.616   1.198   3.602  2.7867  0.7693 -0.3800
 2452SOL     OW18817   0.837   2.114   5.871  0.2225  0.0233 -0.0638
 2452SOL    HW118818   0.809   2.023   5.872 -0.0684  0.0997 -1.0387
 2452SOL    HW218819   0.891   2.125   5.793  0.9403 -0.2058  0.3978
 2453SOL     OW18820   1.048   2.373  12.991 -0.2209 -0.0297  0.5975
 2453SOL    HW118821   0.970   2.319  12.979  1.4116 -1.7478 -2.2459
 2453SOL    HW218822   1.106   2.303  12.962  1.9676  1.0867  2.2449
 2454SOL     OW18823   1.475   2.611   0.756 -0.0704  0.6780  0.3381
 2454SOL    HW118824   1.418   2.567   0.692 -0.0313 -1.1833  1.5798
 2454SOL    HW218825   1.464   2.703   0.731  1.2736  1.4171  2.5255
 2455SOL     OW18826   3.336   3.489   3.376  0.1338 -0.5667  0.0927
 2455SOL    HW118827   3.410   3.434   3.352 -0.0733  0.1902 -2.3165
 2455SOL    HW218828   3.354   3.567   3.323  3.5882 -2.6280 -1.7662
 2456SOL     OW18829   2.672   3.130   3.285 -0.3594 -0.2699  0.4224
 2456SOL    HW118830   2.674   3.043   3.246 -0.5811  0.9114 -2.2328
 2456SOL    HW218831   2.706   3.113   3.373 -1.6000  0.8278  1.1074
 2457SOL     OW18832   4.291   1.396   2.387 -0.2434 -0.4087  0.5728
 2457SOL    HW118833   4.245   1.392   2.303 -0.1104  3.1519  0.3241
 2457SOL    HW218834   4.263   1.480   2.424 -0.6778 -0.0806 -0.5082
 2458SOL     OW18835   2.328   0.118   7.237 -0.0665  0.1253  0.1734
 2458SOL    HW118836   2.359   0.029   7.255  0.0719  0.2356  0.4678
 2458SOL    HW218837   2.339   0.158   7.323 -1.2858  0.5341  0.1374
 2459SOL     OW18838   3.957   0.286   8.466 -0.0196 -0.2457  0.4086
 2459SOL    HW118839   4.039   0.287   8.516  0.0200  0.3605  0.3425
 2459SOL    HW218840   3.887   0.284   8.530 -1.1123  0.7884 -0.7442
 2460SOL     OW18841   1.269   2.554  10.748 -0.1551 -0.0032 -0.3964
 2460SOL    HW118842   1.262   2.586  10.658  1.9073 -1.5190 -1.0989
 2460SOL    HW218843   1.254   2.459  10.746  0.9907 -0.1870 -0.3105
 2461SOL     OW18844   4.538   0.381   9.365  0.0514 -0.5631 -0.3060
 2461SOL    HW118845   4.523   0.343   9.452 -0.4747 -0.1757 -0.2294
 2461SOL    HW218846   4.496   0.467   9.367  0.2258 -0.4867  0.2039
 2462SOL     OW18847   0.427   3.703   7.222 -0.1631  0.3743  0.4858
 2462SOL    HW118848   0.388   3.700   7.135 -0.8270  1.4754  0.7447
 2462SOL    HW218849   0.357   3.666   7.276  1.0415 -2.1379  0.3225
 2463SOL     OW18850   2.466   0.406   5.781 -0.2589 -0.6424 -0.1542
 2463SOL    HW118851   2.400   0.424   5.848 -1.2846 -2.0795 -0.7880
 2463SOL    HW218852   2.412   0.386   5.705 -0.6730 -0.6783  0.1502
 2464SOL     OW18853   1.304   1.655   5.597 -0.1934 -0.6841 -0.0947
 2464SOL    HW118854   1.244   1.711   5.547  0.2781  0.6280  0.7938
 2464SOL    HW218855   1.275   1.664   5.688 -1.5930 -0.3207 -0.5770
 2465SOL     OW18856   0.173   3.559   9.699  0.4167 -0.1035 -0.1040
 2465SOL    HW118857   0.157   3.504   9.622 -0.4123 -1.3911  0.9694
 2465SOL    HW218858   0.235   3.625   9.670  0.4870 -0.5386 -0.9393
 2466SOL     OW18859   1.898   1.440   0.057 -0.9121 -0.1272 -0.1661
 2466SOL    HW118860   1.865   1.384  17.677  3.4760 -2.8129 -0.0794
 2466SOL    HW218861   1.992   1.421   0.054 -1.0773 -1.0270  0.3872
 2467SOL     OW18862   3.361   3.239   1.067  0.6506 -0.2875  0.0577
 2467SOL    HW118863   3.395   3.204   1.149  0.3546 -1.5763 -0.3606
 2467SOL    HW218864   3.298   3.302   1.102 -1.9004 -1.8786 -1.6455
 2468SOL     OW18865   1.874   3.835   5.008 -0.1399 -0.4101 -0.6581
 2468SOL    HW118866   1.891   3.894   5.081  2.1967 -0.9747 -0.7369
 2468SOL    HW218867   1.928   3.761   5.035  1.7506  1.1384 -0.1929
 2469SOL     OW18868   1.707   4.469  14.473 -0.2996  0.4547 -0.5141
 2469SOL    HW118869   1.774   4.434  14.414 -0.8790 -0.3187 -0.7122
 2469SOL    HW218870   1.638   4.473  14.407 -1.3367 -0.0493  0.5564
 2470SOL     OW18871   3.958   3.912   7.686  0.2280 -0.6802 -0.1176
 2470SOL    HW118872   4.027   3.858   7.724  1.2379 -0.5652 -1.8110
 2470SOL    HW218873   3.965   3.991   7.739 -1.7985  0.1444 -1.0828
 2471SOL     OW18874   2.793   3.329   2.763 -0.2662  0.5307  0.1839
 2471SOL    HW118875   2.875   3.280   2.770 -0.6978 -0.4569 -1.5815
 2471SOL    HW218876   2.733   3.272   2.811  0.9016  0.3620  1.4200
 2472SOL     OW18877   1.814   1.614   9.273  0.6635 -0.1764  0.4498
 2472SOL    HW118878   1.823   1.572   9.358 -0.6600  0.4160  0.8859
 2472SOL    HW218879   1.735   1.667   9.284  0.3333 -0.7729  0.9399
 2473SOL     OW18880   1.613   2.755   1.963 -0.4022  0.0800  0.4273
 2473SOL    HW118881   1.645   2.710   2.041  2.8295 -0.6147 -1.2994
 2473SOL    HW218882   1.519   2.744   1.971 -0.3254 -1.8329 -1.1398
 2474SOL     OW18883   0.703   2.496  11.375 -0.2080 -0.2898  0.0633
 2474SOL    HW118884   0.791   2.458  11.376 -0.0023  0.2143  1.4547
 2474SOL    HW218885   0.730   2.580  11.336 -2.3255  0.6614  0.6426
 2475SOL     OW18886   3.548   2.589   2.295 -0.7248 -0.5650  0.3391
 2475SOL    HW118887   3.643   2.591   2.306 -1.0197 -0.0214  2.8248
 2475SOL    HW218888   3.529   2.654   2.228  1.0756 -1.7321 -1.2629
 2476SOL     OW18889   2.398   4.451   6.892 -0.2276 -0.2253 -0.1788
 2476SOL    HW118890   2.311   4.485   6.872  0.4417  2.2786  1.1126
 2476SOL    HW218891   2.413   4.402   6.811 -1.5005 -0.4103 -0.2936
 2477SOL     OW18892   2.892   1.892   1.675 -0.4307  0.1715 -0.6557
 2477SOL    HW118893   2.925   1.965   1.728 -1.7824 -0.7555  1.4597
 2477SOL    HW218894   2.924   1.927   1.592 -1.7020  1.4438 -0.6298
 2478SOL     OW18895   2.908   0.383   4.664 -0.5084 -0.8182 -0.1261
 2478SOL    HW118896   2.885   0.340   4.582 -0.2523  2.5872 -1.9719
 2478SOL    HW218897   2.976   0.446   4.642  0.6000 -0.3460  4.4681
 2479SOL     OW18898   2.724   2.873  11.445  0.0991 -0.1276 -0.4535
 2479SOL    HW118899   2.694   2.800  11.499  0.7714  0.9049  1.3351
 2479SOL    HW218900   2.741   2.939  11.513  3.1057 -0.3892 -0.9326
 2480SOL     OW18901   3.975   3.695  10.428 -0.3590 -0.8476 -0.1309
 2480SOL    HW118902   4.070   3.706  10.431 -0.6128  1.2368  0.4111
 2480SOL    HW218903   3.935   3.782  10.421  1.5520 -0.0721 -1.5325
 2481SOL     OW18904   0.119   0.791   9.867 -0.7471  0.1037  0.4484
 2481SOL    HW118905   0.120   0.847   9.790  1.7045  0.1168  0.4883
 2481SOL    HW218906   0.214   0.786   9.880 -0.6763  1.2010  0.3941
 2482SOL     OW18907   4.670   4.636   6.134 -0.2244 -0.3969  0.4476
 2482SOL    HW118908   4.635   4.561   6.085  0.1030 -0.0759 -0.2631
 2482SOL    HW218909   0.037   4.604   6.146 -0.4056 -1.6091 -1.3741
 2483SOL     OW18910   4.207   2.315  14.681  0.0061 -0.2611  0.0443
 2483SOL    HW118911   4.213   2.360  14.765 -0.5169  0.8653 -0.5201
 2483SOL    HW218912   4.111   2.310  14.681 -0.0656  1.1423  2.2684
 2484SOL     OW18913   3.928   4.619   3.670 -0.3666 -0.6811  0.1614
 2484SOL    HW118914   3.890   4.680   3.733 -1.4391 -0.9160 -0.2660
 2484SOL    HW218915   4.010   4.591   3.711 -1.6449 -0.6294  2.7485
 2485SOL     OW18916   3.356   0.355  10.591  0.0558  0.6364  0.2391
 2485SOL    HW118917   3.286   0.365  10.527 -0.2069  3.1312  0.9223
 2485SOL    HW218918   3.324   0.279  10.640  0.6175  1.2183  1.4985
 2486SOL     OW18919   2.401   4.644   6.130  0.3738 -0.2318 -0.2235
 2486SOL    HW118920   2.396   4.714   6.064  0.3414  0.6238  0.6807
 2486SOL    HW218921   2.404   4.567   6.074  0.1189 -0.2684 -0.1865
 2487SOL     OW18922   0.497   0.109   1.461 -0.1213 -0.3546 -0.0044
 2487SOL    HW118923   0.534   0.027   1.493 -0.2513 -0.5665 -0.3883
 2487SOL    HW218924   0.531   0.099   1.372 -1.7780 -0.2582 -0.6635
 2488SOL     OW18925   3.831   2.548   2.295 -0.1679  0.4206 -0.0158
 2488SOL    HW118926   3.876   2.464   2.287  0.8595  1.0335 -0.6980
 2488SOL    HW218927   3.910   2.601   2.284  0.2833 -0.4534 -1.0164
 2489SOL     OW18928   1.435   0.736   5.373  0.0814  0.4871 -0.2228
 2489SOL    HW118929   1.494   0.759   5.301  0.3721  1.9962  0.4939
 2489SOL    HW218930   1.460   0.796   5.443 -0.7906 -0.0981  0.5875
 2490SOL     OW18931   1.924   2.463   2.040 -0.1708 -0.1971  0.3275
 2490SOL    HW118932   1.917   2.559   2.043  2.5568 -0.0097  0.3952
 2490SOL    HW218933   1.992   2.441   2.103 -1.2409  2.9460  2.5528
 2491SOL     OW18934   1.498   1.095  14.022 -0.2898 -0.1107  0.0660
 2491SOL    HW118935   1.484   1.079  13.929  1.2237  0.8777 -0.3243
 2491SOL    HW218936   1.469   1.010  14.056 -1.4598  0.6231  0.8866
 2492SOL     OW18937   1.769   3.233  14.629 -0.1332 -0.0828 -0.7731
 2492SOL    HW118938   1.739   3.148  14.660  0.7901 -0.3577 -0.6466
 2492SOL    HW218939   1.774   3.219  14.534  1.9951 -0.5511 -0.5970
 2493SOL     OW18940   4.502   2.385   1.322  0.1744 -0.0364  0.6332
 2493SOL    HW118941   4.494   2.386   1.227 -1.4781  0.4630  0.7710
 2493SOL    HW218942   4.582   2.438   1.325  0.5411 -0.5126 -1.1106
 2494SOL     OW18943   1.505   1.304   1.195 -0.0300  0.2036 -0.4110
 2494SOL    HW118944   1.520   1.308   1.101  0.2308  0.2016 -0.3714
 2494SOL    HW218945   1.457   1.222   1.204 -1.8455  1.1576 -1.3385
 2495SOL     OW18946   0.558   0.500  13.814  0.0196  0.0576 -0.2538
 2495SOL    HW118947   0.534   0.414  13.847 -0.2537 -0.3297 -1.4758
 2495SOL    HW218948   0.651   0.507  13.835 -0.2526  1.6619  0.4797
 2496SOL     OW18949   4.024   3.618   5.106  0.0271  0.1096  0.5502
 2496SOL    HW118950   4.117   3.593   5.100  0.1327 -0.0069  3.0167
 2496SOL    HW218951   4.009   3.708   5.080  0.1263 -0.0044  0.0823
 2497SOL     OW18952   3.092   0.363   6.608 -0.1226  0.5447 -0.0360
 2497SOL    HW118953   3.072   0.422   6.681 -2.4770 -1.9588  1.3482
 2497SOL    HW218954   3.051   0.408   6.534 -0.1236  1.5291  0.5576
 2498SOL     OW18955   1.601   2.547   6.799 -0.5540  0.2031 -0.3676
 2498SOL    HW118956   1.671   2.553   6.733 -0.0141 -0.9554  0.1125
 2498SOL    HW218957   1.645   2.585   6.875 -0.1810 -0.2221 -0.3696
 2499SOL     OW18958   1.473   1.409   4.930  0.2980 -0.3682 -0.4491
 2499SOL    HW118959   1.542   1.343   4.922  1.6131  1.0749 -1.0231
 2499SOL    HW218960   1.495   1.462   5.007 -1.0399 -0.5564  0.0580
 2500SOL     OW18961   3.608   0.391   2.579 -0.1163 -0.6684 -0.0567
 2500SOL    HW118962   3.598   0.347   2.495 -2.4250  1.0417 -0.6928
 2500SOL    HW218963   3.541   0.460   2.577  0.4766 -0.0714  0.8850
 2501SOL     OW18964   1.924   0.023   8.992  0.9716  0.2784  0.6365
 2501SOL    HW118965   1.857   0.077   8.950  0.5396 -1.1485 -0.5269
 2501SOL    HW218966   2.002   0.075   8.975  1.5153 -1.3537 -1.9663
 2502SOL     OW18967   2.620   2.616   4.166  0.0303  0.3781 -0.0241
 2502SOL    HW118968   2.545   2.561   4.188  2.1150 -1.8641  1.4676
 2502SOL    HW218969   2.588   2.628   4.077  0.2885  1.0896 -0.0170
 2503SOL     OW18970   3.631   4.151   3.565  0.4552  0.4838 -0.1132
 2503SOL    HW118971   3.579   4.130   3.643 -0.5902  0.7897 -0.7299
 2503SOL    HW218972   3.594   4.093   3.498  1.3710  0.6745 -0.7887
 2504SOL     OW18973   2.574   2.219  14.670 -0.3864 -0.1806  0.4616
 2504SOL    HW118974   2.594   2.287  14.734  0.7796 -0.8924  0.8445
 2504SOL    HW218975   2.522   2.269  14.607 -0.0924  1.1490  1.2767
 2505SOL     OW18976   0.555   1.495  10.358  0.4340  0.0532  0.1774
 2505SOL    HW118977   0.528   1.534  10.441 -1.3991  0.8315 -0.7674
 2505SOL    HW218978   0.629   1.548  10.328  0.4904  0.0173  0.2560
 2506SOL     OW18979   1.695   4.531   2.858  0.0004  0.2481  0.5713
 2506SOL    HW118980   1.714   4.557   2.949 -0.8532  1.1861  0.4763
 2506SOL    HW218981   1.611   4.488   2.876  0.2762 -1.4701 -2.2639
 2507SOL     OW18982   3.121   4.053   7.860 -0.0271 -0.6327  0.0149
 2507SOL    HW118983   3.078   4.024   7.780  0.5905 -0.2686 -0.4451
 2507SOL    HW218984   3.209   4.018   7.852  0.7671  0.6081  3.5740
 2508SOL     OW18985   2.114   0.047   3.556  0.1871 -0.2029 -0.3217
 2508SOL    HW118986   2.025   0.019   3.534  0.3472 -1.6740  0.8601
 2508SOL    HW218987   2.111   0.055   3.651 -0.7142 -1.0521 -0.2767
 2509SOL     OW18988   0.149   4.151   9.716 -0.2383  0.1601 -0.4871
 2509SOL    HW118989   0.178   4.216   9.780  2.3967 -0.0760 -1.4331
 2509SOL    HW218990   0.123   4.214   9.648 -0.2193  0.5469 -0.1387
 2510SOL     OW18991   4.542   1.406   7.049  0.0221  0.3397 -0.0757
 2510SOL    HW118992   4.501   1.376   6.968  1.0874 -0.2266 -0.4016
 2510SOL    HW218993   4.515   1.338   7.110  0.9587  1.1468  1.2380
 2511SOL     OW18994   2.260   2.696   2.877  0.4914 -0.1286 -0.5069
 2511SOL    HW118995   2.350   2.701   2.844  0.7835  1.5858  0.5425
 2511SOL    HW218996   2.264   2.776   2.928  1.1840 -0.0462 -0.6893
 2512SOL     OW18997   2.904   0.704   2.301 -0.0515  0.5506  0.8274
 2512SOL    HW118998   2.889   0.739   2.389 -3.4201 -0.0497  0.4780
 2512SOL    HW218999   2.902   0.609   2.314  4.7678  0.0449 -2.2329
 2513SOL     OW19000   1.852   0.704   1.716  0.0248  0.4686  0.0008
 2513SOL    HW119001   1.880   0.650   1.642  0.6448 -0.7680  1.1395
 2513SOL    HW219002   1.758   0.692   1.728  0.0346 -0.3897 -0.8221
 2514SOL     OW19003   3.856   1.905   8.031  0.1002  0.1494 -0.3907
 2514SOL    HW119004   3.934   1.947   8.067 -0.2050 -1.2980  1.9154
 2514SOL    HW219005   3.831   1.958   7.955 -1.0093  1.7253  1.0639
 2515SOL     OW19006   2.359   1.306  14.207  0.0093  0.4480  0.4778
 2515SOL    HW119007   2.323   1.336  14.124  4.1121 -1.5951 -2.0245
 2515SOL    HW219008   2.426   1.372  14.226 -1.1353  1.2329  1.8635
 2516SOL     OW19009   4.191   3.192  15.531 -0.2862 -0.0039 -0.2603
 2516SOL    HW119010   4.132   3.187  15.606 -0.4340 -0.3362 -0.3957
 2516SOL    HW219011   4.138   3.139  15.470  3.3005 -2.7980 -0.9531
 2517SOL     OW19012   1.972   3.777   7.878  0.1922  0.3534 -0.7434
 2517SOL    HW119013   2.005   3.747   7.794  1.5172 -2.6881  0.8341
 2517SOL    HW219014   2.053   3.794   7.927 -0.1954 -1.5415  0.5645
 2518SOL     OW19015   4.213   1.572   0.729 -0.5518 -0.1803  0.2095
 2518SOL    HW119016   4.296   1.606   0.763 -0.8156 -0.6657  1.3355
 2518SOL    HW219017   4.148   1.597   0.796 -0.1047  2.5530 -0.3789
 2519SOL     OW19018   4.476   1.776   1.840 -0.7257  0.1293 -0.1181
 2519SOL    HW119019   4.511   1.691   1.814  0.9901  0.6260  0.5539
 2519SOL    HW219020   4.402   1.742   1.890  0.4724 -1.5511  0.5084
 2520SOL     OW19021   2.409   2.151   6.953 -0.3366  0.2013  0.6642
 2520SOL    HW119022   2.359   2.073   6.930  0.7453  0.0145 -1.0386
 2520SOL    HW219023   2.430   2.130   7.044  1.3960  0.8248  0.4102
 2521SOL     OW19024   0.865   3.125  10.528  0.6105 -0.4453 -0.0259
 2521SOL    HW119025   0.838   3.037  10.553 -1.2690  0.1076 -0.0456
 2521SOL    HW219026   0.898   3.110  10.440 -1.2459 -0.9035 -0.6505
 2522SOL     OW19027   1.692   4.537   2.289 -0.4710  0.5353  1.2819
 2522SOL    HW119028   1.688   4.472   2.359 -0.1299 -0.5766  0.2454
 2522SOL    HW219029   1.689   4.485   2.209 -0.3604  0.3272  1.4118
 2523SOL     OW19030   4.351   2.785   6.878  0.1713  0.3341  0.5002
 2523SOL    HW119031   4.336   2.692   6.863  0.1958  0.5896 -1.1031
 2523SOL    HW219032   4.262   2.816   6.861 -1.1589 -2.5479  2.2730
 2524SOL     OW19033   4.101   4.560  16.139  0.2294 -0.6606  0.1477
 2524SOL    HW119034   4.186   4.524  16.165  1.4607  0.2036 -2.6034
 2524SOL    HW219035   4.124   4.652  16.124  1.1733 -0.9128  0.0069
 2525SOL     OW19036   4.097   2.496   2.041 -0.7202 -0.8407  0.2442
 2525SOL    HW119037   4.162   2.444   1.995  0.6408  0.1223  1.0849
 2525SOL    HW219038   4.145   2.538   2.112 -0.6942 -0.2413 -0.1274
 2526SOL     OW19039   1.751   0.268  14.785 -0.3189  0.0503  0.1455
 2526SOL    HW119040   1.670   0.230  14.751  0.8201 -1.7970 -0.5033
 2526SOL    HW219041   1.750   0.236  14.875 -1.5068 -0.1291  0.0695
 2527SOL     OW19042   2.794   1.002   6.444  0.0693 -0.3513  0.7593
 2527SOL    HW119043   2.709   0.966   6.465  0.7381 -2.0018  0.6285
 2527SOL    HW219044   2.839   0.920   6.425  0.2796  0.2069 -1.2414
 2528SOL     OW19045   4.130   2.119  10.630 -0.0568  0.2198  0.0119
 2528SOL    HW119046   4.057   2.153  10.577 -0.0093  0.0337 -0.1766
 2528SOL    HW219047   4.211   2.142  10.584 -0.6018 -0.0783 -1.1086
 2529SOL     OW19048   0.505   2.015   8.739 -0.1728  0.3905 -0.3068
 2529SOL    HW119049   0.499   2.084   8.805  0.7645  0.1970 -0.0190
 2529SOL    HW219050   0.482   2.054   8.654 -0.8223 -1.1097 -0.8341
 2530SOL     OW19051   4.473   3.304   6.347 -0.0416 -0.3021  0.5626
 2530SOL    HW119052   4.391   3.316   6.299 -0.1260  0.4925  0.8984
 2530SOL    HW219053   4.474   3.211   6.367 -1.2683 -0.4605 -0.0973
 2531SOL     OW19054   1.431   4.439   2.852  0.3408 -0.5436 -0.6402
 2531SOL    HW119055   1.426   4.440   2.757 -1.0900  0.2134 -0.5565
 2531SOL    HW219056   1.337   4.455   2.865  0.8121 -0.0498  2.1702
 2532SOL     OW19057   1.339   2.078  11.870  0.4449 -0.4060  0.4709
 2532SOL    HW119058   1.403   2.094  11.801 -0.5894 -1.7912 -0.7976
 2532SOL    HW219059   1.272   2.019  11.835  0.9037 -1.3480  1.1642
 2533SOL     OW19060   1.534   1.508   7.449  0.3005  0.0051 -0.0006
 2533SOL    HW119061   1.464   1.458   7.406 -1.5313  2.3910  0.2100
 2533SOL    HW219062   1.615   1.467   7.417  0.0888 -0.5125  0.1208
 2534SOL     OW19063   2.959   2.650  13.531  0.4782 -0.1504  0.9245
 2534SOL    HW119064   2.901   2.687  13.598 -0.2187  0.5358 -0.0593
 2534SOL    HW219065   3.009   2.584  13.579  2.3804  0.0106 -0.8484
 2535SOL     OW19066   2.643   0.412  15.163 -0.3109  0.2033 -0.1567
 2535SOL    HW119067   2.558   0.425  15.206 -0.6951 -0.6442 -0.6569
 2535SOL    HW219068   2.644   0.479  15.095 -0.9236  1.2632  0.8689
 2536SOL     OW19069   3.823   0.895  12.168 -0.7135 -0.0549 -0.5345
 2536SOL    HW119070   3.735   0.930  12.152 -0.1658  0.8312 -1.6102
 2536SOL    HW219071   3.864   0.982  12.172  0.2802 -0.5677  0.3386
 2537SOL     OW19072   4.328   2.400   5.283  0.6014  0.3397 -0.0219
 2537SOL    HW119073   4.340   2.424   5.375  1.7155  1.1260 -0.3713
 2537SOL    HW219074   4.329   2.484   5.238  2.5364  0.6505  0.5849
 2538SOL     OW19075   4.314   0.912   1.892 -0.0825  0.6068 -0.0385
 2538SOL    HW119076   4.286   0.968   1.820  0.0031  1.6617  0.7417
 2538SOL    HW219077   4.323   0.828   1.848  1.6662 -0.2038  1.8744
 2539SOL     OW19078   0.134   0.128   9.475  0.2465  0.0986 -0.5506
 2539SOL    HW119079   0.112   0.220   9.491  0.7649  0.5143 -2.2873
 2539SOL    HW219080   0.141   0.125   9.380 -0.0941  0.8714 -0.6042
 2540SOL     OW19081   0.221   1.938   8.656 -0.0542 -0.6118  0.0804
 2540SOL    HW119082   0.314   1.920   8.670  0.4492  2.9289  1.5239
 2540SOL    HW219083   0.225   2.027   8.693 -1.5692 -0.6101  0.2179
 2541SOL     OW19084   2.969   4.426   4.293  0.5461 -0.4029 -0.3052
 2541SOL    HW119085   2.919   4.384   4.223 -0.8935  2.2845 -0.8980
 2541SOL    HW219086   3.055   4.394   4.265  0.3214 -0.7789 -0.5572
 2542SOL     OW19087   2.103   2.799   6.147 -0.2068 -0.1190 -0.4660
 2542SOL    HW119088   2.107   2.788   6.242 -0.3728  0.9526 -0.3317
 2542SOL    HW219089   2.008   2.803   6.147 -0.2779 -1.8355 -1.0381
 2543SOL     OW19090   0.667   1.831   3.300  0.3609 -0.1485 -0.2703
 2543SOL    HW119091   0.603   1.898   3.326  2.2769  1.3839  0.4381
 2543SOL    HW219092   0.708   1.817   3.385 -1.8445  2.6606  1.2507
 2544SOL     OW19093   2.873   1.428   1.538  0.3888 -0.4292 -0.5445
 2544SOL    HW119094   2.810   1.499   1.525  0.7811 -0.2529 -1.5184
 2544SOL    HW219095   2.854   1.406   1.629  0.4778 -1.7781 -0.8535
 2545SOL     OW19096   1.236   4.219  13.194 -0.3570 -0.2355 -0.2470
 2545SOL    HW119097   1.289   4.240  13.270  0.7759 -0.1954 -1.0499
 2545SOL    HW219098   1.155   4.270  13.201  0.4146  0.9695 -0.1918
 2546SOL     OW19099   0.243   0.327  12.756 -0.2027  0.3213  0.7480
 2546SOL    HW119100   0.243   0.242  12.801  1.4378  0.5484  1.1428
 2546SOL    HW219101   0.151   0.337  12.729  0.2382 -0.0496 -0.9206
 2547SOL     OW19102   4.501   3.837   8.681  0.0255  0.3777  0.1679
 2547SOL    HW119103   4.488   3.807   8.591 -1.3498 -1.1438  0.8711
 2547SOL    HW219104   4.434   3.905   8.679 -0.8599 -0.6094 -3.1525
 2548SOL     OW19105   1.320   1.353   0.954 -0.3745  0.0902 -0.5616
 2548SOL    HW119106   1.364   1.272   0.975 -0.1830  0.4478  0.3903
 2548SOL    HW219107   1.234   1.340   0.994 -0.3038 -1.3221 -0.8871
 2549SOL     OW19108   0.314   4.362   2.666  0.1745 -0.4218  0.2967
 2549SOL    HW119109   0.245   4.309   2.626  0.3867  0.5477 -1.3583
 2549SOL    HW219110   0.362   4.378   2.585  1.8374  0.0202  1.3660
 2550SOL     OW19111   3.218   3.146  12.387  0.6327  0.5842  0.3094
 2550SOL    HW119112   3.211   3.066  12.334  0.1387  1.3806 -0.8135
 2550SOL    HW219113   3.179   3.126  12.472 -0.5544  1.0797 -0.1162
 2551SOL     OW19114   2.201   3.118   7.243  0.5399 -0.2906 -0.2243
 2551SOL    HW119115   2.200   3.087   7.333  0.0483 -1.6970 -0.7038
 2551SOL    HW219116   2.148   3.197   7.248 -0.3850 -0.9474  0.2827
 2552SOL     OW19117   0.169   1.216   4.446 -0.4833  0.5312 -0.2119
 2552SOL    HW119118   0.132   1.230   4.359  2.2033  1.8016 -1.1124
 2552SOL    HW219119   0.150   1.294   4.499  1.2994 -0.3759  1.7781
 2553SOL     OW19120   1.649   0.073   9.610 -0.1468  0.0134  0.4016
 2553SOL    HW119121   1.703   4.717   9.613  1.3706  0.9590 -2.5287
 2553SOL    HW219122   1.563   0.043   9.580  0.6413 -2.1036  0.3109
 2554SOL     OW19123   2.926   0.434   3.492  0.0050 -0.1280  0.6457
 2554SOL    HW119124   2.970   0.426   3.408 -2.0763  1.0244 -0.5657
 2554SOL    HW219125   2.898   0.346   3.520 -1.4529 -0.4182 -1.7369
 2555SOL     OW19126   2.208   0.487   1.473  0.1172  0.4247  0.4077
 2555SOL    HW119127   2.240   0.568   1.512  1.7695  1.2299 -2.6397
 2555SOL    HW219128   2.272   0.462   1.407 -0.9295  0.2719 -0.5513
 2556SOL     OW19129   0.309   1.049   0.407  0.3905 -0.1435 -0.0289
 2556SOL    HW119130   0.331   1.142   0.407 -1.9161  0.3893 -0.9881
 2556SOL    HW219131   0.216   1.044   0.384  0.6990  1.8492 -1.7513
 2557SOL     OW19132   0.049   3.062   8.621 -0.1911  0.8037 -0.0183
 2557SOL    HW119133   0.133   3.069   8.665  0.4111 -0.7362 -0.9242
 2557SOL    HW219134   4.713   3.076   8.696 -2.4548 -0.4939 -1.4950
 2558SOL     OW19135   2.953   0.055  14.855  0.1747 -0.2206  0.4161
 2558SOL    HW119136   2.875   0.080  14.905  0.9178  2.5766  0.1395
 2558SOL    HW219137   3.008   0.114  14.906  0.7364 -0.1559 -0.2552
 2559SOL     OW19138   3.916   0.914  15.805 -0.1188 -0.1233 -0.1932
 2559SOL    HW119139   3.944   0.840  15.858 -1.0662 -1.4389 -1.5220
 2559SOL    HW219140   3.869   0.973  15.864  0.2704 -0.7261  0.7137
 2560SOL     OW19141   4.225   2.993  16.454 -0.1704  0.2127  0.5421
 2560SOL    HW119142   4.319   3.010  16.454  0.3741 -2.8460  1.8429
 2560SOL    HW219143   4.204   2.963  16.366 -0.3700 -1.6025  1.2065
 2561SOL     OW19144   3.358   0.475  10.111  0.0777  0.4120  0.2083
 2561SOL    HW119145   3.402   0.454  10.029  0.1917 -0.4645  0.5014
 2561SOL    HW219146   3.399   0.557  10.137  1.2307  0.9958 -3.5105
 2562SOL     OW19147   2.374   1.650   6.806  0.8715 -0.0805  0.6089
 2562SOL    HW119148   2.391   1.578   6.745  0.5054 -0.8268  1.3994
 2562SOL    HW219149   2.371   1.599   6.887  0.9802 -3.8129 -1.7339
 2563SOL     OW19150   3.766   1.401  10.650  0.3409 -0.4841 -0.2075
 2563SOL    HW119151   3.852   1.364  10.631  0.1527 -0.3666 -1.3215
 2563SOL    HW219152   3.774   1.496  10.645 -0.0400 -0.4729 -0.7295
 2564SOL     OW19153   1.161   3.014  10.472 -0.0475  0.2974  0.2367
 2564SOL    HW119154   1.128   2.949  10.533 -0.4848 -0.3730 -0.7139
 2564SOL    HW219155   1.249   3.029  10.507  0.6317 -0.9240 -0.9098
 2565SOL     OW19156   0.225   0.230   2.380 -0.0079 -0.0789 -0.3804
 2565SOL    HW119157   0.184   0.180   2.451  1.2919  0.4913  0.7766
 2565SOL    HW219158   0.212   0.320   2.409 -0.1615 -0.2037 -0.0642
 2566SOL     OW19159   0.762   4.606   5.238  0.1853  0.0401 -1.0075
 2566SOL    HW119160   0.714   4.685   5.215  0.3033  0.9705  1.9402
 2566SOL    HW219161   0.745   4.583   5.329  0.0096  0.7705 -0.8543
 2567SOL     OW19162   4.381   3.174   1.850 -0.4038 -0.5825  0.8015
 2567SOL    HW119163   4.441   3.153   1.922  1.7432  1.9063 -0.2220
 2567SOL    HW219164   4.300   3.130   1.877  0.0049 -1.4241  0.6474
 2568SOL     OW19165   1.016   1.835   2.056 -0.0307 -0.7058 -0.3642
 2568SOL    HW119166   0.930   1.811   2.021 -0.2282  1.7543 -1.5745
 2568SOL    HW219167   1.024   1.775   2.130 -0.8349  1.4040  1.4294
 2569SOL     OW19168   3.416   3.019  13.571  0.2916 -0.0455 -0.4790
 2569SOL    HW119169   3.509   3.039  13.559  0.0693  1.2547  0.0184
 2569SOL    HW219170   3.419   3.012  13.666  1.2451 -2.5511 -0.6658
 2570SOL     OW19171   2.619   0.546   9.860  0.6290 -0.7741 -0.3461
 2570SOL    HW119172   2.600   0.491   9.936 -2.6168  1.9207  0.7992
 2570SOL    HW219173   2.674   0.490   9.805  0.6653  0.0860 -1.1841
 2571SOL     OW19174   4.440   1.254  11.126  0.0465 -0.2775  0.4574
 2571SOL    HW119175   4.393   1.171  11.114  0.1264 -0.3436  0.6081
 2571SOL    HW219176   4.519   1.243  11.073 -1.2289 -0.8326 -1.3473
 2572SOL     OW19177   3.072   2.241   2.314 -0.4755 -0.1591 -0.6229
 2572SOL    HW119178   3.118   2.194   2.383  0.3906 -0.3149 -1.3140
 2572SOL    HW219179   3.115   2.208   2.235  0.2275  0.7034 -0.6049
 2573SOL     OW19180   2.347   0.733   1.483 -0.6266 -0.1832 -0.0900
 2573SOL    HW119181   2.430   0.775   1.460 -0.7020  0.2293  0.4033
 2573SOL    HW219182   2.275   0.780   1.440  0.5493  1.6259 -0.0845
 2574SOL     OW19183   3.132   2.437  12.199 -0.3342  0.2038  0.0820
 2574SOL    HW119184   3.145   2.376  12.271  0.4410 -1.0543 -1.1296
 2574SOL    HW219185   3.055   2.486  12.227 -0.9304  0.3567 -1.8607
 2575SOL     OW19186   4.687   1.108   5.973  0.1492  0.5014  0.3505
 2575SOL    HW119187   0.003   1.191   6.004 -1.1723  2.3195 -2.8372
 2575SOL    HW219188   4.594   1.128   5.979 -0.5831 -2.2988 -2.1167
 2576SOL     OW19189   2.153   2.817   7.867  0.3582 -0.2027 -0.2198
 2576SOL    HW119190   2.146   2.912   7.873  0.3373 -0.1917 -0.4051
 2576SOL    HW219191   2.094   2.802   7.793  1.2210 -1.3102 -0.6892
 2577SOL     OW19192   3.292   2.258   1.629 -0.3905  0.0589 -0.4013
 2577SOL    HW119193   3.321   2.167   1.632 -4.6765 -1.2476  1.4994
 2577SOL    HW219194   3.347   2.296   1.698  0.2322  0.1525 -0.9516
 2578SOL     OW19195   1.756   1.823   3.239 -0.9954 -0.5417  0.7593
 2578SOL    HW119196   1.694   1.888   3.271 -1.9308 -2.1163  2.1871
 2578SOL    HW219197   1.724   1.835   3.150 -0.7484 -2.3449  0.4127
 2579SOL     OW19198   4.200   1.806   6.327  0.3274  0.2550  0.0168
 2579SOL    HW119199   4.284   1.812   6.281  2.7514  0.0474  4.4711
 2579SOL    HW219200   4.231   1.796   6.417  1.4401  2.0747 -0.1710
 2580SOL     OW19201   4.489   4.324  15.564 -0.0084 -0.6562 -0.3056
 2580SOL    HW119202   4.449   4.303  15.648 -0.0218  0.4894 -0.0213
 2580SOL    HW219203   4.439   4.264  15.508  0.9713 -0.8312 -0.9898
 2581SOL     OW19204   3.783   2.816  11.094  0.4700  0.1768 -0.5556
 2581SOL    HW119205   3.852   2.808  11.159 -1.2224 -0.0522  1.2116
 2581SOL    HW219206   3.835   2.804  11.015  0.9624 -0.5380 -0.1199
 2582SOL     OW19207   2.442   1.793   6.425 -0.3063 -0.2289  0.4313
 2582SOL    HW119208   2.456   1.883   6.453  0.9012 -0.0344 -0.8278
 2582SOL    HW219209   2.524   1.784   6.377 -0.1127 -1.5073  1.0084
 2583SOL     OW19210   2.070   0.843  14.537 -0.4448  0.2484  0.2465
 2583SOL    HW119211   2.102   0.779  14.473  1.0447  0.0840  1.1466
 2583SOL    HW219212   1.990   0.879  14.498 -0.8264 -0.6189  0.2350
 2584SOL     OW19213   0.639   4.217   2.989  0.1519  0.9874 -0.4988
 2584SOL    HW119214   0.726   4.258   2.989  1.4750 -1.8404  1.3612
 2584SOL    HW219215   0.666   4.130   3.017 -0.1042  1.0831  0.0379
 2585SOL     OW19216   3.363   0.288   7.919 -0.2884 -0.0048  0.2644
 2585SOL    HW119217   3.330   0.355   7.859 -0.5199 -0.3638 -0.0084
 2585SOL    HW219218   3.317   0.208   7.896  2.7093 -1.3605 -0.9539
 2586SOL     OW19219   2.308   2.185   1.228 -0.3097 -0.2375 -0.3786
 2586SOL    HW119220   2.301   2.263   1.173  2.6497  0.1952 -0.1159
 2586SOL    HW219221   2.230   2.137   1.197 -0.6192  1.1783 -1.7753
 2587SOL     OW19222   0.691   1.086   3.444 -0.2554  0.0496  0.2354
 2587SOL    HW119223   0.779   1.077   3.406 -1.3654 -1.0777 -2.0695
 2587SOL    HW219224   0.665   1.170   3.406  0.0382  0.1057  0.1563
 2588SOL     OW19225   1.216   3.949   2.975 -0.0365  0.2323 -0.3433
 2588SOL    HW119226   1.193   4.030   2.929 -0.9168 -1.0824 -2.2280
 2588SOL    HW219227   1.177   3.975   3.059 -0.2873 -1.9031  0.2016
 2589SOL     OW19228   1.646   1.944  13.849  0.2360  0.2829 -0.0820
 2589SOL    HW119229   1.671   1.881  13.917  0.4502 -0.8772 -1.2237
 2589SOL    HW219230   1.686   1.906  13.770  1.4620  0.8209  0.2960
 2590SOL     OW19231   2.888   4.418   5.237  0.3470 -0.4309 -0.0476
 2590SOL    HW119232   2.855   4.357   5.171 -0.1705 -0.9732  0.7198
 2590SOL    HW219233   2.974   4.382   5.261  0.9586  1.6161  0.8896
 2591SOL     OW19234   0.489   4.424  13.030  0.3710 -0.2986  0.0722
 2591SOL    HW119235   0.439   4.501  13.057  0.8666 -0.4290  1.3294
 2591SOL    HW219236   0.439   4.355  13.073 -1.8253  1.4151  0.2515
 2592SOL     OW19237   0.537   2.851   4.242  0.1351  1.1577  0.0092
 2592SOL    HW119238   0.483   2.921   4.281 -0.7874  0.6030 -0.2698
 2592SOL    HW219239   0.484   2.825   4.167  0.5839  1.2775 -0.3497
 2593SOL     OW19240   4.066   4.162   8.465 -0.1926  0.0641 -0.0012
 2593SOL    HW119241   4.008   4.235   8.441 -3.9551 -2.6858  0.6596
 2593SOL    HW219242   4.137   4.217   8.498 -1.0276 -0.4851  2.6867
 2594SOL     OW19243   0.621   1.945   6.975 -0.0449  0.4496 -0.0261
 2594SOL    HW119244   0.542   1.946   7.029 -0.4314 -0.8441 -0.5532
 2594SOL    HW219245   0.591   1.994   6.898 -3.0454 -1.3619 -0.0283
 2595SOL     OW19246   1.348   0.812   6.477 -0.6335 -0.1516  0.2303
 2595SOL    HW119247   1.344   0.878   6.408 -2.2806 -0.7981 -0.2798
 2595SOL    HW219248   1.267   0.769   6.452 -0.0379 -0.3747 -1.3127
 2596SOL     OW19249   0.317   4.258   9.097  0.6127  0.5568 -0.9984
 2596SOL    HW119250   0.306   4.300   9.182 -1.9912 -0.1073 -1.0235
 2596SOL    HW219251   0.404   4.296   9.084  0.2623  1.4375 -0.7593
 2597SOL     OW19252   4.531   4.699   5.199 -0.0247  0.3437  0.0847
 2597SOL    HW119253   4.504   4.608   5.193 -0.1701  0.4492 -0.8749
 2597SOL    HW219254   4.469   0.021   5.141  1.9477  0.5067 -1.8710
 2598SOL     OW19255   0.764   2.115   0.130  0.1120 -0.1603 -0.6360
 2598SOL    HW119256   0.672   2.092   0.137 -0.2194  1.2806 -0.1868
 2598SOL    HW219257   0.796   2.104   0.041 -0.1226  0.0397 -0.7423
 2599SOL     OW19258   1.401   2.523   8.292  0.6688 -0.2615 -0.3706
 2599SOL    HW119259   1.490   2.487   8.299 -0.3416 -2.3959  1.5392
 2599SOL    HW219260   1.358   2.441   8.266  0.4984 -1.7041  4.4395
 2600SOL     OW19261   4.405   3.591   4.240  0.0511  0.1411  0.7702
 2600SOL    HW119262   4.456   3.660   4.198  0.9291 -0.5209  0.7375
 2600SOL    HW219263   4.378   3.535   4.167  2.7538 -0.5467  0.2889
 2601SOL     OW19264   2.868   4.143   5.694  0.0981 -0.9008  0.4305
 2601SOL    HW119265   2.935   4.167   5.759  2.3037 -1.1913 -1.7502
 2601SOL    HW219266   2.917   4.083   5.638  1.1217 -0.4916  0.8818
 2602SOL     OW19267   1.146   1.486  13.650 -0.4190 -0.0108 -0.4520
 2602SOL    HW119268   1.084   1.434  13.701 -2.4251  0.2316 -2.5992
 2602SOL    HW219269   1.134   1.571  13.692  1.0316 -1.1934  2.3312
 2603SOL     OW19270   4.560   4.244  16.120  0.7988 -0.1018  0.2577
 2603SOL    HW119271   4.585   4.314  16.181  3.2945  1.3110 -2.4180
 2603SOL    HW219272   4.633   4.185  16.138 -0.7019 -2.6398 -2.0050
 2604SOL     OW19273   1.372   3.396   3.389 -0.4716 -0.0493  0.4970
 2604SOL    HW119274   1.294   3.446   3.362  0.1520 -0.4943 -2.1813
 2604SOL    HW219275   1.396   3.465   3.451 -1.0475 -0.2299  0.9235
 2605SOL     OW19276   1.914   0.627   5.759  0.3515  0.1938  0.2256
 2605SOL    HW119277   1.938   0.562   5.694  0.2971 -2.0831  2.4815
 2605SOL    HW219278   1.935   0.581   5.841 -0.9648 -1.4287 -0.3587
 2606SOL     OW19279   2.109   2.503  16.032 -0.2049 -0.1124  0.0114
 2606SOL    HW119280   2.033   2.541  15.987 -0.1915 -0.6381 -0.4537
 2606SOL    HW219281   2.139   2.588  16.063 -1.2694 -0.2602  1.4436
 2607SOL     OW19282   2.686   0.175   7.569  0.1993 -0.3194 -0.1286
 2607SOL    HW119283   2.688   0.092   7.617 -2.4962 -0.4283 -0.1531
 2607SOL    HW219284   2.730   0.163   7.485  0.9688 -1.3119  0.4188
 2608SOL     OW19285   0.785   1.556   6.061 -0.2665  0.4482 -0.1972
 2608SOL    HW119286   0.824   1.469   6.059 -3.0102 -0.8305  1.1732
 2608SOL    HW219287   0.717   1.549   5.994 -0.2265  0.9315 -0.2861
 2609SOL     OW19288   4.622   1.059   7.087  0.4265 -0.1580 -0.3981
 2609SOL    HW119289   4.596   0.995   7.021  0.5943 -1.1197  0.4790
 2609SOL    HW219290   4.541   1.101   7.116 -0.1758  1.2621 -4.0734
 2610SOL     OW19291   2.224   0.383  12.107  0.9865 -0.4684 -0.3182
 2610SOL    HW119292   2.242   0.331  12.185  2.0248  0.5189  0.0923
 2610SOL    HW219293   2.129   0.391  12.120  1.2409  1.1607  0.4451
 2611SOL     OW19294   2.399   2.259   1.593 -0.0310  0.6861 -0.5042
 2611SOL    HW119295   2.317   2.268   1.544 -0.8512 -1.5753  0.4650
 2611SOL    HW219296   2.380   2.325   1.660  0.7498 -0.7847  1.1823
 2612SOL     OW19297   0.777   2.279   2.510  0.2457  0.1645  0.4137
 2612SOL    HW119298   0.724   2.357   2.491 -3.4834 -2.4406  0.2844
 2612SOL    HW219299   0.830   2.311   2.583 -2.1834  0.9746  1.8045
 2613SOL     OW19300   2.411   0.931   4.976  0.3026 -0.0272  0.1176
 2613SOL    HW119301   2.436   0.839   4.966 -1.3560 -0.3784 -0.8995
 2613SOL    HW219302   2.431   0.937   5.069 -0.1442  1.8678  0.0817
 2614SOL     OW19303   3.527   1.137   0.292 -0.1355 -0.7936  0.0223
 2614SOL    HW119304   3.622   1.126   0.302 -0.1012  0.4026  0.9606
 2614SOL    HW219305   3.509   1.084   0.214 -0.4418  0.9611 -1.1068
 2615SOL     OW19306   1.325   1.796   3.198 -0.3909 -0.0824  0.1007
 2615SOL    HW119307   1.380   1.860   3.154  0.4584 -0.3639  0.7557
 2615SOL    HW219308   1.383   1.719   3.192  0.1883  0.3498  0.1575
 2616SOL     OW19309   1.785   2.776   8.032 -0.2981  0.0272 -0.2385
 2616SOL    HW119310   1.748   2.820   7.956  1.1774  0.6288 -0.5955
 2616SOL    HW219311   1.748   2.690   8.011 -0.1680 -0.1752  0.3625
 2617SOL     OW19312   1.521   1.923   2.074  0.0855  0.1272  0.3538
 2617SOL    HW119313   1.462   1.855   2.109 -0.4805 -0.1705 -1.1837
 2617SOL    HW219314   1.482   2.001   2.114  0.1248 -0.5257  1.6717
 2618SOL     OW19315   4.366   1.641   1.552 -0.0957 -0.4448  0.2760
 2618SOL    HW119316   4.369   1.725   1.505  0.5949 -0.6601 -0.0532
 2618SOL    HW219317   4.274   1.641   1.581  0.4473 -1.4736  1.9607
 2619SOL     OW19318   2.026   3.033   4.393 -0.7104 -0.3702  0.1979
 2619SOL    HW119319   1.964   3.061   4.461  1.1549  2.5847  0.6756
 2619SOL    HW219320   1.961   3.011   4.327 -1.3083 -1.1228  1.0334
 2620SOL     OW19321   3.379   0.686  10.470  0.0947 -0.0388 -0.5603
 2620SOL    HW119322   3.385   0.673  10.375 -1.5775 -1.9641 -0.3791
 2620SOL    HW219323   3.454   0.743  10.489 -0.6853  0.8838 -0.2590
 2621SOL     OW19324   3.810   2.089   3.344 -0.1352 -0.2858  0.6912
 2621SOL    HW119325   3.862   2.009   3.351 -3.9604 -2.6668  1.7211
 2621SOL    HW219326   3.769   2.081   3.258 -2.0827  1.4946  1.4590
 2622SOL     OW19327   0.433   1.949   4.483  0.3030  0.0407  0.1030
 2622SOL    HW119328   0.395   1.976   4.399 -0.9337 -0.6262  0.4376
 2622SOL    HW219329   0.525   1.936   4.462  0.0721 -1.5840  0.0632
 2623SOL     OW19330   4.337   2.098  13.033  0.4764 -0.4428  0.4749
 2623SOL    HW119331   4.304   2.160  13.098 -0.9061 -1.0361  0.3297
 2623SOL    HW219332   4.432   2.103  13.047  0.1992  4.3147  0.5925
 2624SOL     OW19333   4.445   0.660   1.774  0.3090 -0.1469 -0.0625
 2624SOL    HW119334   4.482   0.573   1.793  2.0082  0.9389  1.5825
 2624SOL    HW219335   4.458   0.656   1.680 -0.3709  0.7657 -0.1941
 2625SOL     OW19336   2.146   1.918   0.865  0.0114  0.0586 -0.3660
 2625SOL    HW119337   2.241   1.922   0.856  0.1621  0.1180  1.1918
 2625SOL    HW219338   2.123   2.010   0.855  2.4393  0.5617 -1.2156
 2626SOL     OW19339   0.056   2.766   7.662 -0.1698 -0.2863 -0.1334
 2626SOL    HW119340   4.715   2.760   7.734  0.0330 -0.3063  0.0423
 2626SOL    HW219341   0.107   2.685   7.663  0.6192  0.2079 -0.5168
 2627SOL     OW19342   4.682   0.161   1.511 -0.3266  0.7076  0.4262
 2627SOL    HW119343   4.657   0.248   1.480 -1.8993  0.0900 -0.0226
 2627SOL    HW219344   4.608   0.109   1.482  0.2763  0.1784 -0.1649
 2628SOL     OW19345   1.853   2.097   1.528 -0.2297  0.5470 -0.1507
 2628SOL    HW119346   1.886   2.187   1.525  1.4539 -0.0168  1.1206
 2628SOL    HW219347   1.783   2.092   1.463  0.0943  0.7655 -0.5169
 2629SOL     OW19348   2.787   3.076   1.589 -0.1456 -0.0860  0.2573
 2629SOL    HW119349   2.872   3.031   1.587 -0.6812 -1.0448 -1.1312
 2629SOL    HW219350   2.820   3.166   1.594  1.5284 -0.6455 -0.4470
 2630SOL     OW19351   0.375   1.541   4.202  0.2000 -0.1457  0.4146
 2630SOL    HW119352   0.368   1.520   4.109  1.6267  0.5105  0.1664
 2630SOL    HW219353   0.373   1.636   4.192  0.8222 -0.1844 -0.0991
 2631SOL     OW19354   2.169   0.201   2.494 -0.1808  0.1060 -0.5962
 2631SOL    HW119355   2.238   0.138   2.518 -0.2357  0.3591  0.2338
 2631SOL    HW219356   2.213   0.285   2.501  0.9204 -0.5243  0.1316
 2632SOL     OW19357   0.664   0.971   2.046 -0.2248  0.2334 -0.3407
 2632SOL    HW119358   0.602   0.933   2.108 -0.5176  0.1495 -0.6826
 2632SOL    HW219359   0.748   0.953   2.088 -0.4443  0.6837  0.2891
 2633SOL     OW19360   3.957   4.210   2.628  0.0849  0.2116 -0.7658
 2633SOL    HW119361   3.968   4.172   2.715 -1.1019 -2.3050 -1.7043
 2633SOL    HW219362   3.866   4.239   2.624  0.1921  0.7305  0.7917
 2634SOL     OW19363   2.118   1.754   3.126  0.3795 -0.1091  0.1954
 2634SOL    HW119364   2.089   1.713   3.208  0.9274 -0.8207  0.0299
 2634SOL    HW219365   2.060   1.831   3.119  1.6189  0.5260 -2.8324
 2635SOL     OW19366   3.580   0.670   6.246  0.1053  0.1704 -0.5121
 2635SOL    HW119367   3.652   0.718   6.204  0.3776 -0.2065 -0.4783
 2635SOL    HW219368   3.572   0.717   6.329  0.5441 -1.2143  0.3134
 2636SOL     OW19369   1.452   3.078   6.902 -0.4097 -0.3329  0.0901
 2636SOL    HW119370   1.368   3.091   6.858 -0.6654 -1.3966  0.2401
 2636SOL    HW219371   1.451   2.982   6.901  1.8396 -0.3829  2.4173
 2637SOL     OW19372   2.393   0.709   7.614 -0.0792  0.0057 -0.3060
 2637SOL    HW119373   2.322   0.666   7.660  0.9917 -2.0743 -0.6103
 2637SOL    HW219374   2.354   0.794   7.594  1.2182  0.3703 -1.3526
 2638SOL     OW19375   0.534   1.909  12.240 -0.1699 -0.4178 -0.7927
 2638SOL    HW119376   0.455   1.962  12.229 -0.6829 -0.7744  1.1869
 2638SOL    HW219377   0.601   1.977  12.234 -1.3431  0.7669 -0.3905
 2639SOL     OW19378   1.127   3.725   8.159 -0.6920 -0.1309 -0.0013
 2639SOL    HW119379   1.128   3.798   8.222  0.8105 -1.2437  1.2818
 2639SOL    HW219380   1.125   3.647   8.216 -0.0597  0.0380  0.2559
 2640SOL     OW19381   2.133   1.188  14.322 -0.5559  0.3478 -0.5134
 2640SOL    HW119382   2.204   1.234  14.278 -0.3585 -1.5067 -2.1047
 2640SOL    HW219383   2.102   1.250  14.389 -0.0282 -2.2350  2.1247
 2641SOL     OW19384   1.492   3.684  14.004  0.2239  0.0990 -0.1393
 2641SOL    HW119385   1.578   3.643  14.018  0.8295  1.1696 -0.7638
 2641SOL    HW219386   1.425   3.616  14.007  0.6109 -0.3708 -2.4796
 2642SOL     OW19387   1.182   1.683   3.497  0.1057 -0.1492 -0.2063
 2642SOL    HW119388   1.261   1.646   3.535  0.1558  0.7585  0.5598
 2642SOL    HW219389   1.226   1.716   3.419  0.2133  3.0132  1.1877
 2643SOL     OW19390   3.113   2.274   1.347  1.1408 -0.2185  0.4415
 2643SOL    HW119391   3.063   2.328   1.285  0.5065 -2.1761 -0.7515
 2643SOL    HW219392   3.076   2.300   1.431 -0.2485  2.1488 -0.8663
 2644SOL     OW19393   3.070   2.441   7.335 -0.1975 -0.4898 -0.0817
 2644SOL    HW119394   3.011   2.516   7.336 -0.2788 -0.5601  2.2925
 2644SOL    HW219395   3.142   2.475   7.389  0.7920  0.5296 -2.0568
 2645SOL     OW19396   2.102   0.642   3.897  0.0958  0.4311 -0.6831
 2645SOL    HW119397   2.120   0.700   3.971  0.5480 -3.1467  2.0204
 2645SOL    HW219398   2.007   0.646   3.888  0.1609  1.9496 -0.6612
 2646SOL     OW19399   0.360   4.529   9.563 -0.1164  0.1971 -0.2160
 2646SOL    HW119400   0.429   4.592   9.583 -0.9487  1.0573 -0.0858
 2646SOL    HW219401   0.299   4.542   9.635 -1.1210  1.1219 -1.2365
 2647SOL     OW19402   3.709   4.696   6.429 -0.2436  0.1625  0.0868
 2647SOL    HW119403   3.672   4.619   6.386 -0.4493  0.6841 -0.6761
 2647SOL    HW219404   3.799   4.684   6.400 -0.0354  0.7419  0.4843
 2648SOL     OW19405   3.893   4.311   5.874  0.3542 -0.3242 -0.4721
 2648SOL    HW119406   3.971   4.359   5.902 -0.9377  1.2708  0.3421
 2648SOL    HW219407   3.840   4.380   5.833 -0.7613 -0.8280  0.1398
 2649SOL     OW19408   2.247   1.105   3.333  0.2445  0.8812  0.3520
 2649SOL    HW119409   2.155   1.085   3.348  0.3282  0.1356 -0.1226
 2649SOL    HW219410   2.271   1.047   3.261 -1.9709 -0.9688  1.1215
 2650SOL     OW19411   2.631   3.003  11.223 -0.1797 -0.1088 -0.6468
 2650SOL    HW119412   2.611   2.925  11.171  2.2778 -0.7277 -0.6600
 2650SOL    HW219413   2.629   2.965  11.311 -1.3057  0.5239 -0.3906
 2651SOL     OW19414   3.886   4.670  13.948 -0.3250 -0.1212  0.1395
 2651SOL    HW119415   3.823   4.695  13.880 -1.5381  0.0636  1.3474
 2651SOL    HW219416   3.863   0.014  14.013  1.4625  1.5731 -0.9363
 2652SOL     OW19417   2.021   0.268   8.688  0.5652 -0.2501  0.8579
 2652SOL    HW119418   1.946   0.282   8.630  2.9203  0.8478 -1.8749
 2652SOL    HW219419   2.021   0.349   8.739  0.1354  1.3295 -1.6372
 2653SOL     OW19420   2.247   2.247   0.106 -0.0226  0.1303 -0.1600
 2653SOL    HW119421   2.195   2.177   0.066  1.1823 -0.3242 -0.9095
 2653SOL    HW219422   2.328   2.240   0.057  0.8534  0.2259  1.2766
 2654SOL     OW19423   0.202   3.108   8.991  0.0711 -0.5040 -0.6800
 2654SOL    HW119424   0.258   3.144   9.060 -0.9391 -1.8404  0.8306
 2654SOL    HW219425   0.115   3.107   9.030  0.1369  1.9941 -0.4680
 2655SOL     OW19426   1.788   2.388   1.568  0.1546  0.4357 -0.4142
 2655SOL    HW119427   1.715   2.341   1.608 -0.3687  0.0797 -1.7842
 2655SOL    HW219428   1.756   2.398   1.478  0.9988 -1.3703 -0.9049
 2656SOL     OW19429   1.983   4.681   2.953  0.2289 -0.0082  0.2633
 2656SOL    HW119430   1.981   4.716   2.864 -0.2332 -1.7901 -0.4200
 2656SOL    HW219431   1.918   0.013   2.998 -0.1748  0.6114 -1.0822
 2657SOL     OW19432   2.759   0.239   6.303 -0.0923 -0.2425 -0.3309
 2657SOL    HW119433   2.768   0.317   6.357 -1.3411  0.5644 -1.2749
 2657SOL    HW219434   2.692   0.269   6.241  0.5503  1.8601 -0.0009
 2658SOL     OW19435   0.875   2.509  14.821  0.6284  0.2847  0.2081
 2658SOL    HW119436   0.956   2.534  14.777  0.9501  0.1837  0.7327
 2658SOL    HW219437   0.864   2.420  14.787 -3.0087  1.2134 -1.0755
 2659SOL     OW19438   3.864   2.006   5.796  0.0302  0.1744 -0.7954
 2659SOL    HW119439   3.886   1.914   5.809 -0.7325  0.6002  3.5187
 2659SOL    HW219440   3.898   2.049   5.874 -1.5281 -0.3766  0.1983
 2660SOL     OW19441   0.565   1.740  16.319 -0.0831 -0.1559 -0.3670
 2660SOL    HW119442   0.600   1.680  16.253  1.0601  0.0879  0.0294
 2660SOL    HW219443   0.486   1.768  16.272  0.4174 -2.3949 -2.5461
 2661SOL     OW19444   1.835   2.399  15.689  0.4686 -0.4378  0.9118
 2661SOL    HW119445   1.766   2.346  15.730 -2.5689 -0.0263 -3.7118
 2661SOL    HW219446   1.778   2.475  15.682 -0.5200 -1.0931  1.6893
 2662SOL     OW19447   1.697   1.249   1.955  0.3517  0.1872 -0.2985
 2662SOL    HW119448   1.722   1.336   1.926 -0.3213  0.5801  0.3059
 2662SOL    HW219449   1.703   1.213   1.867  4.1317 -2.9687  1.2392
 2663SOL     OW19450   1.289   1.836   6.876 -0.5639 -0.0841  0.4179
 2663SOL    HW119451   1.206   1.833   6.828 -0.4531 -1.0460  0.2776
 2663SOL    HW219452   1.348   1.831   6.802 -2.9014 -1.7724 -1.3430
 2664SOL     OW19453   3.864   4.701   8.901 -0.3514  0.2794 -0.8889
 2664SOL    HW119454   3.898   0.008   8.986 -0.4537 -1.4512 -0.2546
 2664SOL    HW219455   3.787   0.035   8.900 -0.7190 -0.2088 -0.4132
 2665SOL     OW19456   2.496   1.021   0.307 -0.4704  0.0190 -0.0057
 2665SOL    HW119457   2.555   0.967   0.255  0.4016  0.4100  0.5702
 2665SOL    HW219458   2.519   0.987   0.394 -0.0374 -1.6941 -0.8020
 2666SOL     OW19459   0.506   0.398   4.758  0.1418 -0.2217  0.2313
 2666SOL    HW119460   0.498   0.304   4.772 -0.2619 -0.5970 -2.4640
 2666SOL    HW219461   0.601   0.393   4.769 -0.0852 -3.4449  0.7668
 2667SOL     OW19462   1.875   0.489  14.827 -0.3196  0.1380  0.3768
 2667SOL    HW119463   1.932   0.513  14.754 -1.3932  0.0719 -0.4859
 2667SOL    HW219464   1.842   0.408  14.789  0.1262  0.8430 -1.5486
 2668SOL     OW19465   2.858   4.540  10.864  0.5298  0.0066  0.0830
 2668SOL    HW119466   2.805   4.480  10.917  0.6779 -2.1409 -2.2002
 2668SOL    HW219467   2.948   4.519  10.891  0.6941 -1.8162 -1.8871
 2669SOL     OW19468   3.242   0.001   6.329 -0.1819 -0.0616 -0.0480
 2669SOL    HW119469   3.310   0.066   6.313 -0.1750 -0.1533 -0.3940
 2669SOL    HW219470   3.171   0.065   6.335  1.3347  1.4090  2.3430
 2670SOL     OW19471   3.146   2.957  12.185 -0.6314 -0.7823 -0.1667
 2670SOL    HW119472   3.176   2.876  12.145  1.2428  0.5843 -1.5451
 2670SOL    HW219473   3.087   2.995  12.120  1.5040  0.0584 -1.6420
 2671SOL     OW19474   3.660   4.197   5.981  0.5583  0.7965  0.2124
 2671SOL    HW119475   3.740   4.233   5.942  1.3474 -1.8188 -0.5843
 2671SOL    HW219476   3.601   4.273   5.984 -1.0781 -0.4216 -0.8169
 2672SOL     OW19477   2.778   2.642   4.774  0.8101  0.0956  0.1098
 2672SOL    HW119478   2.793   2.713   4.836  1.1353 -0.2239  0.3972
 2672SOL    HW219479   2.747   2.569   4.828 -1.0499  0.5856 -0.3203
 2673SOL     OW19480   3.766   4.438   6.646  0.3537  0.3680 -0.1073
 2673SOL    HW119481   3.761   4.532   6.628  2.6468  0.7951  1.4479
 2673SOL    HW219482   3.679   4.412   6.614 -0.4561  1.8900  0.8440
 2674SOL     OW19483   0.322   0.964   7.052 -0.3650 -0.0754 -0.1960
 2674SOL    HW119484   0.377   1.005   7.119 -1.9799 -2.0111  2.2746
 2674SOL    HW219485   0.265   1.040   7.039 -0.1325  0.5782  2.5708
 2675SOL     OW19486   2.004   4.477  15.178 -0.3517 -0.0881  0.1793
 2675SOL    HW119487   2.078   4.531  15.152 -1.5935  1.1202 -0.8350
 2675SOL    HW219488   2.055   4.405  15.216  0.1217 -0.3861 -1.0118
 2676SOL     OW19489   4.395   3.288   8.720 -0.4435 -0.2054 -0.8304
 2676SOL    HW119490   4.480   3.246   8.733 -1.0167 -0.4630  2.0475
 2676SOL    HW219491   4.408   3.357   8.656 -2.3142  0.6844 -0.2612
 2677SOL     OW19492   2.320   2.440  10.776  0.0436 -0.1322 -0.5060
 2677SOL    HW119493   2.312   2.366  10.716  1.0976 -0.3212 -0.4005
 2677SOL    HW219494   2.231   2.452  10.809  0.1853 -1.2215  0.2458
 2678SOL     OW19495   4.637   1.564   1.832 -0.4852  0.5544  0.2848
 2678SOL    HW119496   4.620   1.485   1.883 -0.3200  0.0780 -0.4068
 2678SOL    HW219497   4.711   1.604   1.878 -1.1760  0.8289  1.1547
 2679SOL     OW19498   3.976   2.796   5.630  0.1130  0.1651 -0.4021
 2679SOL    HW119499   3.962   2.890   5.640  1.0005  0.3369 -0.7399
 2679SOL    HW219500   4.049   2.802   5.569  1.0292 -1.3767  0.5385
 2680SOL     OW19501   0.453   4.592   5.282  0.0413  0.0379  0.4506
 2680SOL    HW119502   0.526   4.587   5.343  1.0502  3.1109 -0.5290
 2680SOL    HW219503   0.424   4.678   5.312  0.4887  0.1790  0.4760
 2681SOL     OW19504   1.268   0.292   3.616  0.6308 -0.5704 -0.2124
 2681SOL    HW119505   1.224   0.315   3.534 -1.0685  0.5496  1.0055
 2681SOL    HW219506   1.294   0.206   3.585  2.0004 -1.4220  3.3213
 2682SOL     OW19507   2.986   3.548   2.635 -0.2324  0.0341  0.7280
 2682SOL    HW119508   3.082   3.553   2.636 -0.1604 -0.7986 -1.9230
 2682SOL    HW219509   2.959   3.546   2.543 -1.8685  0.6542  1.2066
 2683SOL     OW19510   2.558   4.247   3.033 -0.3808 -0.6368  0.5541
 2683SOL    HW119511   2.621   4.313   3.007 -2.7631  0.6499 -1.9284
 2683SOL    HW219512   2.570   4.192   2.956 -3.0180  2.0057 -1.7361
 2684SOL     OW19513   4.104   2.225   3.455 -0.2180  0.1132 -0.0150
 2684SOL    HW119514   4.165   2.160   3.421 -1.3311 -1.6042  1.2628
 2684SOL    HW219515   4.099   2.276   3.374 -0.6602 -1.0482 -0.7311
 2685SOL     OW19516   1.162   2.849  16.303 -0.3797 -0.3538 -0.5283
 2685SOL    HW119517   1.248   2.809  16.312  1.2352  3.4111  0.6895
 2685SOL    HW219518   1.108   2.780  16.265  1.5369 -2.5957  0.8233
 2686SOL     OW19519   2.725   1.797   3.464 -0.1757 -0.6961  0.2325
 2686SOL    HW119520   2.784   1.791   3.388 -1.6397  1.1876 -1.0661
 2686SOL    HW219521   2.675   1.718   3.443  0.3311 -0.5085 -1.7092
 2687SOL     OW19522   4.297   2.428  10.382  0.3912  0.5840 -0.0355
 2687SOL    HW119523   4.275   2.487  10.454  0.8302  0.7724 -0.0569
 2687SOL    HW219524   4.213   2.440  10.337 -0.0702  2.7247  1.3973
 2688SOL     OW19525   3.732   2.977   4.134 -0.1634  0.5037  0.8781
 2688SOL    HW119526   3.815   2.937   4.109 -1.0253 -0.9865  0.3854
 2688SOL    HW219527   3.742   3.061   4.090  1.5425 -0.5863 -0.7978
 2689SOL     OW19528   0.961   0.638   5.363 -0.2667  0.5479  0.2564
 2689SOL    HW119529   1.019   0.562   5.370  0.6558  1.2733  0.4810
 2689SOL    HW219530   1.031   0.703   5.363 -0.2625  0.5530  1.4195
 2690SOL     OW19531   2.683   4.486   6.253  0.0660 -0.1867 -0.2613
 2690SOL    HW119532   2.741   4.477   6.178  1.0299  4.4689 -0.0472
 2690SOL    HW219533   2.642   4.560   6.208 -1.3411 -0.6667  0.2368
 2691SOL     OW19534   3.289   3.618   5.820 -0.3675  0.2588 -0.3067
 2691SOL    HW119535   3.309   3.677   5.747  0.6390  0.4596  0.1362
 2691SOL    HW219536   3.285   3.531   5.780  0.1966 -0.3777  1.0327
 2692SOL     OW19537   2.499   0.736   5.597  0.1225  0.2998 -0.5339
 2692SOL    HW119538   2.427   0.686   5.636 -1.3799  2.4518 -0.5117
 2692SOL    HW219539   2.521   0.801   5.664 -2.1382  0.2289  0.2953
 2693SOL     OW19540   3.649   1.202  14.697  0.1078 -0.3632  0.5292
 2693SOL    HW119541   3.585   1.196  14.627  1.1605 -0.2882 -0.4479
 2693SOL    HW219542   3.616   1.140  14.762 -0.4812 -0.0989  0.4820
 2694SOL     OW19543   2.284   0.268  12.355 -0.1639 -0.3290  0.6422
 2694SOL    HW119544   2.339   0.259  12.433  0.2062  1.9214  0.6486
 2694SOL    HW219545   2.200   0.259  12.399 -1.3421 -2.8545 -2.2027
 2695SOL     OW19546   4.470   1.462   6.498  0.5896  0.5026 -0.0337
 2695SOL    HW119547   4.395   1.505   6.539  0.0432 -1.4006  0.9679
 2695SOL    HW219548   4.536   1.476   6.566  1.0136  0.5021 -0.4476
 2696SOL     OW19549   1.907   2.789   3.093 -0.3438 -0.3843  0.7673
 2696SOL    HW119550   1.927   2.867   3.144  1.3932 -0.7323  0.6047
 2696SOL    HW219551   1.811   2.789   3.095 -0.4223  2.2412 -2.2414
 2697SOL     OW19552   3.581   2.294  16.016 -0.1002  0.2340  0.0671
 2697SOL    HW119553   3.518   2.232  15.980 -0.1427  0.7895 -0.7974
 2697SOL    HW219554   3.659   2.279  15.963 -0.8997  1.2355 -1.3762
 2698SOL     OW19555   2.137   1.303   7.294  0.4133  0.3816  0.4827
 2698SOL    HW119556   2.163   1.268   7.209 -1.3544  0.2720 -0.0308
 2698SOL    HW219557   2.206   1.273   7.353  1.4423 -0.7491 -1.3043
 2699SOL     OW19558   3.857   4.562   3.954  0.2403  0.4367  0.0113
 2699SOL    HW119559   3.866   4.657   3.957 -0.9754  0.5280  1.1309
 2699SOL    HW219560   3.762   4.555   3.965  0.2072  1.6819  0.5751
 2700SOL     OW19561   3.128   2.153  14.507 -0.4939 -0.4057  0.2512
 2700SOL    HW119562   3.054   2.208  14.533  0.7814  0.8797  1.2013
 2700SOL    HW219563   3.110   2.065  14.539  0.4721 -0.7213 -0.0953
 2701SOL     OW19564   1.908   3.171   7.565  0.1071  0.1316 -0.0913
 2701SOL    HW119565   1.922   3.155   7.658  1.0987 -1.5210 -0.5299
 2701SOL    HW219566   1.870   3.092   7.529 -1.6491  1.8122 -1.9124
 2702SOL     OW19567   3.622   1.986   5.607 -0.0069  0.1672 -0.1235
 2702SOL    HW119568   3.618   2.007   5.514  0.6240 -1.0358 -0.4184
 2702SOL    HW219569   3.713   1.969   5.633  0.0199  0.5283  0.0176
 2703SOL     OW19570   1.588   1.246   7.826 -1.0025 -0.2382  0.1998
 2703SOL    HW119571   1.651   1.256   7.755 -0.2999  0.8645  0.9794
 2703SOL    HW219572   1.641   1.275   7.900 -0.8070 -1.2241  0.4418
 2704SOL     OW19573   2.876   0.417   3.934 -0.3931  0.8118 -0.1234
 2704SOL    HW119574   2.795   0.468   3.928 -0.4062  0.5582 -2.4026
 2704SOL    HW219575   2.835   0.330   3.929 -2.0475  1.5253  0.9537
 2705SOL     OW19576   4.363   2.304   2.270 -0.1364 -0.3905 -0.0984
 2705SOL    HW119577   4.446   2.316   2.316  0.3130 -1.2595 -0.6882
 2705SOL    HW219578   4.345   2.214   2.297 -1.7068  0.4343  1.6085
 2706SOL     OW19579   1.033   1.495   5.715 -0.2915 -0.0498 -0.3618
 2706SOL    HW119580   1.046   1.476   5.622  2.8498 -1.3712  0.3298
 2706SOL    HW219581   1.111   1.457   5.757  0.2484 -0.0108 -1.3314
 2707SOL     OW19582   4.066   3.889   4.780  0.1194 -0.1350 -0.0793
 2707SOL    HW119583   4.080   3.972   4.733  1.3833 -0.6418 -0.5985
 2707SOL    HW219584   4.135   3.834   4.743  0.8361  0.2014  0.7543
 2708SOL     OW19585   4.667   1.775   1.225 -0.4224 -0.1160 -0.5012
 2708SOL    HW119586   4.679   1.809   1.314 -0.5147  0.6568 -0.7879
 2708SOL    HW219587   4.595   1.824   1.186  0.6850  0.9604 -1.2103
 2709SOL     OW19588   4.307   4.014   8.904 -0.1807 -0.2258  1.0637
 2709SOL    HW119589   4.270   3.984   8.987  0.1516 -0.2401  1.2074
 2709SOL    HW219590   4.268   3.950   8.844  2.0181  0.9796 -1.6840
 2710SOL     OW19591   4.365   3.248  10.347 -0.0785  0.0100 -0.8156
 2710SOL    HW119592   4.430   3.305  10.306  1.9586 -2.5063 -1.0959
 2710SOL    HW219593   4.417   3.169  10.361 -0.8928 -0.2804  0.5381
 2711SOL     OW19594   2.249   4.236   9.668 -1.0026 -0.4375  0.2410
 2711SOL    HW119595   2.243   4.328   9.694 -0.6668 -0.8684  1.8530
 2711SOL    HW219596   2.163   4.233   9.625 -0.2419 -1.5712 -1.2145
 2712SOL     OW19597   1.808   0.457  15.100 -0.0066 -0.3259  0.4868
 2712SOL    HW119598   1.777   0.367  15.102 -1.9371  0.3135 -1.0244
 2712SOL    HW219599   1.823   0.475  15.007  0.8482  0.0701  0.6994
 2713SOL     OW19600   1.258   1.446   5.898  0.5924 -0.3194 -0.5425
 2713SOL    HW119601   1.345   1.407   5.907  0.2966 -1.1838 -1.4567
 2713SOL    HW219602   1.270   1.538   5.874  1.3039 -0.5175 -0.9095
 2714SOL     OW19603   0.600   0.673   7.933  0.6466 -0.0444  0.4502
 2714SOL    HW119604   0.658   0.749   7.934  2.0799 -1.0890 -3.1670
 2714SOL    HW219605   0.521   0.687   7.881  0.3084  2.6063  1.6694
 2715SOL     OW19606   0.312   3.075   5.665 -0.4924  0.4252  0.5713
 2715SOL    HW119607   0.389   3.057   5.611 -0.0397  0.5946  1.1609
 2715SOL    HW219608   0.304   3.002   5.728 -0.8519 -0.2372 -0.2455
 2716SOL     OW19609   1.822   2.943   9.253  0.2408  0.5391 -0.4104
 2716SOL    HW119610   1.762   2.913   9.185  1.5320  0.5073 -1.5296
 2716SOL    HW219611   1.880   2.868   9.268  0.9472  0.6927 -2.4552
 2717SOL     OW19612   3.619   0.443   2.243 -0.1060  0.2953 -0.4124
 2717SOL    HW119613   3.554   0.374   2.254 -0.0386 -0.0746 -2.3498
 2717SOL    HW219614   3.697   0.393   2.269 -0.5150 -0.9572 -1.5961
 2718SOL     OW19615   4.640   3.250   9.971  1.0451  0.3860 -0.1801
 2718SOL    HW119616   4.688   3.184   9.921 -0.1214 -0.3165 -0.3528
 2718SOL    HW219617   4.695   3.324   9.944  1.7388  0.4210  1.3272
 2719SOL     OW19618   4.717   0.579   0.658  0.7591  0.1218  0.1433
 2719SOL    HW119619   4.632   0.536   0.659 -0.0170  1.6455 -1.0377
 2719SOL    HW219620   0.034   0.528   0.729  1.7177 -0.6824 -0.9663
 2720SOL     OW19621   3.072   3.405  14.045  0.2010 -0.0016 -0.6634
 2720SOL    HW119622   3.084   3.330  13.986  0.7382 -0.6371  0.2599
 2720SOL    HW219623   3.151   3.397  14.098  1.1041  1.8629 -1.7290
 2721SOL     OW19624   1.577   2.105   1.421  0.1943  0.0897  0.0396
 2721SOL    HW119625   1.518   2.133   1.491 -0.6674  0.0355 -0.6640
 2721SOL    HW219626   1.559   2.012   1.412 -0.4808 -0.2945  5.2715
 2722SOL     OW19627   3.685   1.237  12.377  0.0340 -0.1286 -0.6682
 2722SOL    HW119628   3.768   1.211  12.337  0.0257 -1.4408  0.1551
 2722SOL    HW219629   3.689   1.189  12.460 -2.4898 -1.0360 -1.0637
 2723SOL     OW19630   1.899   0.573  13.616 -0.3337  0.3031 -0.9208
 2723SOL    HW119631   1.847   0.548  13.693  0.4223 -0.1916 -0.5763
 2723SOL    HW219632   1.966   0.630  13.654 -0.9207 -0.0882  0.7092
 2724SOL     OW19633   4.172   3.825   8.755  0.5121  0.1737 -0.1887
 2724SOL    HW119634   4.207   3.740   8.782 -1.4998 -0.2756  0.9803
 2724SOL    HW219635   4.177   3.827   8.659  1.0359  0.1613 -0.1653
 2725SOL     OW19636   3.007   0.352   7.600 -0.1504  0.0857 -0.7985
 2725SOL    HW119637   2.945   0.419   7.570 -2.3329 -1.3499  0.4505
 2725SOL    HW219638   3.061   0.350   7.521  1.5973 -0.9723  0.4245
 2726SOL     OW19639   3.212   3.376   4.790 -0.5847  0.3611  0.5292
 2726SOL    HW119640   3.291   3.330   4.761 -1.2982 -0.2417 -0.4698
 2726SOL    HW219641   3.250   3.456   4.827 -1.3025  1.3856 -0.9306
 2727SOL     OW19642   0.779   3.004   0.279 -0.0845  0.1308  0.1181
 2727SOL    HW119643   0.773   2.961   0.194  0.0567  1.6060 -0.6492
 2727SOL    HW219644   0.843   2.947   0.320 -1.0549 -1.6536 -0.8652
 2728SOL     OW19645   3.072   2.554   5.370  0.1165  0.0110  0.0987
 2728SOL    HW119646   3.118   2.477   5.402  0.9280  0.1681 -0.7097
 2728SOL    HW219647   3.145   2.613   5.390  0.4399 -0.1720 -0.5477
 2729SOL     OW19648   3.361   2.112   6.114 -0.0224  0.1734  0.1508
 2729SOL    HW119649   3.348   2.207   6.112  1.4303  0.3217 -2.0777
 2729SOL    HW219650   3.292   2.093   6.178 -0.1044  0.4689  0.1514
 2730SOL     OW19651   2.906   3.357  15.910  0.2604  0.2922 -0.0864
 2730SOL    HW119652   2.969   3.429  15.913  1.1369 -0.4029 -1.5477
 2730SOL    HW219653   2.850   3.384  15.837  1.5484  2.1514 -0.3775
 2731SOL     OW19654   3.532   1.798   7.208  0.2237  0.2410  0.2956
 2731SOL    HW119655   3.597   1.770   7.272  0.8609 -0.0184 -0.4686
 2731SOL    HW219656   3.478   1.860   7.258  1.5305  1.0543  0.7019
 2732SOL     OW19657   4.350   1.252   3.389 -0.0228 -0.6761 -0.4655
 2732SOL    HW119658   4.265   1.209   3.380 -1.0905  0.9184  2.1229
 2732SOL    HW219659   4.395   1.245   3.305 -0.9249 -0.0160 -1.0050
 2733SOL     OW19660   1.357   3.808   4.680  0.8928 -0.0365  0.3252
 2733SOL    HW119661   1.349   3.730   4.736 -0.4159 -0.9139 -1.0940
 2733SOL    HW219662   1.386   3.768   4.598  1.6033 -0.5133  0.8033
 2734SOL     OW19663   0.729   2.090  12.211 -0.1081 -0.2991  0.0901
 2734SOL    HW119664   0.741   2.184  12.216  1.3099 -0.5434  1.1095
 2734SOL    HW219665   0.752   2.084  12.119 -0.9057  2.2679 -0.2874
 2735SOL     OW19666   2.373   2.658  15.616 -0.2503 -0.0898  0.1403
 2735SOL    HW119667   2.375   2.730  15.552  1.8615 -0.9867 -0.8110
 2735SOL    HW219668   2.415   2.593  15.560 -1.4443 -1.4521  0.8352
 2736SOL     OW19669   0.007   3.746   7.518  0.0393 -0.2994  0.5581
 2736SOL    HW119670   4.700   3.819   7.463  1.1820 -0.1718  0.1272
 2736SOL    HW219671   0.082   3.725   7.462 -1.0981  0.8882 -1.4255
 2737SOL     OW19672   0.750   1.515   2.997  0.3545  0.5228 -0.0801
 2737SOL    HW119673   0.727   1.423   3.009  0.3382  0.2348 -2.3507
 2737SOL    HW219674   0.758   1.547   3.087  0.8187  0.3476 -0.0603
 2738SOL     OW19675   2.106   4.354  10.036  0.5127 -0.1923  0.1457
 2738SOL    HW119676   2.073   4.344   9.947  1.3664 -3.1392  0.1671
 2738SOL    HW219677   2.200   4.335  10.035  0.3148 -1.2031  0.6797
 2739SOL     OW19678   1.963   0.864   5.946 -0.0374 -0.5952 -0.1227
 2739SOL    HW119679   1.876   0.842   5.913 -0.2046 -1.1719  0.7131
 2739SOL    HW219680   1.963   0.790   6.007 -0.0370 -0.7525 -0.3141
 2740SOL     OW19681   4.444   2.923   8.598 -0.0127 -0.3869  0.0263
 2740SOL    HW119682   4.453   2.953   8.689  1.9695 -0.8001 -0.0248
 2740SOL    HW219683   4.455   3.008   8.558 -1.4562  1.4367  3.4738
 2741SOL     OW19684   4.431   3.720   3.560  0.5021 -0.1578  0.5158
 2741SOL    HW119685   4.520   3.683   3.557 -0.1282 -1.5064 -1.7102
 2741SOL    HW219686   4.435   3.783   3.632  0.3326  0.7821 -0.3000
 2742SOL     OW19687   1.091   4.678   6.379 -0.1300  0.0934 -0.2536
 2742SOL    HW119688   1.003   4.655   6.408 -0.0527 -0.4485 -0.4521
 2742SOL    HW219689   1.151   4.628   6.435 -2.0214 -0.4100  1.3124
 2743SOL     OW19690   1.344   0.032  13.609 -0.3043  0.4220  0.5203
 2743SOL    HW119691   1.314   0.057  13.521 -1.1851  2.9486  1.5666
 2743SOL    HW219692   1.321   4.661  13.610 -1.1676  0.6754  3.0116
 2744SOL     OW19693   2.755   4.075   2.161  0.3834 -0.1359  0.2919
 2744SOL    HW119694   2.771   4.001   2.102  0.7313 -0.9666  1.4320
 2744SOL    HW219695   2.662   4.095   2.148  0.4692  0.0240 -0.0821
 2745SOL     OW19696   1.406   2.000   1.646 -1.2029  0.5865  0.0704
 2745SOL    HW119697   1.421   1.931   1.711  3.6539  0.6802 -0.9868
 2745SOL    HW219698   1.425   2.071   1.707  2.7577  0.0222 -0.4755
 2746SOL     OW19699   2.467   3.013   6.749 -0.3966  0.4182  0.0149
 2746SOL    HW119700   2.388   2.981   6.705  1.4187 -3.9521 -0.1097
 2746SOL    HW219701   2.489   2.932   6.797  0.8712  0.4509 -0.5187
 2747SOL     OW19702   0.248   1.340   8.041 -0.0614 -0.1558 -0.3544
 2747SOL    HW119703   0.294   1.392   8.107  1.0430 -1.6486  0.0522
 2747SOL    HW219704   0.232   1.404   7.971  2.2036 -0.0503 -0.7960
 2748SOL     OW19705   4.675   3.317   8.971 -0.4272 -0.2670 -0.6795
 2748SOL    HW119706   0.026   3.358   9.017 -0.4007  0.6766 -1.5696
 2748SOL    HW219707   4.649   3.388   8.912 -1.2112  1.2266  1.4626
 2749SOL     OW19708   0.885   3.339  15.161 -0.2095 -0.2641 -0.5629
 2749SOL    HW119709   0.906   3.379  15.246  0.6211 -1.4127 -0.2311
 2749SOL    HW219710   0.884   3.248  15.188  2.8279  0.1028  0.7364
 2750SOL     OW19711   2.646   2.276   7.997 -0.1888 -0.3566 -0.0465
 2750SOL    HW119712   2.555   2.306   7.987  0.6845  1.1478 -3.6867
 2750SOL    HW219713   2.685   2.353   8.038 -0.1652 -2.0642  3.1099
 2751SOL     OW19714   0.740   3.247   5.333  0.1857 -0.4002  0.2826
 2751SOL    HW119715   0.669   3.220   5.274 -1.0587  0.5827  1.3141
 2751SOL    HW219716   0.771   3.323   5.283 -0.3859 -0.7325 -0.5822
 2752SOL     OW19717   2.967   1.522   2.211 -0.0296 -0.0194 -0.4972
 2752SOL    HW119718   3.001   1.515   2.121 -0.2570 -1.1301 -0.4949
 2752SOL    HW219719   3.026   1.461   2.255 -1.1368 -0.8766 -0.1900
 2753SOL     OW19720   3.097   1.097   0.210  0.1879 -0.2704 -0.2311
 2753SOL    HW119721   3.158   1.088   0.137 -0.0205  1.6499 -0.6361
 2753SOL    HW219722   3.109   1.014   0.256  1.0454  0.2030  0.4045
 2754SOL     OW19723   2.657   3.363   8.229  0.1346  0.1869 -0.2426
 2754SOL    HW119724   2.681   3.342   8.319 -0.7741  0.5595  0.0946
 2754SOL    HW219725   2.632   3.454   8.247 -0.8559 -0.2977  0.8131
 2755SOL     OW19726   1.493   0.506   5.990  0.0183  0.2021 -0.1474
 2755SOL    HW119727   1.537   0.588   5.970 -1.5905  1.6638  2.3248
 2755SOL    HW219728   1.562   0.491   6.054  0.1980 -2.3608 -0.9371
 2756SOL     OW19729   3.289   3.860   4.940  0.2501 -0.4685  0.3592
 2756SOL    HW119730   3.333   3.926   4.887 -0.4229 -0.5657 -0.3257
 2756SOL    HW219731   3.207   3.904   4.959  0.3464  0.3532 -1.1087
 2757SOL     OW19732   4.128   1.829   1.195 -0.1042 -0.1094 -0.8768
 2757SOL    HW119733   4.162   1.872   1.273 -1.5953 -0.3189 -0.1145
 2757SOL    HW219734   4.035   1.850   1.199 -0.1074  0.0377 -1.8294
 2758SOL     OW19735   4.104   3.696   4.195 -0.6801 -0.3291  0.5115
 2758SOL    HW119736   4.143   3.776   4.228 -1.4676  0.1307  0.3193
 2758SOL    HW219737   4.096   3.652   4.280 -1.6667  0.5246  0.8486
 2759SOL     OW19738   3.562   1.819   4.319  0.9304 -0.3278  0.4741
 2759SOL    HW119739   3.608   1.868   4.251  0.4440  0.5542  0.7870
 2759SOL    HW219740   3.538   1.891   4.378 -0.3886  0.5992 -1.2070
 2760SOL     OW19741   3.161   2.337   1.929 -0.7756 -0.1017 -0.0671
 2760SOL    HW119742   3.221   2.267   1.954  0.3916  0.7922 -0.4024
 2760SOL    HW219743   3.205   2.406   1.979 -0.0768 -1.0358  0.6078
 2761SOL     OW19744   4.248   2.166   0.503 -0.2154  0.2549  0.1101
 2761SOL    HW119745   4.305   2.240   0.482 -1.1497  1.0529  0.3875
 2761SOL    HW219746   4.297   2.107   0.446  2.0633  0.4996  1.8170
 2762SOL     OW19747   3.829   3.676   6.174  0.4235 -0.3491  0.1875
 2762SOL    HW119748   3.836   3.668   6.270  0.0029 -0.7914  0.1788
 2762SOL    HW219749   3.763   3.610   6.154 -0.9228  1.3129 -0.8357
 2763SOL     OW19750   4.234   4.175   4.398  0.4140 -0.0224  0.2598
 2763SOL    HW119751   4.327   4.181   4.417  0.5877  3.4925 -1.6938
 2763SOL    HW219752   4.227   4.220   4.314  1.8995 -0.6315 -0.1856
 2764SOL     OW19753   3.855   0.487   7.577 -0.4823  0.2480 -0.1733
 2764SOL    HW119754   3.939   0.456   7.544 -0.0075  0.6038  0.7080
 2764SOL    HW219755   3.865   0.422   7.647 -0.2964 -0.8087 -1.1797
 2765SOL     OW19756   1.554   0.984   2.610 -0.0487  0.2087  0.5055
 2765SOL    HW119757   1.508   0.955   2.531 -1.4950 -0.9149  1.7430
 2765SOL    HW219758   1.585   1.069   2.579 -0.1575  1.0132  2.5971
 2766SOL     OW19759   2.554   4.572   8.497 -0.3041 -0.3367 -0.0589
 2766SOL    HW119760   2.504   4.555   8.577  4.1048 -1.0094  2.4984
 2766SOL    HW219761   2.638   4.607   8.525  0.1804 -1.9483  0.4969
 2767SOL     OW19762   4.220   2.573   3.575 -0.5604 -0.2749 -0.4785
 2767SOL    HW119763   4.289   2.550   3.512 -0.3207 -0.9380  0.0321
 2767SOL    HW219764   4.232   2.668   3.565  0.3926 -0.3373  0.1166
 2768SOL     OW19765   3.561   3.034  12.194 -0.3873  0.5936 -0.3446
 2768SOL    HW119766   3.587   3.051  12.285 -1.5714 -0.0365  0.1173
 2768SOL    HW219767   3.584   3.115  12.149 -1.7497 -0.3189 -2.6449
 2769SOL     OW19768   1.264   2.607   4.184  0.0918  0.5023  0.4587
 2769SOL    HW119769   1.354   2.640   4.188  0.1611  0.7046 -2.5063
 2769SOL    HW219770   1.276   2.523   4.140  0.1604  0.8347 -0.1571
 2770SOL     OW19771   4.556   1.890   8.021  0.2315 -0.6386  0.3061
 2770SOL    HW119772   4.507   1.808   8.010 -0.4837 -0.0131 -1.2123
 2770SOL    HW219773   4.530   1.908   8.111 -0.8761 -2.5362  0.3721
 2771SOL     OW19774   0.563   1.308   8.250  0.3284 -0.1171  0.2668
 2771SOL    HW119775   0.476   1.344   8.270 -0.3646 -1.5699 -0.1164
 2771SOL    HW219776   0.612   1.390   8.244 -1.4094  0.7548 -2.6491
 2772SOL     OW19777   3.823   2.160   0.394 -0.4269 -0.2266  0.0292
 2772SOL    HW119778   3.870   2.088   0.352  0.6138 -0.8699  2.3146
 2772SOL    HW219779   3.864   2.233   0.348  0.4531 -0.6375  0.1733
 2773SOL     OW19780   2.046   1.709   9.177  0.3630  0.3816 -0.2937
 2773SOL    HW119781   2.053   1.798   9.210  0.0021  0.4738 -0.4664
 2773SOL    HW219782   1.986   1.674   9.243 -0.8591  1.5048 -0.8283
 2774SOL     OW19783   1.474   1.918  10.005  0.2567 -0.7918 -0.0615
 2774SOL    HW119784   1.494   1.990   9.946  0.9692 -1.1796 -0.2864
 2774SOL    HW219785   1.469   1.842   9.947 -0.1970 -1.4318  0.8208
 2775SOL     OW19786   3.671   0.422   4.093 -0.0099 -0.6112  0.0841
 2775SOL    HW119787   3.637   0.486   4.031 -2.9648 -0.9420  1.3528
 2775SOL    HW219788   3.744   0.388   4.040  0.1623  1.5987 -1.0936
 2776SOL     OW19789   2.296   1.651   5.187 -0.3972  0.4944 -0.0991
 2776SOL    HW119790   2.359   1.634   5.118 -0.9111 -3.1899  0.3373
 2776SOL    HW219791   2.222   1.691   5.141  0.2765  1.5097 -0.3060
 2777SOL     OW19792   3.737   2.210   4.286  0.0158  0.2259 -0.2883
 2777SOL    HW119793   3.685   2.252   4.354 -0.7358  0.1901 -0.8401
 2777SOL    HW219794   3.707   2.255   4.207 -0.4260 -0.9412 -0.7897
 2778SOL     OW19795   3.881   1.672  15.649 -0.2716 -0.4778  0.1180
 2778SOL    HW119796   3.832   1.645  15.727  1.4014  0.6133  1.5492
 2778SOL    HW219797   3.814   1.730  15.614  0.4981  0.4487  0.1780
 2779SOL     OW19798   0.433   1.307   3.121  0.3131 -0.1795 -0.3205
 2779SOL    HW119799   0.507   1.299   3.061  0.7191 -1.4795  0.3351
 2779SOL    HW219800   0.380   1.364   3.066  1.2621  0.0244 -1.0115
 2780SOL     OW19801   3.241   0.237   5.389 -0.1530 -0.2398 -0.0453
 2780SOL    HW119802   3.320   0.204   5.346  0.3155  1.3385 -0.4206
 2780SOL    HW219803   3.178   0.181   5.345 -2.3548  0.8097  1.7681
 2781SOL     OW19804   3.000   3.369   7.824  0.6225  0.0763  0.3865
 2781SOL    HW119805   2.999   3.459   7.792 -0.5158  0.9040  2.7081
 2781SOL    HW219806   3.016   3.399   7.914 -0.7275  1.9914 -0.0029
 2782SOL     OW19807   4.080   0.117   9.064  0.4163  0.2780  0.3493
 2782SOL    HW119808   4.045   0.195   9.108  0.6589  1.3586 -1.3835
 2782SOL    HW219809   4.095   0.151   8.976 -0.4925 -0.9224 -0.2740
 2783SOL     OW19810   3.016   3.599   6.859 -0.7832 -0.0104  0.1205
 2783SOL    HW119811   3.080   3.608   6.788 -1.9111  0.9787 -0.7693
 2783SOL    HW219812   3.002   3.689   6.887  0.1438 -0.3080  1.5263
 2784SOL     OW19813   0.045   0.503   2.437  0.3305  0.4716 -0.1519
 2784SOL    HW119814   4.706   0.441   2.397 -0.8361  1.4065  0.1943
 2784SOL    HW219815   0.048   0.575   2.374  1.1621 -0.6309 -1.3762
 2785SOL     OW19816   2.809   1.006  11.601 -0.1033  0.0608 -0.0099
 2785SOL    HW119817   2.725   1.030  11.562 -0.1440 -2.5072 -1.4768
 2785SOL    HW219818   2.780   0.946  11.669 -1.2229  1.0359  0.3693
 2786SOL     OW19819   4.022   0.530   6.360 -0.1261  0.5588 -0.0015
 2786SOL    HW119820   4.010   0.582   6.280 -1.3668 -1.6118 -1.2397
 2786SOL    HW219821   4.114   0.505   6.359  0.0383  1.1450  1.0136
 2787SOL     OW19822   2.895   4.027  14.821 -0.4426 -0.1466  0.2438
 2787SOL    HW119823   2.979   4.003  14.861  1.5599  3.1881 -1.9164
 2787SOL    HW219824   2.842   4.062  14.893 -2.2685 -0.1111 -1.1071
 2788SOL     OW19825   0.019   1.817   9.878 -0.5951  0.0493 -0.1692
 2788SOL    HW119826   4.680   1.772   9.936  1.5031 -1.2892  1.0055
 2788SOL    HW219827   0.012   1.909   9.903 -0.5747 -0.0929  0.3554
 2789SOL     OW19828   1.648   0.785   7.571 -0.0476  0.4839 -0.2959
 2789SOL    HW119829   1.560   0.823   7.579  0.6281  2.0664 -0.3553
 2789SOL    HW219830   1.676   0.854   7.510  0.9732 -1.5715 -2.1499
 2790SOL     OW19831   0.889   1.164   3.094  0.0676  0.0174 -0.0879
 2790SOL    HW119832   0.962   1.171   3.032  1.1484  0.3395  1.2206
 2790SOL    HW219833   0.932   1.168   3.179 -0.8787 -1.2080  0.4360
 2791SOL     OW19834   1.884   1.096   8.383 -0.5652  0.0650 -0.2355
 2791SOL    HW119835   1.922   1.078   8.297  0.5908 -0.5805  0.4063
 2791SOL    HW219836   1.803   1.143   8.363 -0.0715  0.5249 -1.1670
 2792SOL     OW19837   1.734   4.303   4.791 -0.5789  0.3553  0.7540
 2792SOL    HW119838   1.798   4.347   4.847  0.5299 -0.3477  0.0351
 2792SOL    HW219839   1.714   4.224   4.842 -0.1814  0.4873  1.1163
 2793SOL     OW19840   0.640   2.563   4.874 -0.3234 -0.4397  1.5826
 2793SOL    HW119841   0.708   2.540   4.937  0.7733 -0.3262  0.4504
 2793SOL    HW219842   0.662   2.657   4.875 -0.1230 -0.4608 -1.1570
 2794SOL     OW19843   2.986   4.174  17.462 -0.2461  0.2277  0.4972
 2794SOL    HW119844   2.918   4.210  17.404  0.6933  0.5319 -0.4120
 2794SOL    HW219845   2.943   4.163  17.547  0.3151  1.6998  0.9747
 2795SOL     OW19846   1.984   0.514   4.690 -0.1584  0.2322 -0.7817
 2795SOL    HW119847   2.079   0.520   4.681 -0.2981 -1.3911 -3.4732
 2795SOL    HW219848   1.987   0.497   4.784  0.8125  2.9528 -0.3395
 2796SOL     OW19849   0.452   0.020  16.357 -0.1322 -0.0588  0.2562
 2796SOL    HW119850   0.463   4.665  16.412 -2.8379 -0.1079  0.7319
 2796SOL    HW219851   0.484   0.086  16.418 -0.3476  1.3638 -1.1520
 2797SOL     OW19852   0.425   2.691  15.266  0.3356  0.1968  0.7152
 2797SOL    HW119853   0.428   2.713  15.359  0.7220  0.5345  0.6205
 2797SOL    HW219854   0.402   2.598  15.268 -0.7760  0.5010  2.3760
 2798SOL     OW19855   4.580   1.240   5.634  0.6812  0.6952  0.3086
 2798SOL    HW119856   4.540   1.249   5.720  1.8269 -2.8493  1.2137
 2798SOL    HW219857   4.504   1.250   5.576  1.2197 -0.2325 -0.5682
 2799SOL     OW19858   0.855   0.053   8.089  0.3054 -0.5945 -0.5988
 2799SOL    HW119859   0.938   0.085   8.125  0.6324 -0.9171 -1.0621
 2799SOL    HW219860   0.798   0.059   8.166 -0.8325 -1.0515 -1.4103
 2800SOL     OW19861   1.835   3.916   6.970  0.2363  0.4427  0.2267
 2800SOL    HW119862   1.915   3.966   6.957  1.3463 -0.8967  1.8970
 2800SOL    HW219863   1.779   3.984   6.932  1.3225  0.1760 -1.8466
 2801SOL     OW19864   2.143   4.557   7.470  0.4938  0.0792  0.0649
 2801SOL    HW119865   2.154   4.649   7.447 -2.3191  0.4080  0.0014
 2801SOL    HW219866   2.218   4.553   7.529  0.1255 -0.5377  0.4919
 2802SOL     OW19867   3.882   2.385  16.797  0.1500 -0.5497  0.2959
 2802SOL    HW119868   3.827   2.348  16.866 -2.8778 -0.7823 -2.2349
 2802SOL    HW219869   3.842   2.472  16.795  2.7287  0.6718  1.2909
 2803SOL     OW19870   4.443   2.509  11.478 -0.0129 -0.7749 -0.4340
 2803SOL    HW119871   4.427   2.440  11.542  0.8516 -0.3136  0.2965
 2803SOL    HW219872   4.418   2.589  11.526 -0.7271 -0.0044 -2.0813
 2804SOL     OW19873   1.595   3.455  14.607  0.3180  0.1866  0.2183
 2804SOL    HW119874   1.587   3.437  14.700 -1.5270 -0.1259 -0.0007
 2804SOL    HW219875   1.510   3.468  14.566  1.2584  0.1907 -1.7386
 2805SOL     OW19876   0.322   2.239   5.001 -0.7272 -0.4139  0.3674
 2805SOL    HW119877   0.274   2.177   4.946 -0.1452 -1.7093  1.3069
 2805SOL    HW219878   0.321   2.323   4.956 -1.5406 -0.7823 -0.3116
 2806SOL     OW19879   3.926   1.985   0.991  0.6418  0.1796 -0.4074
 2806SOL    HW119880   3.935   1.980   1.086 -1.2760  1.2953 -0.1682
 2806SOL    HW219881   3.843   2.031   0.985 -0.2396 -1.1323  1.8958
 2807SOL     OW19882   3.003   4.049   9.238 -0.0197  0.7274 -0.8541
 2807SOL    HW119883   2.944   3.977   9.217  0.2956  0.5006 -0.9517
 2807SOL    HW219884   3.067   3.996   9.285 -0.4039 -2.1628 -3.6408
 2808SOL     OW19885   0.088   0.702   8.182 -0.0699  0.3414 -0.0197
 2808SOL    HW119886   0.071   0.717   8.089 -2.8171  0.0628  0.4331
 2808SOL    HW219887   0.007   0.673   8.225 -0.9769  0.1856 -1.8215
 2809SOL     OW19888   1.110   3.619   4.518 -0.9394 -0.2029  0.2664
 2809SOL    HW119889   1.154   3.696   4.483  1.1653 -1.9178 -0.8258
 2809SOL    HW219890   1.028   3.657   4.550 -1.1742 -1.3074  1.0069
 2810SOL     OW19891   3.326   3.826   6.880  0.4266  0.1091  0.2372
 2810SOL    HW119892   3.410   3.856   6.915  1.0115  0.0220 -1.0663
 2810SOL    HW219893   3.286   3.909   6.856  1.0298  0.5023  0.5983
 2811SOL     OW19894   3.405   4.219   2.573  1.0753  0.1271 -0.2989
 2811SOL    HW119895   3.356   4.137   2.559  0.3394  0.3918  0.6812
 2811SOL    HW219896   3.332   4.278   2.556  0.7668  0.0247  0.6556
 2812SOL     OW19897   3.146   1.321  10.841 -0.3842 -0.8235  0.2426
 2812SOL    HW119898   3.100   1.347  10.761  0.0524 -0.8861 -0.0275
 2812SOL    HW219899   3.219   1.272  10.804  0.8328  2.1574 -1.3492
 2813SOL     OW19900   1.184   2.600   1.500  0.0030  0.0016 -0.0233
 2813SOL    HW119901   1.151   2.689   1.483 -2.6615 -0.7296  1.4092
 2813SOL    HW219902   1.266   2.619   1.453 -0.2624  2.2381  0.3868
 2814SOL     OW19903   1.172   1.017   4.747  0.0508  0.0837  0.0361
 2814SOL    HW119904   1.227   0.963   4.803 -0.0162 -0.7894 -0.7296
 2814SOL    HW219905   1.157   1.087   4.811  0.9527 -0.9852  1.4130
 2815SOL     OW19906   1.646   2.551   7.951 -0.0907 -0.1817  0.7916
 2815SOL    HW119907   1.610   2.580   7.867 -0.8882  0.8432  1.4791
 2815SOL    HW219908   1.593   2.473   7.965 -1.2157  0.4789  0.2255
 2816SOL     OW19909   0.207   0.632  12.194 -0.1743  0.7168  0.5680
 2816SOL    HW119910   0.276   0.670  12.140 -0.0518 -1.0858 -0.5558
 2816SOL    HW219911   0.134   0.695  12.190 -0.3157  0.5895  1.2686
 2817SOL     OW19912   2.045   3.833   8.566 -0.5903 -0.7142  0.4448
 2817SOL    HW119913   2.087   3.880   8.638 -0.3110 -0.2809 -0.0006
 2817SOL    HW219914   2.090   3.864   8.487 -2.2037  1.9455  0.5725
 2818SOL     OW19915   3.562   1.174   8.673 -0.1248 -0.3568  0.0771
 2818SOL    HW119916   3.588   1.198   8.762  1.3381 -0.4497 -0.3261
 2818SOL    HW219917   3.630   1.232   8.640 -2.5440  0.3252 -3.6167
 2819SOL     OW19918   2.623   3.131  11.889 -0.1113 -0.0533  0.3578
 2819SOL    HW119919   2.654   3.122  11.979  1.2448 -0.5564 -0.1604
 2819SOL    HW219920   2.658   3.218  11.871  1.5518 -1.0582 -1.2149
 2820SOL     OW19921   0.296   1.472   8.827  0.4132 -0.1996  0.1086
 2820SOL    HW119922   0.360   1.410   8.862  1.6822 -0.0428 -1.9505
 2820SOL    HW219923   0.302   1.454   8.734  0.7437 -0.3061  0.1504
 2821SOL     OW19924   1.466   2.812   4.801 -0.1312 -0.3042 -0.6953
 2821SOL    HW119925   1.419   2.895   4.800  0.0825 -0.1707  0.1698
 2821SOL    HW219926   1.442   2.790   4.892 -0.2894  0.0771 -0.6468
 2822SOL     OW19927   3.823   1.041   8.043 -0.6541  0.2074  0.0900
 2822SOL    HW119928   3.785   1.128   8.032  0.3523  0.6748  0.3210
 2822SOL    HW219929   3.917   1.057   8.039 -0.4617 -1.0537 -0.4139
 2823SOL     OW19930   0.118   3.890  11.666 -0.5556  0.3278  0.6391
 2823SOL    HW119931   0.131   3.951  11.739  0.3664  1.1757 -0.2415
 2823SOL    HW219932   0.046   3.834  11.695  2.5953 -2.0231  3.9765
 2824SOL     OW19933   1.854   4.451   8.187  0.2479 -0.0697 -0.3460
 2824SOL    HW119934   1.823   4.388   8.251 -2.8060 -1.0910 -2.8631
 2824SOL    HW219935   1.917   4.496   8.243 -0.1001 -1.0289  0.8091
 2825SOL     OW19936   0.264   3.919   6.035 -0.2576 -0.3082  0.2930
 2825SOL    HW119937   0.194   3.880   5.982  0.4794 -0.2184 -0.7480
 2825SOL    HW219938   0.343   3.868   6.022 -0.0841  0.4094 -1.4727
 2826SOL     OW19939   2.121   2.757   5.359 -0.2435 -0.4691 -0.0038
 2826SOL    HW119940   2.205   2.799   5.378 -0.0930  0.1305 -2.0216
 2826SOL    HW219941   2.120   2.740   5.264  0.8394  1.7449 -0.4093
 2827SOL     OW19942   2.390   1.613   7.407 -0.1888  0.3892 -0.0614
 2827SOL    HW119943   2.482   1.598   7.431 -0.5883 -0.9830  0.6623
 2827SOL    HW219944   2.339   1.558   7.467  1.9858  0.1215  1.5325
 2828SOL     OW19945   0.766   1.589  12.304  0.6215  0.3269  0.1979
 2828SOL    HW119946   0.772   1.677  12.267 -3.9690  0.4430 -0.2265
 2828SOL    HW219947   0.846   1.573  12.355 -0.2876 -0.2485  1.4432
 2829SOL     OW19948   1.494   3.824  12.370 -0.3528 -0.5420 -0.3030
 2829SOL    HW119949   1.415   3.808  12.421 -0.0733  0.7319  0.5040
 2829SOL    HW219950   1.562   3.766  12.405  0.2003  0.8565  0.9504
 2830SOL     OW19951   4.552   4.474   1.742  0.4236  0.3176 -0.2426
 2830SOL    HW119952   4.601   4.394   1.763 -0.4104 -0.2362 -0.4158
 2830SOL    HW219953   4.608   4.501   1.669 -2.0252 -0.9399 -2.5688
 2831SOL     OW19954   2.290   3.919   5.806 -0.2073  0.2462 -0.1926
 2831SOL    HW119955   2.256   3.831   5.818 -0.9208  0.5683  0.1416
 2831SOL    HW219956   2.373   3.906   5.852 -0.3297 -1.4455 -0.4555
 2832SOL     OW19957   1.019   1.170   3.336  0.2227  0.2769  0.3488
 2832SOL    HW119958   1.077   1.099   3.367  0.5491  0.1234 -0.6106
 2832SOL    HW219959   0.991   1.207   3.419 -0.5409 -1.5862  0.9192
 2833SOL     OW19960   1.791   3.690   1.632 -0.0065 -0.1455  0.2694
 2833SOL    HW119961   1.699   3.667   1.648  0.0296 -1.6875 -1.6727
 2833SOL    HW219962   1.771   3.779   1.602  2.6696  0.2351 -0.3812
 2834SOL     OW19963   3.657   3.824  14.773 -0.4055 -0.0425 -0.7280
 2834SOL    HW119964   3.694   3.757  14.830 -1.3993  0.4323  0.4827
 2834SOL    HW219965   3.728   3.888  14.769  1.9539 -2.8113 -1.9224
 2835SOL     OW19966   4.596   1.070  15.686 -0.4584 -1.0895  0.3732
 2835SOL    HW119967   4.671   1.070  15.745 -0.0114  2.6491 -0.2000
 2835SOL    HW219968   4.636   1.044  15.603 -0.3148 -0.8535  0.3696
 2836SOL     OW19969   0.841   1.990   1.753 -0.4891  0.3121 -0.4051
 2836SOL    HW119970   0.798   2.075   1.762  0.2914  0.5527  1.1381
 2836SOL    HW219971   0.772   1.938   1.711 -0.4766 -0.3702  0.4010
 2837SOL     OW19972   1.924   4.143   2.502  0.3324  0.4585 -0.7330
 2837SOL    HW119973   2.014   4.119   2.481  0.2733  0.6169 -1.1640
 2837SOL    HW219974   1.881   4.172   2.422  1.2196  2.0068 -0.6366
 2838SOL     OW19975   1.669   2.031  15.745  0.0173 -0.5907 -0.8671
 2838SOL    HW119976   1.671   1.991  15.658  0.1524  0.9451 -1.5701
 2838SOL    HW219977   1.597   1.985  15.788  0.8296 -0.3121  0.7584
 2839SOL     OW19978   0.405   0.660   6.976  0.2731  0.3707  0.1317
 2839SOL    HW119979   0.354   0.735   7.006 -0.8919  0.7013 -2.6663
 2839SOL    HW219980   0.490   0.699   6.996 -0.1656  0.5528  1.6415
 2840SOL     OW19981   1.234   0.939   2.809  0.0366 -0.4139  0.0093
 2840SOL    HW119982   1.248   0.967   2.718  3.4703  1.9159  1.2535
 2840SOL    HW219983   1.140   0.954   2.822 -0.3448 -1.3445 -1.7332
 2841SOL     OW19984   2.432   3.902   4.849  0.1484 -0.0416  0.0275
 2841SOL    HW119985   2.455   3.896   4.757 -0.5480 -0.6907 -0.0972
 2841SOL    HW219986   2.380   3.983   4.845  0.3093  0.1683  1.9793
 2842SOL     OW19987   3.050   4.678   9.091  0.2564 -0.1435 -0.0165
 2842SOL    HW119988   3.113   4.632   9.036 -0.5713 -1.0644 -0.1909
 2842SOL    HW219989   3.102   0.019   9.141 -1.2100  0.1081  1.1666
 2843SOL     OW19990   4.664   2.298   4.400  0.2001  0.2152 -0.5642
 2843SOL    HW119991   4.712   2.347   4.333 -1.3760  0.2874 -1.6268
 2843SOL    HW219992   4.582   2.344   4.417 -0.8325 -0.5839 -3.4328
 2844SOL     OW19993   4.044   2.884   6.564 -0.5349 -0.3099  0.1654
 2844SOL    HW119994   4.081   2.839   6.640 -0.1915 -1.0049 -0.4128
 2844SOL    HW219995   3.952   2.883   6.590 -0.1535 -2.5328  1.4792
 2845SOL     OW19996   1.393   0.519  17.121 -0.1166 -0.6254  0.3791
 2845SOL    HW119997   1.318   0.528  17.180 -0.1657  1.0403  0.0773
 2845SOL    HW219998   1.429   0.608  17.119  2.9634 -1.8649  1.0628
 2846SOL     OW19999   2.954   3.805  14.634  0.0691 -0.1268 -0.3015
 2846SOL    HW120000   2.916   3.883  14.675  1.0318 -0.0708  0.4768
 2846SOL    HW220001   3.040   3.806  14.676  0.2674  1.8791 -0.7504
 2847SOL     OW20002   0.685   4.686   7.654 -0.0022  0.0649  0.1632
 2847SOL    HW120003   0.598   4.652   7.674  0.1736 -0.0763  0.6848
 2847SOL    HW220004   0.705   0.022   7.727  0.0053  0.5924 -0.2628
 2848SOL     OW20005   2.774   0.760   0.201  1.1184 -0.0942 -0.3796
 2848SOL    HW120006   2.681   0.752   0.179  0.8138  2.4574 -0.0347
 2848SOL    HW220007   2.766   0.824   0.272 -1.2768 -2.9071  1.8822
 2849SOL     OW20008   2.962   0.008   2.269 -0.0678 -0.6215 -0.3465
 2849SOL    HW120009   3.045   4.689   2.241  0.0093 -3.3929  3.9126
 2849SOL    HW220010   2.920   0.013   2.184 -0.0271 -0.9832 -0.3902
 2850SOL     OW20011   0.096   1.770   6.247 -0.0655  0.2816 -0.6312
 2850SOL    HW120012   0.020   1.719   6.275  1.0826 -0.9339  0.2720
 2850SOL    HW220013   0.162   1.742   6.311 -0.3488 -0.8235 -0.8207
 2851SOL     OW20014   3.028   0.486  16.848  0.0359  0.5672  0.4210
 2851SOL    HW120015   3.026   0.443  16.762 -2.2502 -1.6830  1.5873
 2851SOL    HW220016   3.102   0.541  16.825 -1.0208  1.8549  0.0833
 2852SOL     OW20017   4.585   1.766   9.505 -0.4608  0.0428 -0.8352
 2852SOL    HW120018   4.490   1.777   9.494 -0.6328  1.4667  2.1441
 2852SOL    HW220019   4.598   1.851   9.546 -0.7078  0.7316 -2.1962
 2853SOL     OW20020   2.061   0.235  15.138  0.1334  0.2865  0.1040
 2853SOL    HW120021   2.002   0.195  15.074 -1.9605  2.9729  0.3378
 2853SOL    HW220022   2.031   0.189  15.216 -1.7289  0.8670 -0.2613
 2854SOL     OW20023   3.283   1.215  13.557  0.2957  0.1609 -0.5061
 2854SOL    HW120024   3.259   1.127  13.585 -0.6153  0.1331 -1.3648
 2854SOL    HW220025   3.378   1.207  13.564 -0.0200 -1.0143  2.6517
 2855SOL     OW20026   1.092   4.358  12.184 -0.4982  0.1726  0.1636
 2855SOL    HW120027   1.171   4.402  12.214 -0.3814 -0.2460  0.4789
 2855SOL    HW220028   1.032   4.432  12.173  0.5103  1.1607  1.4183
 2856SOL     OW20029   3.980   3.279   2.619  0.1164  0.1810 -0.3299
 2856SOL    HW120030   4.039   3.231   2.562  0.3715 -1.0284  0.9595
 2856SOL    HW220031   4.034   3.339   2.670  0.2550 -1.0898  1.0219
 2857SOL     OW20032   2.826   2.286   7.456  0.5869  0.4703 -0.1620
 2857SOL    HW120033   2.862   2.219   7.398 -0.9601 -0.2444 -0.2958
 2857SOL    HW220034   2.899   2.320   7.507  2.2995 -2.0147 -0.9491
 2858SOL     OW20035   1.903   1.185   7.363  0.4087  0.0354 -0.1686
 2858SOL    HW120036   1.974   1.233   7.318 -0.6625  0.2445 -1.6452
 2858SOL    HW220037   1.825   1.235   7.339  0.2330 -0.9770 -1.6922
 2859SOL     OW20038   1.274   4.687   3.077  0.8615 -0.3005 -0.5102
 2859SOL    HW120039   1.271   4.711   3.170 -0.3459 -1.3286 -0.2791
 2859SOL    HW220040   1.249   0.047   3.036  1.9376 -0.4675 -1.5111
 2860SOL     OW20041   0.920   3.807   9.341 -0.2250 -0.4951 -0.4509
 2860SOL    HW120042   0.872   3.727   9.364 -0.0826 -0.4439  0.0142
 2860SOL    HW220043   0.975   3.782   9.267  1.7734  2.2261  0.1621
 2861SOL     OW20044   2.422   0.252   7.495  0.3713  0.2084  0.1215
 2861SOL    HW120045   2.444   0.335   7.453 -2.7483  0.4015 -1.1843
 2861SOL    HW220046   2.498   0.249   7.552  0.2913  2.2720  0.3111
 2862SOL     OW20047   1.362   0.885   7.631  0.4023 -0.3774  0.3966
 2862SOL    HW120048   1.364   0.811   7.690 -1.3432  1.3004  2.5250
 2862SOL    HW220049   1.278   0.918   7.660  0.4469  1.6458 -1.7071
 2863SOL     OW20050   3.335   0.609  17.514  0.2899 -0.4344 -0.2072
 2863SOL    HW120051   3.420   0.634  17.549  0.6952  0.8060 -2.1532
 2863SOL    HW220052   3.352   0.624  17.422 -0.2578 -3.9292 -0.8868
 2864SOL     OW20053   2.368   2.111   7.733  0.1829 -0.2445 -0.0517
 2864SOL    HW120054   2.282   2.093   7.694 -0.1693  2.3625 -0.4591
 2864SOL    HW220055   2.425   2.117   7.657 -0.3595  0.4945 -0.3960
 2865SOL     OW20056   1.129   1.177  11.888 -0.3300  0.7859  0.0739
 2865SOL    HW120057   1.128   1.247  11.823  0.1618  2.1139  1.4907
 2865SOL    HW220058   1.155   1.105  11.831  2.2847 -0.4691  2.8484
 2866SOL     OW20059   0.603   2.431   7.742 -0.1567 -0.6101  0.4411
 2866SOL    HW120060   0.699   2.429   7.741 -0.1885 -1.8304  1.0333
 2866SOL    HW220061   0.582   2.348   7.699 -1.7768 -0.7829  1.5840
 2867SOL     OW20062   3.988   0.145   4.518 -0.1620  0.3182  0.2941
 2867SOL    HW120063   3.902   0.107   4.497 -0.3497  0.5776  0.5883
 2867SOL    HW220064   4.047   0.075   4.490  1.0407  1.7677 -0.7864
 2868SOL     OW20065   0.065   2.036   8.330 -0.3077  0.0425 -0.1807
 2868SOL    HW120066   0.067   2.078   8.244 -0.8741  1.9262  0.7370
 2868SOL    HW220067   0.118   2.098   8.380 -0.3874  1.1546 -1.4506
 2869SOL     OW20068   3.083   3.953   5.664 -0.3290 -0.0937 -0.1104
 2869SOL    HW120069   3.123   3.980   5.746 -0.9389 -1.4869  0.6360
 2869SOL    HW220070   3.156   3.918   5.613 -0.3818  2.6143 -2.0827
 2870SOL     OW20071   3.379   0.930  16.313  0.0834  0.3244  0.2365
 2870SOL    HW120072   3.317   0.937  16.241 -0.5470 -1.1182  0.6292
 2870SOL    HW220073   3.326   0.929  16.392 -0.9166 -0.2293 -0.4442
 2871SOL     OW20074   0.414   0.246   1.667  0.4597  0.6356 -0.0042
 2871SOL    HW120075   0.433   0.201   1.585  1.8499  0.6987  0.2876
 2871SOL    HW220076   0.319   0.234   1.669  0.6337 -0.3258  2.7304
 2872SOL     OW20077   0.648   0.136   5.233 -0.0091 -0.2198 -0.3015
 2872SOL    HW120078   0.650   0.227   5.262 -0.7147 -0.7160  1.3220
 2872SOL    HW220079   0.593   0.144   5.155  0.2111  1.7163 -0.2615
 2873SOL     OW20080   0.134   1.127   5.403  0.1932  0.6477 -0.3006
 2873SOL    HW120081   0.054   1.178   5.391  0.8764  1.5899 -0.8814
 2873SOL    HW220082   0.194   1.195   5.373  0.1700  0.8277  0.0644
 2874SOL     OW20083   3.212   3.569   8.509 -0.0003 -0.0827 -0.0250
 2874SOL    HW120084   3.191   3.651   8.465  1.6584 -0.3500 -1.2959
 2874SOL    HW220085   3.240   3.594   8.597 -1.3351 -0.4782  0.5134
 2875SOL     OW20086   4.634   3.032   8.069 -0.1002 -0.8992 -0.2026
 2875SOL    HW120087   4.581   3.099   8.114  0.2865  0.2792 -1.4937
 2875SOL    HW220088   4.670   2.983   8.142  0.0502  0.3726  0.5840
 2876SOL     OW20089   2.107   0.398   2.813 -0.5477 -0.5962 -0.6220
 2876SOL    HW120090   2.185   0.418   2.762 -1.0477 -0.0815 -1.1838
 2876SOL    HW220091   2.045   0.467   2.789  1.1988  1.3865  0.7370
 2877SOL     OW20092   3.787   0.791   8.186 -0.8255  0.1352 -0.2435
 2877SOL    HW120093   3.777   0.884   8.165  0.9835  0.9173  2.4335
 2877SOL    HW220094   3.839   0.789   8.266 -0.3255 -2.2101 -0.6388
 2878SOL     OW20095   2.916   2.712   3.180  0.1811  0.2255  0.1883
 2878SOL    HW120096   2.881   2.627   3.152 -0.3588  1.0192 -1.5565
 2878SOL    HW220097   2.993   2.708   3.123  0.9346  1.2391  1.1391
 2879SOL     OW20098   1.390   3.319   0.030 -0.1069 -0.4226  0.2564
 2879SOL    HW120099   1.381   3.304  17.626  0.9639  1.0846 -0.0864
 2879SOL    HW220100   1.335   3.249   0.066  0.8788 -0.8827  0.8725
 2880SOL     OW20101   3.282   2.827   8.382 -0.1407 -0.3070  0.1672
 2880SOL    HW120102   3.360   2.803   8.331  0.1076 -1.5419  1.1204
 2880SOL    HW220103   3.322   2.818   8.469  0.4900 -0.0558 -0.0936
 2881SOL     OW20104   2.293   2.184   9.066  0.2596 -0.1917  0.1922
 2881SOL    HW120105   2.201   2.211   9.074  0.2514  0.6136 -2.4967
 2881SOL    HW220106   2.332   2.253   9.120  0.5333 -1.1727  1.2398
 2882SOL     OW20107   4.106   1.082   2.549 -0.2800  0.8329  0.4575
 2882SOL    HW120108   4.106   1.049   2.459 -1.7149  0.2955  0.6489
 2882SOL    HW220109   4.090   0.998   2.592  0.8603  0.2535 -0.2639
 2883SOL     OW20110   2.424   3.226  13.484 -0.1180 -0.1802 -0.5037
 2883SOL    HW120111   2.465   3.162  13.541  3.5392 -0.2516 -3.2521
 2883SOL    HW220112   2.505   3.251  13.439 -0.1569 -0.3864 -0.6863
 2884SOL     OW20113   1.047   1.669   2.274  0.0981 -0.1197  0.2129
 2884SOL    HW120114   1.006   1.633   2.353  0.2916  1.5335  1.0587
 2884SOL    HW220115   1.076   1.590   2.227 -1.4875 -0.1055 -0.7915
 2885SOL     OW20116   1.926   3.629   4.482 -0.1520  0.9888  0.2567
 2885SOL    HW120117   1.995   3.632   4.415 -0.2155  0.6322  0.1729
 2885SOL    HW220118   1.976   3.644   4.562  0.2078 -4.3296  1.0462
 2886SOL     OW20119   1.879   2.539   1.119  0.5454 -0.4216  0.5089
 2886SOL    HW120120   1.792   2.542   1.081 -0.6340 -3.2927  2.9706
 2886SOL    HW220121   1.930   2.542   1.039 -1.8488 -1.6365 -1.0591
 2887SOL     OW20122   4.568   0.890   9.744 -0.0762 -0.8579  0.1397
 2887SOL    HW120123   4.513   0.822   9.783 -1.9624  0.7967  0.4094
 2887SOL    HW220124   4.603   0.864   9.659 -1.4263  0.1234 -0.7391
 2888SOL     OW20125   0.310   2.250   7.193  0.2948 -0.2145  0.7341
 2888SOL    HW120126   0.385   2.308   7.178  0.1595 -0.0959  0.5218
 2888SOL    HW220127   0.324   2.164   7.153 -1.4992 -0.4361  0.5868
 2889SOL     OW20128   1.905   4.460   4.921 -0.0595 -1.0037  0.0172
 2889SOL    HW120129   1.895   4.541   4.871  3.0259 -1.4721 -1.3833
 2889SOL    HW220130   2.000   4.453   4.908 -0.4638  0.3875 -3.9535
 2890SOL     OW20131   0.817   4.058   7.992 -0.3131  0.0025  0.3152
 2890SOL    HW120132   0.766   4.080   8.070  0.1890 -1.9041  1.1707
 2890SOL    HW220133   0.851   4.144   7.967 -0.4074  0.0565  0.3717
 2891SOL     OW20134   3.663   3.264   2.999  0.6718  0.1306  0.5773
 2891SOL    HW120135   3.614   3.219   2.929  0.5429  0.1768  0.6373
 2891SOL    HW220136   3.752   3.233   2.981  1.3916  1.2371  2.3006
 2892SOL     OW20137   1.162   1.071   7.673  0.1066  0.3051  0.0414
 2892SOL    HW120138   1.092   1.063   7.608  1.7410 -1.1822 -1.5420
 2892SOL    HW220139   1.175   1.166   7.675 -0.9385  0.4862 -1.4426
 2893SOL     OW20140   0.181   0.287   1.369  0.5450 -0.6477  0.1294
 2893SOL    HW120141   0.153   0.251   1.452 -1.2360  0.8093  0.1570
 2893SOL    HW220142   0.139   0.229   1.305  0.7908  0.4740 -1.0611
 2894SOL     OW20143   2.241   0.027  13.490  0.0085 -0.4095 -0.5896
 2894SOL    HW120144   2.258   0.074  13.572 -0.5916 -1.8297  0.3434
 2894SOL    HW220145   2.257   4.659  13.518  1.6402  0.3736  0.9502
 2895SOL     OW20146   2.717   1.422   2.999 -0.0770  0.2463  0.0032
 2895SOL    HW120147   2.777   1.492   3.026 -0.3093 -0.5638  2.6179
 2895SOL    HW220148   2.750   1.350   3.052 -1.2627 -0.5859 -0.3933
 2896SOL     OW20149   2.790   2.364   0.378 -0.1344  0.5734  0.1291
 2896SOL    HW120150   2.822   2.415   0.304  0.4811  0.2065  0.1417
 2896SOL    HW220151   2.873   2.325   0.406 -1.0255 -1.1556  0.3930
 2897SOL     OW20152   2.719   3.696  11.422 -0.0642  0.6293 -0.1910
 2897SOL    HW120153   2.803   3.650  11.414 -0.3012  0.0425  0.6818
 2897SOL    HW220154   2.719   3.732  11.510 -0.0723 -0.7146  0.3482
 2898SOL     OW20155   1.518   0.497   2.045 -0.0820  0.3410 -1.1761
 2898SOL    HW120156   1.464   0.490   2.123  1.0197  1.1745 -0.3383
 2898SOL    HW220157   1.602   0.519   2.087 -0.5908  1.2034 -0.6084
 2899SOL     OW20158   1.214   2.133   5.205 -0.1520  0.0728  0.5348
 2899SOL    HW120159   1.292   2.106   5.253 -1.3066 -0.5835  2.0453
 2899SOL    HW220160   1.247   2.130   5.115  0.4029  2.7086  0.6610
 2900SOL     OW20161   2.394   0.906   1.849 -0.4428 -0.1573  0.4896
 2900SOL    HW120162   2.421   0.983   1.799  1.1078 -2.2341 -1.8833
 2900SOL    HW220163   2.472   0.852   1.839  0.3608  1.0964 -0.0697
 2901SOL     OW20164   3.855   1.662   8.196  0.2676  0.1304  0.1449
 2901SOL    HW120165   3.935   1.637   8.151 -0.6682  0.1907 -1.5626
 2901SOL    HW220166   3.900   1.685   8.278 -0.4646  0.3769  0.4804
 2902SOL     OW20167   3.576   1.863  16.853 -0.0083  0.1674  0.3528
 2902SOL    HW120168   3.577   1.808  16.775 -2.5541  0.3166  0.2165
 2902SOL    HW220169   3.488   1.845  16.885 -0.0866  1.1511  0.6989
 2903SOL     OW20170   1.915   0.376   8.254  0.3344  0.4625  0.1000
 2903SOL    HW120171   1.882   0.418   8.333  0.2781 -1.5396  1.1485
 2903SOL    HW220172   1.880   0.433   8.186 -1.5094  0.1121  0.7816
 2904SOL     OW20173   0.128   2.106   1.658  0.1895  0.5199  0.1355
 2904SOL    HW120174   0.058   2.045   1.683  0.2306 -0.5535 -2.3990
 2904SOL    HW220175   0.087   2.151   1.583 -2.0421 -0.8754  0.4956
 2905SOL     OW20176   2.956   1.758   6.425 -0.2802 -0.1993 -0.0172
 2905SOL    HW120177   2.991   1.814   6.494 -1.0285 -2.5132  2.2040
 2905SOL    HW220178   3.015   1.683   6.423 -3.2425 -2.4363 -2.1875
 2906SOL     OW20179   2.640   3.932   9.791 -0.0630  0.4186  0.3381
 2906SOL    HW120180   2.605   4.016   9.820  0.2327  0.7074 -0.1349
 2906SOL    HW220181   2.552   3.893   9.792 -0.1209  0.5916  1.9799
 2907SOL     OW20182   2.566   3.948   6.483 -0.1126  0.5203  0.6156
 2907SOL    HW120183   2.652   3.975   6.451 -0.2001 -1.1576 -1.0876
 2907SOL    HW220184   2.518   4.031   6.477 -0.1770  0.4040 -0.5328
 2908SOL     OW20185   1.980   2.515   0.856 -0.2291 -0.2378 -0.1765
 2908SOL    HW120186   1.931   2.563   0.789  0.3001  0.3240 -0.1612
 2908SOL    HW220187   2.069   2.540   0.834  0.1443 -1.5929 -0.1847
 2909SOL     OW20188   4.510   0.642   3.950 -0.0902  0.1184  0.3634
 2909SOL    HW120189   4.510   0.687   3.865 -0.1621  0.8669  0.7591
 2909SOL    HW220190   4.492   0.554   3.917  1.7049 -0.1883  0.2159
 2910SOL     OW20191   2.252   2.096   3.717 -0.0461  0.3899  0.3025
 2910SOL    HW120192   2.193   2.131   3.784  0.8480  0.0153  1.2823
 2910SOL    HW220193   2.250   2.165   3.650 -0.3584 -0.0936 -0.1897
 2911SOL     OW20194   3.174   4.237   8.472 -0.3387  0.1057  0.0756
 2911SOL    HW120195   3.101   4.298   8.485 -2.0938 -2.2346  1.1112
 2911SOL    HW220196   3.139   4.178   8.538 -0.7717  0.4154  0.1266
 2912SOL     OW20197   2.813   1.351  14.350  0.4072  0.5767  0.3078
 2912SOL    HW120198   2.731   1.396  14.330  0.2104 -0.7932 -1.9780
 2912SOL    HW220199   2.798   1.267  14.308 -3.2180  2.7248 -2.6135
 2913SOL     OW20200   0.010   0.197  13.325  0.0820  0.2112 -0.0387
 2913SOL    HW120201   0.064   0.148  13.387  3.6509  2.1630 -1.5894
 2913SOL    HW220202   0.029   0.155  13.241 -1.9345 -1.4762  0.3502
 2914SOL     OW20203   1.880   4.182  14.696  0.8230 -0.0105  0.1452
 2914SOL    HW120204   1.907   4.273  14.704  1.0807 -0.2479  1.8335
 2914SOL    HW220205   1.923   4.137  14.769  2.5922  1.2884 -0.0859
 2915SOL     OW20206   2.017   2.586  16.786  0.1065  0.5472  0.1160
 2915SOL    HW120207   2.006   2.647  16.714  1.0809  0.8135  0.1895
 2915SOL    HW220208   1.994   2.505  16.741 -0.7107 -1.5343  4.3137
 2916SOL     OW20209   0.834   3.739  16.404  0.0379  0.1026  0.0373
 2916SOL    HW120210   0.852   3.711  16.494 -1.7675 -1.8546 -0.2355
 2916SOL    HW220211   0.806   3.830  16.420 -0.9458 -0.5023  1.7379
 2917SOL     OW20212   1.692   1.254   4.930  0.6594 -0.4290 -0.2240
 2917SOL    HW120213   1.785   1.276   4.934  1.3070 -3.0198 -1.3758
 2917SOL    HW220214   1.681   1.208   5.013 -1.0346 -0.0059 -0.2183
 2918SOL     OW20215   2.883   2.422   5.567  0.6490 -0.0902  0.7826
 2918SOL    HW120216   2.935   2.494   5.531 -0.2492  0.8453  1.3735
 2918SOL    HW220217   2.954   2.377   5.613  0.3008 -0.1621  1.2395
 2919SOL     OW20218   2.393   2.535  14.172 -0.3207  0.4806  0.1438
 2919SOL    HW120219   2.443   2.615  14.186 -0.9438  0.4577  2.4490
 2919SOL    HW220220   2.404   2.499  14.083  1.6045 -0.2193  0.6655
 2920SOL     OW20221   2.981   3.219   9.559  0.5434 -0.0264 -0.0324
 2920SOL    HW120222   2.949   3.281   9.624  1.7290  1.8746 -1.2571
 2920SOL    HW220223   3.007   3.268   9.481  0.5963 -1.3851 -0.8766
 2921SOL     OW20224   2.748   1.546   5.148  0.3212  0.1049 -0.8293
 2921SOL    HW120225   2.683   1.482   5.177 -0.1758  2.3106  3.0483
 2921SOL    HW220226   2.695   1.619   5.180  0.8270  0.0366  0.1575
 2922SOL     OW20227   1.302   1.335   4.517  0.3045 -0.2200  0.1454
 2922SOL    HW120228   1.218   1.314   4.475  0.6874 -0.5967 -0.4344
 2922SOL    HW220229   1.276   1.350   4.608  2.0050 -0.6700  0.6994
 2923SOL     OW20230   1.505   3.776  15.561 -0.1206 -0.0489 -0.6908
 2923SOL    HW120231   1.429   3.772  15.618  1.1050  1.3608  1.0189
 2923SOL    HW220232   1.543   3.688  15.571  2.1588  1.1157  0.7643
 2924SOL     OW20233   2.012   4.544   4.574 -0.0128 -0.5266 -0.2088
 2924SOL    HW120234   2.025   4.449   4.571 -0.1885 -0.6006  1.5647
 2924SOL    HW220235   1.982   4.563   4.485  1.4319 -1.0364 -0.8069
 2925SOL     OW20236   1.566   1.721   2.579 -0.0694  0.5877 -0.1351
 2925SOL    HW120237   1.512   1.655   2.536  0.7621  0.9544 -1.7252
 2925SOL    HW220238   1.510   1.742   2.655  0.8312  2.5044  0.0053
 2926SOL     OW20239   3.474   1.498  15.853 -0.8164 -0.7025  0.1700
 2926SOL    HW120240   3.396   1.451  15.821 -1.4450  0.6240 -0.2221
 2926SOL    HW220241   3.436   1.572  15.902  2.2739  1.3356 -0.5662
 2927SOL     OW20242   2.185   1.957   4.703 -0.0802  0.3664  0.1954
 2927SOL    HW120243   2.253   1.938   4.768 -0.0514 -0.2801 -0.0232
 2927SOL    HW220244   2.198   2.047   4.673 -0.9640  0.5616  0.3918
 2928SOL     OW20245   3.867   4.142   5.200 -0.6357  0.5830  0.0851
 2928SOL    HW120246   3.903   4.228   5.177  0.4367  0.1239  0.0227
 2928SOL    HW220247   3.946   4.088   5.206 -0.5638  0.9150  1.9492
 2929SOL     OW20248   2.179   4.071   2.460 -0.0017 -0.1443  0.2421
 2929SOL    HW120249   2.264   4.050   2.419  0.8099 -0.1130  1.9171
 2929SOL    HW220250   2.188   4.163   2.483  0.3247 -0.4333  1.2535
 2930SOL     OW20251   2.483   4.036   6.183 -0.0290  0.5571 -0.2437
 2930SOL    HW120252   2.470   4.090   6.105  1.1150  0.3669 -0.5690
 2930SOL    HW220253   2.578   4.027   6.178 -0.1739 -0.5272 -1.1450
 2931SOL     OW20254   0.803   3.616   3.484  0.1016 -0.3247 -0.2397
 2931SOL    HW120255   0.847   3.588   3.564 -0.4803 -0.4348  0.0439
 2931SOL    HW220256   0.879   3.611   3.426  0.8617  0.8395  0.6503
 2932SOL     OW20257   0.345   3.267   8.606 -0.6100 -0.4635  0.1798
 2932SOL    HW120258   0.316   3.184   8.642  0.1888 -0.5022  0.7499
 2932SOL    HW220259   0.365   3.323   8.682  1.8459 -1.1370  0.0418
 2933SOL     OW20260   1.797   0.056   2.321 -0.1886  1.2290  0.3936
 2933SOL    HW120261   1.748   4.696   2.324  0.0618  1.0405 -0.5415
 2933SOL    HW220262   1.877   0.036   2.369 -0.5214  0.2722  0.5475
 2934SOL     OW20263   2.124   0.067  13.065  0.3842  0.0070  0.1626
 2934SOL    HW120264   2.149   0.127  13.136  1.9207  1.0940 -1.3059
 2934SOL    HW220265   2.038   0.042  13.099 -0.9037  2.0642 -1.5868
 2935SOL     OW20266   2.081   2.255   9.474  0.4560 -0.2903  0.9438
 2935SOL    HW120267   2.020   2.246   9.547 -1.0471 -1.0289 -0.3960
 2935SOL    HW220268   2.139   2.179   9.472  0.3336 -0.4814  4.3496
 2936SOL     OW20269   1.955   0.407   1.576 -0.5287  0.9349 -0.0304
 2936SOL    HW120270   2.038   0.424   1.531 -0.5629 -2.3642 -1.3223
 2936SOL    HW220271   1.895   0.459   1.523 -0.7513  1.0288  0.3135
 2937SOL     OW20272   1.633   3.964   6.721  0.1265  0.1179 -0.0528
 2937SOL    HW120273   1.592   3.882   6.694  0.0584  0.1383 -0.0119
 2937SOL    HW220274   1.565   3.998   6.780  0.9978  3.4208 -0.9582
 2938SOL     OW20275   3.018   0.581   5.914 -0.0265 -0.4352  0.2763
 2938SOL    HW120276   2.968   0.648   5.867  0.7797  0.6805  1.0123
 2938SOL    HW220277   2.991   0.502   5.867 -1.5710  1.6721 -2.3702
 2939SOL     OW20278   2.909   0.810   7.232  0.0360 -0.4355 -0.4332
 2939SOL    HW120279   2.942   0.873   7.295 -1.2363 -0.2580  0.0491
 2939SOL    HW220280   2.987   0.762   7.205  1.4265  0.8880  1.2833
 2940SOL     OW20281   0.771   1.120  15.979 -0.3751 -0.3196 -0.3875
 2940SOL    HW120282   0.682   1.125  15.944 -1.0993 -2.9246  1.1146
 2940SOL    HW220283   0.769   1.075  16.063  0.7911 -2.2643 -1.3859
 2941SOL     OW20284   4.416   2.117   7.938  0.0056 -0.9249 -1.2304
 2941SOL    HW120285   4.483   2.049   7.932 -0.2710 -1.2313 -0.8748
 2941SOL    HW220286   4.342   2.075   7.981  0.1259  0.0866 -0.0263
 2942SOL     OW20287   2.446   0.966   3.748 -0.0233  0.2011  0.0314
 2942SOL    HW120288   2.518   1.027   3.763  1.2803 -0.5729 -3.0843
 2942SOL    HW220289   2.402   0.976   3.832  1.7802 -0.1377  1.0151
 2943SOL     OW20290   1.474   1.932   5.532 -0.0751 -0.9765 -0.2906
 2943SOL    HW120291   1.563   1.964   5.548 -0.3910  0.4056 -1.2600
 2943SOL    HW220292   1.431   1.954   5.615  1.0959 -0.4371  0.1668
 2944SOL     OW20293   0.279   2.885  10.647  0.2764  0.3426 -0.1592
 2944SOL    HW120294   0.360   2.934  10.658 -0.3093  1.3731 -0.3485
 2944SOL    HW220295   0.225   2.955  10.609 -2.7021 -1.8701 -0.0656
 2945SOL     OW20296   1.373   1.023  14.984 -0.2783  0.0010  0.2955
 2945SOL    HW120297   1.307   0.967  15.025  1.9149 -2.2708  0.8045
 2945SOL    HW220298   1.452   0.992  15.029  0.1082 -0.8100 -0.9597
 2946SOL     OW20299   1.758   2.546  14.402  0.1964 -0.0073  0.4379
 2946SOL    HW120300   1.729   2.468  14.354 -1.2318  0.8451 -0.0919
 2946SOL    HW220301   1.727   2.613  14.342  1.4487 -1.0204 -1.3444
 2947SOL     OW20302   3.895   3.183  10.830 -0.3476  0.0408  0.0659
 2947SOL    HW120303   3.836   3.257  10.839 -0.8030 -0.2735 -0.3172
 2947SOL    HW220304   3.913   3.193  10.737  1.2249  0.2016  0.3779
 2948SOL     OW20305   0.501   2.449   8.541 -0.2617  0.1822  0.0176
 2948SOL    HW120306   0.519   2.531   8.587  1.2894 -0.9660  1.4681
 2948SOL    HW220307   0.488   2.383   8.609 -0.4727  0.1512 -0.0536
 2949SOL     OW20308   1.701   4.409   2.000 -0.6054 -0.0354 -0.3477
 2949SOL    HW120309   1.717   4.486   1.944  1.1257 -0.1388 -0.0043
 2949SOL    HW220310   1.740   4.345   1.941  2.5107  1.4883  0.0726
 2950SOL     OW20311   1.502   4.334   6.742 -0.1530  0.5325 -0.1743
 2950SOL    HW120312   1.547   4.388   6.677  0.8407 -1.4450 -1.1126
 2950SOL    HW220313   1.506   4.399   6.812  0.8394 -0.1096  0.3637
 2951SOL     OW20314   1.030   1.745  10.260 -0.4753 -0.8677  0.2410
 2951SOL    HW120315   0.937   1.732  10.238 -0.8308 -0.1266  1.2898
 2951SOL    HW220316   1.076   1.676  10.213  0.7281 -0.3823  0.7065
 2952SOL     OW20317   4.561   0.895   6.887 -0.1452 -0.8392  0.0914
 2952SOL    HW120318   4.603   0.809   6.881  1.1573 -0.2823  1.2812
 2952SOL    HW220319   4.524   0.915   6.801 -1.0634  1.1560  0.9425
 2953SOL     OW20320   2.785   3.692   0.758 -0.1589 -0.1889 -0.2473
 2953SOL    HW120321   2.777   3.659   0.847  2.3354 -0.5777 -0.1802
 2953SOL    HW220322   2.862   3.747   0.768  0.5990 -1.1200 -0.9702
 2954SOL     OW20323   2.156   1.382   8.545  0.2651  0.1166 -0.1684
 2954SOL    HW120324   2.131   1.389   8.638 -0.9646 -1.6596 -0.3730
 2954SOL    HW220325   2.182   1.290   8.550  0.7990  0.2791 -0.0270
 2955SOL     OW20326   1.115   0.668  15.902 -0.8264  0.1397 -0.2622
 2955SOL    HW120327   1.066   0.746  15.875  0.1648  0.0923 -2.2266
 2955SOL    HW220328   1.140   0.684  15.993 -1.1270 -0.1598 -0.1249
 2956SOL     OW20329   0.198   3.162  13.872  0.1082  0.1310 -0.4028
 2956SOL    HW120330   0.227   3.219  13.800  0.4908  1.1046  0.5230
 2956SOL    HW220331   0.275   3.109  13.893  0.8811  1.5379  0.2847
 2957SOL     OW20332   1.289   2.265   4.266 -0.3041 -0.1626 -0.2690
 2957SOL    HW120333   1.275   2.330   4.334  2.8013 -0.1872  0.4102
 2957SOL    HW220334   1.314   2.308   4.184  2.0546  1.2617  1.1923
 2958SOL     OW20335   0.947   0.682   2.728  0.5732 -0.5321 -0.7943
 2958SOL    HW120336   0.913   0.657   2.642 -1.0232  0.7837 -0.5516
 2958SOL    HW220337   1.040   0.664   2.714  0.7512  0.9919 -1.5662
 2959SOL     OW20338   0.198   0.750  11.149  0.1696  0.0714 -0.1605
 2959SOL    HW120339   0.228   0.814  11.215  0.7098 -0.1772 -0.1649
 2959SOL    HW220340   0.264   0.688  11.179 -0.3145 -0.9534 -1.2170
 2960SOL     OW20341   3.112   0.364   5.139 -0.5720  0.3696  0.8790
 2960SOL    HW120342   3.185   0.360   5.201 -0.7743 -2.0388  0.9693
 2960SOL    HW220343   3.064   0.291   5.178 -0.1229 -1.1789 -1.5037
 2961SOL     OW20344   4.364   1.383  16.325  0.7732  0.2972 -0.0948
 2961SOL    HW120345   4.315   1.461  16.297 -0.1191 -0.2868 -0.1517
 2961SOL    HW220346   4.324   1.305  16.287 -0.5540  0.4600  0.9830
 2962SOL     OW20347   0.145   1.380   2.667 -0.0279 -0.2503  0.0321
 2962SOL    HW120348   0.126   1.324   2.742 -3.2178 -0.6543 -1.0529
 2962SOL    HW220349   0.195   1.322   2.610  1.6950  0.7747  0.5136
 2963SOL     OW20350   3.905   4.323  16.301 -0.0200  0.3992 -0.0220
 2963SOL    HW120351   3.865   4.403  16.268  1.0254  0.8239 -0.2464
 2963SOL    HW220352   3.946   4.298  16.218 -2.6798  0.1290 -1.2763
 2964SOL     OW20353   4.368   2.278   6.174 -0.1333 -0.3856  0.1111
 2964SOL    HW120354   4.278   2.246   6.179 -0.8247  1.2405 -1.8076
 2964SOL    HW220355   4.393   2.286   6.266  0.4345  0.6687 -0.1375
 2965SOL     OW20356   1.143   2.787   7.402 -0.7606 -0.7081  0.1014
 2965SOL    HW120357   1.137   2.714   7.464  2.3906 -1.0982 -0.0433
 2965SOL    HW220358   1.052   2.814   7.391 -0.8796 -1.3608 -0.4959
 2966SOL     OW20359   4.617   2.615   8.423  0.2500 -0.3427 -0.5618
 2966SOL    HW120360   4.689   2.656   8.375  0.5507  0.1711  0.3323
 2966SOL    HW220361   4.551   2.620   8.353 -0.7110 -0.7853  0.3195
 2967SOL     OW20362   4.327   3.635   3.866 -0.0800 -0.1020  0.7060
 2967SOL    HW120363   4.360   3.722   3.844  1.3910 -1.1836 -1.5107
 2967SOL    HW220364   4.325   3.595   3.778  1.1045 -1.0983  1.1276
 2968SOL     OW20365   3.221   2.058  14.867  0.4202 -0.0502 -0.7439
 2968SOL    HW120366   3.300   2.007  14.885  0.8601  0.6977 -0.5351
 2968SOL    HW220367   3.175   2.012  14.796  0.1647  1.9653 -1.8893
 2969SOL     OW20368   0.898   3.786   9.886  0.8399 -0.2761  0.0325
 2969SOL    HW120369   0.978   3.814   9.929  1.2606 -0.1635 -0.8278
 2969SOL    HW220370   0.933   3.760   9.801 -1.7074  0.7797 -1.3431
 2970SOL     OW20371   2.047   1.062  15.500 -0.2365 -0.0684 -0.3295
 2970SOL    HW120372   2.118   1.038  15.440 -0.2479 -0.1351 -0.3160
 2970SOL    HW220373   1.990   0.986  15.493  0.0243 -0.1477 -1.5706
 2971SOL     OW20374   3.204   2.883   4.723 -0.8432 -0.2448 -0.0545
 2971SOL    HW120375   3.188   2.798   4.682 -0.8900  0.0782 -0.7030
 2971SOL    HW220376   3.115   2.917   4.712  0.6972  3.5850 -0.6271
 2972SOL     OW20377   1.780   3.705  15.382  0.1178 -0.1478 -0.4965
 2972SOL    HW120378   1.777   3.762  15.459  1.7343  0.5700 -0.9695
 2972SOL    HW220379   1.832   3.627  15.404  0.3152  0.4963  1.3614
 2973SOL     OW20380   4.130   2.697   1.430  0.0750 -0.5500  0.4356
 2973SOL    HW120381   4.201   2.743   1.474 -0.2139  0.1825  0.1384
 2973SOL    HW220382   4.145   2.605   1.453 -1.3738 -0.9301 -0.1359
 2974SOL     OW20383   0.982   2.647  16.262 -0.5727  0.0643  0.3175
 2974SOL    HW120384   0.935   2.704  16.323 -0.1040 -0.2932  1.0135
 2974SOL    HW220385   0.927   2.659  16.185  0.6265 -1.6621 -0.8117
 2975SOL     OW20386   2.880   0.481   7.187  0.1299  0.4902  0.3924
 2975SOL    HW120387   2.875   0.523   7.102 -1.1211 -0.9363 -0.2455
 2975SOL    HW220388   2.802   0.425   7.179 -0.5461  1.6956 -1.2793
 2976SOL     OW20389   0.616   3.780  14.781  0.1702 -0.3664 -0.5995
 2976SOL    HW120390   0.599   3.691  14.812  0.2858 -0.4191 -0.6862
 2976SOL    HW220391   0.541   3.784  14.722 -0.3584 -2.7985 -0.0835
 2977SOL     OW20392   0.371   1.182   7.217  0.0750  0.3190 -0.0585
 2977SOL    HW120393   0.446   1.168   7.276 -1.8973  3.7582  3.2905
 2977SOL    HW220394   0.330   1.256   7.262  1.4431  0.0842  1.5953
 2978SOL     OW20395   0.353   0.370   2.702  0.0320 -0.9193 -0.0081
 2978SOL    HW120396   0.338   0.461   2.727 -0.3289 -0.7354 -0.8870
 2978SOL    HW220397   0.448   0.369   2.707  0.0708  0.0896 -0.5726
 2979SOL     OW20398   1.679   3.543   6.522  0.2404 -0.2899  0.0151
 2979SOL    HW120399   1.622   3.605   6.568  2.1393  0.4778  1.3762
 2979SOL    HW220400   1.738   3.510   6.590  2.9342  0.1025 -2.1202
 2980SOL     OW20401   3.414   4.328   9.227  0.1459  0.1876  0.0580
 2980SOL    HW120402   3.448   4.241   9.248  1.1064  0.6541  0.4732
 2980SOL    HW220403   3.471   4.349   9.153 -2.5416 -1.2116 -2.3643
 2981SOL     OW20404   4.435   2.245   8.755 -0.2592  0.6563  0.3135
 2981SOL    HW120405   4.382   2.322   8.777 -0.7197 -0.0107  1.5836
 2981SOL    HW220406   4.384   2.197   8.689  0.4442 -0.2970  0.4695
 2982SOL     OW20407   2.319   1.222  12.958  0.3168 -0.0095  0.3838
 2982SOL    HW120408   2.286   1.198  13.044  0.6080 -1.6303  0.0415
 2982SOL    HW220409   2.407   1.255  12.976 -0.1241  0.5535  1.4447
 2983SOL     OW20410   2.140   4.531  16.964  0.7838  0.1002  0.5735
 2983SOL    HW120411   2.063   4.588  16.961  1.2986  0.7999  0.5593
 2983SOL    HW220412   2.123   4.470  16.892  1.1634  1.8335 -0.9771
 2984SOL     OW20413   0.139   2.447   3.401  0.7067  0.5140  0.1271
 2984SOL    HW120414   0.117   2.398   3.322 -2.2697  1.4257  0.4026
 2984SOL    HW220415   0.209   2.499   3.360  1.2418  1.2920  2.0248
 2985SOL     OW20416   4.171   1.689   8.658 -0.4181  0.0384 -0.0125
 2985SOL    HW120417   4.238   1.745   8.697 -1.6267  2.0573 -0.8457
 2985SOL    HW220418   4.096   1.727   8.705  0.4655 -0.1220  1.5286
 2986SOL     OW20419   4.214   1.862   0.669  0.0808  0.2814 -0.2047
 2986SOL    HW120420   4.213   1.772   0.637  0.2443 -0.1714  1.0525
 2986SOL    HW220421   4.308   1.878   0.660  0.0211  0.4636 -0.4883
 2987SOL     OW20422   4.409   3.629   1.684  0.6821 -0.8314  0.2290
 2987SOL    HW120423   4.345   3.700   1.682 -1.0964 -2.4184  0.4950
 2987SOL    HW220424   4.488   3.678   1.707  0.1686  0.3976 -0.6296
 2988SOL     OW20425   3.767   2.083   6.800  0.2069  0.8542  0.1081
 2988SOL    HW120426   3.715   2.018   6.848  0.4807  1.1764  0.8359
 2988SOL    HW220427   3.808   2.023   6.737  0.6811 -0.2872  1.5039
 2989SOL     OW20428   3.206   4.511   5.926  0.1253 -0.2746  0.0287
 2989SOL    HW120429   3.209   4.530   6.020 -0.2759 -2.3733  0.4657
 2989SOL    HW220430   3.139   4.443   5.921  0.2733 -0.3062 -1.4465
 2990SOL     OW20431   0.435   2.522   3.321 -0.2714 -0.2756  0.0833
 2990SOL    HW120432   0.432   2.525   3.417  1.6090 -0.6027  0.1503
 2990SOL    HW220433   0.489   2.600   3.310  0.3776 -0.6155  0.8490
 2991SOL     OW20434   2.089   3.997   4.412 -0.1740  0.6959 -0.0070
 2991SOL    HW120435   2.019   3.973   4.472 -0.6513 -0.7012 -1.1022
 2991SOL    HW220436   2.146   3.920   4.420 -1.2572 -0.1939 -0.9003
 2992SOL     OW20437   0.977   3.471   7.664  0.6365  0.1359 -0.0189
 2992SOL    HW120438   0.886   3.441   7.668  0.4197  0.6318 -1.1942
 2992SOL    HW220439   0.978   3.548   7.607 -2.1118 -1.1788 -1.8134
 2993SOL     OW20440   3.637   0.884   9.246  0.0838 -0.3080  0.4912
 2993SOL    HW120441   3.649   0.810   9.306  2.9867 -1.0314 -0.9786
 2993SOL    HW220442   3.729   0.910   9.250 -0.3056  0.9904  0.8633
 2994SOL     OW20443   3.792   2.992   6.437  0.6025  0.5627 -0.4249
 2994SOL    HW120444   3.734   3.017   6.365 -1.4384  0.7164  1.2638
 2994SOL    HW220445   3.822   3.072   6.480  2.3924 -1.5174  2.1931
 2995SOL     OW20446   0.817   4.513   8.160  0.1646  0.0254 -0.0278
 2995SOL    HW120447   0.860   4.511   8.245 -1.1346  0.4981  0.6422
 2995SOL    HW220448   0.869   4.575   8.110  0.7459  0.0963  0.6665
 2996SOL     OW20449   1.659   1.007   7.423  0.2286  0.6300  0.6082
 2996SOL    HW120450   1.741   1.031   7.379 -1.2864  0.9659 -2.0686
 2996SOL    HW220451   1.606   1.084   7.401 -0.3348  0.4523  1.3475
 2997SOL     OW20452   3.429   1.962   9.228  0.5913 -0.7287  0.2660
 2997SOL    HW120453   3.458   2.019   9.157 -0.8257  0.2085  0.4241
 2997SOL    HW220454   3.338   1.936   9.213 -0.1640  0.4073  2.8768
 2998SOL     OW20455   4.455   2.357   3.968  0.2030  0.3672  0.4808
 2998SOL    HW120456   4.451   2.267   4.000  0.2977  0.3941  0.5675
 2998SOL    HW220457   4.363   2.370   3.944 -0.2293  1.1101  2.5267
 2999SOL     OW20458   0.446   4.083   2.095  0.0736  0.2679  0.5035
 2999SOL    HW120459   0.490   3.998   2.090  0.5130  0.5812 -0.8297
 2999SOL    HW220460   0.365   4.051   2.055  0.3412 -1.3454  1.2145
 3000SOL     OW20461   4.227   1.354  12.654  0.3125  0.2722  0.3998
 3000SOL    HW120462   4.182   1.304  12.585 -1.7040  1.6205  0.7218
 3000SOL    HW220463   4.238   1.286  12.720  1.2643  1.3720  1.3593
 3001SOL     OW20464   1.997   1.719   5.866  0.5866 -0.9211  0.6886
 3001SOL    HW120465   1.984   1.767   5.784  1.8156 -2.3209 -0.3336
 3001SOL    HW220466   2.030   1.635   5.834  1.6023  0.0489 -0.8300
 3002SOL     OW20467   0.229   2.553   7.638 -0.0826 -0.0585 -0.8486
 3002SOL    HW120468   0.177   2.497   7.581 -0.1334 -0.9033  0.0278
 3002SOL    HW220469   0.317   2.528   7.609  0.0389 -1.2058  0.4804
 3003SOL     OW20470   4.528   4.298   8.450 -0.4354 -0.0499 -0.2092
 3003SOL    HW120471   4.468   4.372   8.445  0.3728  0.6040 -0.1541
 3003SOL    HW220472   4.570   4.290   8.365  0.0618  2.2002 -0.1677
 3004SOL     OW20473   0.266   1.921  14.457 -1.1729 -0.7126 -0.4340
 3004SOL    HW120474   0.271   1.917  14.552 -1.5572  0.5066 -0.3622
 3004SOL    HW220475   0.276   1.829  14.434  1.5694 -0.5188  0.0117
 3005SOL     OW20476   2.408   2.785   3.979  0.1429  0.1750  0.3377
 3005SOL    HW120477   2.324   2.742   3.993 -0.1331  0.2802 -0.9845
 3005SOL    HW220478   2.416   2.774   3.884 -0.0528 -1.7202  0.5340
 3006SOL     OW20479   4.699   2.283   8.775  0.2359  0.2452 -0.0999
 3006SOL    HW120480   4.611   2.245   8.776  0.6008 -0.5239  2.2519
 3006SOL    HW220481   4.702   2.326   8.689  0.6069 -1.3175 -0.8688
 3007SOL     OW20482   4.639   0.722   1.986  0.1082  1.0182  0.3716
 3007SOL    HW120483   4.552   0.730   1.946 -0.2525 -0.2154  0.9136
 3007SOL    HW220484   4.630   0.634   2.022 -0.2601 -0.6612 -3.7661
 3008SOL     OW20485   3.559   2.409   6.225  0.0291 -0.3920  0.6650
 3008SOL    HW120486   3.507   2.488   6.241 -0.5990 -1.1649  2.4783
 3008SOL    HW220487   3.561   2.366   6.310  0.5033  3.8812  2.8015
 3009SOL     OW20488   2.776   3.007   9.103 -0.0478 -0.1930  0.1254
 3009SOL    HW120489   2.850   3.068   9.098 -1.1521  1.0490 -0.9996
 3009SOL    HW220490   2.750   3.013   9.194 -1.6733 -3.8247 -0.0857
 3010SOL     OW20491   0.785   1.615  13.839 -0.5430  0.0947 -0.9665
 3010SOL    HW120492   0.827   1.569  13.911  0.8158  0.8924 -1.2581
 3010SOL    HW220493   0.860   1.671  13.818 -0.5574  0.5235  0.1206
 3011SOL     OW20494   2.739   4.363  11.065  0.2169 -0.4048 -0.3555
 3011SOL    HW120495   2.760   4.320  11.147  0.4212  3.1290  1.4453
 3011SOL    HW220496   2.646   4.383  11.076  0.7347  2.2094 -0.8135
 3012SOL     OW20497   4.041   3.233   7.338  0.2294 -0.1269  0.2608
 3012SOL    HW120498   3.979   3.160   7.331  0.4629 -0.3940  0.9527
 3012SOL    HW220499   4.008   3.272   7.419 -0.3146 -1.2677  0.5882
 3013SOL     OW20500   2.113   3.207  16.707  0.2233  0.1671 -0.4038
 3013SOL    HW120501   2.077   3.232  16.792 -0.5704 -0.4279 -0.5585
 3013SOL    HW220502   2.195   3.256  16.703  0.9817 -0.9475  1.8432
 3014SOL     OW20503   0.055   3.965  10.228  0.0034  0.0555 -0.2338
 3014SOL    HW120504   4.707   3.902  10.244 -0.7561  1.6643  2.7289
 3014SOL    HW220505   0.011   4.049  10.235  2.3659  1.1279  1.7295
 3015SOL     OW20506   0.249   1.820   4.629  0.0177  0.2902  0.2338
 3015SOL    HW120507   0.315   1.870   4.581  0.0929 -0.0394 -0.0047
 3015SOL    HW220508   0.275   1.833   4.720 -0.6889 -0.2158  0.5101
 3016SOL     OW20509   1.201   0.212   3.210  0.1494 -0.0695  0.3712
 3016SOL    HW120510   1.162   0.253   3.287 -1.0686 -0.6949  0.0753
 3016SOL    HW220511   1.267   0.276   3.180  1.0349 -0.5473  1.2744
 3017SOL     OW20512   0.476   1.357  11.840 -0.3476 -0.4910  0.0653
 3017SOL    HW120513   0.385   1.363  11.870 -0.4566  0.7843 -0.5038
 3017SOL    HW220514   0.531   1.398  11.907  0.0990 -0.2094 -0.4698
 3018SOL     OW20515   3.843   4.065  13.349 -0.0541  0.0461  0.0899
 3018SOL    HW120516   3.898   3.993  13.320  0.4591  0.6126 -0.3489
 3018SOL    HW220517   3.911   4.132  13.344  0.2915 -0.3848 -0.8597
 3019SOL     OW20518   4.559   3.785  10.279  0.2991  0.1621 -0.2415
 3019SOL    HW120519   4.478   3.786  10.227 -1.0442 -0.3666  1.8432
 3019SOL    HW220520   4.590   3.695  10.271  1.6080  0.5106  0.8118
 3020SOL     OW20521   0.240   0.274  11.359  0.3000 -0.2634  0.8683
 3020SOL    HW120522   0.176   0.290  11.429 -0.2386  0.0052  0.3151
 3020SOL    HW220523   0.189   0.219  11.299  1.3831  0.1186 -0.3702
 3021SOL     OW20524   4.694   1.266   3.673 -0.0386 -0.4117 -0.2785
 3021SOL    HW120525   4.722   1.250   3.583 -1.8130 -1.1610 -0.6901
 3021SOL    HW220526   0.048   1.229   3.718 -1.4342 -1.2114  1.4160
 3022SOL     OW20527   1.476   0.827   4.093 -0.1873  0.1829 -0.5998
 3022SOL    HW120528   1.553   0.882   4.103 -0.4033  0.0593  1.8658
 3022SOL    HW220529   1.474   0.773   4.172 -2.1808  0.0844 -0.7245
 3023SOL     OW20530   2.235   1.106  17.073 -0.2972 -0.3127 -0.4380
 3023SOL    HW120531   2.278   1.064  16.998 -1.6333 -1.3990 -0.6040
 3023SOL    HW220532   2.246   1.041  17.142  0.4104  1.1391  0.8174
 3024SOL     OW20533   2.879   4.027  12.807  0.0275  0.2020  0.0301
 3024SOL    HW120534   2.803   4.085  12.817 -0.6860 -0.4617 -1.6675
 3024SOL    HW220535   2.948   4.091  12.825 -0.5460  0.8053  0.0753
 3025SOL     OW20536   0.483   1.644   2.631 -0.0841 -0.2454 -0.5039
 3025SOL    HW120537   0.506   1.696   2.554 -1.4453  1.9996  0.6048
 3025SOL    HW220538   0.551   1.577   2.630  2.6334  2.5805 -3.5549
 3026SOL     OW20539   4.423   1.385   3.640 -0.0100  0.3190 -0.4729
 3026SOL    HW120540   4.375   1.349   3.566 -1.6461 -2.3261  1.8928
 3026SOL    HW220541   4.503   1.331   3.643 -1.3177 -1.4896  1.8171
 3027SOL     OW20542   0.819   4.016   3.058  0.0210 -0.3369  0.0969
 3027SOL    HW120543   0.794   3.985   3.145 -0.4960 -0.6805 -0.1775
 3027SOL    HW220544   0.878   3.945   3.031  1.6150  0.9228  0.2282
 3028SOL     OW20545   1.788   0.877   0.906  0.1813 -0.3382 -0.2183
 3028SOL    HW120546   1.705   0.913   0.876  0.7084 -0.1082 -1.4273
 3028SOL    HW220547   1.775   0.787   0.874  1.4067 -0.0378 -1.5895
 3029SOL     OW20548   4.130   1.804   0.004  0.4377 -0.1481  0.0691
 3029SOL    HW120549   4.181   1.862  17.638  1.1464 -0.4049  0.4389
 3029SOL    HW220550   4.074   1.869   0.047 -0.1823  0.4032 -1.5805
 3030SOL     OW20551   3.753   2.433  12.548 -0.5566  0.4063  0.1202
 3030SOL    HW120552   3.743   2.455  12.456  2.2464  0.0309 -0.2619
 3030SOL    HW220553   3.678   2.476  12.589 -3.0887 -1.5410 -2.4687
 3031SOL     OW20554   3.731   1.290   4.911  0.3429  0.1291  0.0396
 3031SOL    HW120555   3.785   1.286   4.832  0.4702  0.2107  0.1236
 3031SOL    HW220556   3.646   1.259   4.880 -0.2714 -0.9128  2.7717
 3032SOL     OW20557   0.512   0.015   9.603  0.0760 -0.1397  0.2509
 3032SOL    HW120558   0.545   0.054   9.684  0.1520 -0.2674  0.2818
 3032SOL    HW220559   0.516   0.079   9.531  0.2249  1.1607  1.4142
 3033SOL     OW20560   1.385   1.454   7.882 -0.7555 -0.1029  0.7728
 3033SOL    HW120561   1.447   1.385   7.859  2.5938  2.9201  0.6395
 3033SOL    HW220562   1.311   1.397   7.899 -1.0426 -0.3118 -1.2031
 3034SOL     OW20563   2.873   3.034  11.664 -0.3441 -0.1080 -0.5540
 3034SOL    HW120564   2.937   3.104  11.677 -0.2165 -0.0922 -1.3207
 3034SOL    HW220565   2.812   3.061  11.733  0.0831 -1.2586  0.2801
 3035SOL     OW20566   3.405   3.466  15.657 -0.1764 -0.2727  0.4516
 3035SOL    HW120567   3.348   3.531  15.614 -0.9256 -0.8340  0.5974
 3035SOL    HW220568   3.400   3.504  15.745 -0.6468  0.9291 -0.0875
 3036SOL     OW20569   2.574   2.963  11.670 -0.4183 -0.0265 -0.4039
 3036SOL    HW120570   2.604   3.011  11.747  0.6774 -1.7276  0.2274
 3036SOL    HW220571   2.490   2.924  11.694 -0.7186 -0.8698 -2.9021
 3037SOL     OW20572   3.807   0.734   6.155  0.2635 -0.2929  0.1347
 3037SOL    HW120573   3.899   0.712   6.141 -0.3554 -1.5279 -1.9082
 3037SOL    HW220574   3.818   0.828   6.172 -3.7680  0.0981  0.6257
 3038SOL     OW20575   0.650   0.315   3.417 -0.2842  0.2061 -1.1182
 3038SOL    HW120576   0.679   0.275   3.499 -0.4480 -3.0256 -2.6269
 3038SOL    HW220577   0.717   0.383   3.411  1.7078 -1.5969  0.6310
 3039SOL     OW20578   4.158   0.850   3.312 -0.3758  0.1953  0.1244
 3039SOL    HW120579   4.191   0.856   3.402  1.2269 -2.3996 -0.2836
 3039SOL    HW220580   4.194   0.929   3.272  1.7126 -0.1546  1.3393
 3040SOL     OW20581   2.409   0.292  10.936 -0.2747 -0.3048 -0.0559
 3040SOL    HW120582   2.399   0.199  10.916  0.0883 -0.2112 -0.6453
 3040SOL    HW220583   2.504   0.294  10.929 -0.0117 -2.1232  2.8750
 3041SOL     OW20584   4.134   3.692   6.865  0.0252  0.6952 -0.2228
 3041SOL    HW120585   4.221   3.719   6.895  0.7637 -1.4322 -0.4360
 3041SOL    HW220586   4.137   3.708   6.771 -0.4068  1.4576 -0.1013
 3042SOL     OW20587   0.657   0.817   1.534  0.5258  0.2301 -0.1576
 3042SOL    HW120588   0.632   0.887   1.595  1.3762 -1.9459  2.6780
 3042SOL    HW220589   0.745   0.798   1.566  0.1836  3.3158  2.6641
 3043SOL     OW20590   0.657   4.326   4.871 -0.3791  0.2688  0.4723
 3043SOL    HW120591   0.711   4.288   4.801  0.2906 -0.6799  1.5038
 3043SOL    HW220592   0.678   4.419   4.864 -1.3011  0.4276 -0.2473
 3044SOL     OW20593   3.328   2.830  12.571  0.5675  0.0805 -0.0665
 3044SOL    HW120594   3.412   2.825  12.526  0.6919  1.0290  0.0738
 3044SOL    HW220595   3.275   2.762  12.529  1.6460 -1.0269  0.3482
 3045SOL     OW20596   0.886   3.757  14.875 -0.0159 -0.5964 -0.4068
 3045SOL    HW120597   0.803   3.800  14.852 -0.0912 -0.8251 -0.5601
 3045SOL    HW220598   0.873   3.665  14.853  0.0685 -0.7488  0.1848
 3046SOL     OW20599   4.397   3.468   1.910  0.4374 -0.2599 -0.5258
 3046SOL    HW120600   4.396   3.504   1.821  0.2486  2.9752  0.7680
 3046SOL    HW220601   4.413   3.377   1.887  2.9769  0.0500  0.0630
 3047SOL     OW20602   4.536   1.925   4.723 -0.2593 -0.3008 -0.0082
 3047SOL    HW120603   4.457   1.947   4.773  1.4183  2.8180  1.2482
 3047SOL    HW220604   4.548   2.008   4.678 -1.4204 -0.2167 -0.1632
 3048SOL     OW20605   3.110   4.349   1.856  0.7030  0.3243 -0.2444
 3048SOL    HW120606   3.106   4.253   1.864  1.0579  0.4481  1.5259
 3048SOL    HW220607   3.201   4.366   1.830  0.4555  1.2271 -0.5061
 3049SOL     OW20608   0.670   2.859   7.096  0.7661  0.4362  0.6406
 3049SOL    HW120609   0.709   2.786   7.048 -0.0900  0.3029  0.1385
 3049SOL    HW220610   0.740   2.903   7.146  1.4650 -0.9250  0.8450
 3050SOL     OW20611   1.694   0.916   3.625  0.0821 -0.3575 -0.7480
 3050SOL    HW120612   1.783   0.937   3.597  0.4276  1.2782  1.5717
 3050SOL    HW220613   1.675   0.983   3.691  0.4054 -3.5102  2.5802
 3051SOL     OW20614   0.353   0.934  16.095  0.2062 -0.4668 -0.5703
 3051SOL    HW120615   0.434   0.926  16.147 -0.3457 -2.3667 -0.0034
 3051SOL    HW220616   0.329   0.841  16.102 -1.5237 -0.0964 -1.7577
 3052SOL     OW20617   2.534   3.804  14.155 -0.2886  0.0747 -0.2581
 3052SOL    HW120618   2.610   3.853  14.186  0.2244 -0.3776 -0.8088
 3052SOL    HW220619   2.571   3.719  14.134 -1.8200 -0.2971 -1.4687
 3053SOL     OW20620   1.744   3.567   1.360  0.1904  0.4915  0.4826
 3053SOL    HW120621   1.657   3.591   1.392  1.1088  1.4046  2.3041
 3053SOL    HW220622   1.793   3.634   1.408  2.5211 -0.9107  0.0287
 3054SOL     OW20623   0.847   3.137   6.306  0.1127 -0.0658  0.9541
 3054SOL    HW120624   0.764   3.090   6.306 -1.2170  2.3024  1.4720
 3054SOL    HW220625   0.835   3.218   6.256 -0.1112 -1.0021 -0.4777
 3055SOL     OW20626   0.782   0.236  17.380 -0.2852 -0.8677 -0.3389
 3055SOL    HW120627   0.856   0.188  17.415  0.0906 -0.5187 -0.6546
 3055SOL    HW220628   0.801   0.327  17.404  1.4751 -1.1551 -0.6591
 3056SOL     OW20629   0.677   1.686   7.803 -0.1092  0.2172 -0.2700
 3056SOL    HW120630   0.641   1.598   7.812  1.4793 -0.2774  1.3740
 3056SOL    HW220631   0.748   1.656   7.747 -0.7070  0.7552 -1.3059
 3057SOL     OW20632   0.933   4.369   4.160  0.1280  0.1155  0.3057
 3057SOL    HW120633   0.883   4.450   4.156  0.0640  0.0284 -0.6924
 3057SOL    HW220634   0.959   4.369   4.068  1.7701 -1.6402  0.7541
 3058SOL     OW20635   3.434   0.309  13.404  0.3145  0.1954 -0.4965
 3058SOL    HW120636   3.409   0.246  13.336  3.5255 -2.2331  0.6013
 3058SOL    HW220637   3.448   0.379  13.339  3.0181  1.1548  1.1612
 3059SOL     OW20638   2.840   0.641   8.782 -0.0088 -0.9694 -0.1444
 3059SOL    HW120639   2.777   0.663   8.850 -1.5463  0.6023 -2.0636
 3059SOL    HW220640   2.856   0.547   8.790  1.2599 -0.8288 -0.9152
 3060SOL     OW20641   2.738   3.365   0.655  0.3429  0.0388 -0.1637
 3060SOL    HW120642   2.729   3.415   0.736 -3.8817  0.0156 -0.6478
 3060SOL    HW220643   2.649   3.331   0.653  0.5603 -0.4242 -2.2220
 3061SOL     OW20644   3.732   1.734  10.487 -0.8665  0.4322  0.4219
 3061SOL    HW120645   3.725   1.726  10.392 -0.8826 -3.4624  0.7731
 3061SOL    HW220646   3.820   1.700  10.502 -0.7086  0.1510 -1.1553
 3062SOL     OW20647   0.698   2.726   3.932  0.1250  0.5820 -0.4634
 3062SOL    HW120648   0.724   2.788   4.000 -0.4332  0.1912  0.1089
 3062SOL    HW220649   0.759   2.655   3.951 -1.6390 -0.5273  1.1332
 3063SOL     OW20650   1.722   2.348  11.375 -0.8523  0.3876 -0.4998
 3063SOL    HW120651   1.704   2.416  11.310  1.8387 -1.3561 -3.0868
 3063SOL    HW220652   1.680   2.380  11.455  1.1627  0.5215  0.5090
 3064SOL     OW20653   1.105   0.385   3.393  0.2461 -0.1467  0.0510
 3064SOL    HW120654   1.129   0.418   3.307  2.9669 -1.4218  0.2977
 3064SOL    HW220655   1.074   0.459   3.445 -2.2088 -2.8120  2.4347
 3065SOL     OW20656   2.525   1.756  10.480  0.2410 -0.0011 -0.0862
 3065SOL    HW120657   2.501   1.844  10.506 -2.0626 -0.3645 -1.0321
 3065SOL    HW220658   2.489   1.761  10.391 -1.6231 -2.7218  0.5104
 3066SOL     OW20659   2.264   3.839   7.838  0.4956 -0.2616  0.3790
 3066SOL    HW120660   2.350   3.800   7.857  0.2449 -2.0268 -1.9785
 3066SOL    HW220661   2.234   3.788   7.763 -2.0825 -1.2136  2.0563
 3067SOL     OW20662   3.682   1.542   6.739  0.7473  0.0630  0.0647
 3067SOL    HW120663   3.589   1.564   6.729  0.9312  0.5504 -0.5480
 3067SOL    HW220664   3.722   1.599   6.673 -0.7792  0.5856 -0.4192
 3068SOL     OW20665   1.115   2.762   3.369  0.3623  0.1824  0.1147
 3068SOL    HW120666   1.035   2.713   3.349  0.0487  1.2663 -1.2959
 3068SOL    HW220667   1.176   2.696   3.401 -0.6867 -0.1792  1.3657
 3069SOL     OW20668   2.802   0.505   9.105 -0.0103  0.3153 -0.2916
 3069SOL    HW120669   2.729   0.548   9.060 -2.9189 -3.8991  0.4085
 3069SOL    HW220670   2.784   0.412   9.091 -0.8632  0.4326  0.0540
 3070SOL     OW20671   3.997   2.276  16.585 -0.6651  0.1513  0.3409
 3070SOL    HW120672   3.954   2.315  16.662 -1.0210  0.4914 -0.0276
 3070SOL    HW220673   4.079   2.244  16.622  0.3188  1.1251 -0.9813
 3071SOL     OW20674   2.566   3.319  10.146 -0.2043 -0.1136  0.6416
 3071SOL    HW120675   2.577   3.347  10.055  1.3291 -1.7112  0.3346
 3071SOL    HW220676   2.579   3.404  10.188  1.1664 -0.1256  0.2418
 3072SOL     OW20677   3.530   1.372  11.256 -0.1312  0.1441 -0.6967
 3072SOL    HW120678   3.469   1.299  11.265  0.1123 -0.0307 -0.4845
 3072SOL    HW220679   3.513   1.392  11.164 -0.3335  2.8464 -0.0703
 3073SOL     OW20680   2.407   3.586   7.222 -0.2244 -0.1444  0.1982
 3073SOL    HW120681   2.389   3.612   7.132  0.1931  1.3824  0.5502
 3073SOL    HW220682   2.420   3.492   7.212 -0.1250  0.2216 -3.1312
 3074SOL     OW20683   2.306   1.108   8.321  0.2224  0.2202  0.0186
 3074SOL    HW120684   2.249   1.148   8.255  1.0303  0.6962 -0.4024
 3074SOL    HW220685   2.259   1.100   8.403  0.1015  0.8847  0.0133
 3075SOL     OW20686   1.431   0.387   6.268 -0.1808 -0.1266 -0.0724
 3075SOL    HW120687   1.409   0.460   6.326 -0.3836 -0.6300  0.4908
 3075SOL    HW220688   1.512   0.351   6.305 -0.9582 -1.0562  0.7274
 3076SOL     OW20689   0.035   3.218   7.903 -0.1955  0.0514 -0.3150
 3076SOL    HW120690   0.051   3.288   7.967  0.1377 -0.9721  0.7394
 3076SOL    HW220691   4.714   3.150   7.956 -2.3827  1.1366 -0.7300
 3077SOL     OW20692   1.776   1.821   1.362  0.0605  0.0580 -0.1347
 3077SOL    HW120693   1.681   1.826   1.367  0.2299  3.1085 -0.3714
 3077SOL    HW220694   1.800   1.728   1.359 -0.9939 -0.1510 -1.9193
 3078SOL     OW20695   4.305   3.689   2.316 -0.3052  0.5720  0.2553
 3078SOL    HW120696   4.252   3.670   2.239  2.5686 -2.5634 -0.9203
 3078SOL    HW220697   4.308   3.598   2.345 -0.6356 -0.0575 -1.7086
 3079SOL     OW20698   4.050   3.404   4.440  0.2479 -0.0181 -0.5381
 3079SOL    HW120699   4.037   3.496   4.463 -0.8595 -0.2968 -0.0852
 3079SOL    HW220700   3.965   3.374   4.470  0.8526 -2.1144 -0.9440
 3080SOL     OW20701   4.269   0.035   1.231  0.6268  0.1647  0.0729
 3080SOL    HW120702   4.213   0.072   1.299 -0.0795  0.2673 -0.5683
 3080SOL    HW220703   4.258   0.103   1.164  0.8249 -0.1807 -0.3151
 3081SOL     OW20704   3.203   2.825   7.142 -0.3811  0.1940  0.0928
 3081SOL    HW120705   3.279   2.877   7.167 -0.1151  0.0690 -0.4347
 3081SOL    HW220706   3.237   2.739   7.167  2.0494  0.9429 -0.6180
 3082SOL     OW20707   1.633   0.014  14.913  0.1415  0.6189 -0.5237
 3082SOL    HW120708   1.637   4.714  14.820 -0.4363 -0.9182 -0.1923
 3082SOL    HW220709   1.569   4.671  14.941 -0.8319  1.1552 -1.4976
 3083SOL     OW20710   0.631   0.902   9.117  0.2253 -0.1205  0.0553
 3083SOL    HW120711   0.636   0.967   9.048  0.5840  2.7448  2.7614
 3083SOL    HW220712   0.623   0.963   9.191 -0.4638 -2.2121  1.7282
 3084SOL     OW20713   1.816   0.006   5.185 -0.5264 -0.0637 -0.2922
 3084SOL    HW120714   1.729   4.694   5.164 -0.2763  0.2149 -1.7914
 3084SOL    HW220715   1.801   0.061   5.262  0.4206  0.0806 -0.2063
 3085SOL     OW20716   3.384   3.607   1.216  0.7177 -0.0497 -0.4368
 3085SOL    HW120717   3.378   3.699   1.242  0.3037 -0.3945  0.6863
 3085SOL    HW220718   3.444   3.625   1.143 -0.9440  0.6194 -1.6524
 3086SOL     OW20719   0.503   1.120  15.914  0.2669  0.1371  0.2949
 3086SOL    HW120720   0.488   1.062  15.839 -1.6026  1.7920 -0.5972
 3086SOL    HW220721   0.438   1.083  15.974 -0.7710  1.1729 -0.1836
 3087SOL     OW20722   2.346   0.727  12.707 -0.6200  0.3513 -0.1277
 3087SOL    HW120723   2.341   0.813  12.751  1.5940  0.3108  0.1864
 3087SOL    HW220724   2.440   0.710  12.713 -0.6135  0.2363 -0.6117
 3088SOL     OW20725   4.479   1.044   9.182  0.0184  0.9136  0.5047
 3088SOL    HW120726   4.537   1.099   9.235  0.1740  2.2399 -1.0601
 3088SOL    HW220727   4.446   1.109   9.120 -1.0896 -0.7056 -0.6158
 3089SOL     OW20728   2.412   1.374   9.977  0.1030 -0.3464  0.3655
 3089SOL    HW120729   2.497   1.332   9.993 -0.2276 -0.0299  2.8391
 3089SOL    HW220730   2.380   1.324   9.902  0.6092  0.9296 -0.7049
 3090SOL     OW20731   3.601   2.794  12.578  0.1577 -0.1813 -0.2058
 3090SOL    HW120732   3.677   2.763  12.529 -1.1855 -0.8203 -1.9022
 3090SOL    HW220733   3.617   2.749  12.661 -1.2316  1.6281  1.0509
 3091SOL     OW20734   0.910   0.716   3.082 -0.1324 -0.2356  0.4521
 3091SOL    HW120735   0.833   0.721   3.025 -0.0119 -0.7511  0.2436
 3091SOL    HW220736   0.970   0.672   3.022 -0.6256 -0.4924  0.1504
 3092SOL     OW20737   1.254   3.079   6.240  0.3539  0.6162 -0.8308
 3092SOL    HW120738   1.339   3.109   6.207  1.2524 -0.6833  0.2485
 3092SOL    HW220739   1.266   3.077   6.335 -0.0470  2.8743 -0.7367
 3093SOL     OW20740   2.189   3.804  13.318 -0.0666 -0.6264  0.5151
 3093SOL    HW120741   2.138   3.885  13.330  0.6781  0.1760 -1.7190
 3093SOL    HW220742   2.121   3.746  13.351 -0.3072 -0.0590  1.0301
 3094SOL     OW20743   3.506   0.724   4.473 -0.2972  0.2448  0.1522
 3094SOL    HW120744   3.469   0.673   4.401  0.7968  0.7843 -0.7828
 3094SOL    HW220745   3.430   0.777   4.495 -1.1280 -0.9525  0.1957
 3095SOL     OW20746   0.419   2.704   4.468 -0.0626  0.4925  0.3988
 3095SOL    HW120747   0.478   2.768   4.427 -1.3252  0.7804 -0.9786
 3095SOL    HW220748   0.405   2.647   4.392 -1.6963  0.2229  0.9165
 3096SOL     OW20749   1.767   0.519   4.488 -0.4822 -0.1431 -0.1101
 3096SOL    HW120750   1.680   0.492   4.517 -1.4278  1.1852 -1.7030
 3096SOL    HW220751   1.816   0.499   4.567 -0.6101  1.1558  0.2960
 3097SOL     OW20752   4.333   4.662   6.803 -0.3020 -0.1906  0.6752
 3097SOL    HW120753   4.382   4.708   6.871  0.1663 -1.6392  1.3188
 3097SOL    HW220754   4.373   4.692   6.722 -0.5479 -1.2714  0.1513
 3098SOL     OW20755   0.535   2.669   7.598 -0.2328  0.1293 -0.3752
 3098SOL    HW120756   0.549   2.649   7.505 -0.2827 -0.7397 -0.1997
 3098SOL    HW220757   0.523   2.581   7.633  1.1217 -0.5915 -1.6844
 3099SOL     OW20758   3.636   2.762   7.956 -0.5243  0.4643 -0.4648
 3099SOL    HW120759   3.598   2.740   8.041  0.7810  0.0638  0.0100
 3099SOL    HW220760   3.729   2.757   7.978 -0.7363 -1.6692 -0.0205
 3100SOL     OW20761   4.012   3.969  12.174  0.1310 -0.5510 -0.1623
 3100SOL    HW120762   4.089   3.998  12.222  0.0418  0.0452 -0.3763
 3100SOL    HW220763   3.967   3.912  12.236  0.4088  0.7009  1.1757
 3101SOL     OW20764   1.897   0.661   7.310 -0.0830  0.4361  0.1762
 3101SOL    HW120765   1.905   0.584   7.367 -0.2130 -0.0692 -0.4967
 3101SOL    HW220766   1.967   0.712   7.350 -1.2485  1.4531  0.9565
 3102SOL     OW20767   0.526   2.070  17.468  0.1339 -0.0268 -0.2663
 3102SOL    HW120768   0.566   1.984  17.465 -0.3858 -0.2007 -2.4566
 3102SOL    HW220769   0.523   2.081  17.563 -0.9697  2.4146 -0.5821
 3103SOL     OW20770   4.176   2.989   1.074  0.1797 -0.0968 -0.0129
 3103SOL    HW120771   4.200   2.896   1.081  0.2370 -0.0407  0.5254
 3103SOL    HW220772   4.174   3.017   1.166 -2.3511 -2.0188  0.5420
 3104SOL     OW20773   3.845   1.669  14.210  0.0073  0.0847  0.1190
 3104SOL    HW120774   3.791   1.679  14.132 -1.7628  1.6948  1.5512
 3104SOL    HW220775   3.829   1.751  14.257  0.4005 -0.9267  1.9960
 3105SOL     OW20776   4.420   0.624   9.355 -0.0402 -0.2142 -0.4237
 3105SOL    HW120777   4.351   0.609   9.290 -1.8183  0.2433  1.3488
 3105SOL    HW220778   4.387   0.711   9.378 -0.4806 -0.9639  1.7583
 3106SOL     OW20779   2.772   0.224   6.905 -0.6197 -0.2896  0.4855
 3106SOL    HW120780   2.690   0.206   6.951 -0.3854 -0.1917  0.9423
 3106SOL    HW220781   2.761   0.319   6.896 -0.5558 -0.2069  1.2824
 3107SOL     OW20782   1.649   4.625   3.421  0.0461 -0.1527  0.6164
 3107SOL    HW120783   1.626   4.708   3.378  1.0826  0.2384  0.8346
 3107SOL    HW220784   1.576   4.567   3.396  0.5218 -0.4389 -0.1108
 3108SOL     OW20785   0.256   1.515   5.039  0.6244  0.4687 -0.4932
 3108SOL    HW120786   0.253   1.525   4.944  0.3411  0.8607 -0.4466
 3108SOL    HW220787   0.222   1.601   5.063 -1.5630 -0.6082  0.2522
 3109SOL     OW20788   0.600   1.301   0.560  0.3651 -0.0463 -0.1624
 3109SOL    HW120789   0.523   1.295   0.617  1.6565 -0.2889  1.5819
 3109SOL    HW220790   0.553   1.311   0.478  1.0834 -0.7326 -0.6641
 3110SOL     OW20791   3.714   0.465   5.225  0.3494  0.0528 -0.5642
 3110SOL    HW120792   3.784   0.463   5.291 -0.3451  1.0486  0.2101
 3110SOL    HW220793   3.741   0.527   5.158 -0.3864  0.2282 -0.7005
 3111SOL     OW20794   1.958   3.072  13.898 -0.6911 -0.0282  0.4177
 3111SOL    HW120795   1.988   3.071  13.807 -0.5441  2.2036  0.4407
 3111SOL    HW220796   1.879   3.018  13.896 -1.3702  0.9306  1.3913
 3112SOL     OW20797   4.191   0.710  13.337  0.0806 -0.3390 -0.1217
 3112SOL    HW120798   4.278   0.677  13.314  0.2409  0.9739 -1.4383
 3112SOL    HW220799   4.203   0.732  13.429  1.0943  0.0736 -0.3426
 3113SOL     OW20800   4.151   2.019   3.773 -0.2018  0.2822 -0.5359
 3113SOL    HW120801   4.204   1.958   3.723  0.5562 -1.3251  2.2096
 3113SOL    HW220802   4.212   2.071   3.826 -0.0589 -0.3532 -0.0791
 3114SOL     OW20803   3.031   1.138   6.499 -0.0307  0.2604 -0.6108
 3114SOL    HW120804   3.101   1.083   6.466  0.0863  0.8539 -1.3542
 3114SOL    HW220805   2.951   1.105   6.459 -1.6801  0.8763  2.1009
 3115SOL     OW20806   4.712   2.048   3.193 -0.0185 -0.4164  0.1354
 3115SOL    HW120807   4.682   1.959   3.208 -0.8782 -0.0100  0.8249
 3115SOL    HW220808   0.021   2.041   3.102  3.3752 -0.6457  1.3141
 3116SOL     OW20809   3.215   0.591   8.947 -0.2088  0.1201  0.2513
 3116SOL    HW120810   3.167   0.671   8.966 -1.3596 -1.2548  3.0856
 3116SOL    HW220811   3.275   0.576   9.020  0.6160 -0.3637 -0.5193
 3117SOL     OW20812   1.213   2.883   2.803 -0.3318 -0.5960 -0.1322
 3117SOL    HW120813   1.203   2.892   2.898 -0.0187 -3.3878  0.1644
 3117SOL    HW220814   1.176   2.965   2.771 -0.3993 -0.4175  0.4016
 3118SOL     OW20815   2.364   1.929   3.976  0.5245  0.0044 -0.6945
 3118SOL    HW120816   2.324   1.990   3.915 -3.4761 -0.0949  1.8252
 3118SOL    HW220817   2.297   1.925   4.044  0.8707 -1.4419 -0.4352
 3119SOL     OW20818   0.681   3.162  10.895  0.0691 -0.1325 -0.1314
 3119SOL    HW120819   0.682   3.229  10.827 -1.0979  0.2974  0.2716
 3119SOL    HW220820   0.773   3.137  10.896  0.4519  1.2251 -1.2364
 3120SOL     OW20821   3.678   2.196  16.265  0.1690 -0.3959 -0.0456
 3120SOL    HW120822   3.640   2.112  16.239 -2.6377  1.4187 -1.8375
 3120SOL    HW220823   3.655   2.247  16.188 -2.6639  0.6818  1.5216
 3121SOL     OW20824   3.396   1.534  15.056  0.0366  0.5107 -0.0062
 3121SOL    HW120825   3.483   1.560  15.087 -1.1604  2.5099  1.6722
 3121SOL    HW220826   3.409   1.479  14.979  1.7355  0.8944  0.0103
 3122SOL     OW20827   2.750   3.731   1.509  0.5502 -0.0692  0.2717
 3122SOL    HW120828   2.707   3.816   1.517  0.5667 -0.2841  2.4436
 3122SOL    HW220829   2.839   3.759   1.527  1.5529 -2.4611 -0.9427
 3123SOL     OW20830   1.002   1.208   8.460  0.2232 -0.5236 -0.5373
 3123SOL    HW120831   0.930   1.176   8.407 -1.2517  0.6059  0.7865
 3123SOL    HW220832   0.960   1.288   8.492 -0.0872 -0.5903 -0.7878
 3124SOL     OW20833   0.173   4.081   7.868  0.0822  0.0106 -0.0620
 3124SOL    HW120834   0.226   4.090   7.789  2.9789  0.9365  1.9776
 3124SOL    HW220835   0.205   4.157   7.917  1.6620 -0.4746 -0.3136
 3125SOL     OW20836   1.982   2.793   7.643 -0.0139  0.3195  0.2357
 3125SOL    HW120837   2.049   2.856   7.614 -0.5959  0.2045 -1.3752
 3125SOL    HW220838   1.992   2.707   7.602 -1.0355  0.8338 -1.1083
 3126SOL     OW20839   0.100   4.542  12.834  0.2470 -0.1312 -0.4138
 3126SOL    HW120840   0.096   4.610  12.767 -0.6602  0.3770  0.1464
 3126SOL    HW220841   0.180   4.568  12.879 -0.1404  0.3480  0.0073
 3127SOL     OW20842   3.210   3.320   2.931 -0.4657  0.6525  0.6568
 3127SOL    HW120843   3.296   3.342   2.896 -0.0308 -2.3582 -0.1376
 3127SOL    HW220844   3.232   3.272   3.010 -3.6359 -0.1443  1.0592
 3128SOL     OW20845   4.197   1.598   3.011 -0.5877  0.3751  0.4015
 3128SOL    HW120846   4.241   1.513   3.002 -0.4344  0.2777  1.9256
 3128SOL    HW220847   4.146   1.594   2.930  0.6210 -0.9337 -0.2911
 3129SOL     OW20848   1.620   3.346   3.266  0.0072 -1.0010 -0.1231
 3129SOL    HW120849   1.526   3.358   3.280  0.1424 -1.7096  1.4339
 3129SOL    HW220850   1.654   3.433   3.288 -0.7246 -0.3505 -1.5823
 3130SOL     OW20851   0.384   0.416  11.075  0.0666  0.3319 -0.1644
 3130SOL    HW120852   0.340   0.447  10.996  2.3848  0.9062 -1.2228
 3130SOL    HW220853   0.459   0.475  11.075  0.3168  0.0151 -1.5425
 3131SOL     OW20854   0.143   3.741   1.940 -0.1009  0.1742  0.2066
 3131SOL    HW120855   0.119   3.833   1.927  0.6954  0.7892  3.0715
 3131SOL    HW220856   0.236   3.750   1.917 -0.4706  0.1151 -1.3530
 3132SOL     OW20857   1.218   2.441   4.510  0.3576 -0.3148  0.3869
 3132SOL    HW120858   1.277   2.516   4.502  1.3519 -0.8595  2.6851
 3132SOL    HW220859   1.141   2.495   4.528  0.0692 -1.2250  1.8641
 3133SOL     OW20860   0.205   4.163   6.933 -0.3907  0.3090 -0.3224
 3133SOL    HW120861   0.137   4.197   6.875 -0.9995  0.4846  0.5052
 3133SOL    HW220862   0.276   4.211   6.891  1.0305 -1.1976  0.3759
 3134SOL     OW20863   0.609   3.657   3.026  0.2363  0.1818  0.3784
 3134SOL    HW120864   0.557   3.581   3.053  0.0248  0.3757  0.5198
 3134SOL    HW220865   0.666   3.624   2.956 -0.8010 -0.2787 -0.2601
 3135SOL     OW20866   3.039   0.270   7.253  0.1418  0.2957  0.1924
 3135SOL    HW120867   3.049   0.244   7.162  0.7114  1.4331 -0.0611
 3135SOL    HW220868   3.005   0.358   7.242  3.6279  1.3146 -2.3617
 3136SOL     OW20869   2.479   3.883   9.428 -0.0019  0.6121  0.5389
 3136SOL    HW120870   2.538   3.866   9.501  0.8484  1.3425  0.0152
 3136SOL    HW220871   2.411   3.928   9.478 -0.8491 -2.2103  1.9534
 3137SOL     OW20872   3.935   1.829   3.066  0.2482 -0.3787 -0.0784
 3137SOL    HW120873   3.882   1.903   3.094 -0.2757 -1.1374  0.9264
 3137SOL    HW220874   3.959   1.775   3.141  0.9934 -1.0633 -0.8021
 3138SOL     OW20875   0.837   1.391   6.450 -0.5226 -0.5094  0.0476
 3138SOL    HW120876   0.766   1.404   6.513 -0.6281 -0.6714 -0.0409
 3138SOL    HW220877   0.811   1.432   6.368  0.0464 -2.0424 -0.8827
 3139SOL     OW20878   2.835   4.355   4.987 -0.2417 -0.4045 -0.1274
 3139SOL    HW120879   2.764   4.382   4.929 -0.1689 -0.9438 -0.4718
 3139SOL    HW220880   2.910   4.394   4.942  1.5448 -1.6397  1.8057
 3140SOL     OW20881   3.207   0.507   7.457 -0.5222  0.2412  0.2630
 3140SOL    HW120882   3.134   0.556   7.494  0.9080  0.6364  2.5670
 3140SOL    HW220883   3.232   0.576   7.396 -0.6646 -0.7542 -0.9192
 3141SOL     OW20884   2.552   0.009   3.066 -0.4605  0.5519  0.2600
 3141SOL    HW120885   2.640   0.009   3.029 -1.0472  0.2462 -1.1266
 3141SOL    HW220886   2.559   0.002   3.161 -1.5044  1.3255  0.3948
 3142SOL     OW20887   1.936   4.411   2.816 -0.0258  0.1036 -0.6160
 3142SOL    HW120888   1.957   4.454   2.733  2.0217  1.1039  0.3959
 3142SOL    HW220889   1.861   4.461   2.847 -2.1736 -2.6850 -1.3447
 3143SOL     OW20890   1.691   1.489   8.495 -0.5553 -0.7832  0.3568
 3143SOL    HW120891   1.745   1.508   8.571 -0.1238 -0.0184 -0.1520
 3143SOL    HW220892   1.627   1.560   8.498  1.0527  0.6529  0.2263
 3144SOL     OW20893   4.666   4.544  15.960  0.2103 -0.2709 -0.1628
 3144SOL    HW120894   4.620   4.481  15.904  2.3650  0.2755 -2.4891
 3144SOL    HW220895   4.704   4.592  15.887 -2.2588 -0.0005 -1.2721
 3145SOL     OW20896   0.943   2.030   5.646 -0.3912  0.3330  0.0438
 3145SOL    HW120897   1.013   2.078   5.602  0.4948  0.2082  1.2973
 3145SOL    HW220898   0.883   1.999   5.579 -0.1896 -0.2984  0.1574
 3146SOL     OW20899   1.380   1.821   0.638 -0.6067 -0.0072 -0.6673
 3146SOL    HW120900   1.294   1.780   0.637 -0.7773  0.3283 -0.1566
 3146SOL    HW220901   1.408   1.806   0.729  0.4845 -1.1160 -1.1784
 3147SOL     OW20902   1.194   3.912   9.601  0.0936 -0.3111 -0.0969
 3147SOL    HW120903   1.178   3.947   9.688 -1.0311 -0.7577 -0.1216
 3147SOL    HW220904   1.286   3.887   9.608  0.3542  0.6500 -0.1920
 3148SOL     OW20905   3.605   3.063   5.589 -0.1173 -0.2659 -0.3446
 3148SOL    HW120906   3.682   3.074   5.646 -1.7539 -0.1896  1.8363
 3148SOL    HW220907   3.592   2.968   5.584 -0.0424 -0.2844 -0.2002
 3149SOL     OW20908   4.369   1.165   2.700  0.0922  0.3866  0.2612
 3149SOL    HW120909   4.424   1.103   2.748 -0.6183 -1.6560 -1.5884
 3149SOL    HW220910   4.289   1.119   2.673  0.9400  0.4548 -2.3499
 3150SOL     OW20911   3.723   2.910   5.954 -0.4762 -0.2193  0.0487
 3150SOL    HW120912   3.720   2.866   5.869  0.2715  0.9045 -0.5682
 3150SOL    HW220913   3.788   2.854   5.997  1.2116  1.7296  0.0444
 3151SOL     OW20914   2.475   2.660  13.194  0.2833 -0.3914 -0.5452
 3151SOL    HW120915   2.465   2.725  13.264  1.6705  2.1933 -2.7656
 3151SOL    HW220916   2.565   2.630  13.198  0.8282  1.4241  1.0701
 3152SOL     OW20917   1.680   1.056   1.364  0.2834 -0.0379 -0.0971
 3152SOL    HW120918   1.728   1.138   1.355  2.7140 -1.2520  1.9957
 3152SOL    HW220919   1.592   1.080   1.335 -0.2242 -0.2715  1.2739
 3153SOL     OW20920   3.182   1.370   6.555  0.0683  0.1325 -0.1476
 3153SOL    HW120921   3.104   1.314   6.562 -0.3340  0.7772  0.5871
 3153SOL    HW220922   3.176   1.421   6.636 -0.2140  0.8041 -0.5920
 3154SOL     OW20923   0.992   2.161   3.006  0.3274 -0.2363  0.1667
 3154SOL    HW120924   0.988   2.077   2.961  0.8565  0.5346 -1.3237
 3154SOL    HW220925   0.915   2.205   2.969 -0.6218 -1.2601  0.9197
 3155SOL     OW20926   1.741   4.364  15.173  0.1773  0.2859  0.0438
 3155SOL    HW120927   1.820   4.417  15.184 -0.3438  0.8550  1.0090
 3155SOL    HW220928   1.668   4.424  15.191 -1.1257 -1.4799  0.5935
 3156SOL     OW20929   2.776   2.350   3.276  0.7316  0.0207  0.5318
 3156SOL    HW120930   2.688   2.341   3.239  0.8138  1.2832  0.0377
 3156SOL    HW220931   2.777   2.273   3.333  0.2136  1.0265  1.8844
 3157SOL     OW20932   0.182   3.006   7.726  0.2270 -0.2053  0.1495
 3157SOL    HW120933   0.161   2.915   7.703 -0.7493  0.3433 -1.1472
 3157SOL    HW220934   0.106   3.049   7.686  0.0452 -0.1827  0.5161
 3158SOL     OW20935   3.317   3.642   9.155 -0.1700 -0.0181  0.6329
 3158SOL    HW120936   3.412   3.636   9.155 -0.1351  0.6212 -1.0398
 3158SOL    HW220937   3.289   3.570   9.213  0.4582 -0.0129  0.9438
 3159SOL     OW20938   2.374   1.006   6.696  0.2021 -0.3057  0.0151
 3159SOL    HW120939   2.310   1.075   6.710  1.0352  0.6101 -0.6960
 3159SOL    HW220940   2.409   0.995   6.784 -0.4436  1.6560  0.5113
 3160SOL     OW20941   2.608   2.804   6.102 -0.3282  0.1777 -0.0211
 3160SOL    HW120942   2.613   2.899   6.093  0.4435 -0.1050 -2.6759
 3160SOL    HW220943   2.570   2.804   6.190  1.1615  2.0197  0.6066
 3161SOL     OW20944   3.454   0.944   5.449  0.4565  0.3142 -0.0878
 3161SOL    HW120945   3.488   0.904   5.369  1.2755  0.2685  0.2778
 3161SOL    HW220946   3.370   0.974   5.416 -1.0172 -2.7867  0.8931
 3162SOL     OW20947   3.630   4.173   7.107 -0.5934  0.8950  0.2240
 3162SOL    HW120948   3.554   4.226   7.131 -0.6608  1.6001 -1.5587
 3162SOL    HW220949   3.640   4.207   7.018 -0.4058  1.0582  0.3067
 3163SOL     OW20950   3.997   0.374  17.363  0.1024  0.0809 -0.1488
 3163SOL    HW120951   4.009   0.392  17.457  1.2080 -2.0818  0.1344
 3163SOL    HW220952   4.011   0.279  17.361  1.0636  0.2264 -0.2055
 3164SOL     OW20953   3.173   3.769  15.573  0.1775 -0.4166 -0.1444
 3164SOL    HW120954   3.169   3.705  15.501  3.1042 -2.1026  1.1994
 3164SOL    HW220955   3.211   3.845  15.529  0.0487  0.6026  1.5185
 3165SOL     OW20956   4.131   0.809   1.040  0.5089  0.4086 -0.3084
 3165SOL    HW120957   4.145   0.904   1.043  0.9639  0.3323 -0.0381
 3165SOL    HW220958   4.061   0.789   1.102  2.3717 -1.1686  1.3258
 3166SOL     OW20959   2.459   3.882   7.129  0.0666 -0.4431  0.0377
 3166SOL    HW120960   2.546   3.840   7.133 -0.6929 -1.8729  1.6506
 3166SOL    HW220961   2.415   3.823   7.068 -1.0586 -0.6396  1.0403
 3167SOL     OW20962   2.787   2.881   7.620 -0.3024 -0.0954  0.3757
 3167SOL    HW120963   2.763   2.795   7.585  0.9979 -0.1511 -0.3742
 3167SOL    HW220964   2.716   2.906   7.679  0.5786  0.5190  1.1770
 3168SOL     OW20965   1.917   1.487   6.074 -0.3244 -0.9927  0.1322
 3168SOL    HW120966   1.996   1.494   6.021 -0.9588 -1.3142 -0.8596
 3168SOL    HW220967   1.884   1.398   6.059 -1.8802 -0.6837  1.7487
 3169SOL     OW20968   3.738   0.384  17.497 -1.1555  0.8096  0.8358
 3169SOL    HW120969   3.771   0.387  17.407  2.3182  1.4097  2.1258
 3169SOL    HW220970   3.812   0.345  17.545 -0.0752  1.3656 -0.3685
 3170SOL     OW20971   1.112   3.141   6.772 -0.3370  0.1281  0.0036
 3170SOL    HW120972   1.101   3.050   6.798 -1.1480  0.5385  1.1169
 3170SOL    HW220973   1.055   3.139   6.696  1.0003 -0.7564 -0.9742
 3171SOL     OW20974   3.844   0.659   0.165  0.0755 -0.2725  0.7078
 3171SOL    HW120975   3.753   0.632   0.175 -0.4945  1.0937 -0.8678
 3171SOL    HW220976   3.896   0.587   0.201  1.3566  0.5140  0.4371
 3172SOL     OW20977   0.572   3.543   6.637 -0.5387 -0.7892  0.2020
 3172SOL    HW120978   0.608   3.565   6.551 -0.8638 -0.6232  0.1074
 3172SOL    HW220979   0.495   3.491   6.612  1.0392 -3.2107  0.4050
 3173SOL     OW20980   2.965   1.188   0.853  0.3824 -0.2535 -0.8069
 3173SOL    HW120981   2.937   1.109   0.807 -1.8088 -0.4176  0.7828
 3173SOL    HW220982   2.911   1.261   0.822  0.6240  1.1484  2.0766
 3174SOL     OW20983   0.786   0.308   1.519  0.0192 -0.1025 -0.5471
 3174SOL    HW120984   0.876   0.321   1.489  0.5227  0.8370  1.3880
 3174SOL    HW220985   0.781   0.214   1.536 -0.9712  0.0030 -0.2329
 3175SOL     OW20986   3.745   0.312   0.590 -0.1688  0.0931  0.2609
 3175SOL    HW120987   3.831   0.273   0.608 -0.2396 -0.7880 -1.3422
 3175SOL    HW220988   3.725   0.386   0.648 -0.8251  2.1772 -2.6032
 3176SOL     OW20989   3.784   0.052   4.309  0.5197 -0.0252  0.6412
 3176SOL    HW120990   3.843   0.072   4.236  0.2462 -0.6286  0.2494
 3176SOL    HW220991   3.739   0.134   4.326  0.5219  0.1467 -0.1913
 3177SOL     OW20992   1.881   2.087   6.219  0.4494  0.0003 -0.0416
 3177SOL    HW120993   1.816   2.024   6.249 -2.1916  3.1347  0.8890
 3177SOL    HW220994   1.956   2.030   6.204  0.1916 -0.1887 -0.6163
 3178SOL     OW20995   3.491   4.024   3.374  0.4904  0.4283 -0.0903
 3178SOL    HW120996   3.472   4.022   3.280 -1.1853  0.0355  0.2599
 3178SOL    HW220997   3.452   3.943   3.406  0.8549  1.1967  2.2694
 3179SOL     OW20998   0.023   4.486  14.345  0.4717 -0.1444  0.9438
 3179SOL    HW120999   0.043   4.510  14.254 -0.0549 -0.4704  0.7477
 3179SOL    HW221000   4.695   4.566  14.359 -0.3469 -0.5836  0.5364
 3180SOL     OW21001   1.063   2.507   7.971 -0.1199 -0.3487 -0.5056
 3180SOL    HW121002   1.134   2.537   7.914  0.2045  0.3807  0.2907
 3180SOL    HW221003   1.089   2.551   8.052 -0.1738  0.2586 -0.8147
 3181SOL     OW21004   3.461   2.094   3.280 -0.4426  0.5436  0.0300
 3181SOL    HW121005   3.487   2.005   3.255  0.2738  0.9513 -0.6717
 3181SOL    HW221006   3.505   2.088   3.365  1.3940 -0.5607 -0.9869
 3182SOL     OW21007   1.641   1.911   5.993  0.0721 -0.0407 -0.4534
 3182SOL    HW121008   1.640   1.881   5.902  0.6872 -1.5634  0.0513
 3182SOL    HW221009   1.698   1.848   6.036  0.2241  2.1554  2.5482
 3183SOL     OW21010   0.101   4.331   9.501  0.4905  0.2865  0.0372
 3183SOL    HW121011   0.077   4.296   9.415  1.0451  1.7252 -0.7139
 3183SOL    HW221012   0.079   4.424   9.492  0.4407  0.0322 -2.5346
 3184SOL     OW21013   0.263   3.347   8.331  0.5991 -0.2635  0.2275
 3184SOL    HW121014   0.258   3.256   8.300 -2.7478 -0.3321  0.9542
 3184SOL    HW221015   0.294   3.332   8.420  0.9963 -0.3930  0.0693
 3185SOL     OW21016   0.384   3.708   9.577  0.5454  0.0699 -0.3691
 3185SOL    HW121017   0.338   3.791   9.564 -0.5550 -0.5567 -0.4333
 3185SOL    HW221018   0.436   3.703   9.497 -1.6834 -1.4255 -1.7132
 3186SOL     OW21019   0.077   4.108  12.800  0.1884  0.0698 -0.0486
 3186SOL    HW121020   0.032   4.177  12.848 -1.4979 -0.2140 -1.2257
 3186SOL    HW221021   0.125   4.080  12.878  0.1832  1.3117  0.3997
 3187SOL     OW21022   2.936   4.505  16.627 -0.1341  0.1190 -0.4078
 3187SOL    HW121023   2.958   4.501  16.720 -0.3223  0.4059 -0.3480
 3187SOL    HW221024   2.936   4.412  16.607  0.2043 -0.2307  1.1897
 3188SOL     OW21025   1.533   0.959  13.757 -0.2554 -0.0939  0.4743
 3188SOL    HW121026   1.612   0.997  13.720  0.1834 -1.5536 -0.0769
 3188SOL    HW221027   1.578   0.917  13.830  0.3674 -0.6667 -0.2398
 3189SOL     OW21028   3.265   1.603  11.594 -0.3661  0.2447  0.2402
 3189SOL    HW121029   3.264   1.520  11.643  0.6300  0.4645  0.6315
 3189SOL    HW221030   3.339   1.600  11.535 -0.5558  2.0024 -0.0716
 3190SOL     OW21031   2.403   2.444  10.499 -0.2609  0.6468  0.6207
 3190SOL    HW121032   2.381   2.366  10.551 -1.9448  1.0375  0.4790
 3190SOL    HW221033   2.391   2.515  10.561 -2.0175 -0.1045  1.1439
 3191SOL     OW21034   1.641   0.913   1.878  0.1889  0.0039 -0.2861
 3191SOL    HW121035   1.691   0.853   1.934 -3.0598 -3.2837 -0.9048
 3191SOL    HW221036   1.691   0.993   1.892  0.4166  0.0250 -1.2024
 3192SOL     OW21037   3.909   0.284   6.394 -0.2069  0.1032 -0.0742
 3192SOL    HW121038   3.949   0.359   6.438 -0.3218 -0.5220  1.0839
 3192SOL    HW221039   3.828   0.320   6.358  0.3917  2.1011  0.5538
 3193SOL     OW21040   3.975   2.238   5.202  0.3215 -0.8347 -0.6169
 3193SOL    HW121041   4.054   2.203   5.244 -0.0915 -1.2023 -0.1558
 3193SOL    HW221042   4.007   2.320   5.165 -0.7120 -0.4638 -0.6802
 3194SOL     OW21043   3.625   0.437   6.670  0.2998 -0.0319  0.0847
 3194SOL    HW121044   3.537   0.419   6.637 -0.7587  1.2425  2.1869
 3194SOL    HW221045   3.642   0.354   6.714  2.2007 -0.4475 -1.4687
 3195SOL     OW21046   3.676   0.694   9.989  0.3120 -0.4890  0.1259
 3195SOL    HW121047   3.741   0.757   9.957 -0.7940 -0.9548 -3.0265
 3195SOL    HW221048   3.624   0.680   9.910 -0.2080  3.5271 -0.2737
 3196SOL     OW21049   1.866   4.269  15.744  0.5658 -0.2757 -0.0603
 3196SOL    HW121050   1.802   4.228  15.685  0.3249  1.3246 -0.9076
 3196SOL    HW221051   1.889   4.203  15.810  2.3578 -0.6517 -1.0570
 3197SOL     OW21052   1.870   0.815   4.545  0.4429 -0.2435 -0.3535
 3197SOL    HW121053   1.927   0.738   4.539  1.4983  0.5508 -0.4123
 3197SOL    HW221054   1.939   0.878   4.561  1.6700 -2.1279  1.8056
 3198SOL     OW21055   1.943   4.147   8.584  0.6338 -0.4821  0.5094
 3198SOL    HW121056   1.945   4.059   8.622 -2.0098 -1.0034 -0.5809
 3198SOL    HW221057   2.018   4.141   8.525  0.7458  1.4421  0.4426
 3199SOL     OW21058   2.109   0.580  11.543 -0.2957 -0.6259  0.3646
 3199SOL    HW121059   2.085   0.670  11.520  0.0021 -1.1339 -1.8901
 3199SOL    HW221060   2.109   0.543  11.455 -0.5434 -0.6275  0.3664
 3200SOL     OW21061   3.722   0.329   4.853  0.1032 -0.2300  0.0278
 3200SOL    HW121062   3.690   0.418   4.838 -0.8604 -0.5643  0.0975
 3200SOL    HW221063   3.787   0.342   4.922  0.3497  2.5449 -0.6975
 3201SOL     OW21064   2.780   3.366   7.061 -0.3569  0.2635  0.4012
 3201SOL    HW121065   2.708   3.305   7.078 -0.6146  0.3695 -0.2924
 3201SOL    HW221066   2.786   3.365   6.965  0.6090  0.5330  0.4623
 3202SOL     OW21067   2.346   0.916   1.165  0.0717  0.4015  0.5318
 3202SOL    HW121068   2.266   0.923   1.217 -1.0193 -1.9515 -0.8272
 3202SOL    HW221069   2.314   0.975   1.098 -1.6346 -0.6528  0.4126
 3203SOL     OW21070   1.560   2.123   2.409 -0.3381 -0.6748 -0.3593
 3203SOL    HW121071   1.476   2.148   2.447  0.5950  0.3280  1.0753
 3203SOL    HW221072   1.573   2.191   2.342  1.5684 -1.3968 -0.7374
 3204SOL     OW21073   1.629   3.236  10.290  0.1243 -0.5731 -0.0494
 3204SOL    HW121074   1.715   3.242  10.333 -0.1070 -1.6742  0.5724
 3204SOL    HW221075   1.594   3.325  10.286 -0.2207 -0.6929  0.3309
 3205SOL     OW21076   2.294   4.241   8.721  0.3358 -0.5788  0.0735
 3205SOL    HW121077   2.210   4.195   8.725 -0.0786  0.1470 -0.2408
 3205SOL    HW221078   2.323   4.226   8.811  0.0941 -0.3026  0.1969
 3206SOL     OW21079   2.143   3.203  12.402 -0.0035  0.4353  0.2403
 3206SOL    HW121080   2.218   3.185  12.346 -0.3895  2.6488 -1.0018
 3206SOL    HW221081   2.163   3.151  12.480  2.5914 -1.2652 -1.5525
 3207SOL     OW21082   4.596   4.108  16.980 -0.0760 -0.1004  0.6610
 3207SOL    HW121083   4.514   4.135  16.940 -1.5569 -4.1475  0.9386
 3207SOL    HW221084   4.614   4.169  17.052  1.6130  1.4178 -1.0565
 3208SOL     OW21085   3.248   0.540   2.749  0.3538 -0.7280  0.1365
 3208SOL    HW121086   3.193   0.563   2.823 -1.9806 -0.4042 -1.6744
 3208SOL    HW221087   3.196   0.465   2.719 -2.0395  0.2036  1.9193
 3209SOL     OW21088   2.681   2.450   4.958 -0.0082 -0.0730  0.1270
 3209SOL    HW121089   2.701   2.456   5.051 -0.6376  0.7672  0.2167
 3209SOL    HW221090   2.657   2.358   4.949  1.2170 -0.3171 -0.5832
 3210SOL     OW21091   2.477   0.498   7.389 -0.6879  0.1502  0.1331
 3210SOL    HW121092   2.421   0.525   7.463  1.2282 -0.8617  1.9427
 3210SOL    HW221093   2.536   0.573   7.379 -0.2371  0.0515  2.0441
 3211SOL     OW21094   2.831   0.765   9.769 -0.2094 -0.3579  0.5291
 3211SOL    HW121095   2.789   0.696   9.819 -0.1316 -0.4501  0.4683
 3211SOL    HW221096   2.853   0.706   9.697 -1.0394  0.3845 -0.3334
 3212SOL     OW21097   2.094   2.972  15.423 -0.0959 -0.5281 -0.0588
 3212SOL    HW121098   2.174   2.956  15.373  1.5844  2.7923  1.5955
 3212SOL    HW221099   2.056   2.887  15.446 -0.4233  0.1347  1.8038
 3213SOL     OW21100   3.660   1.097  12.630 -0.2377  0.2087  0.1997
 3213SOL    HW121101   3.657   1.093  12.725  1.3103  0.2251  0.2498
 3213SOL    HW221102   3.752   1.120  12.618 -0.2531  0.5064  0.6445
 3214SOL     OW21103   0.160   2.384   9.330 -0.7746  0.4958 -0.2461
 3214SOL    HW121104   0.170   2.426   9.245 -3.2052  1.0392 -0.2905
 3214SOL    HW221105   0.243   2.344   9.355 -2.0774 -0.3590  2.7839
 3215SOL     OW21106   1.356   2.591  10.474 -0.5612 -0.0229 -0.0630
 3215SOL    HW121107   1.379   2.659  10.410  3.6654 -1.2855  0.0902
 3215SOL    HW221108   1.430   2.587  10.535 -0.0596  2.2905 -0.5058
 3216SOL     OW21109   3.684   3.851   6.056  0.5902 -0.3161 -0.3144
 3216SOL    HW121110   3.760   3.804   6.092  0.2348  0.7017  1.7599
 3216SOL    HW221111   3.604   3.804   6.078  2.0541 -2.9006 -0.5339
 3217SOL     OW21112   1.219   3.026   7.901  0.2528  0.3378  0.3501
 3217SOL    HW121113   1.299   2.974   7.890 -0.6988 -0.9607 -0.3552
 3217SOL    HW221114   1.171   2.983   7.971 -0.4382 -0.1784 -0.4455
 3218SOL     OW21115   1.129   1.032  16.121 -0.4347 -0.4447  0.2362
 3218SOL    HW121116   1.169   0.970  16.182 -2.1519  0.8237  2.6565
 3218SOL    HW221117   1.167   1.116  16.146  0.3593 -0.2395 -1.6510
 3219SOL     OW21118   2.741   3.531   7.263 -0.2716  0.2497 -1.1018
 3219SOL    HW121119   2.668   3.473   7.286  1.3406 -0.5105  2.2477
 3219SOL    HW221120   2.780   3.481   7.192 -1.9025 -0.6231 -1.3799
 3220SOL     OW21121   0.005   0.458   3.358  0.1476  0.0142 -0.1536
 3220SOL    HW121122   0.095   0.469   3.388 -0.3677  2.4261  0.4744
 3220SOL    HW221123   0.012   0.378   3.305 -2.7138 -0.6654  0.4831
 3221SOL     OW21124   0.358   2.052   6.854  0.2561  0.4868  0.2660
 3221SOL    HW121125   0.347   1.984   6.787  3.3188  0.4920 -0.2174
 3221SOL    HW221126   0.387   2.132   6.811  1.1406  0.1954  0.3174
 3222SOL     OW21127   2.915   2.260   6.118 -0.4896  0.2444  0.1321
 3222SOL    HW121128   2.861   2.185   6.145  0.6359 -0.4755  0.3867
 3222SOL    HW221129   2.946   2.289   6.203  0.7528  1.9828 -0.9307
 3223SOL     OW21130   1.394   3.072   4.843 -0.1107  0.0237  0.2505
 3223SOL    HW121131   1.383   3.158   4.802 -1.8946 -0.6161 -0.5732
 3223SOL    HW221132   1.334   3.078   4.917 -1.4777  0.1629 -0.8852
 3224SOL     OW21133   0.179   1.884   5.926  0.0865 -0.1993 -0.7574
 3224SOL    HW121134   0.084   1.889   5.929  0.1804  0.5946  1.3860
 3224SOL    HW221135   0.185   1.822   5.854  0.3942 -1.4333  0.3271
 3225SOL     OW21136   1.894   2.851   8.960 -1.0277 -0.2477  0.2171
 3225SOL    HW121137   1.809   2.834   8.999 -0.0855 -1.5091  1.7031
 3225SOL    HW221138   1.886   2.947   8.953 -2.7555 -0.4353 -0.3542
 3226SOL     OW21139   0.570   1.591  10.601  0.0711 -0.1098 -0.4534
 3226SOL    HW121140   0.660   1.616  10.620  0.5487 -1.0336 -1.4776
 3226SOL    HW221141   0.521   1.649  10.659  2.2777 -0.5939  1.8975
 3227SOL     OW21142   0.144   0.079   6.355 -0.2160  0.7193 -0.4021
 3227SOL    HW121143   0.147   0.110   6.445  1.5741  0.9831 -0.5580
 3227SOL    HW221144   0.087   0.002   6.364  0.1819  0.4803  0.0480
 3228SOL     OW21145   2.314   4.232  12.753  0.6396  0.2844  0.1995
 3228SOL    HW121146   2.324   4.323  12.723 -3.1984  0.6584  0.1206
 3228SOL    HW221147   2.290   4.192  12.670 -0.7384  1.6425 -0.0400
 3229SOL     OW21148   1.322   0.594   7.377  0.4248  0.0288  0.1734
 3229SOL    HW121149   1.405   0.563   7.339  0.1054 -0.9939  0.3119
 3229SOL    HW221150   1.280   0.508   7.371  2.0620 -0.7724  0.0883
 3230SOL     OW21151   0.427   0.856   6.520 -0.1430 -0.5101  0.6949
 3230SOL    HW121152   0.345   0.815   6.547  0.2609  0.1518  2.9193
 3230SOL    HW221153   0.398   0.945   6.540  1.0937  0.2726 -0.8861
 3231SOL     OW21154   0.035   3.746   8.214  0.6125 -0.1334 -0.0242
 3231SOL    HW121155   0.095   3.736   8.140  0.5937 -2.0897  0.2441
 3231SOL    HW221156   0.078   3.824   8.251  0.7184 -0.4701  0.5575
 3232SOL     OW21157   3.598   1.014   2.477 -0.1205 -0.4610  0.3699
 3232SOL    HW121158   3.564   1.104   2.478 -0.5148 -0.6126  0.6220
 3232SOL    HW221159   3.686   1.032   2.444  0.2731 -2.0327  0.5945
 3233SOL     OW21160   2.076   2.713  14.265  0.1357 -0.1922 -0.0168
 3233SOL    HW121161   2.093   2.797  14.223 -0.4712 -0.0197  0.0837
 3233SOL    HW221162   2.050   2.668  14.184 -0.5248 -0.1450  0.1699
 3234SOL     OW21163   2.180   4.378  15.615 -0.6585  0.2344  0.3117
 3234SOL    HW121164   2.150   4.293  15.647 -1.1597 -0.0138 -0.8470
 3234SOL    HW221165   2.226   4.418  15.690  0.4877 -0.7080  0.1079
 3235SOL     OW21166   3.462   0.043   7.477 -0.1755 -0.1040  0.1373
 3235SOL    HW121167   3.505   0.108   7.532  1.3242 -0.1753 -0.9458
 3235SOL    HW221168   3.384   0.094   7.454 -0.3019 -1.0597 -1.5530
 3236SOL     OW21169   2.379   2.681  15.890 -0.2986 -0.2602 -0.3807
 3236SOL    HW121170   2.457   2.736  15.882 -0.3043 -0.0690  0.9167
 3236SOL    HW221171   2.358   2.663  15.798 -0.6436  0.9846 -0.5402
 3237SOL     OW21172   3.972   2.508   3.435  0.3181  0.4252 -0.4405
 3237SOL    HW121173   4.042   2.546   3.488 -0.5763  1.4817 -0.0225
 3237SOL    HW221174   3.996   2.538   3.347  2.2075 -0.6648 -0.2942
 3238SOL     OW21175   0.415   0.834   4.705 -0.2300 -0.1931  0.0032
 3238SOL    HW121176   0.376   0.747   4.702  1.3517 -0.8539 -1.6670
 3238SOL    HW221177   0.497   0.808   4.745  0.0913 -1.5789 -1.5521
 3239SOL     OW21178   2.821   0.989   8.684  0.0130 -0.0444 -0.1660
 3239SOL    HW121179   2.799   0.984   8.777  0.2331  1.7629 -0.0206
 3239SOL    HW221180   2.817   1.081   8.656  0.3947 -0.9163 -3.0539
 3240SOL     OW21181   1.092   3.427  14.076 -0.0951 -0.2108  0.9207
 3240SOL    HW121182   1.030   3.361  14.106 -0.6792  0.1378  0.4918
 3240SOL    HW221183   1.060   3.454  13.989  1.1805  1.8502  1.0748
 3241SOL     OW21184   2.597   2.076   2.048 -0.5840  0.7617  0.1271
 3241SOL    HW121185   2.660   2.104   2.114  0.6733  0.9546 -1.1580
 3241SOL    HW221186   2.519   2.110   2.092 -2.7323 -0.0659 -3.0376
 3242SOL     OW21187   3.821   3.963   8.540  0.2525  0.2478 -0.1681
 3242SOL    HW121188   3.899   4.011   8.514  2.3474 -2.2026  1.5380
 3242SOL    HW221189   3.769   4.040   8.522  0.2314  0.5199  1.0892
 3243SOL     OW21190   1.250   2.131  15.043 -0.2193  0.8599  0.8840
 3243SOL    HW121191   1.157   2.139  15.065 -0.4865 -2.4976  0.9725
 3243SOL    HW221192   1.250   2.054  14.986  1.0206  0.3040  1.6256
 3244SOL     OW21193   1.587   0.601   8.675  0.7129 -0.4322  0.1435
 3244SOL    HW121194   1.631   0.635   8.597  0.5061  1.5277  0.8776
 3244SOL    HW221195   1.497   0.618   8.647  0.1828 -2.8136  0.4393
 3245SOL     OW21196   2.049   2.274  10.512 -0.3527 -0.0648 -0.5961
 3245SOL    HW121197   2.110   2.201  10.500  0.5397  0.4610  0.7292
 3245SOL    HW221198   2.094   2.308  10.590  0.4368 -1.1657 -0.5560
 3246SOL     OW21199   1.178   2.659   6.419  0.0516  0.6430 -0.1089
 3246SOL    HW121200   1.211   2.748   6.422  1.9241 -0.0571 -0.3425
 3246SOL    HW221201   1.174   2.645   6.514  2.4357 -1.3734 -0.3011
 3247SOL     OW21202   1.889   2.160   3.480  0.2653 -0.5389  0.1725
 3247SOL    HW121203   1.873   2.213   3.558 -1.5582 -0.7612 -0.0394
 3247SOL    HW221204   1.856   2.218   3.411  1.6347  1.9774  1.6308
 3248SOL     OW21205   3.253   2.442   5.065 -0.1912  0.1831  0.9746
 3248SOL    HW121206   3.177   2.500   5.056 -0.6231 -0.5194  0.1973
 3248SOL    HW221207   3.318   2.507   5.037 -0.5214  0.7393  1.4758
 3249SOL     OW21208   3.662   3.350   5.754 -0.3317  0.0146 -0.6753
 3249SOL    HW121209   3.610   3.336   5.833 -0.1289  0.0191 -0.5391
 3249SOL    HW221210   3.752   3.365   5.783 -0.7289  2.7559 -0.8687
 3250SOL     OW21211   0.372   4.475   2.416  0.3818  0.1684 -0.2808
 3250SOL    HW121212   0.398   4.399   2.365  2.6992 -0.5325  1.9725
 3250SOL    HW221213   0.322   4.521   2.348 -1.1793 -2.8430 -1.1751
 3251SOL     OW21214   3.529   0.667   3.060 -0.5234 -0.3644  0.2658
 3251SOL    HW121215   3.445   0.631   3.088 -0.1977 -1.3049  0.0402
 3251SOL    HW221216   3.584   0.625   3.127  0.7289 -0.9232 -1.1262
 3252SOL     OW21217   0.022   2.365   4.964  0.2923  0.2804 -0.3556
 3252SOL    HW121218   0.048   2.276   4.943  0.1932 -0.0383  0.8845
 3252SOL    HW221219   0.001   2.391   4.874 -0.4047 -0.0894 -0.3028
 3253SOL     OW21220   1.351   0.671   8.533 -0.0356 -0.4138  0.6018
 3253SOL    HW121221   1.384   0.733   8.468 -2.0593 -1.2806 -1.2592
 3253SOL    HW221222   1.258   0.669   8.508  0.1554 -0.8275 -0.0639
 3254SOL     OW21223   1.579   2.451   9.579 -0.3325 -0.3292  0.4762
 3254SOL    HW121224   1.599   2.358   9.572  1.4384 -0.1398  3.4711
 3254SOL    HW221225   1.575   2.455   9.674  1.6509 -0.9510  0.5784
 3255SOL     OW21226   1.549   3.673   0.533 -0.1063  0.6586  0.3519
 3255SOL    HW121227   1.487   3.661   0.605 -1.4356  1.3481 -0.6844
 3255SOL    HW221228   1.624   3.693   0.590  0.6198 -2.0280  0.3074
 3256SOL     OW21229   2.365   0.883   8.595  0.3065  0.2114  0.0995
 3256SOL    HW121230   2.422   0.848   8.527  0.8099  2.9425 -0.8722
 3256SOL    HW221231   2.426   0.902   8.666  2.2569 -3.8612 -0.4721
 3257SOL     OW21232   2.865   2.763  11.234  0.0949  0.1329  0.3387
 3257SOL    HW121233   2.792   2.752  11.174 -0.6818 -0.6858  1.4356
 3257SOL    HW221234   2.820   2.769  11.319  2.0566  1.8969  1.2538
 3258SOL     OW21235   0.499   0.140   2.350 -0.1058  0.4431  0.4416
 3258SOL    HW121236   0.416   0.174   2.319 -0.3136 -1.3596 -1.0281
 3258SOL    HW221237   0.459   0.083   2.416 -0.0602 -1.7587 -1.4346
 3259SOL     OW21238   4.297   0.784  12.359 -0.0005 -0.1364 -0.3992
 3259SOL    HW121239   4.336   0.733  12.287 -0.7793  0.9322 -1.5740
 3259SOL    HW221240   4.371   0.844  12.365  0.2615 -0.3409 -1.5819
 3260SOL     OW21241   4.701   3.691   3.517 -0.8684 -0.5371  0.0586
 3260SOL    HW121242   0.033   3.747   3.574 -1.0738  1.5437 -1.7700
 3260SOL    HW221243   0.022   3.610   3.544 -0.4412 -0.8078 -1.4616
 3261SOL     OW21244   2.533   1.274   8.184  0.2106  0.3265 -0.1642
 3261SOL    HW121245   2.466   1.207   8.202 -0.7814  1.2123 -0.5510
 3261SOL    HW221246   2.498   1.359   8.210 -0.6014  0.2529 -0.9954
 3262SOL     OW21247   0.565   3.387  15.968 -0.6582  0.0013  0.6962
 3262SOL    HW121248   0.563   3.329  15.892  1.3710 -1.5261  1.8066
 3262SOL    HW221249   0.518   3.463  15.934  0.5175  0.1838 -0.5130
 3263SOL     OW21250   4.619   2.726   3.134  0.5059  0.0073 -0.1293
 3263SOL    HW121251   4.708   2.716   3.168  0.9195 -0.4124 -1.3261
 3263SOL    HW221252   4.599   2.651   3.077  2.9837 -0.0819 -0.8762
 3264SOL     OW21253   2.611   4.566   0.281 -0.6853  0.6146  0.3005
 3264SOL    HW121254   2.590   4.482   0.239 -2.4010  2.0130 -1.6171
 3264SOL    HW221255   2.694   4.533   0.316 -0.6170  0.2146 -0.2286
 3265SOL     OW21256   1.909   1.404   6.588  0.1073 -0.4046  0.2860
 3265SOL    HW121257   1.893   1.489   6.546  0.0936 -0.0956  0.9170
 3265SOL    HW221258   1.955   1.361   6.516  2.3011  0.8369  0.9224
 3266SOL     OW21259   1.965   3.846   3.273  0.4977 -0.1480  0.0662
 3266SOL    HW121260   1.934   3.924   3.228 -0.7729  1.0888  3.0576
 3266SOL    HW221261   2.060   3.841   3.269  0.5134  0.1522  0.0950
 3267SOL     OW21262   0.231   0.661  12.925  0.1669 -0.9213  0.3444
 3267SOL    HW121263   0.275   0.745  12.939  0.3828 -1.3799  2.4299
 3267SOL    HW221264   0.293   0.619  12.866  0.8888 -1.2065  1.3121
 3268SOL     OW21265   0.768   0.036   1.930  0.0594  0.1656 -0.3655
 3268SOL    HW121266   0.740   0.003   2.015  0.0692  1.9316  0.3155
 3268SOL    HW221267   0.757   0.131   1.937 -1.2589  0.2238 -2.9901
 3269SOL     OW21268   4.470   1.533   3.290 -0.2353 -0.2240 -0.4476
 3269SOL    HW121269   4.418   1.462   3.328  1.6483 -0.8857  0.8731
 3269SOL    HW221270   4.511   1.555   3.374 -1.3987  1.9153 -0.4413
 3270SOL     OW21271   3.318   2.797   8.026 -0.1690 -0.5758 -0.0161
 3270SOL    HW121272   3.276   2.880   8.049 -0.7450  0.0634 -3.3709
 3270SOL    HW221273   3.387   2.786   8.091 -0.6414  0.3077  0.6189
 3271SOL     OW21274   4.652   0.491   5.029  0.4092 -0.1841  0.1114
 3271SOL    HW121275   0.002   0.437   5.060  0.7134 -0.2706 -0.7309
 3271SOL    HW221276   4.649   0.475   4.935 -0.3691 -0.5650  0.2033
 3272SOL     OW21277   2.681   4.396   4.541 -0.7114 -0.4422 -0.1109
 3272SOL    HW121278   2.658   4.340   4.615 -1.4042 -1.3260 -0.9992
 3272SOL    HW221279   2.775   4.407   4.557 -0.5218 -1.4815 -0.5268
 3273SOL     OW21280   2.846   4.463   7.711  0.4098 -0.0669  0.1041
 3273SOL    HW121281   2.879   4.519   7.641 -0.6450 -1.9848 -1.9161
 3273SOL    HW221282   2.929   4.422   7.736  0.3653 -1.1966 -1.6807
 3274SOL     OW21283   2.200   3.878   7.241  0.1928  0.0392 -0.4676
 3274SOL    HW121284   2.200   3.943   7.311  0.8573 -2.6137  2.0032
 3274SOL    HW221285   2.282   3.884   7.191  1.1707  2.1967  1.4160
 3275SOL     OW21286   0.556   3.765  16.182  0.6663 -0.6276 -0.7466
 3275SOL    HW121287   0.644   3.732  16.161  1.2338 -0.3258  1.1860
 3275SOL    HW221288   0.570   3.835  16.244  0.4804 -2.4119  1.3023
 3276SOL     OW21289   1.611   2.353   6.402  0.2774 -0.4933  0.1188
 3276SOL    HW121290   1.673   2.424   6.418 -1.1620  1.1972 -1.7744
 3276SOL    HW221291   1.535   2.404   6.373  0.0270 -1.4775 -0.9581
 3277SOL     OW21292   1.948   1.703   3.384 -0.2628 -0.6293 -0.4386
 3277SOL    HW121293   2.003   1.765   3.432 -0.0765 -2.2077  1.3695
 3277SOL    HW221294   1.895   1.754   3.322  0.6550  1.0080  0.1171
 3278SOL     OW21295   3.162   0.944   8.030  0.1357  0.1838  0.4798
 3278SOL    HW121296   3.164   1.040   8.033 -0.9866  0.1979  0.8144
 3278SOL    HW221297   3.068   0.937   8.044  0.1469 -1.5719 -0.3997
 3279SOL     OW21298   3.594   1.029   4.227 -0.1263  0.1372 -0.0038
 3279SOL    HW121299   3.509   1.070   4.243 -0.9981 -1.3185 -0.8788
 3279SOL    HW221300   3.631   1.078   4.153 -0.6605  0.9226  0.2554
 3280SOL     OW21301   1.186   2.202  15.350 -0.6979  0.2051  0.3296
 3280SOL    HW121302   1.261   2.171  15.400 -1.2755  1.3918  1.9477
 3280SOL    HW221303   1.175   2.127  15.291 -0.7543  0.4876 -0.0122
 3281SOL     OW21304   0.794   4.298   3.410 -0.0044 -0.3298 -0.0852
 3281SOL    HW121305   0.866   4.235   3.408  0.4939  0.2134  0.9686
 3281SOL    HW221306   0.811   4.341   3.325 -0.8958  0.5960  0.1965
 3282SOL     OW21307   1.891   1.372   5.325 -0.0937 -0.5362 -0.7746
 3282SOL    HW121308   1.984   1.376   5.349 -0.2413 -0.9158 -0.1377
 3282SOL    HW221309   1.888   1.419   5.242  0.7398 -2.6101 -1.9801
 3283SOL     OW21310   4.116   4.108  13.352  0.1889  0.5117 -0.0564
 3283SOL    HW121311   4.171   4.154  13.289  0.4906  0.7534  0.3912
 3283SOL    HW221312   4.130   4.161  13.430 -2.1426 -0.6066  1.1205
 3284SOL     OW21313   4.106   2.807   6.269  0.5377  0.0622  0.6369
 3284SOL    HW121314   4.103   2.870   6.340  1.2957  0.5985  0.1949
 3284SOL    HW221315   4.075   2.729   6.314  0.5945 -0.9520 -1.0654
 3285SOL     OW21316   1.242   1.746   5.867 -0.2990 -0.5965  0.0904
 3285SOL    HW121317   1.258   1.738   5.961 -2.4304  0.3317  0.5134
 3285SOL    HW221318   1.189   1.825   5.867 -1.7369 -1.5994  3.0445
 3286SOL     OW21319   4.238   3.746  10.465  0.6125  0.4666 -0.1181
 3286SOL    HW121320   4.268   3.825  10.420  0.2742  0.1201 -0.9612
 3286SOL    HW221321   4.268   3.764  10.554  1.0355 -1.2616  0.0853
 3287SOL     OW21322   0.746   2.632   8.382  0.3114  0.1557 -0.2448
 3287SOL    HW121323   0.657   2.663   8.400 -0.1969 -1.9631  0.7993
 3287SOL    HW221324   0.800   2.680   8.445 -0.4008 -0.8398  1.1160
 3288SOL     OW21325   2.873   0.686  16.817 -0.0803  0.8028 -0.0429
 3288SOL    HW121326   2.808   0.702  16.885  0.0947  1.0398  0.0677
 3288SOL    HW221327   2.914   0.601  16.828 -0.6741  0.5133 -0.0813
 3289SOL     OW21328   1.162   1.171  11.553  0.1344 -0.2602  0.5109
 3289SOL    HW121329   1.235   1.227  11.527 -0.7007 -0.3524 -2.0418
 3289SOL    HW221330   1.217   1.129  11.619 -0.7230 -3.6404 -0.9355
 3290SOL     OW21331   2.219   4.120  12.535  0.2660  0.3776  0.2461
 3290SOL    HW121332   2.223   4.028  12.508 -0.2608  0.1140  1.0747
 3290SOL    HW221333   2.217   4.172  12.454 -1.7014 -0.8023 -0.4636
 3291SOL     OW21334   0.579   1.168   7.411 -0.3801  0.3868 -0.4141
 3291SOL    HW121335   0.573   1.222   7.490  1.9661  2.6082 -1.7636
 3291SOL    HW221336   0.602   1.085   7.454 -0.3063 -0.2414 -1.6564
 3292SOL     OW21337   4.081   4.524   5.048  0.0092  0.0605  0.1092
 3292SOL    HW121338   4.149   4.484   4.995 -0.9275 -0.5563 -0.6290
 3292SOL    HW221339   4.094   4.617   5.031  0.0586 -0.0165 -0.2684
 3293SOL     OW21340   0.381   3.270  10.673 -0.2771  0.2888  0.0791
 3293SOL    HW121341   0.419   3.184  10.652  0.2404  0.0051  2.1981
 3293SOL    HW221342   0.398   3.286  10.765  0.4638 -1.8489  0.3256
 3294SOL     OW21343   0.284   3.947   9.502  0.1409  0.1923  0.1541
 3294SOL    HW121344   0.362   4.001   9.490  0.0385  0.4089  0.4438
 3294SOL    HW221345   0.234   4.026   9.523 -0.5385 -0.5346  1.2823
 3295SOL     OW21346   1.853   2.385   4.639  0.1260  0.0419 -0.1139
 3295SOL    HW121347   1.879   2.476   4.629 -0.5163  0.3438  1.0549
 3295SOL    HW221348   1.770   2.388   4.592  0.8552  1.1589 -1.3396
 3296SOL     OW21349   3.355   0.734   4.757  0.1380 -0.4740  0.1016
 3296SOL    HW121350   3.389   0.817   4.791 -0.9133 -0.6803  1.6759
 3296SOL    HW221351   3.401   0.672   4.812  1.3824  2.2079  2.0931
 3297SOL     OW21352   4.710   3.934   7.328  0.5429  0.2545 -0.0620
 3297SOL    HW121353   0.053   3.907   7.264 -0.1176 -0.4435 -0.4482
 3297SOL    HW221354   4.629   3.958   7.282  0.4865 -0.7790 -0.5023
 3298SOL     OW21355   0.553   3.351   7.203 -0.3234 -0.6051 -0.1348
 3298SOL    HW121356   0.546   3.418   7.135 -0.9772  0.5076  1.0206
 3298SOL    HW221357   0.566   3.410   7.277  2.0257 -1.6618  0.2995
 3299SOL     OW21358   1.638   2.894   4.585  0.4394  0.0991  0.0942
 3299SOL    HW121359   1.646   2.805   4.551 -3.4445 -0.6218  1.0397
 3299SOL    HW221360   1.601   2.880   4.673 -0.3823  3.1420  0.2345
 3300SOL     OW21361   1.471   0.258  11.651 -0.4673 -0.1056 -0.1488
 3300SOL    HW121362   1.471   0.332  11.711 -0.7617  0.5108 -0.8981
 3300SOL    HW221363   1.377   0.256  11.632 -0.6172 -0.8183  0.6666
 3301SOL     OW21364   3.388   4.618  11.289 -0.0044  0.0017  0.1406
 3301SOL    HW121365   3.354   4.703  11.319 -0.2711  0.0584 -0.3281
 3301SOL    HW221366   3.334   4.559  11.341  2.4932 -0.6556  1.9700
 3302SOL     OW21367   3.219   0.731   4.389  0.0846 -0.3590 -0.3555
 3302SOL    HW121368   3.193   0.763   4.303 -1.2327  0.1144  0.2102
 3302SOL    HW221369   3.167   0.653   4.402 -1.9067  0.7534 -1.7494
 3303SOL     OW21370   2.306   3.565   0.532 -0.0832  0.6266  0.9736
 3303SOL    HW121371   2.261   3.487   0.565  0.2837 -0.0326 -0.1125
 3303SOL    HW221372   2.281   3.625   0.603  0.1333 -0.1522  1.7083
 3304SOL     OW21373   0.221   3.842   0.466  0.3722  0.0907  0.0927
 3304SOL    HW121374   0.264   3.800   0.540 -0.5926 -1.6970 -0.3380
 3304SOL    HW221375   0.133   3.827   0.503  1.4637 -2.1940  1.7447
 3305SOL     OW21376   2.134   4.428   3.541  0.2254  0.1584 -0.0258
 3305SOL    HW121377   2.192   4.504   3.532 -0.6851  0.9808  1.0028
 3305SOL    HW221378   2.200   4.360   3.549 -0.7999 -0.8729 -0.4204
 3306SOL     OW21379   4.461   0.095   6.599  0.0059  0.1665 -0.4918
 3306SOL    HW121380   4.495   0.081   6.511  1.2940 -0.9965  0.1888
 3306SOL    HW221381   4.546   0.106   6.641 -2.2256 -2.0719  4.6694
 3307SOL     OW21382   3.790   2.410   9.389  0.0749 -0.0813  0.6883
 3307SOL    HW121383   3.875   2.410   9.345 -0.2254  0.2045  0.0999
 3307SOL    HW221384   3.726   2.400   9.319  1.1819 -1.4196 -0.1244
 3308SOL     OW21385   2.705   4.160   6.997  0.0736  0.3376 -0.0938
 3308SOL    HW121386   2.620   4.124   7.021  1.6397 -1.2387  3.1356
 3308SOL    HW221387   2.754   4.119   7.069 -0.0819 -1.5317 -1.0794
 3309SOL     OW21388   0.041   0.444   4.545 -0.1747 -0.3979 -0.3087
 3309SOL    HW121389   0.134   0.454   4.525 -0.2989  1.7574  0.2006
 3309SOL    HW221390   0.018   0.537   4.545 -0.1850 -0.4004 -0.3063
 3310SOL     OW21391   0.566   0.952  16.715 -0.4824  0.3297  0.3915
 3310SOL    HW121392   0.483   0.994  16.737 -0.5967  0.5342 -0.4381
 3310SOL    HW221393   0.596   0.912  16.797 -0.6213 -1.6993 -0.5475
 3311SOL     OW21394   3.104   2.263   5.912 -0.2798 -0.6175  0.1313
 3311SOL    HW121395   3.109   2.169   5.896 -1.1920 -0.8015  0.9532
 3311SOL    HW221396   3.043   2.262   5.986  0.0145 -1.2684  0.3684
 3312SOL     OW21397   0.216   0.930   1.753  0.1893  0.6086  0.0508
 3312SOL    HW121398   0.279   0.886   1.810  1.6337  0.9128 -1.3097
 3312SOL    HW221399   0.265   0.970   1.681 -0.2193 -0.2532 -0.6906
 3313SOL     OW21400   4.553   1.380  14.184 -0.4440 -0.0376 -0.3439
 3313SOL    HW121401   4.540   1.463  14.138  1.0815 -1.0953 -2.6782
 3313SOL    HW221402   4.467   1.348  14.212 -0.6207 -0.7534 -1.7276
 3314SOL     OW21403   0.179   4.528   7.701  0.8413  0.6249  0.1638
 3314SOL    HW121404   0.162   4.465   7.631 -1.0041 -0.3116  1.4546
 3314SOL    HW221405   0.131   4.602   7.665  0.6084  0.0510 -0.6890
 3315SOL     OW21406   3.006   2.616   2.680  0.0401  0.1642  0.1746
 3315SOL    HW121407   3.009   2.676   2.605  1.7709  2.0246  1.7199
 3315SOL    HW221408   2.927   2.568   2.656 -0.3017  0.9383 -0.2653
 3316SOL     OW21409   2.055   1.474   8.307 -0.0648  0.0234 -0.2227
 3316SOL    HW121410   2.095   1.407   8.250 -0.9152 -1.5182  0.9798
 3316SOL    HW221411   2.080   1.437   8.392 -1.6804  0.0160  0.2416
 3317SOL     OW21412   2.733   1.603   7.424 -0.7360 -0.0015 -0.2681
 3317SOL    HW121413   2.726   1.521   7.474  1.9029 -0.4548 -0.6366
 3317SOL    HW221414   2.819   1.634   7.455  0.0141 -2.5463  0.1885
 3318SOL     OW21415   4.519   1.556   6.050 -0.8726 -0.5974  0.0474
 3318SOL    HW121416   4.475   1.579   5.969  0.3411  0.0674 -0.4209
 3318SOL    HW221417   4.480   1.469   6.055 -2.9580  0.2429 -1.9546
 3319SOL     OW21418   1.774   1.730  13.971  0.0674 -0.3658  0.0767
 3319SOL    HW121419   1.781   1.645  14.016 -2.2856 -1.3436 -1.4139
 3319SOL    HW221420   1.849   1.734  13.913 -1.5865  1.5136 -1.8943
 3320SOL     OW21421   1.303   1.214  16.259 -0.2642 -0.2247  0.1999
 3320SOL    HW121422   1.391   1.250  16.265 -0.1306 -0.5530  0.1668
 3320SOL    HW221423   1.327   1.123  16.273 -0.9149 -0.5095 -0.5012
 3321SOL     OW21424   2.942   4.676   3.122  0.0182  0.4259  0.0090
 3321SOL    HW121425   3.016   4.684   3.062  0.2539 -2.1947 -0.0451
 3321SOL    HW221426   2.876   4.712   3.063  2.1126  1.7360 -1.5109
 3322SOL     OW21427   3.416   2.143   0.840 -1.1914  0.0650 -0.5223
 3322SOL    HW121428   3.324   2.134   0.864 -1.4939  1.2118 -1.2758
 3322SOL    HW221429   3.452   2.173   0.923 -1.3091  2.1563 -1.2269
 3323SOL     OW21430   0.111   3.437   8.131  0.5585 -0.1285  0.1052
 3323SOL    HW121431   0.150   3.514   8.089 -1.1475  2.2428  2.8787
 3323SOL    HW221432   0.169   3.426   8.206 -1.4848 -0.9551  1.5505
 3324SOL     OW21433   4.309   3.077   4.577 -0.6369 -0.3223  0.3373
 3324SOL    HW121434   4.343   3.130   4.505  2.0287 -1.2358  0.9276
 3324SOL    HW221435   4.390   3.062   4.626 -0.6234  2.1769  1.0645
 3325SOL     OW21436   2.213   0.411   4.377 -0.7193  0.0267  0.6046
 3325SOL    HW121437   2.234   0.487   4.323 -4.2363 -0.8745 -1.9951
 3325SOL    HW221438   2.271   0.345   4.339  0.3514 -0.4308  3.0125
 3326SOL     OW21439   3.589   0.629  17.576  0.0441  0.7401 -0.2494
 3326SOL    HW121440   3.636   0.686  17.515  2.0778 -0.1971  0.4659
 3326SOL    HW221441   3.609   0.540  17.549 -0.2446  1.1284 -1.7919
 3327SOL     OW21442   2.540   2.812   5.723  0.6102  0.0360  0.0371
 3327SOL    HW121443   2.614   2.868   5.696  0.9933  0.3378  1.7341
 3327SOL    HW221444   2.499   2.879   5.778  0.4073  1.1406 -1.4407
 3328SOL     OW21445   3.821   3.093  10.233  0.1036 -0.0036 -0.4782
 3328SOL    HW121446   3.792   3.018  10.182 -0.0311  0.7213 -1.4760
 3328SOL    HW221447   3.913   3.068  10.233  0.1486  0.1654 -1.2671
 3329SOL     OW21448   1.166   3.610  15.657  0.1222 -0.6637  0.2240
 3329SOL    HW121449   1.181   3.529  15.609 -0.2006 -1.0525  0.7794
 3329SOL    HW221450   1.146   3.677  15.592 -1.4626 -0.6132  0.7744
 3330SOL     OW21451   4.085   1.375   3.557  0.3643  0.5213 -0.3200
 3330SOL    HW121452   4.087   1.316   3.482 -0.5872  0.4806 -0.3080
 3330SOL    HW221453   3.997   1.411   3.555  1.0516  2.1733 -0.2505
 3331SOL     OW21454   1.664   0.421   8.886  0.3374 -1.1418  0.4451
 3331SOL    HW121455   1.647   0.454   8.798 -1.0839 -0.4480  0.9904
 3331SOL    HW221456   1.618   0.483   8.942 -0.4180 -0.1268 -1.3063
 3332SOL     OW21457   3.376   0.189   2.812 -0.1011 -0.5837 -0.1689
 3332SOL    HW121458   3.460   0.221   2.845  0.6782 -2.1671 -0.6159
 3332SOL    HW221459   3.414   0.123   2.754  0.7683 -1.1789  1.0697
 3333SOL     OW21460   3.161   3.378  10.241  0.0073  0.4563 -0.0370
 3333SOL    HW121461   3.076   3.422  10.245  0.3617  1.1443 -0.1258
 3333SOL    HW221462   3.164   3.349  10.332 -1.3741 -1.0228 -0.4677
 3334SOL     OW21463   0.986   4.138   3.295  0.5609  0.2454  0.3196
 3334SOL    HW121464   0.958   4.047   3.304 -0.7960  0.3821 -2.5098
 3334SOL    HW221465   1.076   4.130   3.265  0.7249  1.7838  0.3706
 3335SOL     OW21466   1.961   3.836   5.459 -0.0569 -0.6394 -0.0065
 3335SOL    HW121467   1.872   3.802   5.447 -0.9685  1.1201  1.8001
 3335SOL    HW221468   1.958   3.929   5.440  0.3495 -1.1775 -2.7457
 3336SOL     OW21469   0.683   0.620   4.174  0.2990 -0.0673 -1.0110
 3336SOL    HW121470   0.772   0.610   4.142  0.2239  1.0947 -1.6111
 3336SOL    HW221471   0.698   0.706   4.215 -0.3472  0.2302 -1.4023
 3337SOL     OW21472   3.484   2.902  10.188 -0.3870  0.0733  0.4056
 3337SOL    HW121473   3.498   2.986  10.232  2.4850  0.7488 -1.7829
 3337SOL    HW221474   3.482   2.835  10.256  1.4161  0.7910  1.1607
 3338SOL     OW21475   1.901   0.060  16.326  0.2441  0.8356  0.2700
 3338SOL    HW121476   1.928   0.050  16.234  0.2650 -0.0831  0.3701
 3338SOL    HW221477   1.825   0.115  16.309  0.2847  0.7658 -0.1345
 3339SOL     OW21478   0.485   2.324   8.119 -0.1134  0.0190 -0.0035
 3339SOL    HW121479   0.573   2.334   8.155 -0.7602  2.8419  0.8338
 3339SOL    HW221480   0.486   2.396   8.057 -0.8792 -0.1210 -0.1848
 3340SOL     OW21481   0.207   3.087   3.540  0.5685 -0.2610 -0.4075
 3340SOL    HW121482   0.242   3.099   3.452  1.7051  1.4210  0.2694
 3340SOL    HW221483   0.278   3.125   3.592  4.7339 -2.0905 -4.8438
 3341SOL     OW21484   1.244   2.061   8.089  0.2841  0.0856  0.3738
 3341SOL    HW121485   1.328   2.057   8.043  1.0461  0.3895  1.7458
 3341SOL    HW221486   1.209   1.976   8.063 -1.3578  0.3231  1.7601
 3342SOL     OW21487   1.754   4.281   8.380  0.1760 -0.2049  0.0448
 3342SOL    HW121488   1.836   4.235   8.399  0.5095  0.9614  1.3914
 3342SOL    HW221489   1.691   4.209   8.378  0.3494 -0.3379 -0.7805
 3343SOL     OW21490   2.104   2.497   8.462  0.1732 -0.0689 -0.2158
 3343SOL    HW121491   2.176   2.434   8.470  1.4472  1.5122  0.7903
 3343SOL    HW221492   2.132   2.528   8.376 -0.0523 -2.1505 -1.0565
 3344SOL     OW21493   0.025   2.395  10.452  0.1240  0.1517  0.5554
 3344SOL    HW121494   0.025   2.431  10.540 -2.1146 -2.9838  1.8462
 3344SOL    HW221495   0.112   2.417  10.419 -0.1189 -1.3834 -1.1334
 3345SOL     OW21496   0.686   1.090   4.477 -0.3241 -0.0975 -0.1798
 3345SOL    HW121497   0.700   1.082   4.571  2.8433  0.0254 -0.6598
 3345SOL    HW221498   0.595   1.063   4.462 -1.0839  2.4542 -0.1839
 3346SOL     OW21499   4.353   2.122   1.251 -0.1764  0.0779 -0.3222
 3346SOL    HW121500   4.425   2.099   1.192  1.2148  1.2949  0.8872
 3346SOL    HW221501   4.297   2.181   1.201 -1.7518 -0.7335  0.4714
 3347SOL     OW21502   0.786   3.112   3.336  0.0931  0.1116  0.1595
 3347SOL    HW121503   0.834   3.037   3.371  0.9289  1.3014  1.5578
 3347SOL    HW221504   0.853   3.127   3.269 -0.2702 -0.5163 -0.3401
 3348SOL     OW21505   3.332   2.526  13.701  0.0684 -0.0125  0.0103
 3348SOL    HW121506   3.412   2.474  13.693  1.0167  1.6664 -1.3564
 3348SOL    HW221507   3.360   2.604  13.654  0.6296 -0.9131 -1.1647
 3349SOL     OW21508   2.375   0.341   3.236  0.3584 -0.1604  0.4431
 3349SOL    HW121509   2.292   0.329   3.190  0.7247 -1.6730  0.1819
 3349SOL    HW221510   2.346   0.311   3.322  1.3404 -1.9303  0.1434
 3350SOL     OW21511   3.477   2.956   3.956  0.1341 -0.9010  0.1169
 3350SOL    HW121512   3.553   3.000   3.995  0.7291 -2.3259  0.5752
 3350SOL    HW221513   3.513   2.875   3.919 -0.1278 -0.8445 -0.2654
 3351SOL     OW21514   2.978   0.809  17.634  0.0458 -0.1254 -0.0376
 3351SOL    HW121515   3.066   0.826  17.667  0.8058  1.2322 -2.7519
 3351SOL    HW221516   2.964   0.872  17.563  3.3471  1.6782  0.9107
 3352SOL     OW21517   4.393   3.173  13.606 -0.2611  0.1206  0.4879
 3352SOL    HW121518   4.335   3.233  13.560  2.3289  0.0293 -2.8278
 3352SOL    HW221519   4.399   3.097  13.548  0.1419  0.6605 -0.1762
 3353SOL     OW21520   2.556   4.098   2.814  0.1024 -0.0236  0.0217
 3353SOL    HW121521   2.567   4.122   2.722  1.6931 -2.2216 -0.3774
 3353SOL    HW221522   2.559   4.003   2.796  0.8627  0.1263 -0.6591
 3354SOL     OW21523   4.091   4.116   7.836  0.5691 -0.3556 -0.4953
 3354SOL    HW121524   4.164   4.055   7.845  1.5193  0.7715 -0.5352
 3354SOL    HW221525   4.113   4.187   7.896 -1.9875  0.6341 -0.7202
 3355SOL     OW21526   4.263   4.096   3.326  0.0418  0.4843  0.2567
 3355SOL    HW121527   4.316   4.170   3.355 -1.1783  1.0994  0.9432
 3355SOL    HW221528   4.249   4.059   3.414 -0.6273 -0.0381 -0.0610
 3356SOL     OW21529   0.265   0.945   5.573  0.2207  0.1070  0.5289
 3356SOL    HW121530   0.335   0.982   5.627  0.0362 -0.6410  1.2751
 3356SOL    HW221531   0.218   1.025   5.549  2.2746  0.4566 -2.3757
 3357SOL     OW21532   0.883   0.723   7.485  0.4692  0.3654 -0.0797
 3357SOL    HW121533   0.959   0.760   7.531 -0.1790  1.5441  0.0428
 3357SOL    HW221534   0.854   0.670   7.559 -0.8737  1.6892  0.3484
 3358SOL     OW21535   3.971   4.026   8.862  0.4053 -0.7551 -0.3459
 3358SOL    HW121536   4.040   4.092   8.859 -0.3395  0.1364  1.6371
 3358SOL    HW221537   4.018   3.957   8.815  0.2199 -2.4989  2.0106
 3359SOL     OW21538   4.228   1.791  15.909  0.1789 -0.6086  0.2394
 3359SOL    HW121539   4.193   1.862  15.963  2.1269  2.1044 -2.0412
 3359SOL    HW221540   4.279   1.745  15.976  0.8016  2.2589  1.7349
 3360SOL     OW21541   2.002   0.105   5.673  0.3235  0.1138  0.4609
 3360SOL    HW121542   1.909   0.087   5.664  0.7547 -0.4270 -2.8353
 3360SOL    HW221543   2.034   0.062   5.594  1.6421 -1.2613  1.7325
 3361SOL     OW21544   1.610   3.047   2.648  0.2536 -0.3010 -0.1745
 3361SOL    HW121545   1.689   3.073   2.695  1.2207  0.1559 -2.0610
 3361SOL    HW221546   1.628   3.053   2.554 -0.9963 -1.1407 -0.4770
 3362SOL     OW21547   3.063   3.147  10.113 -0.1919 -0.1125  0.4527
 3362SOL    HW121548   3.111   3.228  10.094  0.6510 -0.7112  0.0563
 3362SOL    HW221549   3.031   3.126  10.025  2.7176 -0.9028 -0.4066
 3363SOL     OW21550   4.193   2.352   3.965  0.2987  0.0784  0.2382
 3363SOL    HW121551   4.174   2.329   3.874 -0.3348  1.5779 -0.0059
 3363SOL    HW221552   4.121   2.318   4.018 -0.1858  1.0625  0.1990
 3364SOL     OW21553   3.533   0.094   6.606  0.7713  0.6741 -0.5096
 3364SOL    HW121554   3.586   0.145   6.668  0.3955 -0.6279  0.8767
 3364SOL    HW221555   3.603   0.059   6.552  0.9833  1.3274 -0.6634
 3365SOL     OW21556   1.790   2.512   5.160  0.2359 -0.5332 -0.2228
 3365SOL    HW121557   1.852   2.477   5.096  1.3704 -3.4502  2.5162
 3365SOL    HW221558   1.847   2.527   5.235  2.8028 -1.2507 -2.0316
 3366SOL     OW21559   1.984   0.825   3.639  0.5717  0.4235  0.3937
 3366SOL    HW121560   1.925   0.781   3.701 -0.3307  1.9960  0.6543
 3366SOL    HW221561   2.025   0.752   3.593 -1.1695 -0.8674  0.8753
 3367SOL     OW21562   4.159   0.913   7.798  0.2886 -0.0888  0.4180
 3367SOL    HW121563   4.246   0.924   7.836  0.2689  1.5796 -0.0065
 3367SOL    HW221564   4.131   0.840   7.854  0.2600 -0.5707 -0.2266
 3368SOL     OW21565   2.293   0.660   1.023 -0.0542  0.0956 -0.5283
 3368SOL    HW121566   2.328   0.719   1.090 -1.7103  0.0233  0.4017
 3368SOL    HW221567   2.363   0.658   0.957 -0.2371  0.0346 -0.7193
 3369SOL     OW21568   2.919   0.512  13.309 -0.4999  0.2366 -0.2734
 3369SOL    HW121569   2.973   0.459  13.251 -0.3245  0.9106 -0.7231
 3369SOL    HW221570   2.856   0.552  13.249 -0.7476  0.7344  0.3195
 3370SOL     OW21571   0.884   2.636   4.662 -0.4621 -1.1670  0.0613
 3370SOL    HW121572   0.886   2.616   4.568 -1.2621  0.7837 -0.3878
 3370SOL    HW221573   0.915   2.559   4.709 -0.6072 -1.8158 -0.8970
 3371SOL     OW21574   2.808   3.074  17.413 -0.1496 -0.1624 -0.0272
 3371SOL    HW121575   2.827   3.044  17.502 -0.1784 -3.1129 -1.0193
 3371SOL    HW221576   2.762   2.998  17.377 -0.6177 -0.5371  1.3564
 3372SOL     OW21577   2.381   0.265   1.606  0.8268  0.0368 -0.3898
 3372SOL    HW121578   2.410   0.321   1.534  2.1979 -0.3735 -0.1528
 3372SOL    HW221579   2.286   0.276   1.605  0.6944 -0.8824  1.7160
 3373SOL     OW21580   4.361   2.455   7.281 -0.5093 -0.7091  0.2284
 3373SOL    HW121581   4.444   2.451   7.232 -0.4724 -0.8617  0.3018
 3373SOL    HW221582   4.296   2.430   7.216 -2.2337  1.4104  1.1432
 3374SOL     OW21583   3.949   0.563   6.735 -0.6713 -0.2280 -0.3509
 3374SOL    HW121584   3.925   0.509   6.810  0.5062 -0.8158 -0.3990
 3374SOL    HW221585   3.865   0.597   6.703 -0.8861 -0.4108  0.0319
 3375SOL     OW21586   2.125   2.541   7.949 -0.2048 -0.1247  0.6953
 3375SOL    HW121587   2.128   2.633   7.923  2.1375 -0.0796  1.1471
 3375SOL    HW221588   2.200   2.510   7.899 -0.7527 -1.6283  0.7994
 3376SOL     OW21589   1.652   0.500   3.446 -0.7306 -0.1542  0.0907
 3376SOL    HW121590   1.617   0.577   3.400 -1.2841 -1.1738 -1.1768
 3376SOL    HW221591   1.588   0.498   3.517 -0.3729 -1.2411  0.3757
 3377SOL     OW21592   3.979   3.886   5.039 -0.7845  0.4916  0.3168
 3377SOL    HW121593   4.003   3.869   4.948  1.8695 -1.4386  1.4028
 3377SOL    HW221594   3.891   3.925   5.041 -0.6036  0.9692 -1.1610
 3378SOL     OW21595   2.127   3.288  14.666  0.9589  0.1876 -0.2427
 3378SOL    HW121596   2.093   3.221  14.607  0.7087  1.2679 -1.3432
 3378SOL    HW221597   2.191   3.328  14.607 -0.2716  0.8609 -1.1252
 3379SOL     OW21598   4.506   4.168   3.722 -0.0870 -0.1866  0.4621
 3379SOL    HW121599   4.557   4.234   3.771  0.8786 -0.1728 -0.5565
 3379SOL    HW221600   4.494   4.223   3.644 -0.1416 -1.0254 -0.1174
 3380SOL     OW21601   2.666   3.100   6.035 -0.0274 -0.4174  0.2957
 3380SOL    HW121602   2.751   3.063   6.012  0.8582  1.5136  0.4485
 3380SOL    HW221603   2.681   3.145   6.118  1.8950  0.5413 -0.5710
 3381SOL     OW21604   2.216   0.589  17.213  0.0361  0.2978  1.0081
 3381SOL    HW121605   2.299   0.572  17.258  1.0852  2.7077 -0.0367
 3381SOL    HW221606   2.204   0.667  17.267 -1.3862  0.4656  0.4642
 3382SOL     OW21607   3.805   3.487   5.032 -0.7478 -0.5142 -0.8544
 3382SOL    HW121608   3.775   3.424   5.097  2.0503 -2.1063 -1.1321
 3382SOL    HW221609   3.877   3.535   5.074 -1.9078 -0.2161  0.7921
 3383SOL     OW21610   3.422   0.273   6.323 -0.1417  0.2329 -0.4308
 3383SOL    HW121611   3.416   0.348   6.264 -2.6722  0.4023  0.0346
 3383SOL    HW221612   3.369   0.311   6.393  0.5310  0.6450 -0.1422
 3384SOL     OW21613   0.941   3.627   4.971 -0.3093  0.6726 -0.1506
 3384SOL    HW121614   1.030   3.617   5.005  0.3797  1.2385 -1.7824
 3384SOL    HW221615   0.957   3.681   4.894 -0.8614 -0.5013 -1.0839
 3385SOL     OW21616   4.383   0.857   4.629 -0.0232  0.2180  0.2999
 3385SOL    HW121617   4.368   0.904   4.711 -1.7087 -0.5364  0.4200
 3385SOL    HW221618   4.439   0.909   4.571  3.9405 -2.3791  1.8054
 3386SOL     OW21619   0.076   3.428   8.558 -0.0342 -0.0201  0.8447
 3386SOL    HW121620   0.074   3.373   8.480  1.9198  1.9501 -0.5926
 3386SOL    HW221621   0.150   3.391   8.605  0.7016 -0.5303 -0.7151
 3387SOL     OW21622   1.078   4.545   7.932 -0.2743  0.1028 -0.2011
 3387SOL    HW121623   1.173   4.546   7.916 -0.3979 -1.3609 -0.9837
 3387SOL    HW221624   1.041   4.602   7.864  2.7226 -0.5566 -2.3692
 3388SOL     OW21625   2.113   4.284   7.487  0.5748 -0.2711  1.0525
 3388SOL    HW121626   2.119   4.379   7.480 -0.0893  0.0086  4.3079
 3388SOL    HW221627   2.081   4.276   7.577 -0.6020  0.6433  0.7297
 3389SOL     OW21628   3.562   4.391  15.641 -0.3673 -0.4774 -0.0293
 3389SOL    HW121629   3.538   4.483  15.636 -1.6465 -0.6888  1.9357
 3389SOL    HW221630   3.638   4.418  15.693 -0.0096 -1.0979 -0.2209
 3390SOL     OW21631   2.232   4.484   9.801  0.9390 -0.0876 -0.6104
 3390SOL    HW121632   2.216   4.568   9.759  2.4357  0.1039 -0.7947
 3390SOL    HW221633   2.298   4.509   9.867  2.2304  0.0765 -1.9575
 3391SOL     OW21634   3.005   2.667  14.492 -0.3596  0.4528 -0.3157
 3391SOL    HW121635   2.968   2.732  14.551 -0.3750  0.5441 -0.4262
 3391SOL    HW221636   3.087   2.708  14.465  0.0592 -0.7957 -0.9786
 3392SOL     OW21637   4.668   3.387   6.144 -0.6294  0.6024  0.1086
 3392SOL    HW121638   4.617   3.466   6.130  0.0215  1.0527  0.2828
 3392SOL    HW221639   4.611   3.336   6.202 -1.4969  0.7394 -0.6286
 3393SOL     OW21640   0.822   2.784   5.228  0.0776 -0.6921  0.5258
 3393SOL    HW121641   0.845   2.709   5.172 -1.1320  0.8393 -2.0002
 3393SOL    HW221642   0.730   2.767   5.248 -0.7527  1.5681 -1.4283
 3394SOL     OW21643   1.692   1.264   3.511 -0.4718  0.3067 -0.2014
 3394SOL    HW121644   1.771   1.289   3.463  0.6504 -1.2863  0.8273
 3394SOL    HW221645   1.732   1.265   3.598 -0.3695 -4.1410 -0.1915
 3395SOL     OW21646   3.723   2.744   6.915  0.1958  0.7682  0.6668
 3395SOL    HW121647   3.806   2.768   6.956  0.0944 -1.6049  2.2997
 3395SOL    HW221648   3.673   2.825   6.923 -1.0137  0.0007  0.8559
 3396SOL     OW21649   0.543   1.834   8.261  0.6586  0.3542  0.1932
 3396SOL    HW121650   0.604   1.882   8.317  0.2304 -0.8138  1.6313
 3396SOL    HW221651   0.493   1.894   8.205 -1.5505 -0.9816  0.7451
 3397SOL     OW21652   0.001   1.173   8.147 -0.0665 -0.2996 -0.2908
 3397SOL    HW121653   0.097   1.179   8.153 -0.0829  1.0120 -1.3051
 3397SOL    HW221654   4.697   1.217   8.066  3.7541 -0.3666 -1.5783
 3398SOL     OW21655   3.237   1.241   0.875 -0.0772  0.4834  0.1296
 3398SOL    HW121656   3.265   1.156   0.908 -1.4438  0.2148  0.5794
 3398SOL    HW221657   3.147   1.215   0.854  0.3563  0.1024 -1.2502
 3399SOL     OW21658   1.464   2.072   7.910 -0.3100 -0.0014  0.2517
 3399SOL    HW121659   1.510   2.101   7.831  1.0203 -3.0051 -0.0672
 3399SOL    HW221660   1.517   1.994   7.929  0.1098  0.3093  0.3602
 3400SOL     OW21661   4.543   4.201   5.006 -0.9493 -0.7771  0.2233
 3400SOL    HW121662   4.556   4.130   5.069  0.4959 -2.6278 -2.1656
 3400SOL    HW221663   4.544   4.278   5.062  0.5556 -0.9118  0.3874
 3401SOL     OW21664   4.146   3.242  16.147  0.2409  0.1055 -0.6590
 3401SOL    HW121665   4.193   3.321  16.175  2.8458 -1.7083  0.0658
 3401SOL    HW221666   4.223   3.199  16.110  0.5512  0.7711 -0.7979
 3402SOL     OW21667   4.089   3.644  14.135  0.1275  0.1427 -0.2696
 3402SOL    HW121668   4.184   3.647  14.126  0.1762  0.3210  0.3757
 3402SOL    HW221669   4.076   3.710  14.203  0.0035  1.0355 -1.1617
 3403SOL     OW21670   2.425   1.192   8.847  0.1071  0.4860  0.1191
 3403SOL    HW121671   2.442   1.100   8.828 -1.2927  0.6343 -1.8343
 3403SOL    HW221672   2.419   1.189   8.942 -1.9269 -0.5324 -0.0377
 3404SOL     OW21673   0.596   3.892   1.217 -1.1863 -0.0609  0.1565
 3404SOL    HW121674   0.542   3.971   1.209 -0.3136  0.4950 -0.2838
 3404SOL    HW221675   0.674   3.912   1.166 -1.0521  0.5852  0.6140
 3405SOL     OW21676   1.009   4.048   7.361 -0.3377  0.1263  0.5003
 3405SOL    HW121677   0.963   4.052   7.445 -1.1889  1.3413 -0.0268
 3405SOL    HW221678   1.095   4.038   7.402 -1.2132 -1.2284  2.0336
 3406SOL     OW21679   3.848   4.110   7.286  0.1087  0.6757 -0.4313
 3406SOL    HW121680   3.880   4.198   7.268 -1.3184  0.9578 -1.6178
 3406SOL    HW221681   3.778   4.116   7.221 -0.3941  0.8716  0.1204
 3407SOL     OW21682   0.598   3.024   4.998 -0.5964 -0.3559 -0.3405
 3407SOL    HW121683   0.602   2.947   5.055 -3.0009  1.1384  1.8718
 3407SOL    HW221684   0.664   3.001   4.933 -0.1448  0.6511 -0.2345
 3408SOL     OW21685   0.946   1.201   8.089  0.2689 -0.6691 -0.4894
 3408SOL    HW121686   0.897   1.191   8.170  0.7266  1.2391  0.0125
 3408SOL    HW221687   0.932   1.294   8.071 -2.1343 -0.9208  0.0312
 3409SOL     OW21688   1.999   4.117  10.136 -0.0882  0.3978  0.3686
 3409SOL    HW121689   2.016   4.076  10.221 -0.5452 -0.1898  0.1755
 3409SOL    HW221690   2.023   4.209  10.147 -0.5845  0.6883 -1.0895
 3410SOL     OW21691   2.754   0.837   2.483 -0.0295 -0.0460  0.0078
 3410SOL    HW121692   2.688   0.882   2.431  1.8128  2.3614 -0.2558
 3410SOL    HW221693   2.703   0.807   2.558 -3.0496  3.4369 -0.6769
 3411SOL     OW21694   0.106   1.597   6.467 -0.0025 -0.3982  0.3640
 3411SOL    HW121695   0.016   1.615   6.441  0.5265  0.9679 -0.5492
 3411SOL    HW221696   0.129   1.531   6.402  1.9871  2.9224 -2.3628
 3412SOL     OW21697   3.820   0.999   5.831 -0.2516 -0.4909  0.3791
 3412SOL    HW121698   3.746   0.962   5.878  0.0252  1.2158  2.1471
 3412SOL    HW221699   3.777   1.040   5.756 -1.4659 -0.7162  0.9535
 3413SOL     OW21700   3.278   2.493   1.110  0.2251  0.5800 -0.1624
 3413SOL    HW121701   3.216   2.458   1.046  0.7638 -2.9695  1.3200
 3413SOL    HW221702   3.317   2.567   1.062  0.6950  1.3850  1.4855
 3414SOL     OW21703   1.443   3.061  16.515 -0.2732 -0.1159  0.0178
 3414SOL    HW121704   1.512   3.000  16.542  1.1539  1.3786 -0.2041
 3414SOL    HW221705   1.475   3.148  16.540  0.9136 -0.6537  0.3841
 3415SOL     OW21706   0.709   0.117   7.868 -0.2909  0.3760 -0.3915
 3415SOL    HW121707   0.659   0.191   7.901 -0.3996 -0.5011  1.4119
 3415SOL    HW221708   0.745   0.086   7.951  0.8346 -0.2204 -1.0874
 3416SOL     OW21709   2.976   2.152   9.653 -0.6907  0.1343  0.6789
 3416SOL    HW121710   3.057   2.112   9.622  0.2858  3.1889 -0.6938
 3416SOL    HW221711   2.928   2.070   9.662  1.5627 -1.1306  1.0240
 3417SOL     OW21712   2.701   3.156   4.931  0.3821 -0.4314 -0.6245
 3417SOL    HW121713   2.683   3.202   4.849  0.2164 -0.1567 -0.4304
 3417SOL    HW221714   2.651   3.077   4.907  1.6551 -1.1515 -0.9392
 3418SOL     OW21715   3.586   1.004   4.865 -0.1983  0.9614 -0.2473
 3418SOL    HW121716   3.573   1.074   4.801  1.9547  2.3678  0.8541
 3418SOL    HW221717   3.657   0.953   4.825 -0.2121 -0.2558  1.2766
 3419SOL     OW21718   2.802   2.152   2.264 -0.2927  0.1813  0.1093
 3419SOL    HW121719   2.881   2.143   2.318 -1.8465 -1.7157  2.0352
 3419SOL    HW221720   2.747   2.092   2.315 -0.7147  1.1599  0.7988
 3420SOL     OW21721   1.081   4.650   9.117 -0.3528  0.0202  0.0425
 3420SOL    HW121722   1.155   4.658   9.177 -0.0319 -4.0938  0.1627
 3420SOL    HW221723   1.120   4.611   9.039  0.5920 -0.1657  0.6200
 3421SOL     OW21724   0.826   3.205   4.921  0.0747  0.3122 -0.3722
 3421SOL    HW121725   0.752   3.265   4.912  0.6432  1.3545  1.9791
 3421SOL    HW221726   0.820   3.185   5.014 -2.6776  2.4918 -0.1020
 3422SOL     OW21727   4.536   1.741  11.612  0.6786 -0.8734  0.0493
 3422SOL    HW121728   4.555   1.649  11.593  1.1933 -0.3658 -1.9504
 3422SOL    HW221729   4.496   1.762  11.527  0.6753  0.2053  0.3227
 3423SOL     OW21730   0.868   1.502  10.397  0.5026  0.5537  0.8923
 3423SOL    HW121731   0.843   1.567  10.462  2.0515  2.2579 -0.1990
 3423SOL    HW221732   0.847   1.549  10.317 -1.2674  0.0082  1.0337
 3424SOL     OW21733   0.414   2.067   8.225 -0.8870 -0.0233 -0.3508
 3424SOL    HW121734   0.337   2.084   8.171 -3.5913  1.0298  3.8526
 3424SOL    HW221735   0.473   2.136   8.196 -0.0183 -0.1344  1.1475
 3425SOL     OW21736   0.429   4.690   8.277  0.0422  0.3158  0.1389
 3425SOL    HW121737   0.453   4.631   8.206 -0.0805 -1.0422  1.2309
 3425SOL    HW221738   0.517   0.006   8.280 -0.0341  0.4900  0.1858
 3426SOL     OW21739   2.599   3.359   4.768  0.0080  0.1568  0.1746
 3426SOL    HW121740   2.523   3.395   4.722  0.1519  1.0249  0.6249
 3426SOL    HW221741   2.608   3.422   4.839 -1.0930  0.2708  0.2097
 3427SOL     OW21742   2.252   1.750   1.243  0.0452  0.0614 -0.4172
 3427SOL    HW121743   2.181   1.739   1.306  0.8970  1.1202  0.7223
 3427SOL    HW221744   2.203   1.746   1.161  1.2096  0.4554 -1.1305
 3428SOL     OW21745   1.977   1.986   3.082  0.5116  0.1838 -0.4165
 3428SOL    HW121746   1.901   1.937   3.052 -1.2899  1.9195  1.3209
 3428SOL    HW221747   1.933   2.068   3.106  1.8256  0.3495  1.4629
 3429SOL     OW21748   0.882   4.287  12.970  0.1585  0.0816  0.2595
 3429SOL    HW121749   0.900   4.363  13.026 -1.7500  0.4496  0.3532
 3429SOL    HW221750   0.945   4.227  13.010  1.6641  0.4277 -1.5765
 3430SOL     OW21751   1.723   0.007   1.085 -0.3662  0.2523  0.3347
 3430SOL    HW121752   1.783   0.043   1.020 -0.4137  0.7699  0.5782
 3430SOL    HW221753   1.782   4.661   1.117 -0.6675  0.1869  0.7506
 3431SOL     OW21754   3.327   4.460  16.810  0.4873  0.2506 -0.1578
 3431SOL    HW121755   3.350   4.527  16.874  2.0425  1.3745 -1.8921
 3431SOL    HW221756   3.403   4.402  16.804 -0.4143 -1.1513  2.0307
 3432SOL     OW21757   0.226   0.071  13.443  0.7579  0.2323  0.0495
 3432SOL    HW121758   0.251   0.081  13.535 -1.5752  1.5765  0.5363
 3432SOL    HW221759   0.305   0.104  13.399  0.5945 -0.7962 -1.0015
 3433SOL     OW21760   3.517   1.549   7.650  0.2177 -0.3608 -0.7931
 3433SOL    HW121761   3.509   1.551   7.746  1.5568 -0.4235 -0.6790
 3433SOL    HW221762   3.455   1.478   7.634 -0.5050 -0.2412  1.5065
 3434SOL     OW21763   4.224   3.180  10.676 -0.0779 -0.3946  0.1485
 3434SOL    HW121764   4.201   3.090  10.700  0.2260 -0.9574 -1.7122
 3434SOL    HW221765   4.140   3.218  10.652  0.2755  0.8452  0.8899
 3435SOL     OW21766   3.213   4.622   2.586  0.3372  0.7717  0.2317
 3435SOL    HW121767   3.180   4.535   2.561  1.0888  0.5806 -0.0978
 3435SOL    HW221768   3.202   4.615   2.681 -3.3275  0.6090 -0.1989
 3436SOL     OW21769   2.788   4.557  16.378 -0.0385 -0.0587 -0.1632
 3436SOL    HW121770   2.852   4.496  16.343 -1.6148 -0.4832 -2.3154
 3436SOL    HW221771   2.837   4.597  16.450 -0.4113  0.4099 -0.1637
 3437SOL     OW21772   4.139   3.719   8.296 -0.6215  0.4589  0.4217
 3437SOL    HW121773   4.084   3.767   8.235  2.4743 -0.3432 -3.0298
 3437SOL    HW221774   4.072   3.713   8.364 -1.0139 -0.3762 -0.0389
 3438SOL     OW21775   4.552   1.685  14.872  0.0070  0.4350 -0.8676
 3438SOL    HW121776   4.544   1.757  14.935 -1.0191 -0.7632  0.3723
 3438SOL    HW221777   4.522   1.737  14.798 -2.3031 -0.1071 -0.3018
 3439SOL     OW21778   2.838   1.258   8.541  0.0122  0.5542  0.1208
 3439SOL    HW121779   2.744   1.242   8.527  0.1064 -0.3717  0.5555
 3439SOL    HW221780   2.877   1.191   8.485 -1.5684  0.0912 -0.4444
 3440SOL     OW21781   0.262   2.021   5.413  0.1507  0.7760 -0.0307
 3440SOL    HW121782   0.225   2.037   5.327 -0.7499  0.2115  0.2498
 3440SOL    HW221783   0.186   2.019   5.471  0.5885 -2.2468  0.4543
 3441SOL     OW21784   2.579   0.029   9.488  0.4762 -0.2690  0.0390
 3441SOL    HW121785   2.485   0.024   9.468  0.9421 -0.8308 -2.0834
 3441SOL    HW221786   2.618   4.670   9.456  1.8066  0.6310 -0.6257
 3442SOL     OW21787   2.718   0.296   8.948 -0.0663 -0.4055  0.0136
 3442SOL    HW121788   2.682   0.269   8.864 -0.1703  1.5335 -0.5716
 3442SOL    HW221789   2.812   0.282   8.936  0.0967 -0.8120  1.7547
 3443SOL     OW21790   3.632   4.409   6.308 -0.3210  0.1602  0.1020
 3443SOL    HW121791   3.555   4.367   6.270  0.5793  1.2223 -2.9229
 3443SOL    HW221792   3.625   4.383   6.400 -0.1989 -0.4117 -0.0476
 3444SOL     OW21793   3.344   0.491   3.173 -0.4467 -0.3710  0.0653
 3444SOL    HW121794   3.249   0.490   3.162 -0.5866  0.7149  1.2512
 3444SOL    HW221795   3.352   0.511   3.266 -1.2949  2.4174 -0.4363
 3445SOL     OW21796   2.028   0.420   5.622  0.1558 -0.4909  0.1926
 3445SOL    HW121797   2.032   0.333   5.661 -0.9796  0.5347  2.6028
 3445SOL    HW221798   2.045   0.400   5.530 -2.4220 -0.9204 -0.1839
 3446SOL     OW21799   4.462   2.338   5.913  0.2450  0.5769  0.1531
 3446SOL    HW121800   4.445   2.254   5.872  2.9687 -0.8250  1.9155
 3446SOL    HW221801   4.428   2.316   6.000  1.7565  2.6148  1.2616
 3447SOL     OW21802   1.223   0.800   3.976 -0.2884 -0.1848  0.0997
 3447SOL    HW121803   1.243   0.722   3.924 -1.1500 -0.1650 -0.2627
 3447SOL    HW221804   1.279   0.781   4.051 -0.5040  1.1847  0.6113
 3448SOL     OW21805   4.589   4.676  16.787 -0.0164 -0.0974  0.5354
 3448SOL    HW121806   4.628   4.590  16.773  2.3913  0.6596  2.5564
 3448SOL    HW221807   4.585   4.707  16.697 -0.8457 -0.7526  0.3445
 3449SOL     OW21808   2.478   1.903  17.673 -0.1383 -0.8676  0.3700
 3449SOL    HW121809   2.497   1.997  17.683  3.3359 -1.5105 -0.0434
 3449SOL    HW221810   2.451   1.886   0.073  0.9214 -2.0788  0.4486
 3450SOL     OW21811   1.884   2.679  16.230 -0.7738 -0.0957  0.6964
 3450SOL    HW121812   1.878   2.743  16.301  0.8480 -0.8618  1.5258
 3450SOL    HW221813   1.925   2.604  16.275  1.2476 -0.1368 -1.2082
 3451SOL     OW21814   3.662   0.652   3.493  0.6483 -0.8663  0.4171
 3451SOL    HW121815   3.654   0.561   3.522  1.1992 -1.0277  0.0705
 3451SOL    HW221816   3.659   0.632   3.399 -2.2615  1.3226  0.0410
 3452SOL     OW21817   1.401   4.248  17.460 -0.1145  0.9325 -0.5013
 3452SOL    HW121818   1.447   4.165  17.478 -1.8842  0.3684  1.4399
 3452SOL    HW221819   1.448   4.309  17.517 -0.1022  2.4504 -2.1352
 3453SOL     OW21820   3.711   4.105   2.815 -0.2472  0.3646 -0.8918
 3453SOL    HW121821   3.790   4.111   2.869 -0.7001  1.7977 -0.3814
 3453SOL    HW221822   3.656   4.046   2.866  1.6438  1.3459  2.3231
 3454SOL     OW21823   4.276   1.876   4.361 -0.0037  0.0831 -0.2302
 3454SOL    HW121824   4.366   1.842   4.367 -0.3101 -0.5907  0.4718
 3454SOL    HW221825   4.261   1.941   4.430  0.1130 -0.3616  0.2150
 3455SOL     OW21826   2.068   1.920  11.568  0.3205 -0.1948  0.5031
 3455SOL    HW121827   1.998   1.944  11.506  1.3683  0.8766 -0.2517
 3455SOL    HW221828   2.056   1.976  11.644 -1.1001  1.9384 -1.2938
 3456SOL     OW21829   2.819   0.417   3.142 -0.8113  0.0939 -0.1853
 3456SOL    HW121830   2.806   0.405   3.236 -2.2865  2.4777 -0.0864
 3456SOL    HW221831   2.733   0.419   3.098 -0.2168  1.6889 -1.3058
 3457SOL     OW21832   2.248   3.695  16.696 -0.2954  0.5331  0.0586
 3457SOL    HW121833   2.253   3.738  16.610 -1.2728  0.4260 -0.0443
 3457SOL    HW221834   2.257   3.770  16.755  1.0905 -0.5915  1.2669
 3458SOL     OW21835   4.483   0.467   7.331 -0.1473 -0.4603 -0.7408
 3458SOL    HW121836   4.479   0.555   7.367 -3.6880 -0.7844 -0.3441
 3458SOL    HW221837   4.453   0.474   7.241  2.2021  1.9978 -1.3228
 3459SOL     OW21838   3.567   1.408  13.385 -0.4511 -0.2430  0.2584
 3459SOL    HW121839   3.568   1.501  13.362 -0.7880 -0.1771  0.5218
 3459SOL    HW221840   3.658   1.380  13.389 -0.9389 -1.4542  2.7991
 3460SOL     OW21841   0.920   3.843   3.839  0.3245  0.0014 -0.4095
 3460SOL    HW121842   0.889   3.772   3.895 -1.0805  1.2276  0.3643
 3460SOL    HW221843   0.886   3.920   3.884  1.0632  1.4029 -2.2302
 3461SOL     OW21844   3.872   0.922   2.412 -0.0547  0.3399  0.0514
 3461SOL    HW121845   3.916   0.858   2.468 -2.1163 -0.8572  0.3227
 3461SOL    HW221846   3.792   0.873   2.392 -0.3957 -0.1177  2.4961
 3462SOL     OW21847   3.072   2.750   2.899  0.4487 -0.0897  0.3598
 3462SOL    HW121848   3.030   2.714   2.822 -1.6342  1.4039  0.8151
 3462SOL    HW221849   3.018   2.828   2.914 -0.1975 -0.3603 -0.6108
 3463SOL     OW21850   4.025   0.783  10.271 -0.1226 -0.5605 -0.0355
 3463SOL    HW121851   4.045   0.733  10.350 -1.0593 -3.1606 -1.4336
 3463SOL    HW221852   3.939   0.749  10.246 -0.9678  2.6291 -1.4480
 3464SOL     OW21853   3.008   0.839   7.756 -0.3094  0.0319  0.0572
 3464SOL    HW121854   3.052   0.923   7.767 -0.2662  0.1094 -0.7270
 3464SOL    HW221855   3.013   0.797   7.841  0.2014 -0.6724 -0.3235
 3465SOL     OW21856   4.604   4.091   7.580 -0.1795  0.3069 -0.3564
 3465SOL    HW121857   4.689   4.081   7.537  0.4591 -1.6209  1.3310
 3465SOL    HW221858   4.574   4.001   7.571  0.3507 -0.0387  1.2954
 3466SOL     OW21859   4.281   0.584  13.943  0.0848 -0.2487 -0.1031
 3466SOL    HW121860   4.230   0.649  13.993  1.9396 -0.7731  2.4577
 3466SOL    HW221861   4.358   0.567  13.997 -0.9474  1.5932  1.9537
 3467SOL     OW21862   1.378   1.754  10.181 -0.3931 -0.1991 -0.1903
 3467SOL    HW121863   1.385   1.827  10.119  0.7396 -0.7458 -0.7248
 3467SOL    HW221864   1.298   1.718  10.143  1.2624 -5.0553  0.9208
 3468SOL     OW21865   3.067   3.950   9.781 -0.0916 -0.1176  0.1558
 3468SOL    HW121866   3.154   3.915   9.762 -0.2368  0.6632 -1.9428
 3468SOL    HW221867   3.011   3.910   9.715  0.4638 -0.4780 -0.1045
 3469SOL     OW21868   3.034   2.044  15.147  0.8035 -0.3527  0.2280
 3469SOL    HW121869   3.045   2.080  15.235 -0.6590  0.7172 -0.0194
 3469SOL    HW221870   2.973   2.100  15.099  0.0806 -0.3914  1.1142
 3470SOL     OW21871   4.131   0.478   7.618 -0.0166  0.0840  0.2946
 3470SOL    HW121872   4.157   0.484   7.710  1.6069 -0.7383 -0.1144
 3470SOL    HW221873   4.189   0.411   7.583  0.7217  0.9946 -0.2173
 3471SOL     OW21874   0.978   1.161  13.366  0.0785  0.3491  0.1507
 3471SOL    HW121875   1.023   1.230  13.416 -0.2316  0.4603  0.2716
 3471SOL    HW221876   1.018   1.178  13.280 -1.2463  0.3247 -0.4741
 3472SOL     OW21877   3.874   4.354  17.495  0.3146  0.3574 -0.1167
 3472SOL    HW121878   3.833   4.273  17.465 -1.3496  1.4029 -0.6565
 3472SOL    HW221879   3.838   4.411  17.428  2.3295 -0.1015 -1.5831
 3473SOL     OW21880   4.400   0.008   9.349 -0.2708  0.1047  0.0313
 3473SOL    HW121881   4.420   4.700   9.260  2.3400  0.1164  0.6287
 3473SOL    HW221882   4.313   0.047   9.342 -1.2633 -2.4442 -1.9422
 3474SOL     OW21883   0.290   2.432   6.472  0.8505  0.2747  0.2515
 3474SOL    HW121884   0.236   2.459   6.397  1.9616  0.7475 -0.3748
 3474SOL    HW221885   0.228   2.458   6.540  1.7074  3.8514 -0.3280
 3475SOL     OW21886   1.687   0.935   5.353  0.2732 -0.2423 -0.3000
 3475SOL    HW121887   1.691   0.987   5.434 -0.0044 -1.3094  0.4005
 3475SOL    HW221888   1.775   0.898   5.343  1.2913  1.8960  0.7116
 3476SOL     OW21889   1.189   0.965  15.698  0.1166 -0.5506  0.3307
 3476SOL    HW121890   1.242   1.031  15.743  0.5699 -0.0326 -0.9492
 3476SOL    HW221891   1.118   0.952  15.761 -2.2247  1.0863 -1.9569
 3477SOL     OW21892   2.669   2.642   8.645  0.9892 -0.0808 -0.3434
 3477SOL    HW121893   2.705   2.667   8.730 -0.3876 -1.3004  0.5974
 3477SOL    HW221894   2.630   2.557   8.667  1.7756 -0.3181  0.1798
 3478SOL     OW21895   3.471   1.009   6.976 -0.0328  0.4398 -0.1296
 3478SOL    HW121896   3.485   1.098   6.943 -3.7276  0.8539 -0.6272
 3478SOL    HW221897   3.539   1.001   7.042 -0.9664  2.2770  1.0444
 3479SOL     OW21898   2.595   1.640   8.910 -0.4445  0.6644 -0.4105
 3479SOL    HW121899   2.659   1.703   8.944  0.0317 -0.0515  0.0220
 3479SOL    HW221900   2.524   1.654   8.973 -1.0544  1.7981 -1.3624
 3480SOL     OW21901   0.186   1.346   7.402 -0.5643  0.3509  0.2162
 3480SOL    HW121902   0.107   1.367   7.452  0.3219  3.5243  0.3315
 3480SOL    HW221903   0.161   1.363   7.311 -0.4277 -0.0492  0.1034
 3481SOL     OW21904   0.022   0.271   7.128 -0.0618 -0.5632  0.4414
 3481SOL    HW121905   0.088   0.207   7.157  0.8608  0.7340  1.2118
 3481SOL    HW221906   4.716   0.306   7.212  1.1546  0.4824  0.4157
 3482SOL     OW21907   3.842   3.310  11.705 -0.1912  0.5750  0.4027
 3482SOL    HW121908   3.898   3.248  11.751 -0.3492 -0.7925 -1.2369
 3482SOL    HW221909   3.766   3.258  11.680  1.1204 -1.4072  0.5535
 3483SOL     OW21910   0.231   0.668   2.175 -0.3432 -0.0509  0.3707
 3483SOL    HW121911   0.166   0.662   2.245 -0.2749 -0.3755  0.4044
 3483SOL    HW221912   0.215   0.591   2.120  1.9372 -0.4515  0.2704
 3484SOL     OW21913   2.914   0.799  13.593  0.2853  0.1249  0.0321
 3484SOL    HW121914   2.924   0.835  13.505  2.2729 -0.6079 -0.0425
 3484SOL    HW221915   2.846   0.733  13.579  0.2869 -0.0392  0.7874
 3485SOL     OW21916   1.720   1.343   3.120  0.2251 -0.6170  0.3848
 3485SOL    HW121917   1.788   1.333   3.054 -1.2215 -1.1103 -1.0429
 3485SOL    HW221918   1.772   1.367   3.197  1.4323 -0.2918 -0.5431
 3486SOL     OW21919   4.304   3.992   5.501  0.2220  0.4733  0.0782
 3486SOL    HW121920   4.238   3.986   5.432  2.3845  0.8098 -2.0036
 3486SOL    HW221921   4.282   4.079   5.533  0.5336  1.2566 -1.8540
 3487SOL     OW21922   4.472   4.442   5.270  0.2693  0.7365  0.2261
 3487SOL    HW121923   4.493   4.406   5.356  3.5341 -1.3375 -1.4122
 3487SOL    HW221924   4.547   4.406   5.223 -1.0334 -3.4886  1.3604
 3488SOL     OW21925   0.416   1.697  12.064 -0.5136  0.3749 -0.5507
 3488SOL    HW121926   0.425   1.715  12.157  0.4899  0.5582 -0.6853
 3488SOL    HW221927   0.460   1.612  12.064 -2.9260 -0.8839 -0.4767
 3489SOL     OW21928   1.222   0.481   6.066 -0.3094  0.0508  0.0676
 3489SOL    HW121929   1.314   0.466   6.085 -0.2667  0.3045  0.0597
 3489SOL    HW221930   1.194   0.396   6.032 -0.5630  0.2017 -0.1064
 3490SOL     OW21931   2.694   3.999   0.717 -0.8671 -0.5516 -0.2046
 3490SOL    HW121932   2.770   3.941   0.730 -1.2081 -0.3926  2.4145
 3490SOL    HW221933   2.627   3.931   0.714 -0.0055 -1.4196  0.1435
 3491SOL     OW21934   3.046   0.448   7.930 -0.3929  0.2545  0.0153
 3491SOL    HW121935   2.995   0.383   7.881 -1.4324 -1.6682  3.6188
 3491SOL    HW221936   3.106   0.478   7.861  0.5658 -1.5678  0.0555
 3492SOL     OW21937   4.078   1.596   2.754  0.1286  0.1501 -0.2881
 3492SOL    HW121938   4.025   1.594   2.675  1.0025  0.9198 -0.8919
 3492SOL    HW221939   4.171   1.597   2.730 -0.3008 -1.0363 -1.9096
 3493SOL     OW21940   3.048   3.541   7.141  0.1614  0.1088  0.2960
 3493SOL    HW121941   2.986   3.477   7.106 -1.4120  1.5412  0.4452
 3493SOL    HW221942   3.064   3.609   7.075  1.1208 -0.0306  0.3864
 3494SOL     OW21943   1.819   2.210  13.351  0.1341 -0.0264  0.0843
 3494SOL    HW121944   1.800   2.301  13.330 -1.5828 -0.4757 -0.3488
 3494SOL    HW221945   1.898   2.215  13.404 -0.1040 -0.1097  0.4527
 3495SOL     OW21946   1.880   2.270   4.350 -0.1684 -0.5384  0.2732
 3495SOL    HW121947   1.972   2.254   4.370  0.0829  0.3123 -0.1907
 3495SOL    HW221948   1.868   2.363   4.368  1.3700 -0.3191  0.1430
 3496SOL     OW21949   1.548   0.695  15.041 -0.3947 -0.7296 -0.3348
 3496SOL    HW121950   1.627   0.643  15.023 -0.7871 -0.7363 -2.0321
 3496SOL    HW221951   1.526   0.731  14.955 -1.6851 -0.9332 -0.0862
 3497SOL     OW21952   0.693   3.371   3.081  0.1050  0.2971  0.1993
 3497SOL    HW121953   0.780   3.409   3.093  0.6838 -0.3967 -1.8003
 3497SOL    HW221954   0.716   3.288   3.038 -1.5257 -0.1294  0.1117
 3498SOL     OW21955   0.793   0.072   9.419 -0.0350  0.2061  0.1028
 3498SOL    HW121956   0.754   4.722   9.469 -1.4422 -0.1175 -1.4546
 3498SOL    HW221957   0.852   0.111   9.483  0.4469 -0.6717  0.1915
 3499SOL     OW21958   2.224   0.242   8.537  0.1477 -0.2724  0.2905
 3499SOL    HW121959   2.206   0.324   8.492 -2.3842 -0.6191  0.6686
 3499SOL    HW221960   2.153   0.241   8.601 -1.1105  1.6402 -1.0654
 3500SOL     OW21961   2.752   0.085   8.045  0.4057  0.3868  0.3397
 3500SOL    HW121962   2.817   0.092   8.115 -0.3179 -0.3372  1.0947
 3500SOL    HW221963   2.691   0.025   8.089  1.0645 -0.5317 -0.0087
 3501SOL     OW21964   4.664   4.284   7.109  0.3868 -0.0163  0.0597
 3501SOL    HW121965   4.678   4.248   7.022 -0.7005 -0.0776 -0.0881
 3501SOL    HW221966   4.679   4.376   7.088  0.9873  0.0373  0.7442
 3502SOL     OW21967   4.347   0.411   2.603  0.5529 -0.1972 -0.6024
 3502SOL    HW121968   4.301   0.352   2.544  0.1911  1.3265 -1.8435
 3502SOL    HW221969   4.369   0.346   2.670 -4.3507 -0.0051  1.1352
 3503SOL     OW21970   3.368   2.728   5.170  0.2146  0.0617  0.5965
 3503SOL    HW121971   3.375   2.784   5.247  1.2833 -1.7042  1.7856
 3503SOL    HW221972   3.382   2.786   5.095  1.0112  1.2877  1.6970
 3504SOL     OW21973   0.382   3.235   4.957  0.1596  0.5277  0.1524
 3504SOL    HW121974   0.339   3.211   4.875  0.6392  0.4529 -0.0751
 3504SOL    HW221975   0.405   3.145   4.982  0.7240  0.6848  0.1870
 3505SOL     OW21976   1.403   0.138   6.634  0.5098 -0.7979  0.5342
 3505SOL    HW121977   1.468   0.208   6.627  1.5773 -1.6961  1.4814
 3505SOL    HW221978   1.448   0.056   6.617  0.0331 -0.7465 -0.9958
 3506SOL     OW21979   2.831   2.091   4.591  0.5908  1.2031 -0.0281
 3506SOL    HW121980   2.919   2.104   4.556  0.0873  0.7387 -1.4645
 3506SOL    HW221981   2.807   2.181   4.611  2.2088  1.8502 -0.9745
 3507SOL     OW21982   0.230   4.245   7.249 -0.9845  0.2937 -0.5309
 3507SOL    HW121983   0.188   4.183   7.188  0.4645 -1.6669  0.4465
 3507SOL    HW221984   0.315   4.258   7.206  0.2703  0.1066  1.9077
 3508SOL     OW21985   2.154   2.408   4.168  0.3425 -0.1563 -0.2974
 3508SOL    HW121986   2.106   2.430   4.248  0.2286 -1.4387 -0.0182
 3508SOL    HW221987   2.180   2.321   4.196 -3.8152 -0.8310  1.3786
 3509SOL     OW21988   3.714   2.989   0.763 -0.0080 -0.0556  0.7677
 3509SOL    HW121989   3.771   2.974   0.839  0.1689  0.7962  0.8067
 3509SOL    HW221990   3.642   3.038   0.803  0.1194  0.2543  0.6133
 3510SOL     OW21991   1.520   3.226   0.275 -0.2879  0.5253 -0.1348
 3510SOL    HW121992   1.484   3.277   0.203 -1.6109 -0.5425 -0.2358
 3510SOL    HW221993   1.506   3.282   0.352 -1.3200 -0.2561  0.2615
 3511SOL     OW21994   4.202   3.135   2.819  0.1638  0.0916 -0.0670
 3511SOL    HW121995   4.294   3.127   2.846  0.7826  0.8869 -1.9058
 3511SOL    HW221996   4.190   3.229   2.805  1.9230  0.7515  2.8115
 3512SOL     OW21997   1.491   0.180   7.517 -0.1348 -0.3960  0.3714
 3512SOL    HW121998   1.515   0.162   7.427  2.3181  0.2469  0.8939
 3512SOL    HW221999   1.571   0.226   7.545 -1.2843  1.7197  0.1924
 3513SOL     OW22000   2.533   4.370   9.653  0.2789  0.3869 -0.5200
 3513SOL    HW122001   2.460   4.332   9.605 -0.1845 -1.1680  1.3835
 3513SOL    HW222002   2.576   4.426   9.589 -0.2089  1.0998 -0.2237
 3514SOL     OW22003   3.679   2.160   4.585  0.5903 -0.6846 -0.4296
 3514SOL    HW122004   3.680   2.202   4.671 -1.5386 -0.3138 -0.5953
 3514SOL    HW222005   3.665   2.235   4.527 -1.0509 -1.6047 -1.2232
 3515SOL     OW22006   4.009   2.543   8.006  0.3079 -0.2688 -0.5242
 3515SOL    HW122007   4.061   2.465   8.026 -0.0343 -0.9083 -2.0816
 3515SOL    HW222008   4.017   2.547   7.910 -2.0518 -3.6743 -0.8878
 3516SOL     OW22009   0.018   3.824   7.775 -0.6035 -0.0099 -0.2815
 3516SOL    HW122010   0.038   3.806   7.683  0.3443  2.5730 -0.5640
 3516SOL    HW222011   0.061   3.908   7.792  0.9354 -0.5154 -1.6702
 3517SOL     OW22012   2.515   3.867   0.334 -0.2089  0.0378  0.2203
 3517SOL    HW122013   2.537   3.775   0.320 -0.9625 -0.1446  0.2244
 3517SOL    HW222014   2.589   3.906   0.380  0.2676 -0.7500  0.1237
 3518SOL     OW22015   2.652   3.792   7.593 -0.2924  0.4474  0.1292
 3518SOL    HW122016   2.717   3.782   7.524 -0.5150  0.3507 -0.0655
 3518SOL    HW222017   2.590   3.844   7.541 -1.2040 -0.2035  0.5679
 3519SOL     OW22018   0.255   3.450   1.308  0.3439  0.0848  0.1028
 3519SOL    HW122019   0.309   3.460   1.387  0.8646  1.6048 -0.4343
 3519SOL    HW222020   0.303   3.474   1.229  2.2623  0.4139  1.3501
 3520SOL     OW22021   2.683   2.512  14.626  0.7827  0.1083  0.2919
 3520SOL    HW122022   2.589   2.528  14.618  1.1646  1.0671 -2.5428
 3520SOL    HW222023   2.725   2.573  14.687  1.6633 -1.6655  1.4522
 3521SOL     OW22024   1.597   3.639  16.923  0.7661 -0.4623 -0.1705
 3521SOL    HW122025   1.545   3.605  16.996  0.6985 -0.3331 -0.1575
 3521SOL    HW222026   1.532   3.640  16.854  1.2175 -1.4312 -0.6147
 3522SOL     OW22027   2.709   3.781   7.118  0.0725 -0.3045  0.5667
 3522SOL    HW122028   2.780   3.790   7.055 -0.7737 -0.6766 -0.4336
 3522SOL    HW222029   2.730   3.707   7.174  1.7681  0.3218  0.7500
 3523SOL     OW22030   1.085   2.876   4.742  0.1849 -0.1322  0.4416
 3523SOL    HW122031   1.127   2.882   4.656  2.1016  0.7169  1.4449
 3523SOL    HW222032   1.089   2.788   4.780 -2.7737 -0.2799  0.4054
 3524SOL     OW22033   0.545   1.319   7.664  0.3802  0.0819 -0.3772
 3524SOL    HW122034   0.537   1.343   7.756 -0.1604 -2.3541  0.1930
 3524SOL    HW222035   0.625   1.266   7.666 -1.2411 -2.2604  1.4235
 3525SOL     OW22036   0.236   2.423  14.538 -0.0281 -0.0121  0.0179
 3525SOL    HW122037   0.185   2.504  14.546  0.7586  0.3906  0.9807
 3525SOL    HW222038   0.179   2.363  14.585 -0.2959  0.4442  0.2694
 3526SOL     OW22039   0.100   2.715   8.245  0.2713 -0.3449  0.5599
 3526SOL    HW122040   0.081   2.807   8.263  0.0594 -0.2909  0.0596
 3526SOL    HW222041   0.138   2.725   8.157 -0.1552 -0.9547  0.3086
 3527SOL     OW22042   0.536   3.940  10.807  0.6605 -0.8076 -0.1353
 3527SOL    HW122043   0.526   4.018  10.862  1.0495  0.0799 -1.3083
 3527SOL    HW222044   0.465   3.886  10.839 -0.5546  0.6174 -0.4431
 3528SOL     OW22045   0.855   1.900   2.601 -0.4796 -0.6136 -0.3058
 3528SOL    HW122046   0.918   1.902   2.673 -0.8213 -0.9363  0.0077
 3528SOL    HW222047   0.792   1.961   2.640 -0.5398 -0.8322 -0.0527
 3529SOL     OW22048   4.527   2.070   0.763 -0.0951 -0.6308  0.0871
 3529SOL    HW122049   4.589   2.044   0.694 -0.3625  1.5446 -0.9709
 3529SOL    HW222050   4.486   1.983   0.754 -0.3913 -0.6921  2.0860
 3530SOL     OW22051   2.334   1.910   4.941  0.0952 -0.4122 -1.1508
 3530SOL    HW122052   2.419   1.867   4.940  0.4531  0.2532  0.3675
 3530SOL    HW222053   2.278   1.841   4.976  1.4884 -1.5675 -1.2087
 3531SOL     OW22054   1.101   3.862   4.720  0.2387  0.5110  0.3512
 3531SOL    HW122055   1.192   3.852   4.694  0.0169 -0.1047 -0.1714
 3531SOL    HW222056   1.097   3.926   4.792  1.9970  0.8910  0.1052
 3532SOL     OW22057   3.502   3.739   2.653 -0.5995 -0.3724 -0.4353
 3532SOL    HW122058   3.588   3.756   2.691 -1.1805 -0.1464  0.7932
 3532SOL    HW222059   3.528   3.697   2.571  1.2374 -1.8049  0.8849
 3533SOL     OW22060   0.591   0.184  11.323 -0.3188  0.4349 -0.2550
 3533SOL    HW122061   0.594   0.279  11.331  0.8253  0.5254 -1.7573
 3533SOL    HW222062   0.543   0.178  11.406 -0.7173  1.1133 -0.4358
 3534SOL     OW22063   0.792   3.583  10.042  0.0715 -0.6522 -0.6196
 3534SOL    HW122064   0.826   3.651   9.984  1.2974 -0.2427  0.5822
 3534SOL    HW222065   0.831   3.503  10.005  0.2788 -0.0415 -1.7340
 3535SOL     OW22066   0.533   1.875   5.904 -0.0055  0.0352  0.0637
 3535SOL    HW122067   0.463   1.897   5.966 -0.4278  0.5958 -0.6057
 3535SOL    HW222068   0.490   1.905   5.824 -0.3087  0.2025  0.2861
 3536SOL     OW22069   2.699   3.813  10.366 -0.3530 -1.0641 -0.1241
 3536SOL    HW122070   2.670   3.867  10.439 -0.8157 -0.6318 -0.6252
 3536SOL    HW222071   2.775   3.766  10.400  0.1039 -0.2245  0.0146
 3537SOL     OW22072   0.459   0.294   6.145 -0.0994 -0.0409  0.1087
 3537SOL    HW122073   0.369   0.301   6.176 -0.4923  0.2816 -1.1409
 3537SOL    HW222074   0.495   0.228   6.204 -1.2030 -0.1661  0.6441
 3538SOL     OW22075   1.650   1.229   8.480  0.6424  0.0209  0.0226
 3538SOL    HW122076   1.568   1.251   8.524 -0.1596 -0.1101 -1.4386
 3538SOL    HW222077   1.683   1.319   8.486 -0.0498  0.3739 -1.4361
 3539SOL     OW22078   0.060   1.501   8.360  0.1643  0.5183 -0.0579
 3539SOL    HW122079   0.039   1.552   8.439  1.5311 -0.7905  1.1421
 3539SOL    HW222080   0.017   1.417   8.378 -2.1395  2.1517  2.1633
 3540SOL     OW22081   0.662   1.109   6.607  0.2496 -0.2179 -0.2259
 3540SOL    HW122082   0.634   1.128   6.517  0.4375 -1.6037 -0.5722
 3540SOL    HW222083   0.643   1.198   6.637 -2.4124 -1.2968  1.3295
 3541SOL     OW22084   1.302   1.132   6.584 -0.0574  0.1299 -0.2013
 3541SOL    HW122085   1.212   1.156   6.559  0.6442  0.3074 -2.5385
 3541SOL    HW222086   1.292   1.065   6.651  1.1622  1.1610  0.9958
 3542SOL     OW22087   2.765   3.948   3.086  0.5472  0.2887 -0.0305
 3542SOL    HW122088   2.781   4.025   3.140  0.4274  0.1916  0.1450
 3542SOL    HW222089   2.798   3.994   3.009  1.1849 -1.0373 -0.5403
 3543SOL     OW22090   2.154   3.534  15.043 -0.0687  0.0649  0.3060
 3543SOL    HW122091   2.243   3.503  15.061  0.1334  0.5081  0.0829
 3543SOL    HW222092   2.106   3.504  15.120 -1.2317  1.0347 -0.0417
 3544SOL     OW22093   2.360   1.261  16.249 -0.0279  1.1054  0.4047
 3544SOL    HW122094   2.264   1.262  16.259 -0.0364 -1.7255  0.6568
 3544SOL    HW222095   2.383   1.307  16.330  3.4187  1.1721 -0.6352
 3545SOL     OW22096   2.510   2.954   2.677 -0.0552 -0.2677 -0.1542
 3545SOL    HW122097   2.592   2.922   2.714  0.6824  1.3736 -0.3816
 3545SOL    HW222098   2.473   2.997   2.754 -2.2532  1.9088 -2.4167
 3546SOL     OW22099   3.349   1.082   8.295  0.3119  0.2287  0.0108
 3546SOL    HW122100   3.342   1.177   8.308  0.9782  0.8306 -4.0815
 3546SOL    HW222101   3.433   1.060   8.335 -0.1521  0.3963  1.0873
 3547SOL     OW22102   0.089   0.006   0.545  0.1545 -0.1845 -0.2156
 3547SOL    HW122103   0.118   4.646   0.505 -1.9209  0.0262 -2.1360
 3547SOL    HW222104   4.717   4.709   0.553  0.0100  0.0939 -1.2775
 3548SOL     OW22105   3.655   4.509   8.820  0.1477  0.3224 -0.0950
 3548SOL    HW122106   3.717   4.437   8.805  0.7384  0.6131  0.9565
 3548SOL    HW222107   3.705   4.569   8.876  0.5263  1.3081 -1.4854
 3549SOL     OW22108   1.703   0.482   5.573  0.0036 -0.1259  0.5155
 3549SOL    HW122109   1.756   0.504   5.496  0.1669 -1.9719  0.0952
 3549SOL    HW222110   1.616   0.496   5.535  0.7213  0.7548 -0.7911
 3550SOL     OW22111   4.006   0.709   0.808  0.6268 -0.0514  0.4431
 3550SOL    HW122112   3.927   0.763   0.801  0.5365 -0.0101  1.8611
 3550SOL    HW222113   4.065   0.754   0.869  0.7607 -0.0769  0.3335
 3551SOL     OW22114   0.114   0.400   9.825 -0.1178  0.1168 -0.0520
 3551SOL    HW122115   0.020   0.396   9.843 -0.2248  1.2289 -0.3742
 3551SOL    HW222116   0.148   0.431   9.909  2.5642 -0.3956 -0.9658
 3552SOL     OW22117   2.157   3.978   8.762  0.4110  0.0706  0.1323
 3552SOL    HW122118   2.225   3.954   8.825  2.5186  1.3900 -1.6261
 3552SOL    HW222119   2.117   4.052   8.808  2.5358  1.1901  0.1776
 3553SOL     OW22120   3.748   0.899   4.411 -0.6666 -0.0851 -0.6691
 3553SOL    HW122121   3.670   0.922   4.359 -0.0716  1.1686 -1.0035
 3553SOL    HW222122   3.709   0.839   4.474 -0.9002 -0.3274 -1.0402
 3554SOL     OW22123   1.902   3.061   2.505  0.4154  0.2570 -0.2017
 3554SOL    HW122124   1.874   3.091   2.592  3.4978 -0.3599  1.0071
 3554SOL    HW222125   1.984   3.111   2.505  0.3325  0.3928  0.6918
 3555SOL     OW22126   3.032   2.673   4.663  0.2988  0.0788 -0.3373
 3555SOL    HW122127   3.068   2.588   4.690 -1.4489 -1.1007 -1.7282
 3555SOL    HW222128   2.942   2.659   4.693  0.7554 -0.2171  0.9233
 3556SOL     OW22129   3.496   2.050   7.737 -1.3200  0.6443 -0.1523
 3556SOL    HW122130   3.498   1.964   7.780 -1.6559  1.8747  2.2791
 3556SOL    HW222131   3.433   2.088   7.798 -0.6101  1.7855 -0.1440
 3557SOL     OW22132   2.114   1.885   7.031 -0.5710  0.1727  0.3363
 3557SOL    HW122133   2.177   1.907   6.962  0.5767  0.4885  1.4879
 3557SOL    HW222134   2.039   1.848   6.985 -0.7696  1.2751 -0.2380
 3558SOL     OW22135   2.549   1.909  14.891 -0.3530  0.0542 -0.3357
 3558SOL    HW122136   2.493   1.948  14.958  1.1433  0.5814  0.6020
 3558SOL    HW222137   2.484   1.883  14.826 -0.5089  0.0396 -0.1715
 3559SOL     OW22138   2.354   1.118   7.835  0.2468 -0.3397 -0.2655
 3559SOL    HW122139   2.366   1.212   7.852  1.5491 -0.9513  2.1467
 3559SOL    HW222140   2.384   1.064   7.908 -0.2569 -1.2207 -0.7087
 3560SOL     OW22141   1.707   1.904   6.413  0.2293 -0.1503  0.1539
 3560SOL    HW122142   1.632   1.876   6.360  0.1826  0.7268 -0.2420
 3560SOL    HW222143   1.728   1.818   6.449 -1.9070 -1.2668 -1.2127
 3561SOL     OW22144   4.299   0.305   7.514 -0.0290 -0.0318 -0.1244
 3561SOL    HW122145   4.271   0.227   7.466 -2.2040  0.5606  0.1988
 3561SOL    HW222146   4.313   0.366   7.441 -0.9299 -0.5369 -0.7064
 3562SOL     OW22147   3.886   0.216   9.538  0.3464  1.0327 -0.1950
 3562SOL    HW122148   3.964   0.207   9.593  1.0444 -0.9831 -1.5163
 3562SOL    HW222149   3.911   0.263   9.458 -2.0763  1.8055 -0.5225
 3563SOL     OW22150   0.754   2.211  17.333  0.1080 -0.0383  0.3280
 3563SOL    HW122151   0.703   2.272  17.279  1.6379 -0.0269 -1.1282
 3563SOL    HW222152   0.687   2.173  17.389 -1.5487  0.8074 -1.0836
 3564SOL     OW22153   3.799   3.674   7.963 -0.3670  0.2265  0.8581
 3564SOL    HW122154   3.783   3.662   8.057 -0.3203 -0.6038  0.7535
 3564SOL    HW222155   3.735   3.740   7.936  1.4090  0.4046 -2.8710
 3565SOL     OW22156   0.981   2.038   8.942 -0.6652  0.4822  0.2878
 3565SOL    HW122157   0.922   1.976   8.985  0.9199 -1.5387 -0.4558
 3565SOL    HW222158   0.936   2.118   8.970  0.4685  1.3185 -0.2918
 3566SOL     OW22159   1.960   2.948  14.700  0.4576 -0.0305  0.0570
 3566SOL    HW122160   1.942   2.887  14.628  3.2723  0.7091 -1.2547
 3566SOL    HW222161   1.994   3.019  14.645  1.0369 -0.4525 -0.1286
 3567SOL     OW22162   1.719   1.247   0.369 -0.4137  0.4608  0.1199
 3567SOL    HW122163   1.669   1.173   0.404  1.4040 -0.7944  0.0166
 3567SOL    HW222164   1.795   1.202   0.333  1.6096  2.4097  1.9731
 3568SOL     OW22165   1.482   4.610   7.233 -0.1538  0.5858  0.1753
 3568SOL    HW122166   1.443   4.580   7.316 -0.8226 -1.4727 -0.8822
 3568SOL    HW222167   1.502   4.701   7.254  2.0036 -0.0612  0.9519
 3569SOL     OW22168   2.240   0.798   5.822 -0.1453 -0.2570  0.1312
 3569SOL    HW122169   2.240   0.784   5.917  1.0816 -1.0027  0.0233
 3569SOL    HW222170   2.285   0.883   5.821  0.1206 -0.4354 -1.6041
 3570SOL     OW22171   2.406   4.142   6.418 -0.4989  0.2633 -0.2033
 3570SOL    HW122172   2.412   4.229   6.380  1.0012 -0.8089 -2.4415
 3570SOL    HW222173   2.426   4.089   6.341  0.6693 -0.3049  0.4981
 3571SOL     OW22174   1.736   2.974   2.106 -0.2350 -0.1695 -0.4152
 3571SOL    HW122175   1.704   2.911   2.041  0.5331 -0.3632 -0.6075
 3571SOL    HW222176   1.692   3.049   2.066 -0.9587  0.3272  1.3098
 3572SOL     OW22177   1.937   3.374   5.878 -0.0198  0.9893 -0.8643
 3572SOL    HW122178   1.908   3.433   5.808  0.0990 -0.6480 -2.2772
 3572SOL    HW222179   1.906   3.427   5.952 -0.7404  0.3610 -0.7247
 3573SOL     OW22180   0.508   0.681  10.316  0.2100  0.5349 -0.3453
 3573SOL    HW122181   0.421   0.707  10.345  0.6123  1.1566  0.3131
 3573SOL    HW222182   0.495   0.682  10.221  2.5670 -0.0473 -0.6811
 3574SOL     OW22183   2.882   1.793  15.936  1.0018  0.0399 -0.2884
 3574SOL    HW122184   2.961   1.848  15.930  0.1838  1.3573  0.9935
 3574SOL    HW222185   2.903   1.705  15.905  0.3153 -0.2593  0.1068
 3575SOL     OW22186   3.606   4.141   5.013  0.0038  0.5498  0.2867
 3575SOL    HW122187   3.668   4.211   5.030 -0.8294  1.2998  0.2134
 3575SOL    HW222188   3.555   4.170   4.938  0.9490  1.4923  0.0146
 3576SOL     OW22189   2.223   1.916   4.226  0.3296 -0.0119  0.2272
 3576SOL    HW122190   2.269   1.852   4.280 -0.2123 -0.6792 -0.1000
 3576SOL    HW222191   2.138   1.904   4.268  0.3255  1.1331  0.5558
 3577SOL     OW22192   3.074   3.533   0.504 -0.0443  0.5724  0.4056
 3577SOL    HW122193   3.142   3.530   0.572  0.1042 -2.8677  0.1169
 3577SOL    HW222194   3.118   3.591   0.443 -1.5897  0.8606 -0.4297
 3578SOL     OW22195   4.330   0.185   1.550 -0.0606 -0.4595  0.7651
 3578SOL    HW122196   4.360   0.094   1.549  0.6341 -0.1886 -2.2846
 3578SOL    HW222197   4.401   0.220   1.604 -0.9494  0.7362  1.1521
 3579SOL     OW22198   4.717   2.266   6.117  0.4554 -0.2064 -0.3046
 3579SOL    HW122199   0.030   2.273   6.028  2.5207 -2.4978  0.3385
 3579SOL    HW222200   4.640   2.322   6.105  0.4517  0.2131  1.6789
 3580SOL     OW22201   1.925   2.646  17.069  0.0677 -0.1450  0.0667
 3580SOL    HW122202   1.953   2.631  16.978  3.0825  0.8657  0.8008
 3580SOL    HW222203   1.997   2.705  17.093  2.8025 -2.3476 -2.6823
 3581SOL     OW22204   4.017   0.405   4.418 -0.6394 -0.2042 -0.3395
 3581SOL    HW122205   4.097   0.435   4.462  0.9701 -1.8778 -2.1160
 3581SOL    HW222206   4.004   0.313   4.439  0.1583 -0.2525 -0.0411
 3582SOL     OW22207   4.433   1.708   3.917 -0.1683 -0.4462  0.2526
 3582SOL    HW122208   4.525   1.683   3.923  0.2957  1.0225 -0.6538
 3582SOL    HW222209   4.394   1.621   3.909 -1.0817 -0.1413  1.4235
 3583SOL     OW22210   3.990   1.614   1.897  0.0598 -0.0609 -0.1397
 3583SOL    HW122211   3.960   1.532   1.858  1.2031 -1.0845  1.1252
 3583SOL    HW222212   3.918   1.670   1.867 -1.0882 -0.5162  1.7552
 3584SOL     OW22213   4.438   0.912  14.778  0.4094 -0.2481  0.1807
 3584SOL    HW122214   4.376   0.985  14.783 -1.2103 -1.5670 -0.7288
 3584SOL    HW222215   4.470   0.907  14.868 -0.4930 -0.6499  0.4855
 3585SOL     OW22216   0.635   2.790  15.105 -0.6825  0.0553 -0.2817
 3585SOL    HW122217   0.592   2.736  15.170  0.6141  1.2245  1.5377
 3585SOL    HW222218   0.652   2.870  15.155  0.0228  0.2706 -0.8600
 3586SOL     OW22219   3.992   3.315  10.563 -0.3661 -0.1990  0.1642
 3586SOL    HW122220   4.021   3.324  10.472 -0.6163  0.4621  0.1574
 3586SOL    HW222221   3.917   3.374  10.568 -0.7671 -0.6868 -0.1007
 3587SOL     OW22222   1.179   3.303   4.773  0.4292  0.1551  0.8790
 3587SOL    HW122223   1.184   3.344   4.687 -0.8013  1.4105  1.3939
 3587SOL    HW222224   1.108   3.244   4.747  0.5397  0.2002  0.4765
 3588SOL     OW22225   4.086   0.930   5.142 -0.0852  0.2214  0.2858
 3588SOL    HW122226   4.036   1.007   5.114 -1.2283 -0.4102  0.5884
 3588SOL    HW222227   4.175   0.965   5.144  0.2863 -0.6903 -0.0706
 3589SOL     OW22228   2.501   0.595   8.716  0.0010  0.2502 -0.2785
 3589SOL    HW122229   2.511   0.659   8.645  1.6072 -0.0185 -0.3022
 3589SOL    HW222230   2.410   0.567   8.714  0.1043  0.1016 -2.4859
 3590SOL     OW22231   4.717   3.279   9.675 -0.2996  0.0462 -0.1305
 3590SOL    HW122232   4.630   3.243   9.693  0.3624 -1.0715  0.7888
 3590SOL    HW222233   4.690   3.337   9.604  2.4896  1.5619  0.0631
 3591SOL     OW22234   3.391   2.486  14.383 -0.2452 -0.6179  0.2282
 3591SOL    HW122235   3.378   2.421  14.314  1.0460 -2.3852  1.6746
 3591SOL    HW222236   3.384   2.435  14.463 -1.6431  1.2968  1.3306
 3592SOL     OW22237   3.526   2.000   2.061  0.2308 -0.0367 -0.1720
 3592SOL    HW122238   3.600   1.993   2.000  0.7298  1.9164  0.2122
 3592SOL    HW222239   3.569   2.008   2.146  2.4902  1.8864 -1.4878
 3593SOL     OW22240   2.972   2.870   4.467  0.1217 -0.0202  0.1784
 3593SOL    HW122241   2.970   2.812   4.544 -0.5165 -2.1714 -1.4648
 3593SOL    HW222242   3.036   2.820   4.417 -2.6813 -1.3463 -2.0662
 3594SOL     OW22243   0.636   3.250  11.164  0.1103 -0.6939 -0.5557
 3594SOL    HW122244   0.644   3.214  11.076 -2.3248  1.3752 -1.6116
 3594SOL    HW222245   0.700   3.321  11.156  0.1853 -0.8246 -1.0840
 3595SOL     OW22246   0.881   4.199  11.490  0.0051 -0.0423 -0.1579
 3595SOL    HW122247   0.933   4.223  11.567  0.5359 -0.2388 -0.4625
 3595SOL    HW222248   0.804   4.178  11.544  0.6027 -2.3422 -0.2195
 3596SOL     OW22249   3.202   0.737  12.197 -0.3390  0.1796  0.6515
 3596SOL    HW122250   3.209   0.717  12.104 -2.3263  2.0444  0.0871
 3596SOL    HW222251   3.190   0.832  12.197  2.2323  0.5062  0.0608
 3597SOL     OW22252   0.494   3.199   5.237 -0.4228 -0.8346 -0.0770
 3597SOL    HW122253   0.428   3.267   5.228  2.1163  1.4052 -1.8229
 3597SOL    HW222254   0.500   3.171   5.145  1.2262  0.8061 -0.4664
 3598SOL     OW22255   4.702   0.905  13.338  0.1783  0.1516 -0.0332
 3598SOL    HW122256   0.059   0.855  13.360  0.4637  1.4219  1.8245
 3598SOL    HW222257   4.718   0.924  13.246  1.5821 -0.7098  0.0215
 3599SOL     OW22258   1.543   2.225   0.733 -0.3077 -0.2938 -0.4624
 3599SOL    HW122259   1.565   2.158   0.668 -0.2701  1.5896 -2.3925
 3599SOL    HW222260   1.629   2.268   0.741 -1.4855  2.0386 -0.4458
 3600SOL     OW22261   3.853   4.060   2.262  0.2670  0.1113  0.7144
 3600SOL    HW122262   3.946   4.068   2.238  0.9585 -3.0948  2.3784
 3600SOL    HW222263   3.816   4.032   2.178 -0.1141 -0.8912  1.2260
 3601SOL     OW22264   1.887   0.919  10.621 -0.7559 -0.4194  0.0967
 3601SOL    HW122265   1.866   0.924  10.714  0.6151 -2.8398  0.5532
 3601SOL    HW222266   1.942   0.997  10.616 -0.4786 -0.5664  0.8009
 3602SOL     OW22267   3.651   3.468   3.924  0.1150  0.4126 -0.4727
 3602SOL    HW122268   3.711   3.524   3.876  0.6307  0.1270 -0.1642
 3602SOL    HW222269   3.575   3.524   3.941  0.9805  0.7091  2.4299
 3603SOL     OW22270   0.487   0.136  11.582 -0.2617 -0.6817  0.0835
 3603SOL    HW122271   0.481   0.059  11.639 -0.7601  0.6034  1.7696
 3603SOL    HW222272   0.448   0.208  11.632 -1.3357 -2.1169  1.3091
 3604SOL     OW22273   2.834   1.630   5.717  0.7139 -0.2378 -0.1177
 3604SOL    HW122274   2.870   1.590   5.638 -1.0783  0.9643 -1.5337
 3604SOL    HW222275   2.905   1.638   5.781 -0.8606  0.7004  1.5125
 3605SOL     OW22276   4.365   4.182   1.712  0.1095  0.7443  0.0392
 3605SOL    HW122277   4.284   4.147   1.749  1.6423 -0.6468  2.0607
 3605SOL    HW222278   4.431   4.120   1.742 -0.4441  0.3889  0.5086
 3606SOL     OW22279   1.108   2.840   5.846 -0.0299 -0.5323  0.5541
 3606SOL    HW122280   1.073   2.864   5.760  3.2597  0.7027 -0.4375
 3606SOL    HW222281   1.143   2.754   5.823  1.8932  0.6024 -0.7652
 3607SOL     OW22282   4.548   3.980   9.036 -0.2338  0.5060 -0.1427
 3607SOL    HW122283   4.580   4.065   9.067 -0.5642  0.3735  0.5560
 3607SOL    HW222284   4.502   4.015   8.959  2.4010  1.1748 -1.4291
 3608SOL     OW22285   2.360   1.807   2.331  0.3444  0.1264  0.1288
 3608SOL    HW122286   2.430   1.834   2.390 -0.1042 -0.4596  0.9433
 3608SOL    HW222287   2.294   1.783   2.396  0.0698  0.2785 -0.0929
 3609SOL     OW22288   3.161   0.908  16.519 -0.4288  0.8098  0.3114
 3609SOL    HW122289   3.078   0.881  16.559  0.0975 -2.1353 -0.5815
 3609SOL    HW222290   3.174   0.998  16.547 -1.0543  1.2223 -0.7608
 3610SOL     OW22291   4.493   0.718  12.140 -0.3824  0.5748  0.8334
 3610SOL    HW122292   4.577   0.734  12.097 -0.0145 -1.4386  0.7810
 3610SOL    HW222293   4.439   0.691  12.066  0.5219 -0.0125  0.3740
 3611SOL     OW22294   0.524   3.024  10.690  0.0903 -0.3665  0.4759
 3611SOL    HW122295   0.571   3.063  10.764  1.6816  0.1698 -0.8200
 3611SOL    HW222296   0.586   2.959  10.658  0.9676 -1.1159  3.7095
 3612SOL     OW22297   3.058   3.504   3.473 -0.0002 -0.0352  0.4496
 3612SOL    HW122298   3.054   3.545   3.387  1.4399  1.4754  1.1038
 3612SOL    HW222299   3.153   3.494   3.480  0.0997 -0.5309 -1.5056
 3613SOL     OW22300   1.913   4.510   6.386 -0.3701 -0.4698  0.8237
 3613SOL    HW122301   1.844   4.469   6.334 -0.4635  0.1755  0.4305
 3613SOL    HW222302   1.983   4.532   6.325 -1.0831  1.0955  0.5447
 3614SOL     OW22303   2.542   3.251   5.685 -0.2170 -0.4753  0.0480
 3614SOL    HW122304   2.506   3.187   5.746  1.9445  1.0717  2.9818
 3614SOL    HW222305   2.524   3.208   5.602  3.8075 -0.7168 -0.7271
 3615SOL     OW22306   1.837   3.341  16.074  0.3152  0.4076  0.2201
 3615SOL    HW122307   1.743   3.330  16.061  0.2837  0.1227  0.6890
 3615SOL    HW222308   1.834   3.414  16.137  3.3604 -1.1635  2.1905
 3616SOL     OW22309   3.574   2.967   8.427  0.0455 -0.5199  0.4292
 3616SOL    HW122310   3.515   2.918   8.486 -0.9347 -0.7069 -0.7119
 3616SOL    HW222311   3.645   2.905   8.412  0.7032  0.3085  0.1746
 3617SOL     OW22312   3.505   0.157   1.763 -0.4252  0.3246  0.0641
 3617SOL    HW122313   3.506   0.208   1.844  0.4653  1.2551 -0.5347
 3617SOL    HW222314   3.600   0.148   1.753 -0.5487 -0.4427 -0.4088
 3618SOL     OW22315   1.777   1.688   3.750  0.3357 -0.5725 -0.5712
 3618SOL    HW122316   1.735   1.715   3.669  1.1851  0.5326 -0.6372
 3618SOL    HW222317   1.721   1.743   3.806  0.7003 -1.4095  0.6325
 3619SOL     OW22318   1.257   2.885   1.170 -0.2910 -0.1622 -0.1775
 3619SOL    HW122319   1.194   2.917   1.105 -1.4979  1.9293  2.0428
 3619SOL    HW222320   1.298   2.967   1.197 -0.6305 -0.2349  0.5485
 3620SOL     OW22321   3.110   0.309   2.873 -0.1173 -0.6634  0.0915
 3620SOL    HW122322   3.120   0.296   2.967  2.0597 -1.3956 -0.2189
 3620SOL    HW222323   3.181   0.250   2.846  1.3396  0.6844  0.9990
 3621SOL     OW22324   1.716   1.707  15.357  0.2884  0.7686  0.2942
 3621SOL    HW122325   1.796   1.656  15.371 -0.5707 -0.6035  0.2831
 3621SOL    HW222326   1.699   1.695  15.263 -1.6136 -0.1152  0.7548
 3622SOL     OW22327   1.576   4.581   8.974  0.2860  0.6601 -0.3954
 3622SOL    HW122328   1.527   4.549   8.899 -3.8075  1.9788  1.7146
 3622SOL    HW222329   1.662   4.560   8.936  1.2967  1.6528  1.2943
 3623SOL     OW22330   1.852   3.102  13.042  0.7772  0.1119  0.1655
 3623SOL    HW122331   1.884   3.026  13.091 -1.5509 -1.0499 -0.0670
 3623SOL    HW222332   1.776   3.069  12.994  0.9472  0.7150 -0.5124
 3624SOL     OW22333   2.181   3.165   3.500  0.0207  0.1265 -0.2685
 3624SOL    HW122334   2.153   3.121   3.581  1.3913  0.1630  0.2409
 3624SOL    HW222335   2.276   3.173   3.507 -0.0602  0.1659  0.8421
 3625SOL     OW22336   4.493   4.134   0.367 -0.3466  0.0636 -0.1177
 3625SOL    HW122337   4.430   4.116   0.437 -1.2156 -3.0957 -1.7058
 3625SOL    HW222338   4.484   4.043   0.336 -1.7036  0.0489  0.3162
 3626SOL     OW22339   3.029   3.262  11.707 -0.2269  0.4224 -0.3306
 3626SOL    HW122340   3.120   3.268  11.736 -0.0195 -1.0556 -0.7009
 3626SOL    HW222341   2.993   3.350  11.724  0.6347  1.0259 -1.5832
 3627SOL     OW22342   2.471   0.352  14.118 -0.0939  0.1802  0.4426
 3627SOL    HW122343   2.424   0.410  14.178 -1.7813  0.9865 -1.6658
 3627SOL    HW222344   2.475   0.275  14.175  0.4327  1.4007  2.0350
 3628SOL     OW22345   2.500   3.142   3.782  0.2957 -0.4780 -0.4655
 3628SOL    HW122346   2.486   3.064   3.837  2.5151 -0.2043  0.4898
 3628SOL    HW222347   2.594   3.154   3.798  0.7534 -2.4576 -1.6523
 3629SOL     OW22348   1.413   3.539   6.230 -0.1479 -0.1234 -0.0962
 3629SOL    HW122349   1.375   3.533   6.317  2.5828 -1.4906  0.9836
 3629SOL    HW222350   1.501   3.520   6.263 -0.2750  1.0267  0.8924
 3630SOL     OW22351   2.151   3.437   3.474  0.4569  0.5169 -0.2121
 3630SOL    HW122352   2.170   3.347   3.446 -2.3975 -0.4745  0.9676
 3630SOL    HW222353   2.064   3.433   3.515  0.3828 -3.1029 -0.7291
 3631SOL     OW22354   0.962   3.433   3.130  0.1176 -0.5627  0.0268
 3631SOL    HW122355   1.016   3.407   3.205  0.8267  3.4472  0.9305
 3631SOL    HW222356   0.967   3.528   3.135  2.2367 -0.6524 -0.6480
 3632SOL     OW22357   0.061   0.674   3.954 -0.0547 -0.0350 -0.4039
 3632SOL    HW122358   4.691   0.647   3.956 -0.2356  0.8306  2.8120
 3632SOL    HW222359   0.086   0.612   3.886  0.6295  1.0451 -1.1543
 3633SOL     OW22360   3.664   4.016  12.549  0.6947 -0.2288 -0.4438
 3633SOL    HW122361   3.709   3.935  12.573  0.6407 -0.1294  0.0010
 3633SOL    HW222362   3.579   3.994  12.589  0.4701  1.8815  0.2315
 3634SOL     OW22363   2.384   2.802   3.686 -0.3591 -0.1975 -0.1722
 3634SOL    HW122364   2.341   2.718   3.670 -0.8822  0.4367 -2.0486
 3634SOL    HW222365   2.304   2.854   3.682  0.3877  0.7729 -2.3907
 3635SOL     OW22366   0.383   0.581  16.310 -0.5557  0.6576  0.1952
 3635SOL    HW122367   0.346   0.601  16.224 -0.8327 -0.7999 -0.0285
 3635SOL    HW222368   0.431   0.501  16.285 -2.1548 -0.9130  2.2291
 3636SOL     OW22369   1.298   1.506   5.359 -0.1002 -0.2721 -0.0243
 3636SOL    HW122370   1.290   1.567   5.432  0.0551 -0.5842  0.2540
 3636SOL    HW222371   1.346   1.554   5.291 -1.8147  1.2992 -0.1110
 3637SOL     OW22372   0.017   1.969   0.600 -0.2950 -0.9256  0.2238
 3637SOL    HW122373   0.045   1.881   0.576  2.6826  0.0729  0.0651
 3637SOL    HW222374   0.016   2.018   0.517  0.5949 -0.0023  0.7591
 3638SOL     OW22375   3.470   4.492   3.727  0.1166 -0.2384  0.4974
 3638SOL    HW122376   3.420   4.417   3.695 -0.5145 -0.2297  1.4669
 3638SOL    HW222377   3.501   4.532   3.645  1.7213  0.8544  1.6420
 3639SOL     OW22378   1.010   1.251   2.513 -0.1226  0.4465  0.3624
 3639SOL    HW122379   1.054   1.267   2.430 -0.8403 -0.0589 -0.1083
 3639SOL    HW222380   0.929   1.215   2.479  0.3693  0.8731 -1.2425
 3640SOL     OW22381   4.484   2.551   6.535 -0.2790  0.2549 -0.3104
 3640SOL    HW122382   4.525   2.545   6.448  0.1716 -2.0674  0.0416
 3640SOL    HW222383   4.393   2.570   6.514 -0.2600  2.0901  1.3130
 3641SOL     OW22384   2.039   1.304  15.340  0.3002 -0.1941 -0.0542
 3641SOL    HW122385   2.039   1.283  15.247 -1.0845 -1.4886  0.2400
 3641SOL    HW222386   2.005   1.225  15.382 -1.3022  2.0284  2.8406
 3642SOL     OW22387   1.459   1.159  13.541  0.0557 -0.6850  0.1075
 3642SOL    HW122388   1.476   1.253  13.535 -0.6423 -0.6328 -0.8903
 3642SOL    HW222389   1.543   1.126  13.574  0.8716  1.3259  0.0459
 3643SOL     OW22390   3.038   2.025   6.704  0.5074  0.6192 -0.6095
 3643SOL    HW122391   3.101   2.097   6.715  0.1388  0.7230  0.7461
 3643SOL    HW222392   3.000   2.046   6.618 -1.4454  0.0986  0.1325
 3644SOL     OW22393   1.309   2.674   0.195 -0.1554  0.3749  0.2892
 3644SOL    HW122394   1.291   2.759   0.154 -0.3950  0.2483  0.1269
 3644SOL    HW222395   1.333   2.615   0.123  1.2738  1.7484 -0.3360
 3645SOL     OW22396   3.873   2.446  16.377 -0.1194  0.0432  0.1417
 3645SOL    HW122397   3.898   2.532  16.410  2.0752  0.0833 -1.5842
 3645SOL    HW222398   3.858   2.463  16.283 -0.1281  1.5098  0.4000
 3646SOL     OW22399   4.612   3.000   2.636 -0.7543  0.1060  0.1086
 3646SOL    HW122400   4.622   2.958   2.721  0.4199  0.4027  0.1064
 3646SOL    HW222401   4.561   2.931   2.593 -1.0379  0.8889 -0.8045
 3647SOL     OW22402   4.685   4.602   2.823 -0.1745 -0.3073 -0.2770
 3647SOL    HW122403   4.719   4.670   2.765  0.3651  0.4703  0.9829
 3647SOL    HW222404   0.036   4.589   2.883 -1.6416 -0.3554  1.5145
 3648SOL     OW22405   0.067   3.057   6.296 -0.6481  0.2269 -0.1320
 3648SOL    HW122406   0.157   3.074   6.268 -0.2846 -0.1263  0.8184
 3648SOL    HW222407   0.043   2.980   6.243  0.6411  0.9427 -1.7487
 3649SOL     OW22408   1.420   0.781   3.687  0.1280  0.5526 -0.4971
 3649SOL    HW122409   1.432   0.686   3.686  0.0213  0.5155  1.0492
 3649SOL    HW222410   1.507   0.810   3.657  0.3630  2.5418  2.0737
 3650SOL     OW22411   3.839   1.919   7.165 -0.5172  0.6396  0.4719
 3650SOL    HW122412   3.831   1.852   7.097 -0.7420  0.6641  0.4738
 3650SOL    HW222413   3.749   1.936   7.194 -0.7117 -0.2026  0.3673
 3651SOL     OW22414   3.715   1.136  11.327  0.2589 -0.1567  0.1846
 3651SOL    HW122415   3.778   1.143  11.255  0.3222  0.8670  0.3433
 3651SOL    HW222416   3.668   1.220  11.328  0.8955  0.1614  2.2401
 3652SOL     OW22417   2.036   3.706  15.631  0.0950 -0.4007  0.5754
 3652SOL    HW122418   1.980   3.642  15.587  0.6936  0.4723 -1.4449
 3652SOL    HW222419   2.119   3.683  15.589  0.8681  0.3206  1.7174
 3653SOL     OW22420   0.086   1.754   8.493 -0.1429 -0.4256  0.1657
 3653SOL    HW122421   0.137   1.741   8.413  0.4016  1.4855  0.2002
 3653SOL    HW222422   0.151   1.803   8.543 -0.2964  1.9146 -1.9738
 3654SOL     OW22423   2.908   3.419   3.700  0.3308  0.0346 -0.1895
 3654SOL    HW122424   2.864   3.504   3.691 -2.8616 -1.7086 -0.7721
 3654SOL    HW222425   2.973   3.422   3.630  0.6446  0.3871  0.1129
 3655SOL     OW22426   0.606   1.770   4.971 -0.5899  0.1870 -0.1749
 3655SOL    HW122427   0.689   1.765   5.018 -1.6005  0.1456  1.6005
 3655SOL    HW222428   0.622   1.691   4.919 -2.5064 -0.0694 -0.3622
 3656SOL     OW22429   0.287   0.498   7.532 -0.6717 -0.4348  0.1964
 3656SOL    HW122430   0.206   0.545   7.512 -0.2268  0.4264  0.4342
 3656SOL    HW222431   0.344   0.532   7.463 -2.2957  1.3758 -0.2348
 3657SOL     OW22432   2.272   1.677   6.250  0.5733  0.5007  0.1005
 3657SOL    HW122433   2.337   1.716   6.308 -1.8285  2.2530  1.6095
 3657SOL    HW222434   2.286   1.587   6.282  0.4254  1.0947  1.8722
 3658SOL     OW22435   2.647   1.886   5.230  0.0500  0.1049 -0.1946
 3658SOL    HW122436   2.739   1.866   5.249  0.5945  0.7875 -2.0251
 3658SOL    HW222437   2.630   1.863   5.138  0.5898 -1.1101  0.0113
 3659SOL     OW22438   3.222   3.449   9.338 -0.5377 -0.4854  0.7073
 3659SOL    HW122439   3.134   3.434   9.306  0.0072  1.3497 -1.6051
 3659SOL    HW222440   3.270   3.366   9.329 -2.0566 -1.2761 -0.0086
 3660SOL     OW22441   2.168   0.455   8.376 -0.2564 -0.1922  0.2763
 3660SOL    HW122442   2.147   0.545   8.402  1.3684  0.5149 -0.9102
 3660SOL    HW222443   2.094   0.433   8.320  0.3771 -3.0384  0.5932
 3661SOL     OW22444   2.124   1.977  11.993  0.2711 -0.4709 -0.1990
 3661SOL    HW122445   2.219   1.968  12.001  0.2903  2.0174  2.2161
 3661SOL    HW222446   2.132   2.022  11.909  0.7245 -1.1407 -0.5166
 3662SOL     OW22447   0.336   1.470   8.302 -0.0885  0.3322  0.4131
 3662SOL    HW122448   0.242   1.463   8.316 -0.2046  1.6059  0.2856
 3662SOL    HW222449   0.341   1.565   8.313  0.2226  0.0567  2.7281
 3663SOL     OW22450   3.711   2.276   2.033  0.0831  0.0756  0.1625
 3663SOL    HW122451   3.744   2.366   2.023  0.9018 -0.0588  1.7014
 3663SOL    HW222452   3.791   2.227   2.010 -0.5745  0.0085 -2.0335
 3664SOL     OW22453   1.326   0.569   5.735  0.4625 -0.6067 -0.3280
 3664SOL    HW122454   1.337   0.563   5.829 -0.5141 -0.0922 -0.1777
 3664SOL    HW222455   1.262   0.641   5.738  2.0314  0.8608 -1.6414
 3665SOL     OW22456   4.351   0.861   6.663  0.5316 -0.4564  0.0487
 3665SOL    HW122457   4.319   0.798   6.728  3.3286 -0.8616  1.0205
 3665SOL    HW222458   4.428   0.815   6.633  0.0365 -0.5709 -1.0421
 3666SOL     OW22459   2.656   0.889   3.493  0.3523 -0.1385 -0.7266
 3666SOL    HW122460   2.596   0.876   3.420  0.6681  0.0551 -1.0208
 3666SOL    HW222461   2.658   0.985   3.494 -1.9649 -0.1085  0.0463
 3667SOL     OW22462   3.127   1.424  13.613  0.2100 -0.3751  0.8576
 3667SOL    HW122463   3.191   1.489  13.582 -0.1116  0.3167  1.6403
 3667SOL    HW222464   3.184   1.348  13.613 -0.2543 -0.7230  2.9686
 3668SOL     OW22465   1.552   2.102   0.969 -0.2331  0.4771 -0.1625
 3668SOL    HW122466   1.554   2.120   0.875 -0.5032 -0.6865 -0.3953
 3668SOL    HW222467   1.462   2.070   0.979 -0.3026  0.9521  0.6948
 3669SOL     OW22468   1.979   0.990   9.629  0.2646  0.4285  0.0381
 3669SOL    HW122469   1.963   0.966   9.720  1.8233  2.2887  0.8009
 3669SOL    HW222470   2.043   1.062   9.632 -0.1611  0.8312 -0.4789
 3670SOL     OW22471   1.873   1.591   8.694  0.1997 -0.0838  0.4084
 3670SOL    HW122472   1.968   1.581   8.698  0.0148 -1.6139  1.0099
 3670SOL    HW222473   1.858   1.636   8.776  0.0165 -3.0472  2.0048
 3671SOL     OW22474   0.354   3.415   5.393  0.0685 -0.0921 -0.1947
 3671SOL    HW122475   0.337   3.467   5.471  1.4948  0.4194 -0.2089
 3671SOL    HW222476   0.282   3.353   5.393  1.0260 -1.1854  1.4783
 3672SOL     OW22477   2.869   1.451   4.388  0.1640  0.1585  0.0050
 3672SOL    HW122478   2.851   1.462   4.295  1.3113 -0.4135 -0.2827
 3672SOL    HW222479   2.777   1.434   4.407  0.5131 -2.2596 -0.3848
 3673SOL     OW22480   3.198   2.302  12.557  0.5146  0.6739  0.2024
 3673SOL    HW122481   3.147   2.222  12.569  0.5354  0.6206 -0.0743
 3673SOL    HW222482   3.274   2.269  12.510 -0.8442  0.3419 -1.7790
 3674SOL     OW22483   1.733   1.882   9.481  0.1433  0.2878  0.0891
 3674SOL    HW122484   1.710   1.844   9.566  0.5450 -0.0102  0.0646
 3674SOL    HW222485   1.819   1.920   9.502 -0.3927  2.4015 -1.5977
 3675SOL     OW22486   4.351   2.158  11.387  0.5361 -0.5738 -0.6463
 3675SOL    HW122487   4.424   2.098  11.373 -0.5927 -1.6659 -1.9708
 3675SOL    HW222488   4.313   2.159  11.299  0.7363  1.0571 -0.7123
 3676SOL     OW22489   0.663   4.187  13.576  0.2671  0.2075 -0.6581
 3676SOL    HW122490   0.651   4.133  13.497 -2.0115  0.1188 -0.2558
 3676SOL    HW222491   0.666   4.112  13.636  1.4163 -0.0461 -1.0330
 3677SOL     OW22492   4.407   4.646  15.887  0.4413  0.8224  0.3388
 3677SOL    HW122493   4.387   4.566  15.935  0.7245  0.1817 -0.6141
 3677SOL    HW222494   4.424   4.717  15.950 -0.2719  0.9705  0.3631
 3678SOL     OW22495   1.492   3.326  16.592 -0.3609  0.0779  0.2147
 3678SOL    HW122496   1.465   3.289  16.676  0.5044 -0.5674  0.2059
 3678SOL    HW222497   1.447   3.410  16.589  0.0591  0.3363  1.0011
 3679SOL     OW22498   0.357   3.494   6.075 -0.7269  0.0272  0.6640
 3679SOL    HW122499   0.276   3.517   6.120 -0.7889 -1.6704  1.4335
 3679SOL    HW222500   0.320   3.500   5.987  0.4618 -0.1484  0.1405
 3680SOL     OW22501   0.465   0.153   8.968 -0.0797 -0.7922  0.4382
 3680SOL    HW122502   0.420   0.073   8.943 -0.8529 -0.4330  0.6669
 3680SOL    HW222503   0.514   0.134   9.048  0.2003  0.1097  0.4890
 3681SOL     OW22504   3.562   2.464   1.714 -0.4453  0.3344  0.3333
 3681SOL    HW122505   3.555   2.388   1.772 -2.0151 -0.0450 -0.3841
 3681SOL    HW222506   3.512   2.533   1.758  0.9629  0.1937  2.1835
 3682SOL     OW22507   2.825   4.671   5.151  0.1857  0.2833 -0.3316
 3682SOL    HW122508   2.791   4.700   5.237 -1.1286 -1.9157 -0.1069
 3682SOL    HW222509   2.847   4.579   5.165 -1.2350 -0.6285 -4.2744
 3683SOL     OW22510   3.440   1.029   1.212 -0.6420  0.0753  0.0758
 3683SOL    HW122511   3.387   1.104   1.238 -0.8850 -0.1461  0.2296
 3683SOL    HW222512   3.425   1.010   1.119  2.0301 -2.7940  0.2345
 3684SOL     OW22513   1.953   0.043  16.935 -0.3706  0.7201  0.3486
 3684SOL    HW122514   2.008   0.090  16.873 -1.2989 -1.7962 -2.3630
 3684SOL    HW222515   1.890   0.111  16.959  0.0599  0.4327  2.2753
 3685SOL     OW22516   0.554   0.780   0.241  0.3396  0.4900  0.3533
 3685SOL    HW122517   0.463   0.755   0.253  1.1796 -4.1233 -2.5998
 3685SOL    HW222518   0.559   0.853   0.303  2.0909 -0.7880  1.7230
 3686SOL     OW22519   4.209   2.353   4.917  0.7262 -0.1841  0.3376
 3686SOL    HW122520   4.146   2.382   4.852  0.6162  1.3944  1.1510
 3686SOL    HW222521   4.176   2.407   4.989 -2.3252  0.7959 -1.8041
 3687SOL     OW22522   1.537   2.639   5.224 -0.2969  0.4575 -0.1699
 3687SOL    HW122523   1.620   2.596   5.202 -2.1604 -2.3940 -1.6095
 3687SOL    HW222524   1.569   2.698   5.292  0.7235 -1.5225  1.0492
 3688SOL     OW22525   1.262   4.556   6.575 -0.1475  0.0730  0.3170
 3688SOL    HW122526   1.355   4.542   6.557  0.4601  2.1871  1.8047
 3688SOL    HW222527   1.257   4.575   6.669 -0.4847  1.0844  0.0951
 3689SOL     OW22528   0.011   1.110   2.501  0.4400  0.5163 -0.0256
 3689SOL    HW122529   4.649   1.142   2.468 -0.3505  0.4807  1.9708
 3689SOL    HW222530   0.066   1.103   2.423  0.5122  1.2222 -0.0416
 3690SOL     OW22531   2.033   1.716   4.738  0.8446  0.1661  0.3191
 3690SOL    HW122532   2.105   1.775   4.714 -0.0203 -0.0892 -2.8200
 3690SOL    HW222533   1.964   1.733   4.674  1.1256 -0.2686 -0.0998
 3691SOL     OW22534   2.961   0.867  11.832 -0.1368 -0.1930  0.3570
 3691SOL    HW122535   3.047   0.863  11.874  0.0612 -0.4271 -0.0770
 3691SOL    HW222536   2.907   0.856  11.910  1.5112 -1.3171  1.3354
 3692SOL     OW22537   0.503   0.293   8.727  0.4181 -0.0882 -0.0507
 3692SOL    HW122538   0.543   0.269   8.810 -1.2206  1.2489  1.1403
 3692SOL    HW222539   0.413   0.271   8.753  0.8601 -0.6122  1.0390
 3693SOL     OW22540   0.456   4.203  11.009 -0.3370  1.1061  0.0857
 3693SOL    HW122541   0.441   4.260  11.085  1.2647 -0.9999  1.9490
 3693SOL    HW222542   0.417   4.118  11.027 -0.1837  1.4867  2.2045
 3694SOL     OW22543   2.557   3.723   4.129 -0.0821  0.3480 -0.1398
 3694SOL    HW122544   2.527   3.642   4.089  3.0557  0.2096 -2.2355
 3694SOL    HW222545   2.645   3.726   4.090  0.6468 -0.6276  1.4398
 3695SOL     OW22546   3.471   2.230   1.100 -0.4933  0.0598  0.1666
 3695SOL    HW122547   3.418   2.174   1.157 -0.3958 -0.0581  0.1422
 3695SOL    HW222548   3.442   2.315   1.133 -0.0083 -0.1985  1.2508
 3696SOL     OW22549   3.205   1.487   3.767  0.1966  0.1648 -0.1327
 3696SOL    HW122550   3.226   1.433   3.843 -1.0175  2.0548  1.5507
 3696SOL    HW222551   3.194   1.571   3.812 -2.0214 -0.3087  0.1954
 3697SOL     OW22552   3.610   0.123   8.885  0.0490 -0.7484  0.1312
 3697SOL    HW122553   3.568   0.207   8.899  0.1678 -1.4240  4.4895
 3697SOL    HW222554   3.536   0.062   8.879 -0.6434  0.0401  0.6387
 3698SOL     OW22555   2.864   1.823   3.689  0.1817  0.4093  0.0003
 3698SOL    HW122556   2.941   1.860   3.646 -0.1099 -0.7433 -1.5181
 3698SOL    HW222557   2.799   1.821   3.618  2.2654  1.5460 -1.9252
 3699SOL     OW22558   2.228   3.446   6.713  0.1278  0.1634 -0.1859
 3699SOL    HW122559   2.181   3.455   6.796  2.3771  1.9797  0.8696
 3699SOL    HW222560   2.231   3.538   6.690 -0.6330 -0.2232 -1.8393
 3700SOL     OW22561   2.215   0.849  14.832 -0.5512  0.1099  0.5411
 3700SOL    HW122562   2.184   0.766  14.868  0.3606  0.2134  1.5710
 3700SOL    HW222563   2.239   0.823  14.743  1.1875 -1.1004  1.3585
 3701SOL     OW22564   1.225   3.221  12.443  0.4858 -0.0703  0.5930
 3701SOL    HW122565   1.266   3.271  12.514 -1.6292  1.5873  0.6603
 3701SOL    HW222566   1.175   3.164  12.502 -1.6603  1.5492  0.3498
 3702SOL     OW22567   4.658   2.043   3.945  0.2226 -0.1791  0.3707
 3702SOL    HW122568   0.007   2.101   3.970 -0.7109  0.2678  1.9819
 3702SOL    HW222569   4.603   2.057   4.022 -0.5880  0.9965 -0.4261
 3703SOL     OW22570   2.246   3.947   3.730 -0.0181  0.6945  0.0403
 3703SOL    HW122571   2.230   3.950   3.824  2.6509 -3.2615  0.6201
 3703SOL    HW222572   2.173   3.889   3.706  0.9182 -0.3583 -0.2975
 3704SOL     OW22573   1.775   1.690   2.135  0.4556 -0.1134 -0.1310
 3704SOL    HW122574   1.745   1.727   2.218 -1.0581 -0.5229 -0.4997
 3704SOL    HW222575   1.867   1.709   2.156  0.3725  1.7780 -1.4340
 3705SOL     OW22576   4.285   3.855   0.745 -0.3429  0.1721  0.4217
 3705SOL    HW122577   4.304   3.784   0.685 -0.4844  0.4174  0.0866
 3705SOL    HW222578   4.330   3.812   0.818 -0.7293  1.4160  1.4052
 3706SOL     OW22579   0.852   4.002   5.242  1.0180  0.0229 -0.1395
 3706SOL    HW122580   0.940   3.971   5.219  0.5508 -0.8676 -0.7219
 3706SOL    HW222581   0.877   4.072   5.303 -0.4208 -0.3693  0.8935
 3707SOL     OW22582   2.959   2.417  14.298 -0.3278  0.0054 -0.2011
 3707SOL    HW122583   2.902   2.371  14.359  0.6571  0.7704  1.2846
 3707SOL    HW222584   2.927   2.380  14.215  0.1247  0.4708 -0.5820
 3708SOL     OW22585   3.242   0.964  16.070  0.1184 -0.0715  0.0017
 3708SOL    HW122586   3.192   1.020  16.129  1.3773  0.2512  0.7754
 3708SOL    HW222587   3.178   0.962  15.999 -0.1020 -1.7495  0.2496
 3709SOL     OW22588   2.276   4.372   4.397 -0.1834 -0.3168 -0.0475
 3709SOL    HW122589   2.308   4.452   4.440 -0.4125  0.9327 -2.2067
 3709SOL    HW222590   2.205   4.341   4.454  0.2246 -2.2452 -0.6026
 3710SOL     OW22591   1.088   3.687  16.026  0.2323  0.2663  0.7239
 3710SOL    HW122592   1.146   3.616  16.052  0.7861 -0.5953 -2.9227
 3710SOL    HW222593   1.150   3.759  16.012 -1.1869  0.8326 -2.6055
 3711SOL     OW22594   0.432   4.291   5.315  0.2878  0.3936  0.0599
 3711SOL    HW122595   0.385   4.372   5.295  0.3569 -0.1045 -2.1208
 3711SOL    HW222596   0.461   4.265   5.228 -1.2786  0.2902 -0.4419
 3712SOL     OW22597   1.702   2.569   7.444 -0.2075  0.3959  0.2222
 3712SOL    HW122598   1.732   2.640   7.387 -0.1584 -2.3816 -3.2304
 3712SOL    HW222599   1.672   2.502   7.382  1.3824  1.2803 -1.4806
 3713SOL     OW22600   4.171   3.176   8.570  0.0581  0.3146  0.1259
 3713SOL    HW122601   4.116   3.137   8.637  0.6331  0.9402  0.9515
 3713SOL    HW222602   4.228   3.228   8.626 -0.8418 -0.3390  1.6448
 3714SOL     OW22603   0.464   2.025   3.939  0.2144  0.0631  0.5397
 3714SOL    HW122604   0.397   2.017   3.872 -0.7912 -0.8160  1.6376
 3714SOL    HW222605   0.520   2.094   3.904  1.0148 -1.0581 -0.3980
 3715SOL     OW22606   0.637   3.731   7.372  0.0349 -0.4575 -0.7332
 3715SOL    HW122607   0.574   3.725   7.300 -0.5976  1.4383 -0.3563
 3715SOL    HW222608   0.660   3.639   7.382 -1.5273 -0.5703  1.9585
 3716SOL     OW22609   2.930   1.486   8.914 -0.2295 -0.3741  0.0246
 3716SOL    HW122610   2.976   1.433   8.849 -0.2558 -0.9906  0.5120
 3716SOL    HW222611   3.014   1.523   8.941 -0.3289 -0.0821 -0.0672
 3717SOL     OW22612   0.089   0.255   5.330  0.0058  0.2815 -0.4878
 3717SOL    HW122613   0.004   0.214   5.343 -0.3160  0.5193 -1.9357
 3717SOL    HW222614   0.099   0.318   5.402 -1.6154  0.2173 -0.2016
 3718SOL     OW22615   0.070   2.003   7.680  0.3669 -0.0006 -0.0197
 3718SOL    HW122616   0.066   2.067   7.608  2.0101 -2.7129 -2.5257
 3718SOL    HW222617   0.133   1.938   7.651 -1.6562 -1.0511 -2.0739
 3719SOL     OW22618   3.700   3.208   9.715 -0.0522  0.3372  0.0503
 3719SOL    HW122619   3.629   3.144   9.713  0.1800 -0.0222  2.3239
 3719SOL    HW222620   3.780   3.156   9.725 -0.3991  0.0808  1.5400
 3720SOL     OW22621   0.614   1.854  15.274 -0.5333 -0.3418  0.6250
 3720SOL    HW122622   0.694   1.876  15.321  0.9111 -0.7170 -1.6838
 3720SOL    HW222623   0.585   1.778  15.324 -1.0770  0.6703  1.8595
 3721SOL     OW22624   0.686   2.539   2.534 -0.1856 -0.5160 -0.2423
 3721SOL    HW122625   0.698   2.606   2.466  1.7544 -1.9002 -1.2721
 3721SOL    HW222626   0.728   2.574   2.613 -1.4707 -2.3374  1.2577
 3722SOL     OW22627   3.213   3.082   7.411  0.1255 -0.2267  0.2610
 3722SOL    HW122628   3.150   3.153   7.400  2.8922  2.0616 -0.6416
 3722SOL    HW222629   3.252   3.097   7.497  0.1687  0.3930  0.1325
 3723SOL     OW22630   0.851   0.924  10.965  0.2918  0.7619  0.0644
 3723SOL    HW122631   0.908   0.868  11.018 -0.6816 -1.2909 -1.0517
 3723SOL    HW222632   0.800   0.958  11.038 -3.0075 -0.0419 -1.8594
 3724SOL     OW22633   1.605   0.304  15.190  0.4869 -0.4613 -0.2314
 3724SOL    HW122634   1.594   0.344  15.276 -1.5983  0.1236 -0.7662
 3724SOL    HW222635   1.517   0.277  15.164  0.3825  1.1443 -1.5018
 3725SOL     OW22636   3.478   4.377   5.165 -0.0809  0.5518  0.1590
 3725SOL    HW122637   3.447   4.459   5.204 -0.7246  0.8623 -1.0079
 3725SOL    HW222638   3.489   4.412   5.077  0.6875 -0.1463 -0.0183
 3726SOL     OW22639   3.364   2.183  14.369 -0.3825  0.0745 -0.4394
 3726SOL    HW122640   3.292   2.126  14.341 -1.4158 -0.5675  3.6518
 3726SOL    HW222641   3.326   2.197  14.456  0.3636  0.4238 -0.1719
 3727SOL     OW22642   1.078   3.324   3.343 -0.0444 -0.4764  0.5758
 3727SOL    HW122643   1.011   3.325   3.411 -1.2160  0.3895 -0.5991
 3727SOL    HW222644   1.092   3.231   3.327  2.6794 -0.1151  0.7044
 3728SOL     OW22645   1.051   3.656   1.041  0.7474 -0.4472 -0.1337
 3728SOL    HW122646   1.129   3.682   1.090  0.7267  1.7938 -1.2992
 3728SOL    HW222647   0.998   3.679   1.117 -0.1779  0.5077 -1.0593
 3729SOL     OW22648   4.718   4.314   8.244 -0.3188 -0.2135 -0.0026
 3729SOL    HW122649   0.072   4.287   8.297 -1.1198 -2.5168 -0.0381
 3729SOL    HW222650   4.719   4.244   8.179  1.0571  0.9862 -1.2691
 3730SOL     OW22651   2.708   4.152   8.023  0.0604 -0.3310 -0.5047
 3730SOL    HW122652   2.771   4.096   8.069  1.8854  1.1109 -1.2546
 3730SOL    HW222653   2.658   4.078   7.987  0.2608 -1.6063  1.8407
 3731SOL     OW22654   4.514   3.456   5.669 -0.0878  0.1975 -0.6861
 3731SOL    HW122655   4.607   3.462   5.692  0.0428 -1.5472 -0.7765
 3731SOL    HW222656   4.519   3.498   5.584 -1.8520  2.6655  0.4521
 3732SOL     OW22657   1.904   1.959   4.945  0.2639 -0.1439 -0.2970
 3732SOL    HW122658   1.943   2.010   4.874  0.8400 -1.0656 -0.6509
 3732SOL    HW222659   1.826   1.921   4.904  0.4323  0.1842 -0.9170
 3733SOL     OW22660   3.265   0.043  15.146  0.8913  0.6556 -0.6829
 3733SOL    HW122661   3.174   0.020  15.162  1.2565 -0.2319  0.1347
 3733SOL    HW222662   3.258   0.114  15.083  0.1195 -0.1895 -1.5449
 3734SOL     OW22663   1.957   0.684   0.485  0.0694 -0.2513 -0.5265
 3734SOL    HW122664   2.033   0.685   0.428  0.5646  2.1697  0.1962
 3734SOL    HW222665   1.979   0.626   0.559  0.1539  0.0561 -0.3093
 3735SOL     OW22666   2.410   3.753   9.812  0.1027  0.0931 -0.1140
 3735SOL    HW122667   2.316   3.737   9.799  0.3231 -0.1509 -1.3499
 3735SOL    HW222668   2.448   3.684   9.759  0.6320 -0.3095  0.8026
 3736SOL     OW22669   4.150   3.906  12.558 -0.0416 -0.1852  0.1688
 3736SOL    HW122670   4.171   3.956  12.478  0.0754 -0.1545  0.2189
 3736SOL    HW222671   4.240   3.880  12.577 -1.0732 -3.9720 -0.1145
 3737SOL     OW22672   1.663   0.817   1.488  0.7609  0.1622 -0.4064
 3737SOL    HW122673   1.583   0.842   1.534  0.7390 -1.0517  0.2040
 3737SOL    HW222674   1.682   0.894   1.435 -1.0383  1.0809  0.2683
 3738SOL     OW22675   3.569   1.860   3.176 -0.1164 -1.0331  0.2262
 3738SOL    HW122676   3.598   1.835   3.089  2.6418 -0.5703  1.0084
 3738SOL    HW222677   3.634   1.815   3.230  1.8247 -0.6046 -1.7866
 3739SOL     OW22678   3.036   2.062   3.190 -0.2367 -0.2303  0.8028
 3739SOL    HW122679   3.086   2.013   3.255  1.0880 -0.0886 -0.1180
 3739SOL    HW222680   3.108   2.085   3.132 -0.5627  0.4127  0.6508
 3740SOL     OW22681   3.395   1.996  11.990 -0.4088  0.5149 -0.0769
 3740SOL    HW122682   3.480   1.994  11.946 -0.8782 -0.3424 -0.9431
 3740SOL    HW222683   3.361   1.909  11.970  1.5328 -0.6232  1.6957
 3741SOL     OW22684   1.496   4.136   2.767 -0.2197 -0.1890  0.0149
 3741SOL    HW122685   1.570   4.194   2.751  0.2663 -0.7597  0.1596
 3741SOL    HW222686   1.422   4.193   2.788 -0.6391 -0.4659 -0.6764
 3742SOL     OW22687   3.912   0.846   9.040 -0.4507  0.2685 -0.0801
 3742SOL    HW122688   3.901   0.901   9.118 -0.5304 -1.7151  1.3317
 3742SOL    HW222689   3.960   0.905   8.982  0.5614 -1.1772 -0.7333
 3743SOL     OW22690   2.481   3.673   7.888  0.6533  0.4507  0.3314
 3743SOL    HW122691   2.547   3.607   7.908  0.8506  0.6218  0.2483
 3743SOL    HW222692   2.543   3.746   7.886 -0.3998  1.3642  1.5382
 3744SOL     OW22693   0.501   2.660   6.666  0.5336 -0.2754 -0.4947
 3744SOL    HW122694   0.442   2.719   6.712  0.4672 -0.1080 -0.7901
 3744SOL    HW222695   0.487   2.582   6.719 -2.0648 -0.9927 -2.1913
 3745SOL     OW22696   0.987   3.940  16.200 -0.7209 -0.4429  0.1554
 3745SOL    HW122697   1.027   4.026  16.212  2.1468 -1.6888 -0.5580
 3745SOL    HW222698   0.942   3.942  16.285  1.4822  0.0136  1.3213
 3746SOL     OW22699   0.750   3.150   6.812 -0.1744 -0.0593  0.7014
 3746SOL    HW122700   0.762   3.067   6.767 -0.1588 -0.0404  0.6707
 3746SOL    HW222701   0.736   3.137   6.906  0.2914  0.6071  0.8634
 3747SOL     OW22702   0.666   0.004   6.852 -0.0980  0.3785 -0.2772
 3747SOL    HW122703   0.663   0.096   6.879  0.1156 -0.0393  1.1569
 3747SOL    HW222704   0.684   4.682   6.936  1.2199  1.4137 -0.0077
 3748SOL     OW22705   4.550   2.063   3.509  0.2421  0.1087 -0.2549
 3748SOL    HW122706   4.459   2.078   3.534 -0.2967 -2.5830 -0.6195
 3748SOL    HW222707   4.574   2.144   3.464 -0.4167  0.6155  0.3147
 3749SOL     OW22708   4.515   1.215   3.188 -0.3309 -0.2208 -0.1960
 3749SOL    HW122709   4.561   1.275   3.129  1.8378 -2.8242 -1.1355
 3749SOL    HW222710   4.512   1.130   3.145 -1.2291 -2.0051  3.3479
 3750SOL     OW22711   1.144   3.131   5.220 -0.4142  0.0851  0.8396
 3750SOL    HW122712   1.112   3.206   5.170  0.7533 -0.3780 -0.6051
 3750SOL    HW222713   1.170   3.067   5.154 -2.7970 -0.7172  0.6698
 3751SOL     OW22714   3.207   1.701   6.520 -0.6816  0.4044 -0.7215
 3751SOL    HW122715   3.241   1.759   6.588  0.9044  0.3207 -1.4475
 3751SOL    HW222716   3.173   1.621   6.559 -2.1345  0.6688 -1.4363
 3752SOL     OW22717   4.164   2.324   8.128  0.1693  0.4957  0.0264
 3752SOL    HW122718   4.255   2.326   8.100 -0.3414  1.2076 -1.5980
 3752SOL    HW222719   4.181   2.379   8.204  1.3116  3.3864 -2.3107
 3753SOL     OW22720   0.853   2.096  17.545  0.4285 -0.1986 -0.3390
 3753SOL    HW122721   0.936   2.120  17.586 -1.7966  2.7508  2.3927
 3753SOL    HW222722   0.846   2.142  17.461  0.4955  2.4663  1.1043
 3754SOL     OW22723   3.435   4.424   0.000 -0.3555  0.6480  0.1506
 3754SOL    HW122724   3.451   4.330   0.006 -0.6196  0.5749 -0.3792
 3754SOL    HW222725   3.492   4.456   0.071 -1.1406  0.0157  1.0697
 3755SOL     OW22726   2.230   4.399  14.296  0.3123 -0.4031 -0.0182
 3755SOL    HW122727   2.316   4.406  14.253 -1.3342  0.0051 -3.2231
 3755SOL    HW222728   2.174   4.419  14.221 -0.6608 -1.5170  0.4140
 3756SOL     OW22729   4.115   1.602   2.408 -0.2655 -0.6366 -0.3642
 3756SOL    HW122730   4.060   1.587   2.331 -0.4540  0.9551 -0.5330
 3756SOL    HW222731   4.047   1.634   2.467 -0.0899 -1.3063  0.2078
 3757SOL     OW22732   2.656   4.037   0.131  0.2146  0.3944 -0.1260
 3757SOL    HW122733   2.681   4.004   0.218 -4.2964 -0.0436  1.0499
 3757SOL    HW222734   2.602   3.965   0.098  0.0662  0.6946 -0.5243
 3758SOL     OW22735   1.452   4.092  12.248 -0.5702 -0.3848  0.0424
 3758SOL    HW122736   1.469   4.017  12.305  0.6492  0.8176  1.2910
 3758SOL    HW222737   1.404   4.054  12.175  0.1255  1.7480 -1.5181
 3759SOL     OW22738   2.185   2.836   5.718 -0.2417  0.5767  0.0764
 3759SOL    HW122739   2.172   2.744   5.745  1.8890  0.0847 -0.5983
 3759SOL    HW222740   2.231   2.882   5.788 -0.4058  1.4568 -0.4038
 3760SOL     OW22741   4.565   1.861   8.328  0.0263  0.3072  0.0857
 3760SOL    HW122742   4.573   1.850   8.423  1.2212  2.0946  0.1871
 3760SOL    HW222743   4.644   1.910   8.307  0.6736 -0.9275 -0.3383
 3761SOL     OW22744   1.407   0.681   8.255  0.1868  0.0021 -0.6015
 3761SOL    HW122745   1.378   0.732   8.180 -3.4493 -1.5199 -0.2408
 3761SOL    HW222746   1.353   0.602   8.248 -0.6703  0.2849  2.4454
 3762SOL     OW22747   0.504   0.701   5.024 -0.0324  0.1068  0.0304
 3762SOL    HW122748   0.455   0.622   5.048 -0.4567  0.0169 -1.0867
 3762SOL    HW222749   0.538   0.678   4.937  2.2013  2.5645  0.2674
 3763SOL     OW22750   3.399   3.284   7.955  0.4454  1.1045  0.4005
 3763SOL    HW122751   3.494   3.285   7.951  0.4814  0.7853  1.0507
 3763SOL    HW222752   3.387   3.375   7.930  1.2193  0.7797 -1.0975
 3764SOL     OW22753   4.369   1.815   2.480  0.3127 -0.0760  0.2012
 3764SOL    HW122754   4.389   1.730   2.518  1.3118  0.7518  1.5029
 3764SOL    HW222755   4.404   1.808   2.391  1.2795 -1.5211  0.6976
 3765SOL     OW22756   1.059   0.920  10.558  0.2998  0.5032 -0.4021
 3765SOL    HW122757   1.076   0.852  10.493 -0.6564 -0.6441  0.5228
 3765SOL    HW222758   1.092   0.995  10.508 -1.9122  1.5396 -0.2974
 3766SOL     OW22759   2.932   0.897  13.344  0.2115  0.1339 -0.6423
 3766SOL    HW122760   2.851   0.903  13.292  0.9072 -0.0060 -1.7346
 3766SOL    HW222761   2.994   0.951  13.295 -0.5520  0.2964 -1.4426
 3767SOL     OW22762   2.620   0.330   3.335  0.3171 -0.0003 -0.0093
 3767SOL    HW122763   2.627   0.404   3.395 -1.9412  0.5387 -0.4110
 3767SOL    HW222764   2.535   0.354   3.297  0.4629 -0.3636 -0.5604
 3768SOL     OW22765   2.054   0.988  15.186  0.2327 -0.1313 -0.2971
 3768SOL    HW122766   2.016   0.971  15.100  1.7113  1.5177 -1.2880
 3768SOL    HW222767   2.050   1.083  15.174 -1.3660 -0.2005 -0.2337
 3769SOL     OW22768   3.553   3.817   9.408  0.0998  0.1642 -0.2312
 3769SOL    HW122769   3.644   3.817   9.435 -0.8242  1.0164  2.9055
 3769SOL    HW222770   3.512   3.754   9.468 -0.5342  1.1222  0.3347
 3770SOL     OW22771   1.163   1.798   7.488  0.1710 -0.4380  0.2268
 3770SOL    HW122772   1.172   1.829   7.398 -1.9236  2.0915  0.8758
 3770SOL    HW222773   1.069   1.782   7.488  0.2492 -0.9661  2.0039
 3771SOL     OW22774   0.383   3.841   5.629 -0.3697  0.5405  0.3991
 3771SOL    HW122775   0.406   3.896   5.554 -1.6014 -1.6897 -1.6434
 3771SOL    HW222776   0.429   3.880   5.703  0.3587  0.5989 -0.0912
 3772SOL     OW22777   0.252   2.942  16.061 -0.1045  0.0729 -0.1463
 3772SOL    HW122778   0.327   2.949  16.120 -1.3397 -0.6737  1.5473
 3772SOL    HW222779   0.231   2.854  16.095 -1.1621  0.1562 -0.5846
 3773SOL     OW22780   1.946   4.473  15.960 -0.1699 -0.8323 -0.0038
 3773SOL    HW122781   1.975   4.551  15.913  1.1593 -0.8119  0.8547
 3773SOL    HW222782   1.913   4.414  15.892 -2.2844 -0.7404  0.9491
 3774SOL     OW22783   0.659   3.268   0.328 -0.4746 -0.1053 -0.5272
 3774SOL    HW122784   0.705   3.186   0.314 -1.8962 -0.7379 -1.4685
 3774SOL    HW222785   0.571   3.249   0.296 -1.0656  1.3522  0.2286
 3775SOL     OW22786   2.847   1.913   2.880 -0.2997  0.0634 -0.1137
 3775SOL    HW122787   2.921   1.859   2.908 -0.2240  2.8840  5.0793
 3775SOL    HW222788   2.888   1.977   2.822  2.6233 -3.8470 -2.4129
 3776SOL     OW22789   2.558   0.866   4.555  0.4776  0.0094  1.0878
 3776SOL    HW122790   2.557   0.909   4.641 -0.1348  0.2071  0.9814
 3776SOL    HW222791   2.650   0.876   4.532  0.6582 -1.8962  0.9948
 3777SOL     OW22792   3.721   2.149   2.664  0.0311  0.0719 -0.2837
 3777SOL    HW122793   3.773   2.137   2.585 -1.6390 -0.8374 -1.2573
 3777SOL    HW222794   3.716   2.244   2.661  1.4926  0.1714  0.3851
 3778SOL     OW22795   3.179   0.872   8.382  0.2384 -0.1590  0.1525
 3778SOL    HW122796   3.251   0.924   8.347  0.5940 -0.3210  0.6409
 3778SOL    HW222797   3.217   0.855   8.468 -0.0375  0.4529  0.3943
 3779SOL     OW22798   3.309   0.309   4.084 -0.2018 -0.1703 -0.0424
 3779SOL    HW122799   3.305   0.361   4.003 -1.3234  2.2353  1.5798
 3779SOL    HW222800   3.363   0.365   4.140  1.0239 -0.1434 -1.2499
 3780SOL     OW22801   4.075   0.501   7.216 -0.1641 -0.1239  0.4619
 3780SOL    HW122802   4.073   0.563   7.289 -2.5441 -2.1103  2.0482
 3780SOL    HW222803   4.120   0.559   7.153  0.0132  0.8958  1.5166
 3781SOL     OW22804   0.983   2.205   6.086  0.3828 -0.0636  0.0377
 3781SOL    HW122805   0.931   2.185   6.007 -2.0338  1.6370  1.1861
 3781SOL    HW222806   1.046   2.272   6.062 -0.1032  0.8576  1.3725
 3782SOL     OW22807   3.992   1.263   1.965  0.3668 -0.0839  0.4275
 3782SOL    HW122808   3.976   1.170   1.947  0.2112  0.2699 -1.3111
 3782SOL    HW222809   3.954   1.309   1.890 -0.1524 -0.7203  0.3070
 3783SOL     OW22810   1.831   3.833  16.849  0.7521 -0.0320 -0.7397
 3783SOL    HW122811   1.905   3.838  16.788  1.6819 -0.1375  0.3804
 3783SOL    HW222812   1.775   3.901  16.811  0.1524  0.0467  0.2730
 3784SOL     OW22813   1.912   2.463   6.963 -0.3790 -0.0110  0.4884
 3784SOL    HW122814   1.966   2.436   7.037  3.2712  1.9019 -1.4520
 3784SOL    HW222815   1.905   2.378   6.919 -3.2151  0.3251  0.2952
 3785SOL     OW22816   2.236   4.229  12.295  0.6207 -0.1826 -0.2780
 3785SOL    HW122817   2.145   4.255  12.309  0.7508  0.5473 -0.8135
 3785SOL    HW222818   2.248   4.274  12.211  4.3634 -1.1015 -0.2310
 3786SOL     OW22819   1.405   1.985   3.996 -0.2875  0.1743 -0.8561
 3786SOL    HW122820   1.488   1.939   3.986 -0.6373 -0.9707  1.4521
 3786SOL    HW222821   1.365   1.929   4.063 -0.1303  1.1836  0.0881
 3787SOL     OW22822   3.682   0.469   8.352 -0.0175  0.2920  0.1970
 3787SOL    HW122823   3.690   0.515   8.436  0.8016  0.8538 -0.2000
 3787SOL    HW222824   3.657   0.381   8.380  1.0485  0.2047  0.8880
 3788SOL     OW22825   4.496   0.501   2.888 -0.1592 -0.5881  0.9333
 3788SOL    HW122826   4.514   0.521   2.980 -0.6880 -0.6248  1.0445
 3788SOL    HW222827   4.580   0.466   2.859 -0.8525 -1.4502 -0.0146
 3789SOL     OW22828   3.208   4.701   8.091  0.6264 -0.4084 -0.1075
 3789SOL    HW122829   3.281   4.721   8.033  1.1331 -0.0113  0.6714
 3789SOL    HW222830   3.146   4.678   8.021  0.3549  0.1439 -0.0509
 3790SOL     OW22831   4.371   1.646  16.117 -0.1726  0.0902  0.2463
 3790SOL    HW122832   4.408   1.571  16.071 -0.8568 -0.1567  0.0941
 3790SOL    HW222833   4.445   1.669  16.172  0.6325  1.5410 -1.4762
 3791SOL     OW22834   3.999   1.315   0.841  0.3280  0.8783 -0.1506
 3791SOL    HW122835   4.016   1.337   0.932 -0.2682  1.2013 -0.1138
 3791SOL    HW222836   3.992   1.401   0.798 -0.4462  1.2471  0.7016
 3792SOL     OW22837   2.623   2.131   0.095 -0.1400 -0.0055 -0.1050
 3792SOL    HW122838   2.663   2.198   0.151  0.8587 -1.7322  1.2478
 3792SOL    HW222839   2.694   2.079   0.056 -0.6803 -1.1028  0.3869
 3793SOL     OW22840   0.370   1.255   0.681 -0.7152  0.5999 -0.4320
 3793SOL    HW122841   0.299   1.315   0.657 -2.6280 -1.4053  0.2725
 3793SOL    HW222842   0.331   1.169   0.698 -0.9841  0.5561 -1.2814
 3794SOL     OW22843   4.092   2.133   7.523 -0.3141 -0.5610  0.0295
 3794SOL    HW122844   4.033   2.077   7.473  0.9060  0.1102 -2.1154
 3794SOL    HW222845   4.036   2.202   7.559 -0.4411 -0.1723 -0.9244
 3795SOL     OW22846   3.490   4.469  17.420  0.0460 -0.1999  0.3534
 3795SOL    HW122847   3.585   4.477  17.424  0.0762 -0.7659  0.7130
 3795SOL    HW222848   3.462   4.470  17.511  2.4158  0.0710  1.0548
 3796SOL     OW22849   2.466   3.528   5.791  0.0528  0.5078 -0.8562
 3796SOL    HW122850   2.492   3.444   5.829  0.0889  0.4358 -1.0386
 3796SOL    HW222851   2.523   3.592   5.834  0.1434  0.8655 -1.5109
 3797SOL     OW22852   2.464   1.135   9.125 -0.6113 -0.3357 -0.5241
 3797SOL    HW122853   2.546   1.147   9.172 -1.7903 -0.7521  1.6308
 3797SOL    HW222854   2.408   1.195   9.175  0.8167 -0.2099  0.9133
 3798SOL     OW22855   1.136   3.765  16.785  0.1492  0.2915 -0.4627
 3798SOL    HW122856   1.055   3.735  16.743  0.0271 -0.1585  0.1018
 3798SOL    HW222857   1.116   3.859  16.782 -1.5236 -0.0372  0.0698
 3799SOL     OW22858   1.548   0.477   3.719 -0.3734  0.1388  0.1995
 3799SOL    HW122859   1.527   0.384   3.728  0.4505 -0.5008 -4.4063
 3799SOL    HW222860   1.632   0.480   3.765  0.0966 -3.6249 -0.4368
 3800SOL     OW22861   1.183   1.309   2.303  0.2185 -0.2658 -0.0117
 3800SOL    HW122862   1.258   1.362   2.330  1.9392 -1.3405 -2.6231
 3800SOL    HW222863   1.168   1.347   2.216  0.3937 -1.2155 -0.4570
 3801SOL     OW22864   3.726   3.368   2.671 -0.0626 -0.5837 -0.4009
 3801SOL    HW122865   3.744   3.391   2.762 -2.0490  0.9034 -0.3992
 3801SOL    HW222866   3.816   3.346   2.646  0.4368  1.1710 -0.1814
 3802SOL     OW22867   4.594   1.245  10.759 -0.2514  0.2037  0.4901
 3802SOL    HW122868   4.511   1.203  10.737 -1.0459  2.3780 -0.6728
 3802SOL    HW222869   4.651   1.178  10.722  0.0060  0.9079 -0.4002
 3803SOL     OW22870   1.985   1.072   3.358 -0.3076  0.0563  0.1839
 3803SOL    HW122871   1.959   0.991   3.315 -0.4400  0.4632 -0.5043
 3803SOL    HW222872   1.929   1.136   3.314  0.9665  2.0067  1.3845
 3804SOL     OW22873   2.082   1.101   3.612  0.5573  0.4010  0.3194
 3804SOL    HW122874   2.053   1.072   3.526  1.2198  0.2375  0.1503
 3804SOL    HW222875   2.104   1.014   3.646 -0.8068 -0.0920 -0.0550
 3805SOL     OW22876   4.694   0.618   6.888 -0.1120  0.0515 -0.4210
 3805SOL    HW122877   0.034   0.691   6.896 -0.1388  0.2914 -2.5721
 3805SOL    HW222878   0.027   0.540   6.879 -0.7251 -0.3124 -1.0021
 3806SOL     OW22879   0.464   2.905  11.468  0.9865  0.2462  0.1432
 3806SOL    HW122880   0.389   2.868  11.421  2.4000 -0.5669 -1.4955
 3806SOL    HW222881   0.504   2.823  11.496  0.8837  0.7001  1.5927
 3807SOL     OW22882   3.400   1.086   3.952 -0.0290  0.0750 -0.0994
 3807SOL    HW122883   3.495   1.102   3.947  0.4683 -2.7650  0.3462
 3807SOL    HW222884   3.361   1.170   3.927 -1.9513 -0.7812  0.0377
 3808SOL     OW22885   4.308   0.444   5.379 -0.0357  0.5931 -0.2113
 3808SOL    HW122886   4.313   0.351   5.401  1.5927  1.1046  1.5623
 3808SOL    HW222887   4.322   0.427   5.286 -0.9682  2.4151 -0.6655
 3809SOL     OW22888   2.389   1.977  11.964 -0.4163 -0.8459  0.3278
 3809SOL    HW122889   2.463   1.925  11.995  1.7257  1.3121 -1.1722
 3809SOL    HW222890   2.412   1.990  11.872  0.2179 -0.8223  0.4899
 3810SOL     OW22891   3.601   1.783   6.257 -0.0552  0.4010  0.6790
 3810SOL    HW122892   3.506   1.780   6.249 -0.0958 -0.2282  1.3608
 3810SOL    HW222893   3.630   1.698   6.224  1.5280  0.3171  2.2588
 3811SOL     OW22894   2.628   3.455   3.213 -0.5099  0.0017 -0.0544
 3811SOL    HW122895   2.683   3.420   3.143 -0.4685 -2.0898  1.0203
 3811SOL    HW222896   2.622   3.387   3.280  2.3127  0.5457  0.7837
 3812SOL     OW22897   0.844   0.069  16.017  0.1083  0.0215  0.1669
 3812SOL    HW122898   0.850   0.001  15.949  1.0404  0.5827 -0.3021
 3812SOL    HW222899   0.752   0.052  16.037  0.7212 -0.5700  2.4990
 3813SOL     OW22900   0.067   2.538   2.356  0.1935 -0.2794  0.2499
 3813SOL    HW122901   0.060   2.594   2.434  0.6804  0.9671 -0.6127
 3813SOL    HW222902   0.149   2.564   2.315 -0.7209  1.7835 -0.2697
 3814SOL     OW22903   0.333   4.336   4.666  0.2707  0.1370  0.3545
 3814SOL    HW122904   0.333   4.258   4.722 -1.1133 -0.1262 -0.0213
 3814SOL    HW222905   0.335   4.415   4.721 -0.1475 -0.7615  1.6621
 3815SOL     OW22906   1.823   0.952  10.322  0.3076  0.0515  0.4199
 3815SOL    HW122907   1.866   0.931  10.406  2.8035  2.2670 -0.3194
 3815SOL    HW222908   1.853   0.886  10.259 -1.0218 -2.2562  2.1755
 3816SOL     OW22909   4.271   3.015   5.674 -0.0712  0.3291 -0.2239
 3816SOL    HW122910   4.193   2.995   5.623  0.6528  1.6184 -1.8648
 3816SOL    HW222911   4.294   3.104   5.646  1.3984  0.2293  0.6424
 3817SOL     OW22912   0.313   4.221  12.418  0.7048 -0.0657  0.1707
 3817SOL    HW122913   0.406   4.207  12.399  0.8274  0.5364  0.3043
 3817SOL    HW222914   0.296   4.138  12.462 -0.3927  0.6890  1.1807
 3818SOL     OW22915   3.855   0.808   9.793 -0.4499  0.1706 -0.3547
 3818SOL    HW122916   3.895   0.732   9.750  0.2548 -0.1742  0.8774
 3818SOL    HW222917   3.928   0.858   9.829  1.1730 -0.5537 -2.7113
 3819SOL     OW22918   1.577   2.186   8.410 -0.2266 -0.5198 -0.0757
 3819SOL    HW122919   1.621   2.253   8.358 -0.7994  0.0533  0.1794
 3819SOL    HW222920   1.587   2.217   8.500  0.3563  1.1090 -0.7033
 3820SOL     OW22921   0.641   3.919  15.831 -0.1801 -0.2848 -0.2626
 3820SOL    HW122922   0.735   3.932  15.838  0.0014 -0.9789 -1.4870
 3820SOL    HW222923   0.635   3.834  15.787 -1.2270 -1.1214  1.4875
 3821SOL     OW22924   1.040   2.879   6.854  0.3299 -0.1074  0.1772
 3821SOL    HW122925   0.972   2.812   6.846  1.1114 -0.9059  0.2723
 3821SOL    HW222926   1.012   2.925   6.933  2.0417 -1.3365  1.5031
 3822SOL     OW22927   4.633   3.682   6.166 -0.3514 -0.3252  0.4908
 3822SOL    HW122928   4.616   3.722   6.080 -1.6276 -2.2959 -0.1599
 3822SOL    HW222929   4.609   3.757   6.221 -0.8544  0.5429 -0.9089
 3823SOL     OW22930   0.820   4.644   3.397 -0.4081 -0.8461 -0.3180
 3823SOL    HW122931   0.856   4.640   3.308  1.8907  0.6853  0.5655
 3823SOL    HW222932   0.875   4.712   3.437 -0.3956 -0.6832 -0.6087
 3824SOL     OW22933   3.021   0.985   7.433  0.7871 -0.2725 -0.0859
 3824SOL    HW122934   2.942   1.031   7.462  0.4183  1.0487 -3.1381
 3824SOL    HW222935   3.076   1.055   7.400  0.7694 -0.9729 -1.6133
 3825SOL     OW22936   4.530   2.711  16.803 -0.2692  0.8769  0.0375
 3825SOL    HW122937   4.513   2.622  16.832  0.4121  0.0194 -2.1497
 3825SOL    HW222938   4.570   2.756  16.877  0.9579  0.9426 -0.6627
 3826SOL     OW22939   2.119   0.278   3.087  0.5588 -0.0948  0.3759
 3826SOL    HW122940   2.037   0.257   3.043 -0.5836  0.6107  2.1760
 3826SOL    HW222941   2.160   0.322   3.012 -1.6599  0.0801 -0.7335
 3827SOL     OW22942   1.007   0.209   3.811 -0.0875 -0.4627 -0.0059
 3827SOL    HW122943   1.055   0.272   3.864  1.7665  0.4045 -2.7354
 3827SOL    HW222944   0.950   0.179   3.882  1.3558 -1.6424  0.6435
 3828SOL     OW22945   1.977   2.409   6.022 -0.1345 -0.1903 -0.1794
 3828SOL    HW122946   2.048   2.461   5.985 -0.2634  1.0453  1.3300
 3828SOL    HW222947   1.909   2.475   6.010  0.7077  0.4625 -1.4037
 3829SOL     OW22948   0.141   0.981   3.690  0.5191 -0.0754 -0.4472
 3829SOL    HW122949   0.151   0.885   3.686  2.0529  0.1396 -1.6399
 3829SOL    HW222950   0.077   0.985   3.762  0.3628 -0.9984 -0.5231
 3830SOL     OW22951   3.365   2.657  12.794  0.1652 -0.3636 -0.2852
 3830SOL    HW122952   3.389   2.683  12.705  2.0418 -0.7654  0.1044
 3830SOL    HW222953   3.447   2.624  12.830 -0.3059  0.1874  1.3078
 3831SOL     OW22954   3.946   3.798   0.082 -0.1479 -0.0214 -0.1200
 3831SOL    HW122955   4.016   3.788   0.147  2.1619  0.3177 -2.5729
 3831SOL    HW222956   3.896   3.864   0.130 -0.8580 -0.0548 -0.8220
 3832SOL     OW22957   0.303   3.184  15.562  0.0439 -0.7871 -0.1441
 3832SOL    HW122958   0.348   3.127  15.624 -2.0908 -1.9122  0.3465
 3832SOL    HW222959   0.295   3.259  15.621  0.2454 -1.8805  1.2649
 3833SOL     OW22960   1.766   4.131   3.970  0.0348 -0.4903  0.5726
 3833SOL    HW122961   1.801   4.183   3.898  0.3794  1.4530  2.1130
 3833SOL    HW222962   1.833   4.136   4.038  0.2797  0.0803  0.2871
 3834SOL     OW22963   1.724   3.829   1.986 -0.2387 -0.1901  0.0520
 3834SOL    HW122964   1.740   3.884   2.062  0.7966  0.4021 -0.5900
 3834SOL    HW222965   1.784   3.872   1.924  1.0757 -0.7264  0.9389
 3835SOL     OW22966   3.030   3.935   8.093  0.2989  0.2002 -0.4732
 3835SOL    HW122967   3.010   3.842   8.076  3.6005 -1.2688  3.7176
 3835SOL    HW222968   3.061   3.964   8.008 -2.5381  2.3001 -0.8131
 3836SOL     OW22969   2.009   2.319   2.613 -0.5595 -0.2180 -0.3234
 3836SOL    HW122970   2.100   2.350   2.616 -1.1543  1.3401  1.7830
 3836SOL    HW222971   2.016   2.277   2.699  2.5671  1.6764  0.3861
 3837SOL     OW22972   4.126   0.656   1.644 -0.2664 -0.5327  0.0568
 3837SOL    HW122973   4.161   0.619   1.725  2.8267 -1.0002 -1.5195
 3837SOL    HW222974   4.210   0.670   1.600 -0.5321  0.5407 -0.1243
 3838SOL     OW22975   0.549   3.453   3.842  0.5476  0.0870 -0.0336
 3838SOL    HW122976   0.550   3.500   3.759 -1.3195  1.6347  0.8130
 3838SOL    HW222977   0.620   3.390   3.831 -0.6098 -1.5002  1.4977
 3839SOL     OW22978   4.504   2.842   2.439 -0.9763  0.1095 -0.0682
 3839SOL    HW122979   4.422   2.800   2.413 -0.6035 -1.0660  0.6608
 3839SOL    HW222980   4.546   2.855   2.355 -0.4869 -0.7400  0.0466
 3840SOL     OW22981   1.144   0.827   5.361 -0.1491  0.6990  0.4041
 3840SOL    HW122982   1.125   0.905   5.310  0.9179 -0.5395 -1.8838
 3840SOL    HW222983   1.239   0.820   5.346 -0.1332  2.3081 -0.2031
 3841SOL     OW22984   3.927   0.109   4.081 -0.1011 -0.3704 -0.1743
 3841SOL    HW122985   3.898   0.117   3.990 -2.6860  0.1465  0.6894
 3841SOL    HW222986   4.005   0.165   4.085 -0.4542 -0.1651  3.8693
 3842SOL     OW22987   3.901   2.165  12.311  0.0238  0.0366 -0.3358
 3842SOL    HW122988   3.852   2.117  12.243 -1.2357 -0.7594  1.1385
 3842SOL    HW222989   3.928   2.248  12.271  2.2155  0.3119  1.7366
 3843SOL     OW22990   3.146   3.744   2.339  0.7521  0.0005  0.2521
 3843SOL    HW122991   3.231   3.717   2.304 -0.3543  1.3094 -3.4435
 3843SOL    HW222992   3.097   3.663   2.352 -0.6380  0.6829 -0.7227
 3844SOL     OW22993   0.191   1.639   9.813 -0.3981 -0.3027 -0.4627
 3844SOL    HW122994   0.156   1.728   9.822  1.5070  0.5457 -1.5378
 3844SOL    HW222995   0.204   1.593   9.895 -1.6673 -1.1927 -0.7607
 3845SOL     OW22996   1.254   0.261  17.612  0.1199 -0.5311  0.9976
 3845SOL    HW122997   1.195   0.327  17.649  2.2563  1.4201  0.8821
 3845SOL    HW222998   1.259   0.276  17.517 -1.3002 -2.6793  0.5872
 3846SOL     OW22999   3.068   1.908  13.963  0.7684 -0.9300 -0.4876
 3846SOL    HW123000   3.139   1.886  13.903  0.0583  0.1696 -1.7163
 3846SOL    HW223001   3.080   1.856  14.042  1.5408 -0.1008 -0.0499
 3847SOL     OW23002   3.132   1.074   8.723  0.1751  0.4187  0.3182
 3847SOL    HW123003   3.106   1.065   8.814 -1.9204  3.0751 -0.0469
 3847SOL    HW223004   3.227   1.074   8.737  0.0717  0.6218  0.9966
 3848SOL     OW23005   2.076   2.828  12.618  0.2567  0.6618 -0.0337
 3848SOL    HW123006   2.094   2.789  12.704 -1.5073 -1.3068 -0.5611
 3848SOL    HW223007   1.990   2.788  12.605  0.7849 -0.6316  0.5166
 3849SOL     OW23008   2.061   1.749   8.261 -0.3625  0.1289  0.7052
 3849SOL    HW123009   2.058   1.657   8.289  1.2601 -0.4406 -1.0293
 3849SOL    HW223010   2.147   1.757   8.219 -0.2634 -0.5212  0.7762
 3850SOL     OW23011   1.538   3.395   5.883  0.3735 -0.5433  0.0262
 3850SOL    HW123012   1.552   3.354   5.798  0.5392  1.8032 -1.0768
 3850SOL    HW223013   1.468   3.459   5.874 -0.7726 -1.9170 -0.6769
 3851SOL     OW23014   0.104   2.482   4.692 -0.3150  0.0131 -0.0378
 3851SOL    HW123015   0.148   2.454   4.612  0.1816 -0.6193  0.4565
 3851SOL    HW223016   0.182   2.482   4.748  0.4700 -1.4101 -1.1404
 3852SOL     OW23017   3.072   1.537   6.738 -0.4844 -0.0892 -0.7360
 3852SOL    HW123018   2.989   1.517   6.695 -1.5239 -0.9786  1.7071
 3852SOL    HW223019   3.046   1.619   6.780  0.5288  0.2367 -0.7377
 3853SOL     OW23020   2.516   1.111   2.215 -0.2462 -0.3496 -0.2391
 3853SOL    HW123021   2.451   1.174   2.185 -0.0865  0.2861  0.7815
 3853SOL    HW223022   2.593   1.168   2.220  1.6284 -3.0926  2.4608
 3854SOL     OW23023   1.002   4.067   9.268  0.0636 -0.0224 -0.3344
 3854SOL    HW123024   0.976   3.976   9.269 -1.4203  0.4096 -0.3809
 3854SOL    HW223025   1.016   4.090   9.360  0.7555 -0.6408 -0.2851
 3855SOL     OW23026   3.697   4.253   7.959 -0.2448 -0.5657 -0.2503
 3855SOL    HW123027   3.623   4.251   8.020  0.5163 -0.8990  0.6532
 3855SOL    HW223028   3.647   4.235   7.879  0.2732  1.3315 -1.0063
 3856SOL     OW23029   0.978   0.632  10.479 -0.4531 -0.2443 -0.2557
 3856SOL    HW123030   1.044   0.579  10.433  0.0994  1.6714 -1.6948
 3856SOL    HW223031   0.899   0.595  10.439 -0.0408 -0.2128 -1.0955
 3857SOL     OW23032   2.194   1.019   0.409  0.1692 -0.3301  0.1179
 3857SOL    HW123033   2.191   0.947   0.346 -1.8551 -0.7091  0.6430
 3857SOL    HW223034   2.270   0.983   0.455 -1.1673  0.1024  2.6568
 3858SOL     OW23035   1.369   0.019   3.522 -0.2323  0.0785  0.1233
 3858SOL    HW123036   1.395   4.653   3.494 -0.1188 -0.6625  2.6066
 3858SOL    HW223037   1.323   4.717   3.602  0.3812 -0.6948  0.2367
 3859SOL     OW23038   0.958   0.573   0.319 -0.1112  0.8439 -0.4675
 3859SOL    HW123039   1.052   0.589   0.307 -0.1716  1.7192  0.1752
 3859SOL    HW223040   0.919   0.647   0.273  0.4407  1.8661  0.6896
 3860SOL     OW23041   0.462   2.590   2.947  0.2691 -0.1435 -0.3954
 3860SOL    HW123042   0.552   2.572   2.919  0.9651  3.7019 -0.6291
 3860SOL    HW223043   0.409   2.529   2.896  1.0587 -0.8095 -0.4345
 3861SOL     OW23044   1.016   1.205   6.533  0.6901  0.1140  0.1875
 3861SOL    HW123045   0.962   1.281   6.509  1.5758  0.1691 -1.6971
 3861SOL    HW223046   1.005   1.155   6.452  0.3146 -1.1892  1.0407
 3862SOL     OW23047   4.379   3.573  12.368 -0.2472 -0.1533 -0.1224
 3862SOL    HW123048   4.453   3.586  12.308 -0.4778 -1.7912 -0.7427
 3862SOL    HW223049   4.428   3.539  12.443 -1.5559  1.6941  1.5718
 3863SOL     OW23050   3.812   3.354  14.626 -0.1557 -0.4996  0.8312
 3863SOL    HW123051   3.818   3.338  14.532 -0.9857  1.3079  0.4788
 3863SOL    HW223052   3.742   3.419  14.624 -1.3064 -1.7836 -0.7165
 3864SOL     OW23053   2.814   1.249   9.077 -0.2565  0.5413 -0.1094
 3864SOL    HW123054   2.792   1.218   9.166 -1.6962  0.2592 -0.5566
 3864SOL    HW223055   2.901   1.283   9.095 -1.2494  1.9331  2.1566
 3865SOL     OW23056   0.530   2.397   4.129 -0.3625  0.2687 -0.1022
 3865SOL    HW123057   0.558   2.319   4.176  0.9805 -0.5899 -2.3290
 3865SOL    HW223058   0.616   2.435   4.110 -1.1401  1.2951 -1.5776
 3866SOL     OW23059   3.080   4.310  11.227  0.2078  0.0269 -0.0957
 3866SOL    HW123060   3.140   4.334  11.298  0.1168  2.6618 -0.9302
 3866SOL    HW223061   3.003   4.362  11.249  0.2992  0.0187  0.2456
 3867SOL     OW23062   3.927   1.266   4.150  0.1316  0.0662 -0.0942
 3867SOL    HW123063   3.947   1.187   4.100 -0.9246 -0.3548  0.1524
 3867SOL    HW223064   4.011   1.263   4.195  1.1553  0.2447 -1.9878
 3868SOL     OW23065   1.707   0.097   5.610 -0.4627  0.2506 -0.2532
 3868SOL    HW123066   1.614   0.104   5.586 -1.1059 -2.3923  1.4728
 3868SOL    HW223067   1.698   0.083   5.704  0.1058  1.1078 -0.0776
 3869SOL     OW23068   0.028   2.491   7.846  0.2013  0.5765  0.5074
 3869SOL    HW123069   4.686   2.422   7.828  1.6074 -0.0038 -2.2811
 3869SOL    HW223070   4.686   2.562   7.852  0.3441  0.8486 -1.0950
 3870SOL     OW23071   4.040   3.028  14.106 -0.1209  0.2880  0.4535
 3870SOL    HW123072   4.115   3.011  14.163  1.5070  3.0291 -0.8460
 3870SOL    HW223073   4.028   3.120  14.132  1.0793  0.7401 -0.5365
 3871SOL     OW23074   4.088   2.504   0.540 -0.2654  0.2948  0.0750
 3871SOL    HW123075   4.033   2.432   0.572  0.1424  0.5807  1.4491
 3871SOL    HW223076   4.029   2.577   0.557 -1.8670 -1.0460  0.3141
 3872SOL     OW23077   1.977   3.818   2.338  0.3443 -0.3026 -0.1476
 3872SOL    HW123078   2.070   3.840   2.342  0.2708  0.2061 -1.3114
 3872SOL    HW223079   1.993   3.724   2.337  0.4938 -0.2681 -1.2525
 3873SOL     OW23080   3.711   0.146   4.634 -0.1780  0.4962  0.3945
 3873SOL    HW123081   3.747   0.217   4.687 -1.2289  2.0839 -1.0093
 3873SOL    HW223082   3.661   0.192   4.565  0.4824  1.2436  0.4152
 3874SOL     OW23083   1.633   0.770   5.876  0.0929 -0.2164  0.9171
 3874SOL    HW123084   1.687   0.715   5.819  0.8933  1.2848  0.2284
 3874SOL    HW223085   1.634   0.848   5.820  0.4476 -0.4052  0.6613
 3875SOL     OW23086   2.426   4.505   7.791  0.5519  0.3340 -0.2275
 3875SOL    HW123087   2.419   4.570   7.860  0.6594 -0.8557  0.9078
 3875SOL    HW223088   2.336   4.493   7.763  0.6725  0.1256 -0.5333
 3876SOL     OW23089   1.338   3.561   4.821  0.0367  0.4040  0.4530
 3876SOL    HW123090   1.255   3.514   4.816 -0.7808  1.9617 -0.5912
 3876SOL    HW223091   1.400   3.491   4.842  0.6965  0.6931 -0.5611
 3877SOL     OW23092   3.094   3.284   5.888  0.0949  0.1008  0.0328
 3877SOL    HW123093   3.007   3.267   5.852  0.5105  0.0520 -0.9533
 3877SOL    HW223094   3.143   3.329   5.818 -0.0269 -1.5919 -1.1625
 3878SOL     OW23095   2.529   3.981   5.906 -0.2102  0.3580 -0.0382
 3878SOL    HW123096   2.608   3.928   5.913 -0.6829 -0.1391  1.7355
 3878SOL    HW223097   2.562   4.059   5.861  0.5037 -0.1337 -0.3510
 3879SOL     OW23098   3.866   2.595   2.648 -0.0923  0.7288 -0.1644
 3879SOL    HW123099   3.828   2.639   2.572 -1.3019  0.3109  0.1919
 3879SOL    HW223100   3.909   2.520   2.607  0.9630  1.0123  0.4197
 3880SOL     OW23101   3.512   2.717   3.644  0.7878  0.1614 -0.1571
 3880SOL    HW123102   3.464   2.672   3.575  0.7571 -0.0517  0.0023
 3880SOL    HW223103   3.481   2.807   3.641 -1.7772 -0.6890  1.1922
 3881SOL     OW23104   1.911   1.159   8.088  0.0545 -0.2585 -0.1022
 3881SOL    HW123105   1.882   1.072   8.060  0.7166 -0.7832  0.8419
 3881SOL    HW223106   1.837   1.217   8.071 -1.1511 -0.8714  3.0210
 3882SOL     OW23107   4.480   1.921  16.852 -0.0145 -0.2755 -0.3409
 3882SOL    HW123108   4.539   1.979  16.804 -0.3267 -0.2157 -0.6567
 3882SOL    HW223109   4.467   1.970  16.933 -2.9096  0.8986 -1.4716
 3883SOL     OW23110   4.184   4.176  16.921 -0.4495  0.4506 -0.2346
 3883SOL    HW123111   4.143   4.210  17.001 -2.9091 -1.0038 -0.8744
 3883SOL    HW223112   4.255   4.239  16.908 -0.9199  0.8657 -0.7907
 3884SOL     OW23113   1.222   4.576  13.263 -0.2237  0.3398 -0.2839
 3884SOL    HW123114   1.316   4.578  13.277 -0.3955 -2.0942  1.2651
 3884SOL    HW223115   1.203   4.669  13.252 -2.4589 -0.2122 -1.0761
 3885SOL     OW23116   4.116   3.120  13.841  0.4067  0.0763 -0.1787
 3885SOL    HW123117   4.118   3.101  13.934  2.1313  1.0896 -0.0096
 3885SOL    HW223118   4.029   3.159  13.827 -0.0179 -1.0776 -0.7297
 3886SOL     OW23119   1.200   3.949   7.569  0.0409  0.0482  0.1488
 3886SOL    HW123120   1.261   3.933   7.641  0.7085 -1.4933 -0.7657
 3886SOL    HW223121   1.204   4.044   7.557 -2.3295  0.1915  0.4636
 3887SOL     OW23122   2.016   1.733   1.612 -0.1119  0.4849  0.0521
 3887SOL    HW123123   1.973   1.778   1.539  1.0417 -1.1688 -1.6567
 3887SOL    HW223124   2.051   1.805   1.664 -3.0783  0.6854  1.7575
 3888SOL     OW23125   3.293   2.274   6.494  0.5634  0.2921 -0.2609
 3888SOL    HW123126   3.340   2.347   6.534 -0.3277  0.8293 -0.1731
 3888SOL    HW223127   3.241   2.265   6.574  2.0856  1.7343  0.8873
 3889SOL     OW23128   2.124   2.455  11.287 -0.0574 -0.1235  0.2872
 3889SOL    HW123129   2.173   2.536  11.298 -0.1063 -0.1697  0.8409
 3889SOL    HW223130   2.124   2.456  11.191 -1.3219  1.7417  0.3051
 3890SOL     OW23131   3.653   0.281   7.995  0.2130  0.0817 -0.5237
 3890SOL    HW123132   3.578   0.330   7.963 -0.9876 -0.7278  1.1113
 3890SOL    HW223133   3.701   0.349   8.042  1.4560 -1.3318  0.2569
 3891SOL     OW23134   2.144   0.274   9.415  0.2386  0.6855  0.2271
 3891SOL    HW123135   2.136   0.324   9.496 -1.3479  2.0987 -0.8061
 3891SOL    HW223136   2.212   0.324   9.369 -1.6308  1.2141 -1.9682
 3892SOL     OW23137   3.966   0.069  11.708 -0.0794  0.3883  0.1473
 3892SOL    HW123138   3.981   0.148  11.760 -2.3004  0.3316  0.8489
 3892SOL    HW223139   4.047   0.053  11.658  0.0713 -1.5629  1.0014
 3893SOL     OW23140   3.591   3.942   6.899 -0.1009  0.1859 -0.2633
 3893SOL    HW123141   3.608   3.855   6.936 -2.3294 -0.4491 -0.7038
 3893SOL    HW223142   3.626   4.000   6.966  1.5561  1.1250 -1.9410
 3894SOL     OW23143   3.672   3.039   6.194  0.5087 -0.1223 -0.0074
 3894SOL    HW123144   3.690   2.995   6.111  0.0411 -2.5059  1.1615
 3894SOL    HW223145   3.744   3.102   6.201 -0.0532  0.7015 -1.7057
 3895SOL     OW23146   3.579   0.056  15.134 -0.3381 -0.2832  0.1255
 3895SOL    HW123147   3.497   0.062  15.085 -1.2884 -1.5538  1.5505
 3895SOL    HW223148   3.543   4.712  15.193 -3.1304  2.3315  1.3631
 3896SOL     OW23149   1.215   2.282  10.674 -0.0790  0.2233  0.0329
 3896SOL    HW123150   1.240   2.224  10.746  1.1173 -1.5528 -1.8130
 3896SOL    HW223151   1.131   2.251  10.640  0.2541 -1.6528  0.9359
 3897SOL     OW23152   1.284   3.559   2.345  0.8189 -0.4974 -0.2862
 3897SOL    HW123153   1.239   3.552   2.260  2.5977 -0.7161 -1.1982
 3897SOL    HW223154   1.378   3.546   2.339  0.6598 -1.9086  0.2345
 3898SOL     OW23155   4.659   0.230   3.948 -0.1155  0.3717 -0.0759
 3898SOL    HW123156   4.638   0.165   4.016  1.2484 -1.5885 -1.5255
 3898SOL    HW223157   0.012   0.270   3.990 -0.6642  1.4960 -0.1777
 3899SOL     OW23158   1.165   0.838   3.663  0.4231 -0.1177 -0.6764
 3899SOL    HW123159   1.132   0.899   3.729 -2.0953 -2.8394  0.5790
 3899SOL    HW223160   1.259   0.829   3.682  0.7733  0.9669 -1.9083
 3900SOL     OW23161   3.242   3.837   8.970 -0.2413 -0.0705 -0.0822
 3900SOL    HW123162   3.306   3.907   8.984 -1.4159  0.9472  0.2568
 3900SOL    HW223163   3.263   3.777   9.042 -2.0510 -1.0476 -0.3662
 3901SOL     OW23164   0.553   2.153   7.640  0.1427  0.0645 -0.3238
 3901SOL    HW123165   0.617   2.083   7.649  0.8343  0.8282  0.7598
 3901SOL    HW223166   0.472   2.110   7.613  0.0411  1.7021 -2.6192
 3902SOL     OW23167   4.705   0.632  10.053  0.1131 -0.4640 -0.5513
 3902SOL    HW123168   0.019   0.707  10.006 -1.8179  0.0234 -1.2360
 3902SOL    HW223169   4.667   0.584   9.979 -1.1851  1.7694 -1.3218
 3903SOL     OW23170   4.680   2.510   8.967  0.0405  0.0203 -0.0277
 3903SOL    HW123171   0.045   2.548   8.958 -1.1695  3.3219  2.3470
 3903SOL    HW223172   4.690   2.442   8.901  1.4400 -0.3262  0.5514
 3904SOL     OW23173   1.319   1.921   0.050 -0.3449 -0.4181  0.2163
 3904SOL    HW123174   1.299   1.879   0.134 -0.1728 -0.8646  0.0364
 3904SOL    HW223175   1.382   1.863   0.008 -0.1497 -0.6939  0.8837
 3905SOL     OW23176   0.252   3.054   7.420 -0.0038  0.1442 -0.4970
 3905SOL    HW123177   0.175   3.089   7.464  0.1248 -0.5745  0.3098
 3905SOL    HW223178   0.231   2.961   7.432 -1.5953  0.7489  1.3473
 3906SOL     OW23179   0.758   0.947  10.643 -0.0657  0.5492 -0.0231
 3906SOL    HW123180   0.667   0.973  10.632 -0.2235 -0.8139 -2.0112
 3906SOL    HW223181   0.786   0.894  10.568  0.3876 -1.0081  1.2426
 3907SOL     OW23182   2.856   1.420   6.595  0.3485 -0.9679 -0.0138
 3907SOL    HW123183   2.870   1.397   6.503 -0.0937 -1.0187 -0.0701
 3907SOL    HW223184   2.819   1.341   6.634  1.0065 -0.0865  2.3890
 3908SOL     OW23185   4.023   1.643   3.715 -0.2809  0.4092 -0.4197
 3908SOL    HW123186   3.989   1.589   3.643  0.5989  2.5179 -2.4330
 3908SOL    HW223187   4.031   1.573   3.780  1.0401  0.0550 -0.9630
 3909SOL     OW23188   4.580   4.380   3.885  0.4418  0.1537 -0.0535
 3909SOL    HW123189   4.607   4.420   3.968 -0.4397  0.4978  0.0750
 3909SOL    HW223190   4.496   4.357   3.926  0.7605 -1.2872 -0.2145
 3910SOL     OW23191   2.479   3.548  15.306  0.5627  0.6219  0.2561
 3910SOL    HW123192   2.524   3.618  15.352 -0.8482  1.6791  0.0192
 3910SOL    HW223193   2.516   3.562  15.218  0.0874  1.6170  0.2175
 3911SOL     OW23194   4.023   1.912   9.457  0.6859  0.4816 -0.0589
 3911SOL    HW123195   3.997   1.827   9.421  1.5602  0.3008 -0.2580
 3911SOL    HW223196   3.939   1.917   9.503 -0.2527 -1.0704 -1.5960
 3912SOL     OW23197   1.378   0.863  12.045 -0.0845  0.4615 -0.1071
 3912SOL    HW123198   1.424   0.910  11.975 -0.5951  0.7328 -0.2578
 3912SOL    HW223199   1.310   0.927  12.065 -1.3037 -0.7126 -0.4951
 3913SOL     OW23200   3.713   3.494  12.044 -0.4981 -0.4323 -0.1928
 3913SOL    HW123201   3.704   3.587  12.026  1.7087 -0.2929 -0.6850
 3913SOL    HW223202   3.745   3.492  12.134 -0.8341  1.7914 -0.0327
 3914SOL     OW23203   2.227   2.287   3.929  0.4718  0.4006 -0.3120
 3914SOL    HW123204   2.312   2.316   3.962 -0.8133  1.5896  1.9481
 3914SOL    HW223205   2.178   2.318   4.005 -0.3064  2.7820 -1.8139
 3915SOL     OW23206   1.495   4.457   4.888  0.3968  0.1973 -0.3656
 3915SOL    HW123207   1.585   4.429   4.875  0.8170  0.9857  0.7642
 3915SOL    HW223208   1.514   4.522   4.956  0.0092 -2.6293  2.4599
 3916SOL     OW23209   4.628   3.845   1.216 -0.3251 -0.8313  0.7514
 3916SOL    HW123210   4.555   3.812   1.267  0.2405 -1.6740  1.0015
 3916SOL    HW223211   4.598   3.855   1.125 -1.4027 -1.8666  1.0053
 3917SOL     OW23212   0.159   3.665   2.922 -0.3507 -0.1880  0.3598
 3917SOL    HW123213   0.216   3.690   2.849 -2.7020  0.9223 -1.0819
 3917SOL    HW223214   0.088   3.617   2.879  0.7089  0.5336 -2.2006
 3918SOL     OW23215   4.009   3.090   0.649 -0.1104  0.2050 -0.3421
 3918SOL    HW123216   4.039   3.091   0.558 -0.1334  0.3848 -0.3481
 3918SOL    HW223217   4.023   2.999   0.673  0.6530  0.8906  1.8018
 3919SOL     OW23218   0.101   1.669  11.060 -0.8625  0.5173  0.7949
 3919SOL    HW123219   0.165   1.738  11.081 -0.2829  0.2630 -0.1255
 3919SOL    HW223220   0.139   1.653  10.974  0.0608  1.6510  0.9923
 3920SOL     OW23221   3.335   3.501  15.989  0.1756 -0.0509 -0.9226
 3920SOL    HW123222   3.366   3.415  16.016 -0.5983  0.5131  1.8281
 3920SOL    HW223223   3.361   3.557  16.063  0.1216 -0.9698 -0.2092
 3921SOL     OW23224   0.709   2.690   7.941 -0.5242  0.1242 -0.1287
 3921SOL    HW123225   0.777   2.640   7.896 -1.6976 -0.2279 -1.5143
 3921SOL    HW223226   0.760   2.732   8.010  0.7732 -2.7166  0.6390
 3922SOL     OW23227   0.471   3.276  12.877 -0.2222 -0.2575 -0.5596
 3922SOL    HW123228   0.405   3.302  12.811  1.3438  2.1126 -1.1947
 3922SOL    HW223229   0.417   3.267  12.955  1.7619  0.8372  0.9298
 3923SOL     OW23230   2.989   4.181  16.545  0.1301  0.3421 -0.3748
 3923SOL    HW123231   3.081   4.201  16.562 -0.0360 -0.0101  0.9139
 3923SOL    HW223232   2.966   4.232  16.467  0.9295  3.5251  1.4830
 3924SOL     OW23233   3.683   3.100   3.652  0.0611  0.0967  0.4296
 3924SOL    HW123234   3.603   3.116   3.701  0.3623 -0.7229  1.1874
 3924SOL    HW223235   3.717   3.189   3.652  1.4251 -0.4196 -0.6677
 3925SOL     OW23236   0.737   2.188   8.779  0.0505  0.1507 -0.2211
 3925SOL    HW123237   0.643   2.192   8.795 -0.0847  0.7489 -1.2239
 3925SOL    HW223238   0.766   2.257   8.839 -0.1246  0.9603 -1.0671
 3926SOL     OW23239   1.214   3.350  11.843  0.7583  0.1495 -0.4532
 3926SOL    HW123240   1.287   3.356  11.781  0.8860  0.1416 -0.3025
 3926SOL    HW223241   1.229   3.266  11.884  1.5220  1.2919  1.5941
 3927SOL     OW23242   4.656   1.607   5.735  0.2759  0.6148 -0.2573
 3927SOL    HW123243   4.565   1.636   5.737  0.3936  1.0884 -1.4574
 3927SOL    HW223244   4.652   1.528   5.788 -0.4469  0.0758 -1.1102
 3928SOL     OW23245   0.255   4.586   4.414  0.3827  0.0118  0.3799
 3928SOL    HW123246   0.324   4.524   4.392 -1.3380 -1.6547 -0.4067
 3928SOL    HW223247   0.233   4.607   4.323 -2.5146 -1.3919  0.7560
 3929SOL     OW23248   0.264   0.113  15.524  0.3783 -0.3274 -0.2883
 3929SOL    HW123249   0.242   0.022  15.546 -0.9049 -0.3067 -1.5029
 3929SOL    HW223250   0.252   0.115  15.429  1.2427 -1.1774 -0.4126
 3930SOL     OW23251   3.278   4.383   7.619 -0.2688  0.7421  0.4374
 3930SOL    HW123252   3.217   4.413   7.552 -0.6750 -2.0330 -0.3908
 3930SOL    HW223253   3.351   4.445   7.612 -0.0651  0.2442 -1.6987
 3931SOL     OW23254   1.688   2.907   6.376  0.8046 -0.1609 -0.2375
 3931SOL    HW123255   1.713   2.890   6.466  2.6623 -0.0601 -0.7427
 3931SOL    HW223256   1.701   3.000   6.395  1.1576 -0.4297  0.8518
 3932SOL     OW23257   4.164   0.605   2.752 -0.9357  0.1266  0.4478
 3932SOL    HW123258   4.101   0.607   2.824 -2.2457  0.4303 -0.7147
 3932SOL    HW223259   4.151   0.511   2.750 -0.6638  0.1015  0.0472
 3933SOL     OW23260   4.677   2.420  15.717  0.3860 -0.4542 -0.1558
 3933SOL    HW123261   0.028   2.482  15.714 -0.5206  0.6501  1.6179
 3933SOL    HW223262   4.710   2.363  15.647  0.7917 -1.5180  0.9164
 3934SOL     OW23263   3.373   1.411   1.052  0.5679  0.5779  0.1573
 3934SOL    HW123264   3.315   1.370   0.989  0.4589 -0.4886  0.9509
 3934SOL    HW223265   3.371   1.349   1.125  0.3296 -0.3497 -0.6397
 3935SOL     OW23266   3.699   1.849   2.692  0.0285 -0.5345  0.5124
 3935SOL    HW123267   3.642   1.846   2.615  0.0739  3.4496  0.2996
 3935SOL    HW223268   3.732   1.939   2.691 -2.3138  0.3024 -0.5170
 3936SOL     OW23269   4.542   2.811   3.918  0.4257 -0.3907 -0.0941
 3936SOL    HW123270   4.530   2.805   3.823 -0.6476 -1.6657  0.1171
 3936SOL    HW223271   4.539   2.722   3.953  0.0428  0.1220  1.1772
 3937SOL     OW23272   2.426   1.667   2.100  0.3884 -0.9869  0.7345
 3937SOL    HW123273   2.353   1.640   2.045 -0.3011 -1.5313  1.9215
 3937SOL    HW223274   2.388   1.702   2.180  0.8105 -1.0156  0.9460
 3938SOL     OW23275   4.045   0.791   5.832  0.2523 -0.2128  0.6055
 3938SOL    HW123276   3.996   0.871   5.851 -2.3489 -2.3146  2.7923
 3938SOL    HW223277   3.979   0.755   5.773  0.9294 -0.8320  0.2218
 3939SOL     OW23278   4.321   0.793  12.895  0.3546 -0.7535 -0.6101
 3939SOL    HW123279   4.354   0.831  12.813  2.9302 -2.1804 -0.2433
 3939SOL    HW223280   4.377   0.832  12.962 -0.9567 -0.0967  0.1034
 3940SOL     OW23281   4.344   2.714   2.809 -0.5357 -0.1420  0.1876
 3940SOL    HW123282   4.302   2.753   2.885  0.8457  2.8867 -0.6355
 3940SOL    HW223283   4.420   2.771   2.807  0.4659 -1.3843  3.3717
 3941SOL     OW23284   0.804   1.864  10.752 -0.1910  0.2947  0.5027
 3941SOL    HW123285   0.763   1.886  10.835  0.2792  2.1352  0.2676
 3941SOL    HW223286   0.797   1.948  10.705  1.0448  0.4966  0.6881
 3942SOL     OW23287   4.211   3.271   4.273 -0.8644  0.2262 -0.2777
 3942SOL    HW123288   4.155   3.327   4.326 -0.6693 -0.1827  0.3582
 3942SOL    HW223289   4.232   3.320   4.194 -1.3212 -0.2081 -0.6722
 3943SOL     OW23290   3.733   2.800  13.362 -0.6152  0.2828 -0.1731
 3943SOL    HW123291   3.782   2.882  13.365 -1.3529  0.7399 -0.7119
 3943SOL    HW223292   3.789   2.759  13.429  0.2935 -0.7281 -1.5530
 3944SOL     OW23293   0.616   3.928   0.875  0.5450 -0.0386  0.4891
 3944SOL    HW123294   0.649   3.841   0.850  0.4086  0.4250 -1.3376
 3944SOL    HW223295   0.664   3.959   0.951  0.8648 -0.3860  0.4279
 3945SOL     OW23296   3.459   0.100   4.458 -0.0386  0.3864  0.4515
 3945SOL    HW123297   3.534   0.118   4.401 -0.6158  2.1271  0.2429
 3945SOL    HW223298   3.427   0.190   4.466 -0.6372  0.1594  0.5483
 3946SOL     OW23299   0.639   4.567   4.575  0.3298  0.4975  0.0977
 3946SOL    HW123300   0.654   4.575   4.481  1.9020 -1.6466  0.1618
 3946SOL    HW223301   0.646   4.472   4.586  0.6787  0.0788 -3.6166
 3947SOL     OW23302   0.377   3.833  10.578 -0.0337 -0.4430 -0.6860
 3947SOL    HW123303   0.306   3.896  10.571  0.5605  0.5846  2.5494
 3947SOL    HW223304   0.449   3.895  10.590  0.7614 -1.4085 -0.4440
 3948SOL     OW23305   3.526   1.846  11.554 -0.2825 -0.4747 -0.2037
 3948SOL    HW123306   3.500   1.766  11.510 -3.5362  0.2719  0.3446
 3948SOL    HW223307   3.500   1.828  11.645 -1.8732 -0.2800 -0.6228
 3949SOL     OW23308   4.330   0.995  10.265  0.2487  0.1816  0.4166
 3949SOL    HW123309   4.330   1.088  10.288  2.1390  0.3853 -0.4453
 3949SOL    HW223310   4.418   0.979  10.232  0.5567  1.5583  0.5596
 3950SOL     OW23311   2.865   2.761   8.472  0.1543 -0.0961 -0.6242
 3950SOL    HW123312   2.847   2.727   8.560 -2.3178  0.2171 -1.0017
 3950SOL    HW223313   2.785   2.813   8.466 -1.3038 -2.3274 -0.6322
 3951SOL     OW23314   1.624   2.705   3.519 -0.1905  0.3229  0.3290
 3951SOL    HW123315   1.608   2.714   3.425  1.0372 -1.6084 -0.0826
 3951SOL    HW223316   1.691   2.636   3.519  0.7486  1.2416 -0.3759
 3952SOL     OW23317   1.063   3.850  13.441 -0.0102 -0.3956 -0.2536
 3952SOL    HW123318   0.971   3.839  13.415 -1.0774 -1.4301  3.9198
 3952SOL    HW223319   1.056   3.842  13.537  0.0331 -0.0938 -0.2269
 3953SOL     OW23320   2.954   1.618   7.567 -0.5333 -0.0748 -0.1622
 3953SOL    HW123321   3.023   1.648   7.508 -0.0816  1.0100  0.9291
 3953SOL    HW223322   3.000   1.550   7.616  1.1550  1.0835 -0.1489
 3954SOL     OW23323   4.290   1.904  15.457 -0.7449 -0.2723 -0.1750
 3954SOL    HW123324   4.337   1.979  15.492 -0.1377 -0.1475 -1.2657
 3954SOL    HW223325   4.237   1.882  15.534  1.6483 -0.8839  1.2930
 3955SOL     OW23326   3.722   1.570   5.858  0.0043 -0.0171  0.1187
 3955SOL    HW123327   3.765   1.629   5.920  0.2503  0.4514 -0.4958
 3955SOL    HW223328   3.686   1.640   5.803 -0.9009  0.4805  1.3646
 3956SOL     OW23329   1.324   3.975   2.591  0.2057  0.0126 -0.0495
 3956SOL    HW123330   1.376   4.015   2.662 -0.2864  1.3329 -0.4275
 3956SOL    HW223331   1.295   3.891   2.626  0.8942 -0.3262 -0.3011
 3957SOL     OW23332   2.422   4.711  10.522  0.6865  0.1066  0.5088
 3957SOL    HW123333   2.355   4.647  10.544  0.4017  0.0296 -0.5820
 3957SOL    HW223334   2.410   4.712  10.427 -3.6465 -1.6466  1.0612
 3958SOL     OW23335   0.296   4.283   3.844  0.5544 -0.0787 -0.2534
 3958SOL    HW123336   0.385   4.299   3.812  0.0127  1.0723 -1.1859
 3958SOL    HW223337   0.259   4.236   3.770 -1.2464 -1.6083  1.6059
 3959SOL     OW23338   4.459   3.939   9.868 -0.1879 -0.3942  0.5282
 3959SOL    HW123339   4.437   3.990   9.790  0.4558 -0.1394  0.5145
 3959SOL    HW223340   4.554   3.950   9.862 -0.3411  0.2317 -0.6948
 3960SOL     OW23341   2.926   3.778   4.667  0.0102 -0.0551 -0.4771
 3960SOL    HW123342   2.931   3.834   4.744  1.7288  0.1805 -0.7784
 3960SOL    HW223343   3.019   3.755   4.670  0.0152  0.0017 -0.1820
 3961SOL     OW23344   4.701   3.896   5.049  0.0174  0.0452  0.5185
 3961SOL    HW123345   0.008   3.936   4.967 -0.3022  0.8121  0.7692
 3961SOL    HW223346   0.059   3.892   5.102 -1.5622 -0.9271  2.8327
 3962SOL     OW23347   0.155   2.607   2.921  0.2841  0.1714  0.5315
 3962SOL    HW123348   0.191   2.524   2.953  0.5681  0.8118  1.8820
 3962SOL    HW223349   0.062   2.588   2.933  0.2358  1.7732  2.7962
 3963SOL     OW23350   3.872   0.208   2.550  0.4067  0.1300  0.2141
 3963SOL    HW123351   3.802   0.269   2.529  0.8565  0.3416 -0.7019
 3963SOL    HW223352   3.818   0.133   2.576 -0.5207  0.4329 -0.8599
 3964SOL     OW23353   0.748   1.190  16.848  0.7976 -0.1759  0.1146
 3964SOL    HW123354   0.663   1.236  16.848 -0.3158 -2.2201 -1.1101
 3964SOL    HW223355   0.797   1.262  16.810  0.5743 -0.6264 -1.0244
 3965SOL     OW23356   3.218   0.852  11.940  0.3445 -0.0887  1.1207
 3965SOL    HW123357   3.294   0.799  11.915  0.6236  0.6138  0.4545
 3965SOL    HW223358   3.245   0.942  11.920 -5.0535  1.1526 -0.7363
 3966SOL     OW23359   4.058   1.333  15.246  0.3641 -0.6626 -0.3786
 3966SOL    HW123360   4.067   1.309  15.338 -1.8872 -0.7682 -0.1884
 3966SOL    HW223361   3.964   1.326  15.231 -0.0948  2.2615  0.9881
 3967SOL     OW23362   3.369   1.955   6.694  0.3470  0.2810  0.5640
 3967SOL    HW123363   3.418   1.955   6.612  2.9711  0.3711  2.1322
 3967SOL    HW223364   3.397   2.040   6.729 -0.9875  0.1792  1.9141
 3968SOL     OW23365   3.526   2.736   8.207  0.6032 -0.7925 -0.2540
 3968SOL    HW123366   3.488   2.652   8.231  0.0490 -0.7850 -1.0688
 3968SOL    HW223367   3.601   2.743   8.265 -0.2842  0.1956  0.7770
 3969SOL     OW23368   2.096   2.559   0.398  0.4035 -0.8673  0.0123
 3969SOL    HW123369   2.087   2.557   0.303  0.6297  0.5112 -0.0344
 3969SOL    HW223370   2.126   2.649   0.407 -0.8649 -0.6116  1.5713
 3970SOL     OW23371   2.774   0.453  13.737 -0.6589 -0.0789 -0.1939
 3970SOL    HW123372   2.723   0.480  13.660 -1.7227  0.7461  0.8025
 3970SOL    HW223373   2.811   0.373  13.699 -0.0778 -0.3546  0.9551
 3971SOL     OW23374   3.579   4.114   4.274  0.6016 -0.2126  0.1554
 3971SOL    HW123375   3.607   4.108   4.183  2.1251  3.5088  0.3655
 3971SOL    HW223376   3.567   4.208   4.284 -1.0725 -0.2054 -2.0373
 3972SOL     OW23377   2.768   0.105  15.085 -0.0101 -0.1528 -0.5763
 3972SOL    HW123378   2.682   0.104  15.127 -0.1018  0.1881 -0.7524
 3972SOL    HW223379   2.735   0.126  14.997 -0.2189 -2.1178 -0.9655
 3973SOL     OW23380   0.885   1.994   7.049 -0.0580 -0.1160  0.0612
 3973SOL    HW123381   0.793   1.980   7.071 -0.2181  0.1086 -0.4894
 3973SOL    HW223382   0.887   1.997   6.954  1.0086  0.7557  0.1052
 3974SOL     OW23383   2.726   2.297   6.961 -0.0033 -0.2517 -0.5339
 3974SOL    HW123384   2.774   2.373   6.928 -0.9678  0.5577 -0.0738
 3974SOL    HW223385   2.707   2.324   7.051  0.6929 -2.6078  0.2997
 3975SOL     OW23386   2.057   2.030  10.315  0.9395 -0.4503 -0.4014
 3975SOL    HW123387   2.019   1.963  10.371 -2.0006  1.7702  0.2561
 3975SOL    HW223388   2.130   2.059  10.370 -2.0134  1.3055  2.6114
 3976SOL     OW23389   1.465   3.712   3.294 -0.4542 -0.2163  0.1893
 3976SOL    HW123390   1.544   3.730   3.243 -0.6534  0.0047 -0.0349
 3976SOL    HW223391   1.407   3.685   3.223 -0.0735  0.1408 -0.2526
 3977SOL     OW23392   4.086   4.460   4.656 -0.4066  0.3304  0.5460
 3977SOL    HW123393   4.004   4.502   4.684 -0.1101  0.6642  0.9195
 3977SOL    HW223394   4.066   4.366   4.655 -0.9388  0.4290  1.3019
 3978SOL     OW23395   0.409   0.531   3.508 -0.0144  0.7200 -0.4251
 3978SOL    HW123396   0.347   0.592   3.547  1.3201  1.1093  1.0845
 3978SOL    HW223397   0.440   0.480   3.583 -1.3527 -1.2883 -1.2251
 3979SOL     OW23398   4.037   2.435   4.698 -0.2780  0.1987 -0.5398
 3979SOL    HW123399   4.011   2.501   4.633  0.1023  1.5320  0.6580
 3979SOL    HW223400   4.088   2.377   4.641 -1.6136 -0.0189 -1.5054
 3980SOL     OW23401   1.131   3.450   8.752  0.0410 -0.3364 -0.4458
 3980SOL    HW123402   1.185   3.371   8.742 -0.3228 -0.5181 -0.9423
 3980SOL    HW223403   1.139   3.476   8.660 -0.2352  0.5641 -0.2166
 3981SOL     OW23404   1.848   3.435  13.922  0.3442  0.0925  0.5042
 3981SOL    HW123405   1.910   3.390  13.864 -0.3804 -0.1368 -0.1034
 3981SOL    HW223406   1.835   3.367  13.987  0.1336  2.4201  2.8829
 3982SOL     OW23407   0.697   4.202  11.720 -0.6353  0.0801 -0.1139
 3982SOL    HW123408   0.627   4.253  11.761 -0.2758 -0.2735  0.9380
 3982SOL    HW223409   0.652   4.118  11.717  0.1406 -0.3983  1.7061
 3983SOL     OW23410   0.135   0.276   7.870  0.4653 -0.3413 -0.0985
 3983SOL    HW123411   0.090   0.208   7.920 -0.0624  0.0802 -0.0045
 3983SOL    HW223412   0.101   0.360   7.900  1.4185  0.3601 -0.9656
 3984SOL     OW23413   1.720   2.277   1.075 -0.2464  0.0852  0.0705
 3984SOL    HW123414   1.731   2.349   1.013 -2.6036  1.0303  0.7700
 3984SOL    HW223415   1.662   2.214   1.033  1.6192 -1.1951 -0.6073
 3985SOL     OW23416   4.070   3.970   3.853  0.0782 -0.1133  0.1079
 3985SOL    HW123417   4.025   3.888   3.834  0.7883  0.0081 -2.0583
 3985SOL    HW223418   4.130   3.943   3.922 -2.1925 -2.0012  1.3361
 3986SOL     OW23419   0.102   1.512   3.947  0.6186 -0.2788 -0.7763
 3986SOL    HW123420   0.080   1.582   3.886 -1.6126 -1.2479 -1.1045
 3986SOL    HW223421   0.026   1.522   4.004  0.9077  0.2896 -0.4975
 3987SOL     OW23422   3.039   2.746  12.745  0.5675  0.1827 -0.9491
 3987SOL    HW123423   3.035   2.650  12.736  0.4133  0.6838 -6.3277
 3987SOL    HW223424   3.079   2.752  12.831  0.6305  0.3440 -0.9909
 3988SOL     OW23425   3.740   0.738  11.248  0.1470  0.1856 -0.1203
 3988SOL    HW123426   3.667   0.768  11.193 -0.8771  0.9839  1.6632
 3988SOL    HW223427   3.752   0.649  11.215  1.9871  0.1417  0.6765
 3989SOL     OW23428   0.849   0.487   2.907  0.0557 -0.5759  0.1272
 3989SOL    HW123429   0.755   0.489   2.889  0.1520  0.0023 -0.3035
 3989SOL    HW223430   0.895   0.531   2.836 -0.6813 -0.8866 -0.5448
 3990SOL     OW23431   3.217   4.460  16.336  0.0339  0.5072  0.0975
 3990SOL    HW123432   3.229   4.524  16.407  0.5608  1.6480 -1.0091
 3990SOL    HW223433   3.189   4.385  16.389  1.2287  0.2785  0.4234
 3991SOL     OW23434   3.983   0.221  11.155 -0.0400 -0.1186 -0.0225
 3991SOL    HW123435   3.959   0.232  11.063  1.3893 -0.7544 -0.4764
 3991SOL    HW223436   4.061   0.277  11.151 -1.9763  2.5939  0.0434
 3992SOL     OW23437   1.990   4.514   2.576  0.1121  0.3621 -0.2826
 3992SOL    HW123438   2.068   4.459   2.564  1.2556  1.6976  0.9879
 3992SOL    HW223439   1.997   4.576   2.504 -0.9897  0.4798 -0.2902
 3993SOL     OW23440   3.470   3.792   8.563 -0.3470  0.0913  0.4983
 3993SOL    HW123441   3.536   3.732   8.597 -0.7825 -2.0287 -2.3671
 3993SOL    HW223442   3.386   3.760   8.596 -0.8996  2.8163  1.6986
 3994SOL     OW23443   4.425   3.450   7.038 -0.0463  0.2524  0.3850
 3994SOL    HW123444   4.407   3.379   6.977  1.0631 -0.0252  0.3734
 3994SOL    HW223445   4.342   3.443   7.086  1.0191 -2.9811  1.7961
 3995SOL     OW23446   2.258   3.755   0.793  0.2834 -0.4384 -0.0797
 3995SOL    HW123447   2.199   3.817   0.836 -1.1541  0.0088 -2.7201
 3995SOL    HW223448   2.225   3.676   0.837  3.0072 -1.5910 -0.1374
 3996SOL     OW23449   4.031   4.011  17.600  0.0504 -0.0113 -0.0892
 3996SOL    HW123450   3.980   3.943  17.644 -0.8618 -0.1219 -1.3029
 3996SOL    HW223451   4.072   4.060  17.671  1.4265 -1.6958  0.2712
 3997SOL     OW23452   1.851   0.916   7.980  0.3988 -0.4126  0.5417
 3997SOL    HW123453   1.924   0.879   7.929  0.7032  0.7515  0.1309
 3997SOL    HW223454   1.849   0.853   8.052 -2.3538  0.1149  0.9059
 3998SOL     OW23455   2.190   1.097  14.580 -0.1577  0.3517 -0.2192
 3998SOL    HW123456   2.218   1.158  14.512 -0.7005  0.1598 -0.6213
 3998SOL    HW223457   2.196   1.013  14.535  1.6592  0.6974 -0.6199
 3999SOL     OW23458   3.855   3.048   5.118 -0.6664  0.4062 -0.2525
 3999SOL    HW123459   3.831   3.002   5.038  0.4496 -0.0884 -0.3073
 3999SOL    HW223460   3.787   3.018   5.179  2.2113 -2.3949  1.5629
 4000SOL     OW23461   0.888   0.475   0.787  0.0689  0.3196  0.2646
 4000SOL    HW123462   0.835   0.398   0.807 -0.5415  1.1792  1.9793
 4000SOL    HW223463   0.899   0.459   0.694  2.9809 -0.3955  0.7261
 4001SOL     OW23464   3.286   4.166   8.807  0.0352 -0.2424 -0.0132
 4001SOL    HW123465   3.371   4.202   8.783  0.0997 -1.0404 -0.9661
 4001SOL    HW223466   3.311   4.121   8.887  0.3175  0.6413  0.3971
 4002SOL     OW23467   1.604   1.050   8.273  0.0604 -0.2984  0.0954
 4002SOL    HW123468   1.615   1.103   8.352  0.4529 -2.1446  1.2641
 4002SOL    HW223469   1.541   1.098   8.219  1.7651  0.1899 -1.4678
 4003SOL     OW23470   3.205   1.894   3.316  0.0790  0.1924  0.0695
 4003SOL    HW123471   3.266   1.839   3.365 -1.4661  0.9196  2.7869
 4003SOL    HW223472   3.234   1.856   3.233 -1.9868 -1.0312 -0.0797
 4004SOL     OW23473   2.115   1.006   6.128 -0.3414 -0.0367  0.2696
 4004SOL    HW123474   2.049   1.067   6.161 -1.6051 -0.8279 -0.7984
 4004SOL    HW223475   2.062   0.951   6.070 -0.4899 -0.0621  0.4288
 4005SOL     OW23476   0.319   2.418  15.715 -0.4064 -0.0163 -0.7298
 4005SOL    HW123477   0.331   2.386  15.626  0.2787  2.1618 -1.3972
 4005SOL    HW223478   0.245   2.475  15.696 -0.5779 -0.3891 -1.1675
 4006SOL     OW23479   3.777   4.180   3.232  0.1024  0.3915  0.6216
 4006SOL    HW123480   3.855   4.228   3.205  1.0278 -0.5657  1.5880
 4006SOL    HW223481   3.779   4.197   3.326  2.5942  0.2223  0.5817
 4007SOL     OW23482   1.715   2.545  16.541  0.4949 -0.1862 -0.0954
 4007SOL    HW123483   1.641   2.548  16.480  0.4949 -0.1999 -0.0962
 4007SOL    HW223484   1.791   2.532  16.483  1.6853  1.7190  1.0407
 4008SOL     OW23485   3.090   0.292  15.472 -0.6094 -0.0093  0.1231
 4008SOL    HW123486   3.164   0.245  15.434  1.3603  1.8843  1.6559
 4008SOL    HW223487   3.135   0.356  15.527  0.8358  0.3189 -1.4680
 4009SOL     OW23488   0.038   0.883  13.066  0.7358  0.0159 -0.1224
 4009SOL    HW123489   0.099   0.923  13.004 -1.2771 -0.5409 -2.4387
 4009SOL    HW223490   0.072   0.794  13.055 -2.7527 -1.1415 -1.4697
 4010SOL     OW23491   2.688   3.484   7.892 -0.3255 -0.3301  0.2940
 4010SOL    HW123492   2.708   3.469   7.799 -1.4668  1.1824 -0.1968
 4010SOL    HW223493   2.678   3.396   7.926  0.0859 -0.5088 -0.0454
 4011SOL     OW23494   3.169   1.953   5.211  0.5507  0.0784 -0.0084
 4011SOL    HW123495   3.128   2.031   5.173 -0.1635 -0.5090 -0.4253
 4011SOL    HW223496   3.157   1.895   5.136  1.1283  2.4686 -1.9725
 4012SOL     OW23497   0.480   2.005  12.976  0.5139 -0.0654  0.1314
 4012SOL    HW123498   0.568   2.006  12.939 -0.2781  0.6119 -1.7534
 4012SOL    HW223499   0.473   2.092  13.016  2.7433  0.3932 -0.4681
 4013SOL     OW23500   1.767   1.719   1.837 -0.7463  0.0421 -0.5538
 4013SOL    HW123501   1.850   1.732   1.792 -1.2793  2.6429 -0.7743
 4013SOL    HW223502   1.793   1.682   1.922  0.1025 -0.6082 -1.0994
 4014SOL     OW23503   2.635   1.823   4.931  0.2500  0.0652 -0.6702
 4014SOL    HW123504   2.628   1.906   4.883 -0.8114  0.5604  0.3575
 4014SOL    HW223505   2.723   1.800   4.899  0.1973 -0.2329 -0.5997
 4015SOL     OW23506   1.325   2.755  11.849 -0.1566 -0.0518  0.7849
 4015SOL    HW123507   1.348   2.822  11.914  0.7350  0.5136 -0.1112
 4015SOL    HW223508   1.267   2.811  11.798  2.7078  3.3279  1.1879
 4016SOL     OW23509   0.121   2.003   7.136 -0.3455  0.3135  0.0998
 4016SOL    HW123510   0.064   2.080   7.149  0.0073  0.4954  0.5773
 4016SOL    HW223511   0.074   1.946   7.198  2.5831  0.1113  2.1212
 4017SOL     OW23512   4.087   4.082  10.736  0.1243 -0.5584  0.5161
 4017SOL    HW123513   4.131   4.003  10.704  1.8903 -0.0391  1.6269
 4017SOL    HW223514   4.016   4.037  10.781  1.2850 -2.4340  0.4536
 4018SOL     OW23515   0.854   0.138   4.052 -0.2889 -0.8693 -0.0513
 4018SOL    HW123516   0.936   0.184   4.069 -0.1497 -1.3336  0.5530
 4018SOL    HW223517   0.791   0.203   4.080 -0.2234 -1.0389  0.4953
 4019SOL     OW23518   0.413   0.818   8.904 -0.0149 -0.5879 -0.4492
 4019SOL    HW123519   0.479   0.749   8.913  1.4316  1.3457  3.7879
 4019SOL    HW223520   0.449   0.851   8.822  1.3863 -0.9427  0.0176
 4020SOL     OW23521   1.633   0.101   7.927 -0.6369  0.0900 -0.1334
 4020SOL    HW123522   1.678   0.051   7.995  0.8226 -0.7809 -1.7452
 4020SOL    HW223523   1.602   0.175   7.979 -1.2196 -0.2072 -0.0642
 4021SOL     OW23524   0.901   2.861  11.823  0.0494 -0.3808  0.1736
 4021SOL    HW123525   0.989   2.854  11.787  0.1764  0.0955  0.3904
 4021SOL    HW223526   0.893   2.951  11.855 -1.6763 -0.7952  0.9127
 4022SOL     OW23527   1.032   4.245   9.070  0.5441 -0.1040  0.6233
 4022SOL    HW123528   1.029   4.199   9.153  1.2869 -1.3209 -0.0196
 4022SOL    HW223529   0.939   4.266   9.067  0.2881 -1.5442 -1.5941
 4023SOL     OW23530   0.319   2.818   4.082 -0.0371  0.5874  0.3342
 4023SOL    HW123531   0.225   2.839   4.081 -0.3664 -0.9156  0.1843
 4023SOL    HW223532   0.342   2.900   4.037 -0.0113  0.7381  0.6220
 4024SOL     OW23533   2.287   2.205   1.938  0.0385  0.1062 -0.1083
 4024SOL    HW123534   2.303   2.295   1.966  1.3668 -0.1494 -0.0479
 4024SOL    HW223535   2.280   2.158   2.022 -1.8100 -0.7285 -0.7299
 4025SOL     OW23536   3.901   2.113   6.045  0.6744 -0.4568  0.6550
 4025SOL    HW123537   3.890   2.185   6.107  1.6283 -0.2078  0.5421
 4025SOL    HW223538   3.815   2.071   6.049 -0.1101  0.9383 -1.1053
 4026SOL     OW23539   1.304   2.334  10.405 -0.1101 -0.0881 -0.6262
 4026SOL    HW123540   1.239   2.312  10.471  0.4327 -2.4228 -0.8942
 4026SOL    HW223541   1.340   2.410  10.451 -1.0188 -0.6058  0.9331
 4027SOL     OW23542   2.598   3.877  14.457 -0.0916 -0.4000 -0.6549
 4027SOL    HW123543   2.675   3.850  14.406 -0.7717 -2.9619 -0.3304
 4027SOL    HW223544   2.580   3.798  14.507  1.1624 -0.2509  0.0330
 4028SOL     OW23545   2.426   0.084   5.268  0.2994 -0.3266 -0.5502
 4028SOL    HW123546   2.475   0.165   5.253 -1.0349  0.5678 -0.1175
 4028SOL    HW223547   2.486   0.036   5.326 -3.2411 -1.2310  2.3943
 4029SOL     OW23548   1.450   2.804  13.017 -0.0398  0.0418 -0.0141
 4029SOL    HW123549   1.398   2.867  12.968 -0.3852  0.8683  1.4069
 4029SOL    HW223550   1.398   2.726  12.997  0.6226 -1.4371  3.8965
 4030SOL     OW23551   1.143   2.147   5.522  0.0597  0.3056  0.2661
 4030SOL    HW123552   1.238   2.154   5.512  0.1144  0.8264  1.2185
 4030SOL    HW223553   1.125   2.224   5.466 -1.8693 -0.3625 -0.0433
 4031SOL     OW23554   3.750   3.207   8.452 -0.4277 -0.1263  0.2158
 4031SOL    HW123555   3.714   3.279   8.505  0.7040  0.0450  0.7477
 4031SOL    HW223556   3.676   3.152   8.426 -0.5799 -0.1306  0.6630
 4032SOL     OW23557   3.709   1.763   2.193 -0.8533 -0.0011  0.1362
 4032SOL    HW123558   3.708   1.853   2.225 -2.3960 -0.4343  1.2862
 4032SOL    HW223559   3.804   1.756   2.189 -0.8490  1.1360 -1.6629
 4033SOL     OW23560   2.581   3.161   7.008  0.1477 -0.4033  0.4275
 4033SOL    HW123561   2.510   3.199   6.956  0.6566 -1.2520 -0.8931
 4033SOL    HW223562   2.541   3.099   7.069 -1.9412  0.2987 -0.2281
 4034SOL     OW23563   0.318   1.091   2.752 -0.1403 -0.2895  0.7187
 4034SOL    HW123564   0.406   1.058   2.769  0.0273 -0.1607  0.1109
 4034SOL    HW223565   0.322   1.137   2.668  0.3580  2.0754  2.0329
 4035SOL     OW23566   2.986   3.311   6.361  0.0002  0.2511 -0.9294
 4035SOL    HW123567   3.024   3.225   6.379 -2.5250 -0.5987  0.3617
 4035SOL    HW223568   2.974   3.309   6.266 -0.9106  1.2389 -0.8330
 4036SOL     OW23569   4.548   2.718   5.778 -0.8090  0.5239  0.0517
 4036SOL    HW123570   4.483   2.768   5.827 -0.2879 -1.1564  2.4663
 4036SOL    HW223571   4.592   2.790   5.733  2.0391 -1.1030  0.2412
 4037SOL     OW23572   2.095   3.750   3.616 -0.2729 -0.5782 -0.1328
 4037SOL    HW123573   2.072   3.701   3.536  1.7760  0.2030 -1.1950
 4037SOL    HW223574   2.087   3.685   3.686 -2.7761 -1.5631 -1.3097
 4038SOL     OW23575   1.196   2.457  14.647 -0.1081  0.7720 -0.1137
 4038SOL    HW123576   1.136   2.501  14.587 -1.8775  0.1394  1.1935
 4038SOL    HW223577   1.228   2.538  14.688  1.0486 -0.3498  1.1772
 4039SOL     OW23578   3.496   1.424   9.440  0.3767  0.0026 -0.4068
 4039SOL    HW123579   3.557   1.359   9.475  1.5575  0.8418 -0.8918
 4039SOL    HW223580   3.538   1.434   9.354 -2.3424 -0.4944 -1.7800
 4040SOL     OW23581   0.174   1.868   1.910  0.4568 -0.6191 -0.0918
 4040SOL    HW123582   0.267   1.891   1.922  0.1605  0.2817  0.4494
 4040SOL    HW223583   0.192   1.779   1.879 -0.1830 -0.2671 -1.4702
 4041SOL     OW23584   2.454   3.022   5.875 -0.0400 -0.3018  0.0844
 4041SOL    HW123585   2.383   3.027   5.939 -1.9661 -0.3795 -2.0433
 4041SOL    HW223586   2.530   3.045   5.928 -0.3759  1.1807 -0.0561
 4042SOL     OW23587   1.190   3.080  16.426  0.3795 -0.3945 -0.3334
 4042SOL    HW123588   1.276   3.068  16.467 -1.1418 -0.5083  2.8149
 4042SOL    HW223589   1.174   2.999  16.379 -2.5322 -0.6502  1.0887
 4043SOL     OW23590   2.032   3.410   5.444  0.1787  0.5258 -0.2032
 4043SOL    HW123591   2.116   3.384   5.481  1.1414  1.2187 -1.9455
 4043SOL    HW223592   1.974   3.355   5.497  2.0191 -0.9019  0.3119
 4044SOL     OW23593   4.317   3.740   7.237 -1.3105 -0.6563 -0.2713
 4044SOL    HW123594   4.300   3.816   7.293 -0.8855  0.0802 -1.1420
 4044SOL    HW223595   4.232   3.719   7.199 -0.7677 -0.1211 -1.7953
 4045SOL     OW23596   1.343   2.464   8.926 -0.5419 -0.1719 -0.0758
 4045SOL    HW123597   1.247   2.470   8.932 -0.6359 -0.8640 -0.8415
 4045SOL    HW223598   1.367   2.390   8.980 -3.6978  0.7471  2.5884
 4046SOL     OW23599   2.390   2.159   8.672  0.1087 -0.3918 -0.0113
 4046SOL    HW123600   2.433   2.073   8.678 -0.7008 -0.9181 -1.7996
 4046SOL    HW223601   2.471   2.210   8.667 -2.3977  3.6161 -0.0633
 4047SOL     OW23602   4.088   4.529   6.420 -0.1536  0.0724  0.0655
 4047SOL    HW123603   4.040   4.609   6.396 -0.7878 -0.4233 -0.3244
 4047SOL    HW223604   4.167   4.556   6.374  0.9139 -1.1724  1.1813
 4048SOL     OW23605   2.887   3.858   7.736  0.2018 -0.7235 -0.3300
 4048SOL    HW123606   2.842   3.888   7.814  0.2739  2.4711 -1.5412
 4048SOL    HW223607   2.810   3.824   7.691 -0.7236 -0.3802  0.9847
 4049SOL     OW23608   4.627   1.883   5.909  0.2961  0.3862  0.1335
 4049SOL    HW123609   4.565   1.897   5.838 -1.3060 -0.9613  1.2911
 4049SOL    HW223610   4.570   1.855   5.980  1.9071  2.2746  2.1591
 4050SOL     OW23611   0.759   4.096   6.893  0.2489  0.1306 -0.4433
 4050SOL    HW123612   0.678   4.061   6.929  1.4508 -0.8419  1.3088
 4050SOL    HW223613   0.814   4.019   6.880  0.0974 -0.0151 -0.2142
 4051SOL     OW23614   3.253   2.344   6.218 -0.0901 -0.5066 -0.1644
 4051SOL    HW123615   3.280   2.308   6.302  0.9840  3.4167  1.1768
 4051SOL    HW223616   3.226   2.424   6.262  0.9702 -0.7319  0.8847
 4052SOL     OW23617   0.690   1.425   4.544  0.0194 -0.1687 -0.3153
 4052SOL    HW123618   0.754   1.393   4.480  1.1852  0.6787  0.4323
 4052SOL    HW223619   0.613   1.436   4.489 -0.9480 -1.6660  0.7491
 4053SOL     OW23620   3.788   0.047  11.227  0.2196 -0.4255  0.3835
 4053SOL    HW123621   3.850   0.118  11.210 -1.7803  1.2542  0.0805
 4053SOL    HW223622   3.775   0.011  11.140 -3.5220 -0.1700  0.8369
 4054SOL     OW23623   2.947   3.775   3.238  0.5251 -0.2761 -0.2703
 4054SOL    HW123624   2.858   3.810   3.246 -0.2480 -2.1452 -0.8651
 4054SOL    HW223625   2.966   3.784   3.145 -1.3867 -1.3629 -0.7746
 4055SOL     OW23626   2.824   1.385   9.967 -0.0720 -0.3015  0.0894
 4055SOL    HW123627   2.755   1.319   9.979 -1.9406  1.5661 -0.3434
 4055SOL    HW223628   2.831   1.383   9.871 -2.4543 -2.1102 -0.0616
 4056SOL     OW23629   2.991   3.607   7.673  0.0195  0.2531  0.7520
 4056SOL    HW123630   3.047   3.620   7.597 -1.9023 -1.9782 -1.0427
 4056SOL    HW223631   2.947   3.690   7.692  0.8811  0.5977  1.2823
 4057SOL     OW23632   2.415   2.640   5.996  0.2823 -0.4680  0.4405
 4057SOL    HW123633   2.474   2.695   6.047  0.5282  1.2394 -1.6825
 4057SOL    HW223634   2.472   2.568   5.969  1.6549  1.0445 -0.7191
 4058SOL     OW23635   4.290   1.710   5.032  0.0865  0.1313  0.1857
 4058SOL    HW123636   4.311   1.803   5.022 -0.3767  0.0004 -2.0880
 4058SOL    HW223637   4.200   1.712   4.999 -0.0177 -1.2327  0.3884
 4059SOL     OW23638   1.476   2.921   2.188  0.3104 -0.4332  0.9968
 4059SOL    HW123639   1.544   2.988   2.196 -0.9015  0.9088  0.0738
 4059SOL    HW223640   1.528   2.844   2.208  1.5591  0.1543  0.0380
 4060SOL     OW23641   3.986   0.947   1.935  0.1950 -0.2286  0.3067
 4060SOL    HW123642   3.962   0.855   1.941  1.6957 -0.3944  3.6029
 4060SOL    HW223643   4.021   0.976   2.020 -0.2396  2.4459 -0.4066
 4061SOL     OW23644   2.920   2.277   1.569  0.3184  0.1722  0.2112
 4061SOL    HW123645   2.921   2.213   1.640 -0.5118 -0.2276 -0.1358
 4061SOL    HW223646   2.836   2.264   1.524 -0.3312  0.2505  1.4081
 4062SOL     OW23647   0.088   2.667   4.390  0.0862 -1.3084 -0.6652
 4062SOL    HW123648   0.022   2.681   4.321 -1.2448  0.4423  0.9485
 4062SOL    HW223649   0.167   2.636   4.345 -0.6282  1.8521 -4.1799
 4063SOL     OW23650   0.560   1.057   3.806  0.1542 -0.2648 -0.0613
 4063SOL    HW123651   0.500   1.053   3.881  1.4852  0.5628  1.0486
 4063SOL    HW223652   0.496   1.070   3.736 -0.4345  0.7012  0.6442
 4064SOL     OW23653   0.890   1.823   3.955 -0.2053  0.3427 -0.7024
 4064SOL    HW123654   0.964   1.798   4.010  0.7940  1.4184 -1.5695
 4064SOL    HW223655   0.918   1.808   3.865  0.2529 -1.1253 -0.3039
 4065SOL     OW23656   2.455   0.120   5.941  0.1296 -0.2405 -0.1542
 4065SOL    HW123657   2.518   0.143   5.873  0.1335 -0.0968 -0.1034
 4065SOL    HW223658   2.371   0.133   5.896  0.5605  2.0285 -0.3031
 4066SOL     OW23659   1.407   4.258  12.970 -0.0378  0.0981  0.4577
 4066SOL    HW123660   1.470   4.289  13.035  1.1631 -1.1007 -0.1246
 4066SOL    HW223661   1.349   4.206  13.025 -1.3388 -1.5675 -2.4805
 4067SOL     OW23662   0.288   3.049   8.752 -0.3694 -0.4973  0.1970
 4067SOL    HW123663   0.251   3.073   8.837  0.1705 -0.9707  0.5640
 4067SOL    HW223664   0.379   3.046   8.782 -0.8737 -1.3375  1.6336
 4068SOL     OW23665   3.424   0.533   1.286 -0.7953  0.0116  0.2597
 4068SOL    HW123666   3.406   0.586   1.208 -1.3297 -0.2090  0.2331
 4068SOL    HW223667   3.362   0.570   1.349  1.3269  1.6072  1.4269
 4069SOL     OW23668   2.092   1.234   9.651  0.5607  0.5745 -0.3856
 4069SOL    HW123669   1.998   1.250   9.638  0.4422  0.1755 -0.0166
 4069SOL    HW223670   2.110   1.309   9.708  0.8052  1.5871 -1.7742
 4070SOL     OW23671   2.535   3.853  15.535 -0.0557  0.2002  0.1096
 4070SOL    HW123672   2.468   3.919  15.516 -1.6415 -1.4309  0.0158
 4070SOL    HW223673   2.608   3.891  15.486 -0.1734  1.1311  0.6448
 4071SOL     OW23674   3.299   1.612   0.699 -0.1345 -0.2117  0.0041
 4071SOL    HW123675   3.213   1.655   0.689 -0.9123 -1.3558  1.8651
 4071SOL    HW223676   3.358   1.686   0.709 -0.9542  0.2283  1.5718
 4072SOL     OW23677   0.087   4.223   2.607  0.1767 -0.0433 -0.0245
 4072SOL    HW123678   0.097   4.182   2.693  0.9264 -1.3378 -0.7220
 4072SOL    HW223679   0.034   4.298   2.634 -0.2108 -0.8348  1.3991
 4073SOL     OW23680   2.489   3.910   1.355 -0.2214 -0.3524 -0.3809
 4073SOL    HW123681   2.564   3.948   1.400  1.1176 -3.2602 -0.1651
 4073SOL    HW223682   2.424   3.901   1.425 -0.2907 -0.0706 -0.4098
 4074SOL     OW23683   3.505   2.631   7.760  0.2112 -1.0404 -0.6096
 4074SOL    HW123684   3.553   2.669   7.686 -1.7196  0.4014 -1.1212
 4074SOL    HW223685   3.544   2.681   7.833  1.3812 -1.7636 -0.7331
 4075SOL     OW23686   4.689   3.671   6.586  0.4512  0.2886 -0.0781
 4075SOL    HW123687   4.624   3.687   6.654  0.3263 -0.0894 -0.1072
 4075SOL    HW223688   4.684   3.580   6.555 -1.4588 -0.2454  1.8228
 4076SOL     OW23689   2.183   2.809   1.307 -0.0048 -0.7405  0.4670
 4076SOL    HW123690   2.184   2.841   1.217  0.2578 -1.1243  0.3315
 4076SOL    HW223691   2.240   2.733   1.298 -0.5455 -0.9380 -1.3514
 4077SOL     OW23692   2.904   2.960   2.945 -1.0583  0.2249 -0.0757
 4077SOL    HW123693   2.922   3.038   2.892  1.0775  0.2795  0.7054
 4077SOL    HW223694   2.887   3.001   3.030  1.8475 -2.1919  1.6800
 4078SOL     OW23695   1.654   0.146   2.107  0.4615 -0.0228  0.2413
 4078SOL    HW123696   1.573   0.188   2.136  0.8145  1.3439 -0.7888
 4078SOL    HW223697   1.709   0.119   2.181 -0.7946 -0.0641  1.1551
 4079SOL     OW23698   2.850   0.035   1.735  0.2529  0.4405  0.3607
 4079SOL    HW123699   2.891   0.046   1.649 -0.7209 -0.3495 -0.2065
 4079SOL    HW223700   2.851   0.130   1.748  2.2788  0.4662 -0.0399
 4080SOL     OW23701   3.392   3.984   4.416 -0.2166  0.0179  0.4126
 4080SOL    HW123702   3.346   3.963   4.335  0.5434  2.4603 -0.6788
 4080SOL    HW223703   3.465   4.039   4.385 -0.4110  0.2050  0.2869
 4081SOL     OW23704   0.178   0.075   3.173 -0.3552 -0.2561 -0.0080
 4081SOL    HW123705   0.253   0.050   3.228 -1.8965 -0.3904  2.0441
 4081SOL    HW223706   0.224   0.092   3.091 -1.8133 -0.0187 -0.7655
 4082SOL     OW23707   3.870   3.431   6.866 -0.3395 -0.6530  0.0549
 4082SOL    HW123708   3.956   3.393   6.852  0.7833  2.3060 -1.1166
 4082SOL    HW223709   3.827   3.404   6.785  2.0832 -2.3729 -0.6477
 4083SOL     OW23710   1.959   3.520   6.140  0.3017 -0.2829 -0.3173
 4083SOL    HW123711   1.968   3.528   6.235  1.4220 -3.0434 -0.1808
 4083SOL    HW223712   1.865   3.529   6.131  0.0763  0.8800  2.9177
 4084SOL     OW23713   0.835   1.895   6.724 -0.1706 -0.4497  0.3832
 4084SOL    HW123714   0.775   1.966   6.705  0.2702 -0.8412 -2.5287
 4084SOL    HW223715   0.791   1.836   6.785 -0.2487 -0.2371  0.5312
 4085SOL     OW23716   2.985   1.199  15.179  0.3149 -0.0640 -0.5721
 4085SOL    HW123717   2.978   1.130  15.245  1.2933 -1.7530 -2.2309
 4085SOL    HW223718   2.959   1.163  15.094 -1.2392 -0.0339 -0.1055
 4086SOL     OW23719   2.129   3.186   2.498  0.1945  0.5124 -0.4026
 4086SOL    HW123720   2.210   3.137   2.481 -0.6652 -0.5961 -1.2984
 4086SOL    HW223721   2.155   3.226   2.581  1.8176 -1.1511 -0.0914
 4087SOL     OW23722   4.707   3.517   7.669  0.1396 -0.3381  0.9477
 4087SOL    HW123723   4.689   3.596   7.618  0.6254 -0.6410  0.2977
 4087SOL    HW223724   0.054   3.548   7.727  3.5347  0.0530 -3.3366
 4088SOL     OW23725   2.733   1.868  16.274 -0.3611  0.1597 -0.2834
 4088SOL    HW123726   2.663   1.888  16.337  0.2334  1.6100 -0.0780
 4088SOL    HW223727   2.749   1.944  16.219 -1.0350 -0.1472 -0.9095
 4089SOL     OW23728   3.326   4.274  12.899  0.3103 -0.2116  0.0758
 4089SOL    HW123729   3.372   4.192  12.920 -1.5915 -1.1925  0.4110
 4089SOL    HW223730   3.386   4.333  12.853  0.6734 -0.1355  0.6365
 4090SOL     OW23731   1.817   2.370  12.354 -0.7581 -0.5400 -0.1085
 4090SOL    HW123732   1.871   2.291  12.341  0.6015  0.4621 -0.5474
 4090SOL    HW223733   1.751   2.360  12.286 -0.8339 -2.1394  0.1907
 4091SOL     OW23734   4.682   1.560   4.840 -0.1000 -0.4017 -0.0975
 4091SOL    HW123735   4.678   1.644   4.886 -0.9799 -0.3805 -0.2111
 4091SOL    HW223736   0.049   1.567   4.808  0.3980 -2.3328  0.8245
 4092SOL     OW23737   3.750   2.600  16.901  0.2987 -0.0480  0.3314
 4092SOL    HW123738   3.689   2.563  16.837  1.0731 -0.1665 -0.3381
 4092SOL    HW223739   3.689   2.632  16.968  0.9727  2.5981 -0.3148
 4093SOL     OW23740   2.693   4.591  10.073 -0.5236  0.4799  0.2556
 4093SOL    HW123741   2.683   4.499  10.101  0.2164  0.8057  1.5761
 4093SOL    HW223742   2.786   4.593  10.049 -0.7959  1.6634 -0.6945
 4094SOL     OW23743   0.907   3.634  15.768  0.0523 -0.6104  0.1114
 4094SOL    HW123744   0.886   3.550  15.809  0.1859 -0.2527  0.9030
 4094SOL    HW223745   1.001   3.632  15.747 -0.4142  4.2662 -2.4773
 4095SOL     OW23746   2.131   2.832  17.097 -0.5263 -0.1573 -0.0086
 4095SOL    HW123747   2.209   2.779  17.111  0.2151  0.8020 -0.4450
 4095SOL    HW223748   2.159   2.878  17.017  0.0748 -1.2213 -0.4043
 4096SOL     OW23749   4.215   0.944   3.002 -0.0138 -0.1573 -0.6009
 4096SOL    HW123750   4.151   0.872   3.000 -0.8501  0.5593  0.4014
 4096SOL    HW223751   4.158   1.018   2.983  1.2361  0.8892 -0.2479
 4097SOL     OW23752   4.395   2.884   6.157  0.2300  0.4463 -0.6916
 4097SOL    HW123753   4.378   2.892   6.063 -1.4442 -3.1490 -0.6817
 4097SOL    HW223754   4.357   2.800   6.182  0.7483  1.1821  2.5500
 4098SOL     OW23755   1.783   2.594   6.566  0.1047 -0.0796  0.0854
 4098SOL    HW123756   1.874   2.562   6.569 -0.0336 -0.4691  0.0962
 4098SOL    HW223757   1.802   2.686   6.583 -0.6476  0.2344 -0.7793
 4099SOL     OW23758   3.483   1.900   7.969 -0.3314  0.1462 -0.0466
 4099SOL    HW123759   3.551   1.855   8.019 -0.0083  0.7611  0.0571
 4099SOL    HW223760   3.409   1.851   8.005  1.2726 -2.0812  0.2204
 4100SOL     OW23761   2.357   3.480   4.674 -0.0314 -0.3958 -0.0812
 4100SOL    HW123762   2.318   3.555   4.719 -0.4207 -0.3653 -0.4675
 4100SOL    HW223763   2.293   3.413   4.696 -1.0319  0.1506 -1.3089
 4101SOL     OW23764   1.886   2.833   3.608  0.1231 -0.2740 -0.3025
 4101SOL    HW123765   1.830   2.817   3.532  0.9440 -1.0982 -0.7330
 4101SOL    HW223766   1.970   2.801   3.576  0.1741 -2.2349  1.7612
 4102SOL     OW23767   3.081   1.296   6.181  0.2297 -0.0473  0.2840
 4102SOL    HW123768   3.007   1.312   6.239 -1.3029 -0.5048 -1.5472
 4102SOL    HW223769   3.114   1.215   6.220 -0.7273  0.4505  2.1213
 4103SOL     OW23770   0.278   2.795  11.329  0.6349 -0.5458 -0.2592
 4103SOL    HW123771   0.191   2.831  11.314  1.9766  1.1679 -3.7130
 4103SOL    HW223772   0.292   2.771  11.237  0.3747  1.6464 -0.8564
 4104SOL     OW23773   4.076   1.686   7.380 -0.0672  0.0611  0.1592
 4104SOL    HW123774   4.023   1.693   7.459  1.9367 -2.2726  1.7040
 4104SOL    HW223775   4.083   1.592   7.368  0.9264  0.2605 -0.8548
 4105SOL     OW23776   4.327   2.896   7.438  0.0938 -0.4084 -0.6833
 4105SOL    HW123777   4.363   2.961   7.378 -0.5709  0.5463 -0.0623
 4105SOL    HW223778   4.402   2.837   7.432  1.0662  0.4384  2.9290
 4106SOL     OW23779   3.324   4.066   9.541  0.2225  0.4776 -0.2157
 4106SOL    HW123780   3.389   4.025   9.598 -1.3870 -0.0790  1.2107
 4106SOL    HW223781   3.296   4.134   9.602 -2.1137 -1.4028  0.8006
 4107SOL     OW23782   3.820   2.669  10.002  0.4449 -0.4878  0.2279
 4107SOL    HW123783   3.727   2.676   9.981  1.2529 -2.0004 -3.8921
 4107SOL    HW223784   3.843   2.577  10.009  1.4552 -0.2377  0.2860
 4108SOL     OW23785   3.589   1.766   9.284  0.3441 -0.1347  0.3968
 4108SOL    HW123786   3.542   1.714   9.219  1.8225 -2.0456  0.8312
 4108SOL    HW223787   3.531   1.842   9.288 -0.3754 -0.5860 -1.3020
 4109SOL     OW23788   1.187   1.926   9.149  0.0620  0.0396 -0.1516
 4109SOL    HW123789   1.173   1.924   9.054  0.1570  2.6865 -0.2353
 4109SOL    HW223790   1.204   1.834   9.167  1.5682  0.7186  1.9741
 4110SOL     OW23791   1.009   2.886  12.912 -0.4703 -0.7961  0.3090
 4110SOL    HW123792   1.000   2.791  12.904  1.2483 -1.0425  1.4081
 4110SOL    HW223793   1.102   2.894  12.891 -0.7555  1.1887 -0.1108
 4111SOL     OW23794   4.276   2.865   3.898 -0.0830  0.6038  0.0566
 4111SOL    HW123795   4.235   2.778   3.903  1.6514 -0.1775  0.7917
 4111SOL    HW223796   4.331   2.868   3.976  2.3653  0.1309 -1.6657
 4112SOL     OW23797   0.003   0.488  14.236  0.2167 -0.0811 -0.2865
 4112SOL    HW123798   4.685   0.549  14.174  0.8560  1.3927  0.7711
 4112SOL    HW223799   4.683   0.414  14.192 -3.1305  1.0260  1.0589
 4113SOL     OW23800   2.938   4.471   5.752  0.2780 -0.5909  0.0674
 4113SOL    HW123801   2.933   4.474   5.656  1.4756 -1.1771 -0.0156
 4113SOL    HW223802   2.966   4.384   5.778 -0.4495 -0.7259  0.3871
 4114SOL     OW23803   2.843   2.912  11.946  0.0519 -0.2006  0.2221
 4114SOL    HW123804   2.777   2.976  11.920 -1.3696 -1.2000  1.2992
 4114SOL    HW223805   2.924   2.961  11.951  0.5864 -1.2430  1.9490
 4115SOL     OW23806   2.071   3.200   6.949 -0.2909 -0.3923 -0.0170
 4115SOL    HW123807   2.115   3.276   6.987  0.4683 -0.2369 -1.2316
 4115SOL    HW223808   2.071   3.152   7.032  0.2437 -1.4392 -0.6311
 4116SOL     OW23809   2.023   1.543   7.336 -0.0038  0.0602 -0.3218
 4116SOL    HW123810   2.003   1.513   7.425 -0.3950  1.0918 -0.0590
 4116SOL    HW223811   2.084   1.475   7.308  0.6273 -0.0950  1.4327
 4117SOL     OW23812   4.609   1.368   2.959  0.0448 -0.2750 -0.0691
 4117SOL    HW123813   4.662   1.293   2.934 -1.4254 -1.4997  0.5099
 4117SOL    HW223814   4.666   1.414   3.020  0.1667  0.0949 -0.4564
 4118SOL     OW23815   4.039   0.474   8.309 -0.2973  0.0349  0.4419
 4118SOL    HW123816   3.981   0.418   8.360 -2.3720  1.7673  0.0026
 4118SOL    HW223817   4.009   0.455   8.220  1.2912 -3.0737  0.5734
 4119SOL     OW23818   3.027   0.461   5.660 -0.0444  0.3259 -0.2608
 4119SOL    HW123819   3.100   0.400   5.657 -0.4995 -0.2632  0.3651
 4119SOL    HW223820   2.955   0.405   5.630  0.2806 -0.1328 -0.1843
 4120SOL     OW23821   4.235   1.359  10.923 -0.6889  0.2806  0.1693
 4120SOL    HW123822   4.217   1.282  10.977  2.2847 -0.3052  0.3290
 4120SOL    HW223823   4.330   1.358  10.919 -0.6781  1.5087  0.0693
 4121SOL     OW23824   3.569   3.485   9.143 -0.0244  0.7232  0.2082
 4121SOL    HW123825   3.592   3.400   9.179 -2.3781 -0.0621 -0.1800
 4121SOL    HW223826   3.602   3.468   9.055 -1.4292 -0.5730 -0.0549
 4122SOL     OW23827   0.651   3.691  15.707  0.1358  0.3759  0.2845
 4122SOL    HW123828   0.635   3.619  15.646 -1.4677 -0.6829  1.9596
 4122SOL    HW223829   0.743   3.675  15.727 -0.1233 -0.8161  0.4998
 4123SOL     OW23830   4.608   0.833   6.586  0.4402  0.0570  0.0133
 4123SOL    HW123831   4.652   0.765   6.535  2.1909  0.7858  0.5570
 4123SOL    HW223832   4.675   0.898   6.606 -0.1496  0.8215 -0.5117
 4124SOL     OW23833   2.816   4.613   7.192  0.1455 -0.1026 -0.0164
 4124SOL    HW123834   2.828   4.687   7.251  1.0320 -2.4620  2.7465
 4124SOL    HW223835   2.728   4.622   7.155  1.3344  1.4855 -2.4773
 4125SOL     OW23836   4.063   1.047  10.216 -0.2797  0.0436  0.1038
 4125SOL    HW123837   4.143   0.995  10.222  1.2840  2.5393  1.1770
 4125SOL    HW223838   3.999   0.982  10.187  1.6395 -1.5550 -0.4801
 4126SOL     OW23839   1.116   3.380   7.368  0.1143 -0.1128 -0.0454
 4126SOL    HW123840   1.043   3.443   7.373 -0.1915 -0.3750 -1.0591
 4126SOL    HW223841   1.101   3.346   7.280  3.7696  0.0636 -0.7248
 4127SOL     OW23842   0.943   3.504  15.377  0.5145 -0.2042 -0.2932
 4127SOL    HW123843   0.979   3.590  15.355 -0.8311  0.1261 -1.1553
 4127SOL    HW223844   1.024   3.466  15.412 -0.0286 -0.4029  0.7689
 4128SOL     OW23845   4.681   0.258   0.891  0.4481  0.3279  0.0657
 4128SOL    HW123846   4.722   0.341   0.912  0.1599  0.3703  0.4683
 4128SOL    HW223847   4.620   0.243   0.963 -0.7379  0.1274 -0.9688
 4129SOL     OW23848   2.240   0.436   3.807  0.0011 -0.6787  0.4222
 4129SOL    HW123849   2.184   0.500   3.850 -0.2124 -0.1138 -0.6790
 4129SOL    HW223850   2.318   0.491   3.816 -0.7332  0.5099 -0.4317
 4130SOL     OW23851   3.750   4.258  13.149 -0.1835  0.0370  0.0927
 4130SOL    HW123852   3.742   4.188  13.213  1.7034 -1.5591 -1.4415
 4130SOL    HW223853   3.690   4.225  13.082 -0.7846  1.8751 -0.2733
 4131SOL     OW23854   3.418   0.592   2.536  0.0409  0.0390 -0.6218
 4131SOL    HW123855   3.336   0.573   2.582  1.4868  1.0536  2.3802
 4131SOL    HW223856   3.390   0.579   2.445  0.1967 -0.6958 -0.5648
 4132SOL     OW23857   2.296   1.729   4.413 -0.1677 -0.1810 -0.6473
 4132SOL    HW123858   2.358   1.663   4.444 -1.2283 -0.6891  0.4089
 4132SOL    HW223859   2.212   1.683   4.417 -0.6515  0.8776  1.2753
 4133SOL     OW23860   4.693   0.224   4.403 -0.2154 -0.0565 -0.0009
 4133SOL    HW123861   4.682   0.311   4.440  2.4136 -0.3551  1.4811
 4133SOL    HW223862   4.675   0.180   4.486 -1.3960 -1.1855 -0.8469
 4134SOL     OW23863   3.453   2.611   3.184  0.0391  0.4053  0.6665
 4134SOL    HW123864   3.498   2.529   3.201 -0.4588 -0.0788 -0.3546
 4134SOL    HW223865   3.377   2.594   3.128 -0.5558  1.1078  1.2469
 4135SOL     OW23866   1.926   4.063   6.374  0.2339 -0.0352  0.0469
 4135SOL    HW123867   1.997   4.045   6.312 -1.1936 -2.4390 -0.8949
 4135SOL    HW223868   1.859   4.112   6.326  0.3586  0.4480  0.3622
 4136SOL     OW23869   4.291   0.807  13.587  0.1575  0.1180  0.1107
 4136SOL    HW123870   4.251   0.891  13.562  0.5740  0.6408  1.1804
 4136SOL    HW223871   4.377   0.830  13.623 -0.1255  0.1836  0.7402
 4137SOL     OW23872   4.091   2.320   3.185  0.5269  0.6024 -0.3045
 4137SOL    HW123873   4.102   2.411   3.155  1.5597 -0.4129 -2.9726
 4137SOL    HW223874   4.047   2.285   3.108 -0.9355  0.8055  0.4368
 4138SOL     OW23875   1.613   0.914   3.151 -0.5762  0.4234 -0.1778
 4138SOL    HW123876   1.702   0.900   3.183 -1.0071 -1.1956  0.3245
 4138SOL    HW223877   1.625   0.915   3.056 -0.8646 -2.4215 -0.2551
 4139SOL     OW23878   4.699   0.316   7.389  0.4770  0.1053  0.0490
 4139SOL    HW123879   4.621   0.370   7.375  1.5956  1.9198  0.7240
 4139SOL    HW223880   0.036   0.388   7.412  0.0039  0.2935  0.6921
 4140SOL     OW23881   4.294   0.491   9.018 -0.1180  0.1025 -0.4861
 4140SOL    HW123882   4.318   0.401   8.996  0.0609  0.3462 -1.2863
 4140SOL    HW223883   4.260   0.483   9.107  2.3257 -0.1532  0.4399
 4141SOL     OW23884   2.651   1.194   1.927  0.7279  0.1078  1.0087
 4141SOL    HW123885   2.653   1.121   1.988  0.7754 -0.5065  0.2740
 4141SOL    HW223886   2.596   1.149   1.862 -0.9040  2.9602  0.4054
 4142SOL     OW23887   2.009   2.875  13.090 -0.2970  0.9964  0.1399
 4142SOL    HW123888   2.031   2.863  13.182 -0.1159 -1.0703 -0.1576
 4142SOL    HW223889   2.064   2.951  13.072  2.6720 -0.8237  1.4530
 4143SOL     OW23890   3.961   4.615  14.227 -0.4204 -0.3834 -0.3052
 4143SOL    HW123891   3.898   4.602  14.157  0.4558 -0.1453 -1.1376
 4143SOL    HW223892   3.904   4.584  14.297  0.2763  1.5414  1.1079
 4144SOL     OW23893   3.196   0.587   2.330  0.2711 -0.2684  0.0734
 4144SOL    HW123894   3.138   0.653   2.367  1.3971  0.0310  1.2764
 4144SOL    HW223895   3.172   0.505   2.374 -4.3241 -1.6055 -4.8820
 4145SOL     OW23896   0.329   1.059  16.754  0.3875  0.5451  0.2152
 4145SOL    HW123897   0.322   1.147  16.791  0.8323  0.4315  0.5695
 4145SOL    HW223898   0.306   1.076  16.663 -0.1914 -2.7408 -0.2738
 4146SOL     OW23899   0.565   0.333   5.752 -0.2812  0.2416  0.6222
 4146SOL    HW123900   0.498   0.332   5.820 -1.2972  1.3742 -0.3622
 4146SOL    HW223901   0.630   0.312   5.819  0.8426 -0.0593 -0.5469
 4147SOL     OW23902   2.636   0.884   9.908 -0.5661  0.2054  0.4784
 4147SOL    HW123903   2.552   0.849   9.878 -1.5485  1.7007  1.4755
 4147SOL    HW223904   2.707   0.841   9.861  1.2349 -0.1472  3.5268
 4148SOL     OW23905   4.550   2.314   1.035  0.1692 -0.2424 -0.0007
 4148SOL    HW123906   4.558   2.300   0.940  0.4886 -1.7969  0.2565
 4148SOL    HW223907   4.557   2.227   1.073  0.7146 -1.3602 -2.6179
 4149SOL     OW23908   2.071   1.371   8.798 -0.6191  0.5622 -0.2354
 4149SOL    HW123909   2.102   1.400   8.884  2.2586 -0.7296 -0.8338
 4149SOL    HW223910   1.985   1.332   8.816 -0.0900 -2.1403 -3.7388
 4150SOL     OW23911   2.802   4.068   4.880  0.2158  0.4713 -0.3275
 4150SOL    HW123912   2.780   4.124   4.954 -2.1275 -0.8344 -0.0188
 4150SOL    HW223913   2.732   4.087   4.817  0.3421  0.6559 -0.4119
 4151SOL     OW23914   3.754   4.032   1.365 -0.3791  0.3330 -0.5589
 4151SOL    HW123915   3.658   4.021   1.364 -0.2358 -1.2259  2.7011
 4151SOL    HW223916   3.776   3.994   1.280  1.4732 -0.5794  0.3379
 4152SOL     OW23917   1.965   0.852   5.351  0.4411  0.5475 -0.0849
 4152SOL    HW123918   2.018   0.856   5.431  1.8378  1.8480 -1.0557
 4152SOL    HW223919   1.949   0.945   5.336  0.2674  0.7498  1.3456
 4153SOL     OW23920   1.079   1.711  13.805 -0.3319  0.2266 -0.5710
 4153SOL    HW123921   1.169   1.701  13.836 -0.6794 -1.1513 -0.0063
 4153SOL    HW223922   1.055   1.777  13.871 -0.4437 -2.3412  1.9577
 4154SOL     OW23923   4.121   1.307   5.372 -0.4249  0.5407 -0.6739
 4154SOL    HW123924   4.029   1.311   5.398 -0.0510  1.5105  0.4946
 4154SOL    HW223925   4.134   1.399   5.394 -0.1713  0.4298 -0.3578
 4155SOL     OW23926   0.922   0.044   7.117 -0.4441  0.1026 -0.4789
 4155SOL    HW123927   0.976   0.085   7.185  0.9867 -0.2581 -1.4001
 4155SOL    HW223928   0.928   0.118   7.057 -2.8707  1.0892  0.4826
 4156SOL     OW23929   2.423   3.275   6.820  0.1040 -0.2506 -0.2729
 4156SOL    HW123930   2.428   3.182   6.798  0.5393 -0.2728 -0.0850
 4156SOL    HW223931   2.357   3.314   6.762  0.8081 -1.3018 -1.7801
 4157SOL     OW23932   0.492   3.539  14.496 -0.1880  0.2831 -0.1052
 4157SOL    HW123933   0.466   3.623  14.534  0.1169 -0.3626  1.5133
 4157SOL    HW223934   0.451   3.551  14.410  2.2412  2.1139 -0.9971
 4158SOL     OW23935   2.005   2.306   7.176  0.1993  0.6890  0.3643
 4158SOL    HW123936   2.006   2.220   7.135  2.4812  0.0180  1.7988
 4158SOL    HW223937   1.954   2.281   7.253 -0.5580  2.4300  0.4286
 4159SOL     OW23938   0.978   0.164   8.368 -0.0542 -0.0982  0.1075
 4159SOL    HW123939   1.015   0.249   8.389  0.3572 -0.1651 -0.3232
 4159SOL    HW223940   1.040   0.119   8.309  0.4107  0.7229 -0.0306
 4160SOL     OW23941   3.422   3.981   4.702  0.4553 -0.3059 -0.4104
 4160SOL    HW123942   3.373   4.002   4.623  0.9310  1.4881 -0.2342
 4160SOL    HW223943   3.507   3.962   4.662  0.7944 -0.0000  0.1712
 4161SOL     OW23944   4.692   2.556   0.487 -0.6248  0.2671 -0.3418
 4161SOL    HW123945   0.045   2.539   0.431  0.7382 -0.3960  1.6988
 4161SOL    HW223946   4.650   2.623   0.434 -0.6183  1.7937  1.5902
 4162SOL     OW23947   2.565   0.128   2.129  0.0935  0.1311  0.0331
 4162SOL    HW123948   2.476   0.158   2.147 -0.1284 -0.6747  0.2487
 4162SOL    HW223949   2.609   0.212   2.136 -1.6469  0.9311  1.5137
 4163SOL     OW23950   3.461   4.294   8.544 -0.3449 -0.5132 -0.0785
 4163SOL    HW123951   3.366   4.285   8.533 -0.5353  1.8181 -0.3476
 4163SOL    HW223952   3.485   4.201   8.547  1.2166 -0.0926  0.6334
 4164SOL     OW23953   3.624   1.056  14.928  0.4090 -0.1495 -0.5163
 4164SOL    HW123954   3.598   0.966  14.949 -0.4644 -0.1475 -1.5466
 4164SOL    HW223955   3.631   1.086  15.018 -1.9312 -0.8623 -0.0797
 4165SOL     OW23956   1.842   1.241  17.488 -0.2885  0.4058 -0.4669
 4165SOL    HW123957   1.885   1.326  17.478 -1.9018  1.1613 -0.9730
 4165SOL    HW223958   1.872   1.204  17.405  1.3993  0.0742  0.2869
 4166SOL     OW23959   0.059   2.315   3.194 -0.3704 -0.3303 -0.5110
 4166SOL    HW123960   0.003   2.241   3.169  2.0320 -2.1240 -0.5794
 4166SOL    HW223961   0.143   2.292   3.154 -0.1367 -2.4437  1.1996
 4167SOL     OW23962   4.675   2.951   5.348  0.0277  0.0349 -0.7378
 4167SOL    HW123963   4.635   3.025   5.394 -0.0410 -1.0730  1.0085
 4167SOL    HW223964   4.671   2.995   5.263  1.0894  0.7765 -0.4082
 4168SOL     OW23965   1.510   0.129   4.832  0.4761 -0.3569  0.3398
 4168SOL    HW123966   1.519   0.076   4.911  0.0538 -0.2685  0.4408
 4168SOL    HW223967   1.578   0.090   4.776 -1.3421 -1.0261 -1.3837
 4169SOL     OW23968   3.645   2.903   2.438  0.0654 -0.0462  0.6886
 4169SOL    HW123969   3.736   2.891   2.463  0.2380  1.4813  0.7560
 4169SOL    HW223970   3.650   2.903   2.342 -0.4414 -1.9047  0.6639
 4170SOL     OW23971   3.009   3.394  12.033 -0.0065 -0.0557 -0.6111
 4170SOL    HW123972   3.079   3.352  12.083 -0.1716  0.4710  0.0676
 4170SOL    HW223973   3.056   3.439  11.963 -0.9206 -0.7810 -1.6807
 4171SOL     OW23974   0.013   3.818   0.615  0.0069 -0.4459 -0.1711
 4171SOL    HW123975   4.687   3.761   0.675  0.2786 -0.3781  0.1052
 4171SOL    HW223976   4.680   3.896   0.623  0.4136 -0.3353  1.4856
 4172SOL     OW23977   0.204   0.384   8.980 -0.4786 -0.2968  0.1566
 4172SOL    HW123978   0.275   0.425   9.030 -0.7539 -1.4998  1.5424
 4172SOL    HW223979   0.136   0.420   9.036 -0.5784  0.4645 -0.4447
 4173SOL     OW23980   1.036   4.112  11.042  0.2989  0.0700  0.1690
 4173SOL    HW123981   0.952   4.103  10.997 -0.3261 -1.1714  1.6126
 4173SOL    HW223982   1.091   4.058  10.985 -0.7128  0.1787 -0.9172
 4174SOL     OW23983   1.702   0.362   0.717 -0.1397  0.6055  0.4063
 4174SOL    HW123984   1.702   0.279   0.670  0.3634  1.2694 -0.7704
 4174SOL    HW223985   1.788   0.352   0.756 -0.0985 -2.5359 -0.4623
 4175SOL     OW23986   0.189   0.089  15.851  0.1563 -0.2064 -0.1253
 4175SOL    HW123987   0.163   0.156  15.914 -2.1324 -0.6497 -0.6076
 4175SOL    HW223988   0.115   0.083  15.791  0.0065  2.7715 -0.2200
 4176SOL     OW23989   4.637   3.739  11.699 -0.4135  0.5049  0.0029
 4176SOL    HW123990   4.572   3.797  11.660 -0.6713  0.4150  0.2984
 4176SOL    HW223991   4.575   3.671  11.725  0.6335 -0.5763 -0.3019
 4177SOL     OW23992   3.176   4.195   4.451  0.4411  0.1185  0.1515
 4177SOL    HW123993   3.201   4.113   4.410  0.3535 -0.4574  1.2512
 4177SOL    HW223994   3.189   4.247   4.372 -1.4267  1.8042  0.9441
 4178SOL     OW23995   1.446   3.680   2.023  0.1346  0.0308 -0.3465
 4178SOL    HW123996   1.480   3.598   2.058 -2.0196 -1.0149 -0.7160
 4178SOL    HW223997   1.352   3.680   2.042  0.5599 -0.9840  1.6684
 4179SOL     OW23998   1.895   3.196   3.638 -0.0665  0.3165  0.4837
 4179SOL    HW123999   1.812   3.187   3.590 -0.4536 -0.3759  1.2787
 4179SOL    HW224000   1.914   3.280   3.597  0.8187  0.1699  0.6062
 4180SOL     OW24001   2.899   2.217   5.369  0.4471 -0.1317  0.3715
 4180SOL    HW124002   2.873   2.286   5.430  0.2379  0.0230  0.1036
 4180SOL    HW224003   2.843   2.142   5.391  1.1126 -0.5969  0.5091
 4181SOL     OW24004   0.072   1.268   3.419 -0.4981  1.1295  0.1374
 4181SOL    HW124005   0.081   1.322   3.340 -1.5165 -0.0653 -0.7965
 4181SOL    HW224006   0.044   1.181   3.391  0.3286  0.5374  1.1634
 4182SOL     OW24007   0.137   3.054  11.163 -0.1351 -0.1312  0.6934
 4182SOL    HW124008   0.201   3.117  11.196  0.1793  0.3808 -0.8644
 4182SOL    HW224009   0.106   3.009  11.241 -0.6963  2.1798  1.8126
 4183SOL     OW24010   1.187   3.303  10.780  0.0922 -0.4137  0.1897
 4183SOL    HW124011   1.192   3.283  10.686  0.6223  0.1538  0.0982
 4183SOL    HW224012   1.095   3.327  10.788 -0.4241 -1.9360 -1.1564
 4184SOL     OW24013   1.372   2.263   8.198  0.1743  0.3366  0.0373
 4184SOL    HW124014   1.324   2.186   8.169 -0.9510  1.6455 -1.5532
 4184SOL    HW224015   1.423   2.228   8.271  0.3929  1.1757  0.2828
 4185SOL     OW24016   1.229   1.743   6.426 -0.0332 -0.2830 -0.4009
 4185SOL    HW124017   1.206   1.650   6.426  1.8870 -0.7602 -0.3893
 4185SOL    HW224018   1.205   1.762   6.517  0.4667  0.9165 -0.5162
 4186SOL     OW24019   1.156   1.303  15.175  0.5316 -0.4867  0.3332
 4186SOL    HW124020   1.160   1.212  15.204  0.9216 -0.6313 -0.1787
 4186SOL    HW224021   1.235   1.345  15.210 -1.2336  1.0320  2.4794
 4187SOL     OW24022   2.588   3.052   1.381 -0.3740  0.2820 -0.2274
 4187SOL    HW124023   2.650   3.039   1.453 -1.0938  0.5164  0.4309
 4187SOL    HW224024   2.567   3.145   1.382 -1.5538  0.0177 -0.1541
 4188SOL     OW24025   1.773   4.417   3.719 -0.1171 -0.2183  0.1734
 4188SOL    HW124026   1.680   4.437   3.709 -0.3480 -0.6893  1.4625
 4188SOL    HW224027   1.777   4.350   3.650  0.6400  1.5394 -1.5003
 4189SOL     OW24028   4.080   3.741  16.689  0.3419  0.1422  0.0508
 4189SOL    HW124029   4.159   3.692  16.712 -0.1841 -0.6725  0.1364
 4189SOL    HW224030   4.097   3.823  16.735  2.4770 -1.1981  1.6643
 4190SOL     OW24031   1.579   3.168  15.981 -0.2195  0.3284 -0.0219
 4190SOL    HW124032   1.500   3.127  16.015 -0.0298  1.1689  1.4448
 4190SOL    HW224033   1.552   3.259  15.994  0.3538  0.3831  0.7947
 4191SOL     OW24034   4.380   0.393   3.925  0.9176  0.0710 -0.1069
 4191SOL    HW124035   4.358   0.301   3.913 -0.7073  0.4776 -0.3466
 4191SOL    HW224036   4.422   0.388   4.011  0.6268  0.5318  0.0627
 4192SOL     OW24037   3.083   0.591   4.637  0.6829  0.0635  0.1290
 4192SOL    HW124038   3.171   0.567   4.664  1.0564  0.6128 -0.6177
 4192SOL    HW224039   3.075   0.678   4.676  1.6389  0.1075  0.2264
 4193SOL     OW24040   4.576   0.031   1.937  0.4095  0.2513 -0.1700
 4193SOL    HW124041   4.568   4.702   1.856 -0.9338  0.2848 -0.0451
 4193SOL    HW224042   4.672   0.032   1.948  0.5740 -5.4091 -1.0825
 4194SOL     OW24043   0.993   1.635   8.796 -0.2990  0.0188  0.3536
 4194SOL    HW124044   1.032   1.703   8.851  1.4535 -0.4689 -0.2674
 4194SOL    HW224045   0.900   1.656   8.791  0.2844  2.3787 -0.3784
 4195SOL     OW24046   2.109   0.525  15.223 -0.0297  0.4142 -0.0052
 4195SOL    HW124047   2.089   0.437  15.190 -1.3055  1.5402 -2.1733
 4195SOL    HW224048   2.105   0.581  15.146  1.0851  1.0336  0.3931
 4196SOL     OW24049   2.168   4.461   4.956  0.0734  0.9612  0.5001
 4196SOL    HW124050   2.152   4.535   5.014 -3.5210 -0.3385  1.1752
 4196SOL    HW224051   2.242   4.422   5.003 -0.8912 -2.2536 -0.6064
 4197SOL     OW24052   3.612   2.292   7.600 -0.8262  0.0741 -0.3034
 4197SOL    HW124053   3.546   2.360   7.616 -0.7240  0.3979 -1.2606
 4197SOL    HW224054   3.609   2.233   7.675  0.9737  0.9682  0.4523
 4198SOL     OW24055   0.708   1.692   4.141  0.1454 -0.2028  0.4353
 4198SOL    HW124056   0.721   1.597   4.134  0.7628 -0.0942  0.1760
 4198SOL    HW224057   0.743   1.720   4.056 -1.0043 -0.0630  0.0021
 4199SOL     OW24058   0.515   1.707  16.568  0.4405  0.3818  0.3397
 4199SOL    HW124059   0.496   1.800  16.579 -1.2706  0.0227  0.3375
 4199SOL    HW224060   0.537   1.706  16.475 -0.3172 -0.8696  0.1791
 4200SOL     OW24061   3.073   1.226   8.054 -0.2240  0.1690  0.0668
 4200SOL    HW124062   3.120   1.237   8.137 -0.0492  1.2795 -0.1753
 4200SOL    HW224063   2.982   1.240   8.079 -0.1851 -0.3538  0.4897
 4201SOL     OW24064   0.148   4.687  16.596 -0.3424  0.2717 -0.0743
 4201SOL    HW124065   0.218   4.687  16.661 -1.6351 -0.2253  1.3185
 4201SOL    HW224066   0.086   4.618  16.622 -1.4242  1.6436  0.9920
 4202SOL     OW24067   0.580   0.099   9.880 -0.0594 -0.0950 -0.2540
 4202SOL    HW124068   0.643   0.114   9.950 -1.1605  0.6648  0.5713
 4202SOL    HW224069   0.491   0.121   9.908 -0.0501  0.2816 -0.5213
 4203SOL     OW24070   3.314   3.705   5.567  0.7359 -0.9718 -0.0122
 4203SOL    HW124071   3.405   3.679   5.576  1.1714 -0.2069 -2.2415
 4203SOL    HW224072   3.330   3.776   5.505  0.4758 -0.9752 -0.0843
 4204SOL     OW24073   4.681   1.398  15.765 -0.1170 -0.1106 -0.4823
 4204SOL    HW124074   0.025   1.430  15.826 -0.0702 -1.8326  0.3694
 4204SOL    HW224075   0.011   1.339  15.711  2.0536  1.5663 -0.2279
 4205SOL     OW24076   2.695   2.481  13.830  0.3304 -0.0226 -0.5195
 4205SOL    HW124077   2.715   2.565  13.790 -0.6546 -0.2936 -1.5909
 4205SOL    HW224078   2.607   2.496  13.866  0.6661 -1.9194  1.1449
 4206SOL     OW24079   1.012   1.494   9.867  0.3739 -0.6905 -0.1223
 4206SOL    HW124080   1.069   1.534   9.934  0.0130  0.5310 -0.5464
 4206SOL    HW224081   0.991   1.412   9.912  0.8539 -1.7126 -1.7621
 4207SOL     OW24082   2.417   3.124  12.328 -0.5663  0.2517 -0.3138
 4207SOL    HW124083   2.442   3.092  12.242 -1.0156  0.7503 -0.6326
 4207SOL    HW224084   2.420   3.046  12.383 -0.7052  0.1554 -0.4436
 4208SOL     OW24085   0.446   1.875   5.224  0.8768 -0.3078  0.4011
 4208SOL    HW124086   0.473   1.963   5.250  0.5765  0.4779 -2.0397
 4208SOL    HW224087   0.506   1.865   5.151  1.7642  0.2580  1.0515
 4209SOL     OW24088   0.701   4.255   4.243 -0.0812  0.1673 -0.4020
 4209SOL    HW124089   0.790   4.287   4.226 -0.3288  2.8730  3.2347
 4209SOL    HW224090   0.647   4.302   4.180 -1.1632 -0.0192  0.3882
 4210SOL     OW24091   1.161   2.874   1.417  0.3085 -0.0855  0.1072
 4210SOL    HW124092   1.242   2.912   1.452 -0.3983  0.9516  0.6121
 4210SOL    HW224093   1.176   2.896   1.325  0.9911 -0.2164  0.1805
 4211SOL     OW24094   4.604   4.635  11.296  0.2683 -0.3615  0.2652
 4211SOL    HW124095   4.525   4.661  11.248 -0.0409  0.6179  1.3118
 4211SOL    HW224096   4.682   4.662  11.248  0.0600 -0.5531 -0.1847
 4212SOL     OW24097   1.343   2.053  12.719 -1.2046  0.4467 -0.0206
 4212SOL    HW124098   1.406   2.064  12.648 -1.7364  1.7138 -0.2962
 4212SOL    HW224099   1.358   1.960  12.736  1.4573  0.5658 -1.7158
 4213SOL     OW24100   3.471   0.512   1.706  0.3203  0.2463  0.3291
 4213SOL    HW124101   3.486   0.555   1.622 -0.8263 -1.0191 -0.5294
 4213SOL    HW224102   3.560   0.502   1.740 -0.7106 -0.4317  2.8162
 4214SOL     OW24103   2.004   1.203   4.848  0.0824 -0.7302 -0.1239
 4214SOL    HW124104   2.091   1.212   4.810 -0.4090 -1.0207 -1.3074
 4214SOL    HW224105   1.967   1.286   4.817  0.7931  0.2376  1.6048
 4215SOL     OW24106   0.199   0.091   8.211  0.3175 -0.2191  0.3767
 4215SOL    HW124107   0.126   0.031   8.220 -0.1070  0.6445  2.4802
 4215SOL    HW224108   0.276   0.046   8.246 -0.7796 -0.0154  3.0239
 4216SOL     OW24109   0.684   0.543   5.510 -0.0545 -0.1443  0.2172
 4216SOL    HW124110   0.766   0.582   5.481 -0.2735 -0.2095 -0.4990
 4216SOL    HW224111   0.675   0.564   5.603 -1.5337 -0.1481  0.0820
 4217SOL     OW24112   1.258   1.752   8.604 -0.2972 -0.1506 -0.3204
 4217SOL    HW124113   1.202   1.803   8.544  0.0643  1.7367  0.9513
 4217SOL    HW224114   1.326   1.728   8.541  1.2371 -0.6872  1.5469
 4218SOL     OW24115   4.130   4.714  11.498 -0.2656  0.2736 -0.1687
 4218SOL    HW124116   4.148   4.655  11.425  0.9259 -0.2926  0.5950
 4218SOL    HW224117   4.173   0.074  11.477 -0.2773 -0.5246 -3.3309
 4219SOL     OW24118   2.493   0.688  17.316 -0.2228 -0.4630  0.0566
 4219SOL    HW124119   2.552   0.712  17.387  0.1049  0.7300 -0.6091
 4219SOL    HW224120   2.525   0.598  17.307 -0.9990 -0.5697 -1.7472
 4220SOL     OW24121   3.949   1.610   2.186 -0.0513 -0.3228 -0.0978
 4220SOL    HW124122   3.893   1.537   2.212 -1.8105  0.4807 -1.5749
 4220SOL    HW224123   3.960   1.602   2.092  1.5283  0.7512 -0.0114
 4221SOL     OW24124   3.407   3.927  13.151 -0.6146  0.5554  0.4155
 4221SOL    HW124125   3.435   3.846  13.109 -1.6294  0.3535  0.1191
 4221SOL    HW224126   3.490   3.961  13.184 -1.3494  0.8732  1.9318
 4222SOL     OW24127   1.674   4.345  17.619  0.2954 -0.0174  0.5220
 4222SOL    HW124128   1.751   4.362  17.564  0.2367 -0.7149  0.2296
 4222SOL    HW224129   1.616   4.407  17.575  0.4049  0.1768  0.6505
 4223SOL     OW24130   2.226   3.259   2.742 -0.2259  0.0307 -0.5433
 4223SOL    HW124131   2.287   3.321   2.702  2.1314 -0.4892  2.2342
 4223SOL    HW224132   2.240   3.262   2.836  2.3919  0.5439 -0.9510
 4224SOL     OW24133   0.941   0.175  10.962  0.5477  0.1498  0.1462
 4224SOL    HW124134   1.031   0.188  10.990  0.7652 -2.4469  0.6900
 4224SOL    HW224135   0.915   0.265  10.944 -1.1094 -0.2689  0.3641
 4225SOL     OW24136   3.383   2.278  16.385 -0.8659  0.2921 -0.8455
 4225SOL    HW124137   3.404   2.333  16.461  0.3495  0.4306 -1.2861
 4225SOL    HW224138   3.401   2.189  16.415 -1.4693 -0.3673 -2.4607
 4226SOL     OW24139   3.669   0.537   3.253 -0.3370  0.1971  0.1956
 4226SOL    HW124140   3.622   0.463   3.215 -0.1746  0.1754  0.0404
 4226SOL    HW224141   3.759   0.506   3.261 -0.5732 -0.1253  1.6082
 4227SOL     OW24142   0.650   1.227   5.110 -0.0573 -0.5039 -0.2660
 4227SOL    HW124143   0.667   1.218   5.016 -0.2302 -1.6956 -0.1781
 4227SOL    HW224144   0.648   1.135   5.136  0.9037 -0.7898 -1.2094
 4228SOL     OW24145   0.860   1.803   7.381 -0.4275  0.1698 -0.3680
 4228SOL    HW124146   0.876   1.710   7.365  4.0389  0.5923  1.5201
 4228SOL    HW224147   0.783   1.820   7.328 -0.4271  3.4698  0.6776
 4229SOL     OW24148   0.212   0.329   6.278  0.6212 -0.3265  0.7709
 4229SOL    HW124149   0.125   0.370   6.277 -0.3737 -2.4264 -0.3991
 4229SOL    HW224150   0.189   0.238   6.295 -0.0031 -0.2707  0.2633
 4230SOL     OW24151   0.589   3.462   8.377  0.9963  0.7845 -0.1913
 4230SOL    HW124152   0.606   3.371   8.402  1.2639  1.0181  0.4570
 4230SOL    HW224153   0.614   3.504   8.458  1.3627 -2.3735  1.3377
 4231SOL     OW24154   1.443   4.564  12.505 -0.9186  0.1398  0.1232
 4231SOL    HW124155   1.428   4.489  12.448  0.4101  0.6296 -0.8833
 4231SOL    HW224156   1.532   4.552  12.537 -1.8757 -1.6863  2.0193
 4232SOL     OW24157   0.071   4.224   2.905  0.2767  0.1129  0.0488
 4232SOL    HW124158   0.046   4.285   2.974 -0.6104  1.3295 -1.3573
 4232SOL    HW224159   0.167   4.227   2.904  0.3799 -1.7718  2.7006
 4233SOL     OW24160   1.257   4.651   5.588 -0.0532  0.2197  0.1369
 4233SOL    HW124161   1.269   4.715   5.517 -1.8679 -0.6066 -0.9268
 4233SOL    HW224162   1.209   4.704   5.652 -1.9093  0.0547 -1.0884
 4234SOL     OW24163   2.915   2.615   3.561  0.4451 -0.4795 -0.3833
 4234SOL    HW124164   2.913   2.673   3.636 -1.2303 -0.6150 -0.3094
 4234SOL    HW224165   2.838   2.652   3.516  0.3630 -1.2034 -0.8516
 4235SOL     OW24166   0.815   1.797   4.596 -0.4760 -0.4811  0.1066
 4235SOL    HW124167   0.775   1.861   4.655 -1.3002 -1.9480  1.1161
 4235SOL    HW224168   0.844   1.726   4.654  2.2933  1.3061  0.9363
 4236SOL     OW24169   4.050   3.082   3.617  0.2069 -0.4151 -0.5539
 4236SOL    HW124170   4.034   3.154   3.678  2.0037 -2.4142  2.2870
 4236SOL    HW224171   3.977   3.022   3.624  0.2124 -0.6615 -2.7110
 4237SOL     OW24172   4.040   1.108   5.956  0.1863  0.2981  0.2254
 4237SOL    HW124173   4.087   1.117   5.873  0.4424  1.5605  0.5141
 4237SOL    HW224174   3.952   1.104   5.918  0.7009 -0.3961 -0.9054
 4238SOL     OW24175   4.712   3.986   6.641 -0.5963 -0.5592 -0.1845
 4238SOL    HW124176   4.619   3.969   6.631 -1.0797  2.1433 -0.1105
 4238SOL    HW224177   0.034   3.901   6.641  0.4922 -0.0172  1.8556
 4239SOL     OW24178   4.683   3.518  14.514  0.4918 -0.7084  0.2475
 4239SOL    HW124179   0.028   3.503  14.447 -1.4699 -2.4615 -1.3270
 4239SOL    HW224180   4.658   3.611  14.508 -0.1789 -0.8894  0.1904
 4240SOL     OW24181   0.129   1.238   5.659 -0.0786  0.1347 -0.1514
 4240SOL    HW124182   0.137   1.327   5.623  3.0020 -0.6165 -1.3663
 4240SOL    HW224183   0.034   1.232   5.650  0.0057 -1.0774 -0.1815
 4241SOL     OW24184   3.702   4.233   1.872 -0.0427  0.0155  0.2534
 4241SOL    HW124185   3.625   4.177   1.882  0.9534 -1.9601 -3.0838
 4241SOL    HW224186   3.749   4.197   1.797 -2.3592 -0.2320 -1.0952
 4242SOL     OW24187   1.388   2.184   5.449 -0.2091  0.2071  0.0009
 4242SOL    HW124188   1.416   2.096   5.474  2.4481  1.4813  1.4003
 4242SOL    HW224189   1.454   2.206   5.383 -0.0547 -3.2942 -1.0477
 4243SOL     OW24190   2.562   2.470   2.127  0.6038  0.0314  0.3850
 4243SOL    HW124191   2.536   2.382   2.156  2.2008 -0.2900  0.7929
 4243SOL    HW224192   2.646   2.468   2.171 -0.2707 -1.7397  1.9742
 4244SOL     OW24193   0.882   3.135   4.049  0.0357  0.2503 -0.4949
 4244SOL    HW124194   0.905   3.193   4.121 -2.0087 -0.7380  0.9560
 4244SOL    HW224195   0.941   3.060   4.045  1.8522  1.6100  1.2300
 4245SOL     OW24196   0.008   4.115   1.089 -0.4228 -0.0535 -0.3396
 4245SOL    HW124197   4.680   4.033   1.093  0.1909 -0.3735  0.9620
 4245SOL    HW224198   0.096   4.080   1.078 -0.3242  0.9196 -2.5485
 4246SOL     OW24199   2.562   2.487   8.872 -0.9178 -0.1321  0.3592
 4246SOL    HW124200   2.469   2.482   8.896 -0.5809  1.1961  1.9599
 4246SOL    HW224201   2.600   2.531   8.948 -0.6264 -1.3608  0.9290
 4247SOL     OW24202   4.300   2.831   2.232  0.4851 -0.5320 -0.7441
 4247SOL    HW124203   4.356   2.802   2.161 -1.4184 -1.1542 -2.0108
 4247SOL    HW224204   4.241   2.899   2.199 -0.4322 -2.2428 -2.6533
 4248SOL     OW24205   0.917   3.987   8.915 -0.2976 -0.5342  0.3388
 4248SOL    HW124206   0.983   4.027   8.971  0.5144 -0.5470 -0.6329
 4248SOL    HW224207   0.832   4.007   8.956  0.8129 -0.3466  2.5316
 4249SOL     OW24208   3.613   0.914   5.219 -0.5622  0.6215 -0.4660
 4249SOL    HW124209   3.681   0.978   5.201  1.7086 -1.2376  1.5545
 4249SOL    HW224210   3.663   0.833   5.211 -0.9623  0.3269  0.0139
 4250SOL     OW24211   1.098   0.021   2.176  0.5771 -0.3218 -0.5042
 4250SOL    HW124212   1.055   4.693   2.105 -0.1678 -0.7623  0.2582
 4250SOL    HW224213   1.068   0.111   2.163  1.4666  0.2862  1.7978
 4251SOL     OW24214   2.185   3.425  17.493  0.1328  0.0298 -0.1747
 4251SOL    HW124215   2.260   3.413  17.551  0.7642 -0.6232 -1.1285
 4251SOL    HW224216   2.136   3.500  17.529 -1.4505 -0.9856 -0.2009
 4252SOL     OW24217   1.744   3.558  12.428 -0.5972  0.1881  0.3007
 4252SOL    HW124218   1.717   3.573  12.337 -0.4989  1.4348  0.4772
 4252SOL    HW224219   1.832   3.525  12.415 -0.4959  0.5424  0.0698
 4253SOL     OW24220   1.918   3.431  14.755 -0.7709 -0.6266  0.0575
 4253SOL    HW124221   1.859   3.375  14.704 -1.9788 -0.6734  1.5027
 4253SOL    HW224222   1.996   3.375  14.749  0.7272  1.1236  3.3433
 4254SOL     OW24223   3.387   0.935   5.037  0.3942 -0.0197  0.7375
 4254SOL    HW124224   3.455   0.988   4.995  0.7815 -1.9948 -1.1222
 4254SOL    HW224225   3.451   0.882   5.086  1.4547  2.8423  2.4032
 4255SOL     OW24226   0.009   3.910   9.950 -0.0770  0.1804  0.1035
 4255SOL    HW124227   0.005   3.929  10.044 -1.0915 -1.4187  0.3789
 4255SOL    HW224228   0.091   3.952   9.925 -0.3888  1.6860  1.6054
 4256SOL     OW24229   2.920   1.963   4.146  0.2719 -0.2560  0.3638
 4256SOL    HW124230   2.991   1.915   4.104 -0.6276 -1.1136 -0.1879
 4256SOL    HW224231   2.897   1.904   4.217 -1.3690 -3.0281 -2.4409
 4257SOL     OW24232   4.328   3.564   8.209 -0.5271  0.1803 -0.5667
 4257SOL    HW124233   4.258   3.620   8.245 -0.0838 -0.2698  1.0049
 4257SOL    HW224234   4.398   3.627   8.192 -0.2961  0.7345  2.4148
 4258SOL     OW24235   2.697   4.017  10.897 -1.0374  0.3236 -0.2384
 4258SOL    HW124236   2.765   3.981  10.955 -2.0583  2.5110  2.3250
 4258SOL    HW224237   2.658   4.087  10.949  1.1535 -1.2619  3.5449
 4259SOL     OW24238   0.356   2.376   4.424  0.1803 -0.0496 -0.3798
 4259SOL    HW124239   0.330   2.306   4.363 -1.5249  0.7236 -0.5589
 4259SOL    HW224240   0.342   2.455   4.372 -2.3643  0.9276  1.7743
 4260SOL     OW24241   2.366   0.061   2.598  0.0579  0.4708  0.8122
 4260SOL    HW124242   2.357   0.000   2.671 -1.3237 -0.3439 -0.0337
 4260SOL    HW224243   2.439   0.017   2.556 -0.0071  0.5683  0.6003
 4261SOL     OW24244   2.744   0.105   0.814 -0.3512  0.2707  0.1934
 4261SOL    HW124245   2.675   0.076   0.873  2.2911  0.0115  3.1201
 4261SOL    HW224246   2.721   0.063   0.730 -0.9454  4.5406 -1.7809
 4262SOL     OW24247   2.404   4.516  12.735 -0.3253 -0.1389  0.2098
 4262SOL    HW124248   2.473   4.550  12.677  1.6586 -1.5437  1.7452
 4262SOL    HW224249   2.384   4.590  12.792 -0.7036  0.2830 -0.4601
 4263SOL     OW24250   0.143   1.365   0.283 -0.6049 -0.0486  0.0003
 4263SOL    HW124251   0.090   1.403   0.353 -1.6848 -0.9585 -0.3142
 4263SOL    HW224252   0.087   1.289   0.265  0.9605 -0.4813 -3.0354
 4264SOL     OW24253   4.344   3.032   8.197  0.4770  0.8342  0.5158
 4264SOL    HW124254   4.287   2.956   8.209  0.2899  1.0125  0.7537
 4264SOL    HW224255   4.358   3.039   8.103  1.5339 -1.1238  0.5255
 4265SOL     OW24256   2.889   1.330   7.834  0.2423 -0.1201  0.3862
 4265SOL    HW124257   2.831   1.331   7.911 -0.5907 -0.6523 -0.2373
 4265SOL    HW224258   2.837   1.364   7.761  1.8642 -2.2782 -1.7811
 4266SOL     OW24259   1.733   3.683   7.563 -0.2463 -0.3273 -0.3620
 4266SOL    HW124260   1.716   3.589   7.574  0.5549 -0.4494 -0.1946
 4266SOL    HW224261   1.708   3.728   7.643  1.2879  2.1919 -1.3237
 4267SOL     OW24262   3.544   0.322   5.387  0.6514  0.2843  0.2996
 4267SOL    HW124263   3.627   0.349   5.346  1.1314 -0.4672  0.7823
 4267SOL    HW224264   3.554   0.229   5.408 -1.9972 -0.2577 -0.8240
 4268SOL     OW24265   4.115   0.055   2.182  0.4855  0.0734 -0.1906
 4268SOL    HW124266   4.175   4.711   2.149 -0.1130 -1.4062  1.7303
 4268SOL    HW224267   4.033   0.007   2.191 -0.2368  0.9304 -2.1020
 4269SOL     OW24268   0.914   0.402   7.396 -0.5773  0.3022 -0.0947
 4269SOL    HW124269   0.852   0.329   7.401  1.4730 -1.5588 -1.8137
 4269SOL    HW224270   0.856   0.474   7.371  0.3171  1.1916  0.3945
 4270SOL     OW24271   2.496   0.991   6.206  0.0704 -0.6255  0.1128
 4270SOL    HW124272   2.570   0.939   6.176 -0.0844 -0.8786  0.1678
 4270SOL    HW224273   2.502   0.959   6.297 -4.2949  1.4287  1.1099
 4271SOL     OW24274   0.646   3.923   5.077 -0.8503 -0.0416  0.3824
 4271SOL    HW124275   0.634   3.849   5.137  0.2022  0.7366  1.5542
 4271SOL    HW224276   0.715   3.966   5.128  2.1621 -1.4739 -2.5433
 4272SOL     OW24277   2.467   0.940   6.928  0.4256 -0.5042 -0.2845
 4272SOL    HW124278   2.402   0.871   6.946  0.2432 -0.2880 -0.1063
 4272SOL    HW224279   2.525   0.932   7.003  1.2689 -1.5114 -1.0441
 4273SOL     OW24280   1.680   0.802   8.186 -0.1606 -0.0080  0.6986
 4273SOL    HW124281   1.589   0.775   8.176  0.6819 -2.3072 -0.9480
 4273SOL    HW224282   1.660   0.879   8.239  3.2376  1.4612 -0.1642
 4274SOL     OW24283   1.041   4.645   1.857  0.2553 -0.1154  0.2328
 4274SOL    HW124284   0.984   4.719   1.876 -1.3146 -1.2961  0.1185
 4274SOL    HW224285   1.084   4.686   1.782  0.1239 -2.6917 -1.2408
 4275SOL     OW24286   0.360   3.042   6.261  0.3502  0.0434 -0.3377
 4275SOL    HW124287   0.455   3.033   6.251  0.3989  2.2170 -1.8797
 4275SOL    HW224288   0.349   2.991   6.341  2.7435 -0.5045 -0.3597
 4276SOL     OW24289   3.642   2.701   3.039 -0.2291 -0.0352  0.4037
 4276SOL    HW124290   3.560   2.692   3.088 -0.1362 -1.0911  0.3762
 4276SOL    HW224291   3.701   2.716   3.113 -0.2137  0.6864  0.2406
 4277SOL     OW24292   2.737   3.954   9.546 -0.2047  0.4414  0.3467
 4277SOL    HW124293   2.809   3.893   9.560 -0.0292  0.3119 -1.1281
 4277SOL    HW224294   2.714   3.952   9.639  0.1556 -1.7356  0.3747
 4278SOL     OW24295   2.975   4.134   6.903 -0.3996 -0.4258 -0.5986
 4278SOL    HW124296   2.913   4.181   6.959  1.6078  0.2069  1.1056
 4278SOL    HW224297   2.913   4.084   6.851  0.7675 -1.9562 -0.5238
 4279SOL     OW24298   1.200   0.210   6.452  0.2008 -0.5085 -0.2390
 4279SOL    HW124299   1.250   0.178   6.527 -0.7764 -2.9486 -0.6415
 4279SOL    HW224300   1.189   0.130   6.402 -0.0704 -2.0853  2.3382
 4280SOL     OW24301   3.126   0.764  10.505  0.4103 -0.0558 -0.4061
 4280SOL    HW124302   3.064   0.694  10.487 -0.5689  0.6646  0.1441
 4280SOL    HW224303   3.207   0.715  10.492  0.2552 -0.9220  2.0868
 4281SOL     OW24304   3.254   4.607   5.358 -0.6561 -0.8443 -0.2728
 4281SOL    HW124305   3.235   4.644   5.444  1.1055 -0.7757  0.0966
 4281SOL    HW224306   3.187   4.656   5.311  1.6524  1.3877 -1.2361
 4282SOL     OW24307   2.634   1.652   2.691  0.0281 -0.3501  0.1268
 4282SOL    HW124308   2.726   1.670   2.713 -0.7962  3.2729  0.6000
 4282SOL    HW224309   2.611   1.710   2.619  0.8087  0.0734  0.2101
 4283SOL     OW24310   4.468   0.950   3.106  0.3395  0.4425  0.3820
 4283SOL    HW124311   4.378   0.931   3.081 -0.0545  1.8188  0.7719
 4283SOL    HW224312   4.480   0.873   3.162 -1.4506 -0.3790 -0.3611
 4284SOL     OW24313   3.150   3.967  13.284 -0.4912 -0.1473  0.0779
 4284SOL    HW124314   3.224   3.934  13.234  0.3636  2.5196 -0.4087
 4284SOL    HW224315   3.093   3.890  13.289 -2.9645  1.5645 -1.6539
 4285SOL     OW24316   2.274   0.812   7.070  0.3769  0.5754  0.0151
 4285SOL    HW124317   2.214   0.783   7.139  1.2914 -0.6581  0.2821
 4285SOL    HW224318   2.258   0.741   7.007 -1.0554  0.4768  0.4910
 4286SOL     OW24319   3.491   3.044   9.717 -0.4115  0.2990  0.3064
 4286SOL    HW124320   3.497   2.963   9.666  1.3054  1.8742 -2.0025
 4286SOL    HW224321   3.399   3.069   9.707 -0.3982 -0.2393 -1.1536
 4287SOL     OW24322   3.333   0.679   1.047  0.2934 -0.2924  0.2480
 4287SOL    HW124323   3.334   0.660   0.953 -1.7374 -0.2404  0.2329
 4287SOL    HW224324   3.254   0.731   1.062  2.9190  3.2003  2.2477
 4288SOL     OW24325   3.113   0.716   9.476  0.1658  0.0058 -0.1541
 4288SOL    HW124326   3.094   0.647   9.413  3.9943 -0.5109 -0.7328
 4288SOL    HW224327   3.032   0.765   9.464  2.1033  2.7306 -2.1247
 4289SOL     OW24328   3.292   0.647   5.685 -0.6645  0.2928  0.1215
 4289SOL    HW124329   3.217   0.587   5.694 -2.1853  2.0722 -0.6247
 4289SOL    HW224330   3.357   0.598   5.636 -1.2383 -0.8081  0.4435
 4290SOL     OW24331   2.536   0.669   9.530 -0.5089 -0.6804 -0.2198
 4290SOL    HW124332   2.519   0.678   9.436 -1.8579 -0.6079  0.0416
 4290SOL    HW224333   2.627   0.637   9.533  0.2656  1.7235  1.4729
 4291SOL     OW24334   2.864   1.504   4.659 -0.3605 -0.4156  0.6016
 4291SOL    HW124335   2.870   1.480   4.567  0.9642  0.8084  0.3607
 4291SOL    HW224336   2.936   1.452   4.694  1.0422  0.8514 -0.3578
 4292SOL     OW24337   2.531   0.427   1.440  0.1885  0.1059 -0.1581
 4292SOL    HW124338   2.580   0.356   1.400  1.0359  1.1020 -0.8906
 4292SOL    HW224339   2.577   0.507   1.466 -0.1577  0.6677 -1.2710
 4293SOL     OW24340   3.376   1.344  17.366  0.1618  0.1396 -0.1708
 4293SOL    HW124341   3.458   1.393  17.361  0.4670 -0.1536  1.7908
 4293SOL    HW224342   3.323   1.424  17.363 -2.6336 -1.6934  0.4911
 4294SOL     OW24343   3.619   0.331  15.041  0.0111 -0.1342  0.5655
 4294SOL    HW124344   3.632   0.238  15.060  2.6947  0.3500  1.1900
 4294SOL    HW224345   3.647   0.331  14.950 -0.1457  0.4616  0.5215
 4295SOL     OW24346   0.660   3.577   2.405 -0.2942  0.4035  0.4171
 4295SOL    HW124347   0.600   3.641   2.366 -1.0890  0.4859  1.7813
 4295SOL    HW224348   0.732   3.580   2.343 -1.6175  3.3098 -0.9775
 4296SOL     OW24349   1.371   0.218   8.239 -0.2107 -0.0235 -0.6342
 4296SOL    HW124350   1.325   0.299   8.217  0.0819 -0.3835 -2.5552
 4296SOL    HW224351   1.457   0.239   8.202  0.5094 -0.4175  0.7885
 4297SOL     OW24352   3.057   3.709   5.922 -0.0201  0.0709 -0.6169
 4297SOL    HW124353   3.149   3.692   5.899  0.0308 -1.7585  0.9600
 4297SOL    HW224354   3.072   3.762   6.000  1.3413  1.0806 -1.5696
 4298SOL     OW24355   4.098   0.620  17.053  0.0853  0.5261  0.0844
 4298SOL    HW124356   4.070   0.663  16.973  1.0346 -0.3455 -0.7167
 4298SOL    HW224357   4.189   0.651  17.058  0.2969  0.1067 -1.2490
 4299SOL     OW24358   3.409   3.654   2.329 -0.3460 -0.1058  0.1505
 4299SOL    HW124359   3.481   3.616   2.379  1.0516  0.4348 -1.4598
 4299SOL    HW224360   3.445   3.743   2.330 -0.1221 -0.1887 -0.8669
 4300SOL     OW24361   2.006   0.746   8.193  0.6805  0.5535  0.3899
 4300SOL    HW124362   2.057   0.743   8.274  1.1746  1.9401  0.1263
 4300SOL    HW224363   2.038   0.674   8.139  0.7950  1.3975 -0.6696
 4301SOL     OW24364   2.635   1.070   5.593  0.2324  0.0169 -0.2473
 4301SOL    HW124365   2.638   0.995   5.533  0.3990 -0.3904  0.2732
 4301SOL    HW224366   2.713   1.116   5.561 -0.4756  0.5924 -1.1516
 4302SOL     OW24367   3.058   0.131   0.848  0.3719 -0.4602 -0.0806
 4302SOL    HW124368   3.061   0.123   0.944  2.3035 -3.9892 -0.4406
 4302SOL    HW224369   2.964   0.128   0.833  0.5404 -1.8611 -0.9021
 4303SOL     OW24370   0.334   3.980   2.676 -0.1235  0.7682  0.1979
 4303SOL    HW124371   0.331   4.042   2.604 -0.8853 -1.4977 -1.7428
 4303SOL    HW224372   0.413   4.004   2.723  0.8229  1.6755 -1.8599
 4304SOL     OW24373   1.310   2.071   7.234  0.0120  0.2619  0.6822
 4304SOL    HW124374   1.242   2.005   7.223  0.7876 -0.5511  0.8149
 4304SOL    HW224375   1.306   2.109   7.147  0.6339 -0.2725  0.4223
 4305SOL     OW24376   1.804   0.310   3.813 -0.2778  0.0609  0.8192
 4305SOL    HW124377   1.855   0.265   3.880  1.6472  2.0479  0.6710
 4305SOL    HW224378   1.745   0.239   3.786 -0.9398  0.7582  0.4163
 4306SOL     OW24379   0.244   3.832   5.177 -0.3994 -0.2088 -0.3180
 4306SOL    HW124380   0.320   3.887   5.158 -0.3671  0.7455  2.5167
 4306SOL    HW224381   0.274   3.741   5.179  2.0740  0.5979 -1.1933
 4307SOL     OW24382   3.559   0.838   3.804 -0.1390 -0.6427  0.0676
 4307SOL    HW124383   3.574   0.893   3.727 -0.3683 -1.3118 -0.4606
 4307SOL    HW224384   3.542   0.900   3.874  0.5415  0.2377 -0.5505
 4308SOL     OW24385   0.117   0.087  16.864  0.4625  0.3027 -0.2419
 4308SOL    HW124386   0.132   0.043  16.948  1.8845 -1.9103 -1.6707
 4308SOL    HW224387   0.024   0.105  16.854  0.3468 -0.1985 -0.0541
 4309SOL     OW24388   3.523   3.214   9.947  0.3295 -0.3569 -0.1990
 4309SOL    HW124389   3.499   3.144   9.886 -0.0025 -0.3220 -0.1100
 4309SOL    HW224390   3.612   3.233   9.917  0.0976  1.2098  0.1394
 4310SOL     OW24391   1.400   3.273   9.857 -0.7905 -0.0583  0.0491
 4310SOL    HW124392   1.485   3.316   9.859  0.4763 -2.5229 -1.0076
 4310SOL    HW224393   1.397   3.263   9.762 -2.6536 -2.6765  0.3720
 4311SOL     OW24394   4.082   1.290   4.434  0.1955  0.1012 -0.2282
 4311SOL    HW124395   4.055   1.380   4.451 -0.3132 -0.0266 -0.3507
 4311SOL    HW224396   3.995   1.250   4.443  0.9789 -1.3516  0.8390
 4312SOL     OW24397   4.637   0.894   7.538  0.0274  0.2819 -0.3210
 4312SOL    HW124398   4.624   0.986   7.563  1.6116 -0.3043  2.6494
 4312SOL    HW224399   4.682   0.907   7.454  0.5455 -0.2580 -0.1271
 4313SOL     OW24400   3.034   4.216   6.158 -0.0336  0.1902 -0.3318
 4313SOL    HW124401   3.000   4.289   6.210 -3.5228 -1.9816  0.4779
 4313SOL    HW224402   3.049   4.160   6.234 -1.0652 -1.9733 -1.7254
 4314SOL     OW24403   3.142   1.160  16.253  0.3907  0.3411  0.4283
 4314SOL    HW124404   3.147   1.255  16.239 -3.6933  0.5685  0.5136
 4314SOL    HW224405   3.100   1.166  16.339  1.0509  0.7495  0.7243
 4315SOL     OW24406   0.729   0.666  10.874 -1.0178 -0.3705  0.1790
 4315SOL    HW124407   0.741   0.754  10.839 -2.2633  0.8134  2.6742
 4315SOL    HW224408   0.685   0.693  10.954 -0.8649 -1.3060  0.5843
 4316SOL     OW24409   0.797   3.184   0.794  0.3819  0.0527 -0.0511
 4316SOL    HW124410   0.870   3.185   0.856 -0.2016 -0.4933  0.6502
 4316SOL    HW224411   0.804   3.276   0.766 -2.1498  0.3649  0.2972
 4317SOL     OW24412   1.735   3.738   4.792 -0.7916  0.1899  0.0013
 4317SOL    HW124413   1.763   3.791   4.867 -2.8449  2.6712 -1.0115
 4317SOL    HW224414   1.672   3.796   4.751 -1.5208 -0.1990  0.5822
 4318SOL     OW24415   0.014   0.955  12.694  0.7980 -0.0129  0.0456
 4318SOL    HW124416   0.053   0.868  12.693 -0.4028 -0.5212 -1.0621
 4318SOL    HW224417   0.065   0.997  12.764  2.9413 -0.6717 -1.1423
 4319SOL     OW24418   0.406   3.449   3.451  0.0098 -0.0375 -0.3826
 4319SOL    HW124419   0.457   3.394   3.391  0.0532 -0.1480 -0.2434
 4319SOL    HW224420   0.323   3.443   3.403  0.2309  1.6888 -0.9742
 4320SOL     OW24421   4.448   2.032  14.731  0.6378  0.0270  0.0797
 4320SOL    HW124422   4.526   2.024  14.676 -0.3752 -1.7113 -1.1233
 4320SOL    HW224423   4.411   2.117  14.708  1.6698  0.2029 -0.9326
 4321SOL     OW24424   1.924   0.727   6.455 -0.0503 -0.5730  0.2593
 4321SOL    HW124425   1.932   0.633   6.469  0.7972 -0.8072 -1.7932
 4321SOL    HW224426   1.947   0.758   6.542  0.6207  0.3819 -0.2558
 4322SOL     OW24427   0.774   2.573   5.823 -0.1384  0.3212  0.3085
 4322SOL    HW124428   0.842   2.518   5.864 -0.2921  0.6869  1.0672
 4322SOL    HW224429   0.733   2.614   5.900  0.0875 -0.2421  0.7324
 4323SOL     OW24430   0.033   2.426   6.344 -0.4375  0.7242  0.1054
 4323SOL    HW124431   0.016   2.365   6.272 -3.0979 -0.8304  2.0756
 4323SOL    HW224432   4.697   2.498   6.319 -2.1879 -1.0417 -0.9244
 4324SOL     OW24433   2.041   3.343   7.287 -0.4094 -0.8919  0.0161
 4324SOL    HW124434   2.098   3.416   7.312 -0.0234 -1.5405  1.0358
 4324SOL    HW224435   1.961   3.389   7.263  0.8045  1.1408 -0.1052
 4325SOL     OW24436   2.029   2.546   3.700  0.1443 -0.4985 -0.1204
 4325SOL    HW124437   2.043   2.624   3.646  2.3679 -0.2872  0.7581
 4325SOL    HW224438   2.118   2.543   3.736 -0.1209  2.9447  0.8257
 4326SOL     OW24439   3.768   2.678   7.576  0.4952  0.0043  0.1981
 4326SOL    HW124440   3.827   2.686   7.651 -0.7858  1.9314  1.0141
 4326SOL    HW224441   3.809   2.742   7.518 -1.8981  0.6050 -0.8225
 4327SOL     OW24442   4.033   0.490   0.241  0.1322 -0.3296  0.2328
 4327SOL    HW124443   4.115   0.444   0.223  1.4719  1.7730  1.1067
 4327SOL    HW224444   4.055   0.509   0.332  0.0960 -2.4288  0.6940
 4328SOL     OW24445   0.418   1.406   4.413  0.2134 -0.5008 -0.1692
 4328SOL    HW124446   0.403   1.480   4.354  0.9161 -0.8035 -0.7320
 4328SOL    HW224447   0.434   1.339   4.347 -0.4911 -0.5090 -0.3253
 4329SOL     OW24448   3.266   2.839  10.522 -0.1028 -0.2133  0.2627
 4329SOL    HW124449   3.264   2.762  10.464 -0.6843 -0.3340  0.4495
 4329SOL    HW224450   3.174   2.837  10.548 -0.7993  1.5399 -2.0585
 4330SOL     OW24451   1.952   4.579   7.266  0.6017  0.9082 -0.0415
 4330SOL    HW124452   2.012   4.544   7.332 -0.1203 -0.1311  0.0697
 4330SOL    HW224453   1.875   4.526   7.287  1.5313 -1.3810 -2.4444
 4331SOL     OW24454   4.183   2.884  17.072  0.4595  0.1001 -0.6519
 4331SOL    HW124455   4.104   2.851  17.115  0.2176 -0.9771 -1.9135
 4331SOL    HW224456   4.239   2.907  17.146 -0.0607  0.5387 -0.3923
 4332SOL     OW24457   4.418   3.257   9.667 -0.7263 -0.6829  0.1565
 4332SOL    HW124458   4.416   3.269   9.762 -2.5199  0.2801  0.0039
 4332SOL    HW224459   4.367   3.334   9.643  0.2033 -0.7317 -1.9698
 4333SOL     OW24460   0.615   1.234   4.789  0.1860  0.0983 -1.0872
 4333SOL    HW124461   0.640   1.299   4.723 -0.6827  1.6618  0.1245
 4333SOL    HW224462   0.519   1.232   4.791  0.2093 -1.0823 -0.8357
 4334SOL     OW24463   2.371   3.723   8.702  0.4759 -0.3369  0.1134
 4334SOL    HW124464   2.295   3.667   8.722  1.7565 -1.2184  2.6220
 4334SOL    HW224465   2.354   3.789   8.769  1.1844 -1.1011  1.0558
 4335SOL     OW24466   4.297   3.957  17.378 -0.5513 -0.1524 -0.0102
 4335SOL    HW124467   4.248   3.977  17.298  1.6781 -0.2735 -1.4219
 4335SOL    HW224468   4.361   3.893  17.345 -0.8296 -0.4617  0.0553
 4336SOL     OW24469   2.061   2.373  14.756 -0.3096  0.5609  0.3808
 4336SOL    HW124470   2.005   2.346  14.683 -1.6529  0.6173  1.4051
 4336SOL    HW224471   2.043   2.467  14.765 -1.0894  0.3697  0.8064
 4337SOL     OW24472   0.223   0.249   7.633  0.3093  0.0821  0.0363
 4337SOL    HW124473   0.221   0.250   7.729 -0.5926  0.4776  0.0132
 4337SOL    HW224474   0.255   0.339   7.634 -2.9003  1.2240  0.0275
 4338SOL     OW24475   4.150   1.717  10.831  0.0024  0.0852  0.0808
 4338SOL    HW124476   4.223   1.778  10.844  1.2908 -1.6119  0.8310
 4338SOL    HW224477   4.151   1.708  10.736 -0.0108 -1.9811  0.2599
 4339SOL     OW24478   4.710   3.280  10.249 -0.3531 -0.1465  0.7402
 4339SOL    HW124479   4.686   3.257  10.159 -0.4582  0.7866  0.5289
 4339SOL    HW224480   0.071   3.233  10.249 -0.2209  0.0480 -1.3758
 4340SOL     OW24481   1.178   4.502   8.913  0.3963 -0.5706 -0.3137
 4340SOL    HW124482   1.238   4.493   8.839 -0.3253 -3.0840 -0.5933
 4340SOL    HW224483   1.182   4.415   8.952 -0.1911  0.0135  1.0227
 4341SOL     OW24484   1.690   1.822   9.756 -0.1792 -0.7108  0.1000
 4341SOL    HW124485   1.607   1.806   9.802 -0.6974  2.4701  0.2646
 4341SOL    HW224486   1.748   1.836   9.832  0.1148 -0.9646 -0.0795
 4342SOL     OW24487   1.470   2.000  13.464  0.0577 -0.0561  0.3818
 4342SOL    HW124488   1.414   2.077  13.456 -0.9689 -0.4545  3.5659
 4342SOL    HW224489   1.447   1.990  13.556  0.2539  0.4083  0.4843
 4343SOL     OW24490   0.744   1.948   4.814 -0.0805  0.3191 -0.1774
 4343SOL    HW124491   0.682   1.890   4.859  2.0859 -1.3853  0.6084
 4343SOL    HW224492   0.749   2.010   4.887 -0.2822  0.3828 -0.2180
 4344SOL     OW24493   3.301   2.330   8.608 -0.3635  0.3042  0.2035
 4344SOL    HW124494   3.379   2.276   8.600 -0.9447 -0.5734  0.4700
 4344SOL    HW224495   3.346   2.415   8.602 -3.2787  1.7210 -1.4992
 4345SOL     OW24496   0.971   0.077   3.592 -0.3431  0.3579 -0.6103
 4345SOL    HW124497   0.910   0.024   3.644 -0.2286  1.4310  0.6109
 4345SOL    HW224498   1.013   0.123   3.665  1.2491  0.5449 -1.6532
 4346SOL     OW24499   1.304   2.768  14.063  0.0741  0.1525  0.6717
 4346SOL    HW124500   1.285   2.733  14.150  1.1933 -0.4964  0.6483
 4346SOL    HW224501   1.221   2.812  14.043  0.1978  0.3618  0.6198
 4347SOL     OW24502   2.865   0.066   1.250  0.1085  0.0318 -0.0752
 4347SOL    HW124503   2.868   4.701   1.290  2.3181  0.0879 -0.1003
 4347SOL    HW224504   2.955   0.094   1.231 -0.1401  1.6576  1.2054
 4348SOL     OW24505   4.534   0.805   8.739 -0.0747  0.0351  0.2377
 4348SOL    HW124506   4.520   0.899   8.747  0.6961  0.2690 -1.1213
 4348SOL    HW224507   4.628   0.797   8.756 -0.0213 -0.9300 -0.5004
 4349SOL     OW24508   4.657   3.550   4.075  0.1620 -0.5155 -0.0464
 4349SOL    HW124509   4.694   3.474   4.119 -0.1557  0.5874  2.1298
 4349SOL    HW224510   4.669   3.618   4.142 -1.7739 -0.5212  0.2923
 4350SOL     OW24511   2.914   2.036   0.166 -0.2660  0.0245  0.4689
 4350SOL    HW124512   2.919   1.948   0.203 -1.7966 -0.8133 -1.3267
 4350SOL    HW224513   2.971   2.080   0.229 -0.9253 -0.3925  1.3590
 4351SOL     OW24514   0.760   1.734   1.999  0.0648  0.4188  0.1812
 4351SOL    HW124515   0.719   1.812   1.961 -0.4809 -0.4574 -1.0236
 4351SOL    HW224516   0.737   1.751   2.090 -0.7007 -1.3391  0.3153
 4352SOL     OW24517   1.834   1.227   8.724 -0.3917 -0.2180 -0.3221
 4352SOL    HW124518   1.755   1.174   8.736  0.0590 -0.9760 -0.6863
 4352SOL    HW224519   1.815   1.273   8.642  2.2131 -1.3947 -1.5865
 4353SOL     OW24520   0.152   1.486   5.533 -0.2401 -0.3835 -0.6541
 4353SOL    HW124521   0.096   1.560   5.557 -0.7913 -1.3529  1.0403
 4353SOL    HW224522   0.194   1.520   5.454  2.2738 -2.0067 -0.0136
 4354SOL     OW24523   1.393   1.190   3.617  0.0893  0.7922 -0.7299
 4354SOL    HW124524   1.383   1.139   3.536 -0.8932  0.8204 -0.6309
 4354SOL    HW224525   1.480   1.168   3.649 -0.0017 -0.0285 -1.0324
 4355SOL     OW24526   4.564   4.533   4.103  0.3578 -0.6100  0.2853
 4355SOL    HW124527   4.481   4.566   4.137  0.7506 -0.9968  1.6489
 4355SOL    HW224528   4.617   4.611   4.118 -0.7057 -0.1881  1.9178
 4356SOL     OW24529   4.425   0.581   0.382 -0.1796  0.7638  0.0315
 4356SOL    HW124530   4.403   0.634   0.305 -2.0515 -2.8829 -1.9605
 4356SOL    HW224531   4.449   0.653   0.440 -1.5523 -0.8493  2.5908
 4357SOL     OW24532   0.945   0.282   6.980  0.3682  0.0819  0.0416
 4357SOL    HW124533   0.977   0.366   6.949 -1.7060  1.1285  0.7645
 4357SOL    HW224534   0.855   0.311   6.992 -0.0887 -1.4064  0.2788
 4358SOL     OW24535   1.216   1.268   6.215 -0.5061  0.1613  0.0907
 4358SOL    HW124536   1.128   1.297   6.190 -0.3686 -1.6491 -2.3962
 4358SOL    HW224537   1.257   1.337   6.268  1.4698 -0.4432 -0.6459
 4359SOL     OW24538   4.332   4.604  16.902 -0.3017  0.2410  0.0528
 4359SOL    HW124539   4.371   4.616  16.989  1.4521 -0.7205 -0.6068
 4359SOL    HW224540   4.376   4.673  16.852 -0.7007  0.9028  0.6199
 4360SOL     OW24541   1.673   1.157  13.352  0.1512  0.3817  0.3860
 4360SOL    HW124542   1.727   1.226  13.312 -0.8819 -1.1308 -3.6292
 4360SOL    HW224543   1.607   1.148  13.284 -0.7532 -1.8787  1.6006
 4361SOL     OW24544   1.714   0.162  11.731 -0.0189  0.5714 -0.1826
 4361SOL    HW124545   1.626   0.174  11.696 -0.6245 -0.6964  0.9174
 4361SOL    HW224546   1.744   0.113  11.655  0.1829  0.4026  0.0061
 4362SOL     OW24547   4.144   3.280   5.220 -0.2300 -0.1197 -0.1006
 4362SOL    HW124548   4.148   3.305   5.128  3.3145 -3.5870 -0.8870
 4362SOL    HW224549   4.235   3.304   5.237 -0.7436  0.3267  1.9854
 4363SOL     OW24550   4.496   3.218  12.357  0.4047  0.0052  0.2534
 4363SOL    HW124551   4.505   3.265  12.274 -1.6890 -1.8111 -0.9872
 4363SOL    HW224552   4.411   3.178  12.340  0.9398 -0.7980 -0.5047
 4364SOL     OW24553   0.359   4.701   2.606 -0.5852  0.2200 -0.7138
 4364SOL    HW124554   0.351   4.621   2.554 -0.2421 -0.6141  0.5169
 4364SOL    HW224555   0.454   4.709   2.617 -0.4652 -1.4987 -0.5845
 4365SOL     OW24556   1.630   2.388   3.478  0.0151 -0.3286 -0.9941
 4365SOL    HW124557   1.695   2.387   3.408  0.1561 -0.0066 -0.8689
 4365SOL    HW224558   1.570   2.329   3.434  0.1414 -1.0786 -0.1570
 4366SOL     OW24559   1.698   4.423   7.302 -0.4439 -0.7307 -0.1777
 4366SOL    HW124560   1.621   4.477   7.287  0.5880  0.8034  0.0206
 4366SOL    HW224561   1.669   4.334   7.281  2.4177 -1.5265 -0.8048
 4367SOL     OW24562   4.012   2.494   5.983 -0.1400 -0.6923  0.2821
 4367SOL    HW124563   4.024   2.409   6.025  0.2179  0.0104  1.6049
 4367SOL    HW224564   4.002   2.475   5.890  0.5273 -1.2444  0.3231
 4368SOL     OW24565   0.693   4.387   2.607  0.1947 -0.5768  0.9531
 4368SOL    HW124566   0.763   4.321   2.608  1.0826  0.3527  0.4090
 4368SOL    HW224567   0.722   4.454   2.668 -0.4194  0.2839  0.2955
 4369SOL     OW24568   2.591   4.651   4.491  0.0280 -0.2553  0.0063
 4369SOL    HW124569   2.610   4.563   4.523 -1.5180 -0.5501  0.1167
 4369SOL    HW224570   2.642   4.658   4.410  3.1066  1.3863  2.1139
 4370SOL     OW24571   0.840   1.618  10.655  0.4527  0.3018 -0.4224
 4370SOL    HW124572   0.816   1.711  10.663  1.7024  0.5160  0.9205
 4370SOL    HW224573   0.925   1.610  10.698  0.3981  0.9592 -0.1891
 4371SOL     OW24574   2.132   0.951   9.014  0.1766 -0.0049 -0.0947
 4371SOL    HW124575   2.082   0.934   8.934  2.3166 -0.4778 -1.3417
 4371SOL    HW224576   2.158   1.041   8.993 -1.2353 -0.4056 -3.5744
 4372SOL     OW24577   4.430   3.164   2.531  0.4627  0.6529  0.3293
 4372SOL    HW124578   4.482   3.243   2.521  2.0842 -0.3831  0.5292
 4372SOL    HW224579   4.479   3.102   2.586  0.1799  0.7789  0.7254
 4373SOL     OW24580   0.961   3.646  17.156 -0.3772 -0.2200 -0.1138
 4373SOL    HW124581   0.985   3.570  17.208 -1.3050  0.5742  1.4952
 4373SOL    HW224582   0.887   3.613  17.105  0.2192 -2.4479  0.4914
 4374SOL     OW24583   2.024   2.281   2.901 -0.0200  0.6491  0.6927
 4374SOL    HW124584   2.056   2.353   2.957  0.6114 -0.9274  2.3743
 4374SOL    HW224585   1.964   2.231   2.956 -0.8714  1.1361  0.1970
 4375SOL     OW24586   3.298   1.369   7.720 -0.1109  0.3109 -0.0839
 4375SOL    HW124587   3.217   1.411   7.694 -0.2163  0.3748  0.3481
 4375SOL    HW224588   3.312   1.406   7.807  1.8061  1.2644 -0.7877
 4376SOL     OW24589   2.811   1.681  11.907 -0.2118  0.0215 -0.0117
 4376SOL    HW124590   2.865   1.674  11.828  2.1191  1.0370  1.4677
 4376SOL    HW224591   2.720   1.678  11.878 -0.1912  0.4850 -0.1114
 4377SOL     OW24592   1.888   3.492   4.874  0.3244 -0.2306  0.2361
 4377SOL    HW124593   1.929   3.533   4.951  0.5119 -2.2833  1.2155
 4377SOL    HW224594   1.854   3.572   4.834  0.3096 -1.3087 -1.8574
 4378SOL     OW24595   4.553   4.000   0.679  0.1320 -0.0234  0.3018
 4378SOL    HW124596   4.586   4.090   0.691  2.0735 -0.4515 -1.8386
 4378SOL    HW224597   4.461   4.024   0.669  0.5538  1.5614  0.1294
 4379SOL     OW24598   4.697   0.947   3.910  0.7038 -0.3323 -0.2473
 4379SOL    HW124599   0.010   0.863   3.936 -0.3574 -0.2125  1.5645
 4379SOL    HW224600   4.690   0.988   3.996 -1.1731 -1.0561 -0.0652
 4380SOL     OW24601   4.059   3.136   4.744 -0.1741  0.3345  0.1920
 4380SOL    HW124602   4.020   3.127   4.657  0.0183  0.9089  0.0494
 4380SOL    HW224603   4.151   3.115   4.730 -0.2255 -1.2158  2.2038
 4381SOL     OW24604   0.142   3.414   9.932 -0.3652 -0.5080 -0.0349
 4381SOL    HW124605   0.193   3.463   9.867 -3.3900  1.1489 -1.1146
 4381SOL    HW224606   0.203   3.344   9.953 -1.4248 -1.1012  1.0411
 4382SOL     OW24607   1.028   3.737   5.415 -0.2424 -0.1690  0.2651
 4382SOL    HW124608   0.999   3.818   5.455 -1.5158 -1.2437  1.5311
 4382SOL    HW224609   1.081   3.700   5.485 -1.5969  1.9202  2.4044
 4383SOL     OW24610   3.491   2.635   5.568 -0.0567 -0.4668 -0.2871
 4383SOL    HW124611   3.501   2.653   5.662  2.5203 -2.0447 -0.2506
 4383SOL    HW224612   3.428   2.563   5.567  0.0030 -0.4614 -2.7932
 4384SOL     OW24613   4.007   4.624  17.261 -0.4919 -0.3728 -0.5652
 4384SOL    HW124614   4.019   4.679  17.339 -2.9275  1.3633 -1.4161
 4384SOL    HW224615   4.046   4.678  17.192 -0.2087  0.4123  0.1964
 4385SOL     OW24616   4.133   4.477   8.127 -0.0353 -0.0204  0.5056
 4385SOL    HW124617   4.074   4.427   8.184 -0.6197 -0.8166 -0.8132
 4385SOL    HW224618   4.173   4.414   8.067 -0.3059 -1.0211  1.3661
 4386SOL     OW24619   1.886   4.537   7.011  0.0725  0.0083  0.3045
 4386SOL    HW124620   1.932   4.453   7.006 -0.7105 -0.2215 -2.7748
 4386SOL    HW224621   1.934   4.565   7.089 -0.6129  0.5985  0.5107
 4387SOL     OW24622   4.301   3.733   6.248 -0.3955  0.9503 -0.2493
 4387SOL    HW124623   4.391   3.710   6.269 -0.3933  0.3340 -0.9412
 4387SOL    HW224624   4.263   3.734   6.336  2.6793  0.5517  1.0824
 4388SOL     OW24625   3.959   2.666  17.075 -0.0282  0.0493  0.3832
 4388SOL    HW124626   3.923   2.693  17.159  1.1934 -3.2684  1.9604
 4388SOL    HW224627   3.886   2.656  17.014 -0.2125 -1.5023  0.8538
 4389SOL     OW24628   1.556   4.545  12.177  0.0124 -0.0483 -0.9021
 4389SOL    HW124629   1.636   4.553  12.125  1.1911  1.6707  1.1532
 4389SOL    HW224630   1.570   4.631  12.215  0.8262 -0.4214 -0.3341
 4390SOL     OW24631   2.529   1.153   3.070  0.1987 -0.3516  0.0181
 4390SOL    HW124632   2.584   1.230   3.054 -1.6394  0.7988 -0.6765
 4390SOL    HW224633   2.461   1.168   3.005  1.2668 -0.5597 -1.1441
 4391SOL     OW24634   0.078   4.146  10.819  0.3876  0.0386 -0.2101
 4391SOL    HW124635   0.164   4.124  10.854  0.7682  2.0962  0.0927
 4391SOL    HW224636   0.016   4.098  10.875  1.4415  1.7638  2.4121
 4392SOL     OW24637   2.798   1.314   2.766  0.4007  0.6749 -0.1444
 4392SOL    HW124638   2.756   1.361   2.838  0.1884 -0.3364  0.3920
 4392SOL    HW224639   2.837   1.234   2.800  2.0454  1.7105  0.3908
 4393SOL     OW24640   0.525   0.515   6.002 -0.1151 -0.2907 -0.1458
 4393SOL    HW124641   0.470   0.457   6.055 -0.0409  0.1507  0.4244
 4393SOL    HW224642   0.601   0.458   5.992  1.0504  1.3564 -0.6809
 4394SOL     OW24643   4.155   2.387  12.273 -0.3514 -0.2936  0.0821
 4394SOL    HW124644   4.227   2.435  12.315  0.9817 -1.7454 -0.5295
 4394SOL    HW224645   4.121   2.452  12.211  1.1834  0.8892  0.4593
 4395SOL     OW24646   3.095   3.681   9.874 -0.3006  0.7262  0.3150
 4395SOL    HW124647   3.099   3.650   9.964 -0.9863  1.5825  0.6425
 4395SOL    HW224648   3.007   3.718   9.872 -0.9226 -0.7747 -0.2201
 4396SOL     OW24649   2.620   4.194   5.789 -0.8565  0.0930 -0.5744
 4396SOL    HW124650   2.709   4.165   5.771 -0.3348  0.7590  0.9332
 4396SOL    HW224651   2.600   4.249   5.713 -0.7258 -0.7693 -1.2359
 4397SOL     OW24652   3.477   3.156   6.531  0.5938 -0.5247  0.0185
 4397SOL    HW124653   3.565   3.119   6.532  0.5545 -0.6201  0.0110
 4397SOL    HW224654   3.442   3.115   6.451  0.1021 -1.2074  0.5879
 4398SOL     OW24655   0.877   2.438   7.790 -0.1481 -0.0956 -0.1494
 4398SOL    HW124656   0.954   2.460   7.737  0.5263  0.2765  0.9881
 4398SOL    HW224657   0.926   2.452   7.871  2.2530  1.3691 -1.8300
 4399SOL     OW24658   3.257   3.570   4.128  0.2981  0.0916  0.0173
 4399SOL    HW124659   3.213   3.507   4.071 -1.8024  0.8528  0.8114
 4399SOL    HW224660   3.189   3.627   4.164  1.3543  0.0700  2.0128
 4400SOL     OW24661   0.611   3.997   7.478  0.7345 -0.4027  0.4842
 4400SOL    HW124662   0.632   3.904   7.469 -0.7565 -0.5070 -1.9974
 4400SOL    HW224663   0.518   4.001   7.458  0.6711 -1.5356  0.5723
 4401SOL     OW24664   2.027   0.737   8.694 -0.2587  0.0743 -0.0645
 4401SOL    HW124665   2.007   0.813   8.748 -1.1098 -1.5171  1.8859
 4401SOL    HW224666   1.952   0.737   8.635 -1.2756  3.0036  1.2283
 4402SOL     OW24667   2.831   2.462  12.736  0.3904 -0.0608 -0.3745
 4402SOL    HW124668   2.849   2.443  12.644 -2.1717  2.2523 -1.3810
 4402SOL    HW224669   2.918   2.465  12.775  1.1889  0.1497 -2.2170
 4403SOL     OW24670   1.590   0.362   5.158  0.4582  0.4247 -0.5511
 4403SOL    HW124671   1.670   0.329   5.198  0.1090 -1.4490 -1.4014
 4403SOL    HW224672   1.614   0.385   5.068 -1.9064  0.7056 -1.1289
 4404SOL     OW24673   2.630   1.667   5.421 -0.3236 -0.4009 -0.0614
 4404SOL    HW124674   2.563   1.634   5.481 -0.7686  0.8802  0.1414
 4404SOL    HW224675   2.585   1.738   5.375 -0.6552 -0.5453  0.0431
 4405SOL     OW24676   0.291   0.154   2.951 -0.0841 -0.0388  0.1428
 4405SOL    HW124677   0.372   0.151   2.900 -0.9197  0.1083 -1.1833
 4405SOL    HW224678   0.294   0.249   2.963  0.5935 -0.4657  3.4252
 4406SOL     OW24679   3.301   0.316   5.636  0.7087 -0.0454 -0.0830
 4406SOL    HW124680   3.274   0.296   5.547 -0.5811 -1.9450  0.7300
 4406SOL    HW224681   3.389   0.351   5.622  1.4623 -2.0057 -0.3218
 4407SOL     OW24682   1.226   1.310  10.111 -0.0367  0.2416  0.6541
 4407SOL    HW124683   1.249   1.234  10.163 -1.1008 -1.5652 -1.5000
 4407SOL    HW224684   1.139   1.280  10.081  0.2077 -0.1428  0.3270
 4408SOL     OW24685   2.810   1.832   0.481 -0.3989 -0.5335  0.7581
 4408SOL    HW124686   2.796   1.811   0.389 -3.0142 -0.6044  1.1694
 4408SOL    HW224687   2.792   1.926   0.488  0.1166 -0.3128 -0.7997
 4409SOL     OW24688   1.635   0.573   8.392 -0.4190 -0.1734 -0.0559
 4409SOL    HW124689   1.563   0.610   8.341 -0.7906 -1.3382 -0.3647
 4409SOL    HW224690   1.591   0.489   8.406 -1.5674  0.8224  2.4417
 4410SOL     OW24691   3.468   3.589   9.528  0.2079 -0.1286 -0.0707
 4410SOL    HW124692   3.512   3.550   9.603 -0.0891 -0.3814 -0.0280
 4410SOL    HW224693   3.480   3.523   9.460  0.7261 -0.6396  0.5189
 4411SOL     OW24694   2.190   2.114  11.758 -0.4981 -0.1945  0.4007
 4411SOL    HW124695   2.274   2.083  11.724  0.2091  0.2186  1.7490
 4411SOL    HW224696   2.180   2.206  11.731  2.8450  0.2788  0.7777
 4412SOL     OW24697   1.880   4.258   2.250  0.7062 -0.0001  0.0350
 4412SOL    HW124698   1.866   4.332   2.191 -1.3088  1.3140  2.1274
 4412SOL    HW224699   1.975   4.250   2.245  0.9979  3.4951  0.3536
 4413SOL     OW24700   3.790   4.257   8.792 -0.2168 -0.6122  0.2316
 4413SOL    HW124701   3.782   4.251   8.697  0.5997  2.6852 -0.0500
 4413SOL    HW224702   3.852   4.186   8.810  1.2417  0.4529 -0.5975
 4414SOL     OW24703   2.975   2.744  11.570  0.2636 -0.4846  0.0523
 4414SOL    HW124704   2.943   2.834  11.572 -1.6280 -1.1348 -1.1345
 4414SOL    HW224705   2.894   2.694  11.584  0.0156  0.2752  1.2908
 4415SOL     OW24706   2.943   0.039   8.264 -0.2608 -0.0783 -0.6543
 4415SOL    HW124707   2.973   4.697   8.200 -1.5524 -0.7925 -0.5428
 4415SOL    HW224708   3.016   0.102   8.265 -0.3584  0.0346 -0.6314
 4416SOL     OW24709   3.085   1.916   7.639  0.4722  0.1926 -0.3142
 4416SOL    HW124710   3.059   1.885   7.552  1.1357 -1.4987  0.0918
 4416SOL    HW224711   3.161   1.860   7.655  0.7298  0.7122  0.2838
 4417SOL     OW24712   4.705   4.291   0.485  0.2165  0.5361 -0.6506
 4417SOL    HW124713   4.638   4.246   0.433  1.9315 -2.8438  0.0501
 4417SOL    HW224714   0.031   4.216   0.521 -1.7600 -1.1937 -1.5994
 4418SOL     OW24715   4.271   0.486   2.285 -0.4405 -0.0443 -0.5340
 4418SOL    HW124716   4.214   0.423   2.328  0.1619  1.2638  2.1326
 4418SOL    HW224717   4.246   0.472   2.193 -0.6767 -0.6493 -0.3761
 4419SOL     OW24718   3.406   3.462   5.220 -0.0874 -0.2949 -0.2215
 4419SOL    HW124719   3.338   3.413   5.175 -0.7491  0.0126  0.4464
 4419SOL    HW224720   3.416   3.538   5.163 -1.6498  0.9458  1.1691
 4420SOL     OW24721   0.749   0.379   6.679  0.6787  0.0257 -0.2294
 4420SOL    HW124722   0.843   0.365   6.691  0.5107  1.1003  2.1589
 4420SOL    HW224723   0.746   0.469   6.709 -0.5872 -0.8242  2.2250
 4421SOL     OW24724   2.023   2.208   9.030 -0.5739 -0.1792  0.4933
 4421SOL    HW124725   1.970   2.286   9.048 -0.7513 -0.8980  2.9882
 4421SOL    HW224726   1.966   2.162   8.969 -1.9255 -0.4131  1.9489
 4422SOL     OW24727   4.335   3.767   5.654  0.1181  0.4130 -0.1819
 4422SOL    HW124728   4.287   3.795   5.732 -0.2731  0.6196 -0.5011
 4422SOL    HW224729   4.310   3.830   5.586  0.7044 -0.2933 -1.0556
 4423SOL     OW24730   4.209   3.282   1.136 -0.9733  0.1203 -0.8098
 4423SOL    HW124731   4.248   3.352   1.084 -0.4135  0.2550 -0.2161
 4423SOL    HW224732   4.251   3.207   1.093 -0.1348  0.8804 -1.3218
 4424SOL     OW24733   0.841   1.494   7.657 -0.3140  0.6083  0.1570
 4424SOL    HW124734   0.930   1.526   7.638 -0.4471 -0.3906 -2.1606
 4424SOL    HW224735   0.816   1.500   7.564 -0.0927  2.0380  0.1806
 4425SOL     OW24736   1.622   1.534  15.850 -0.1128  0.3809 -0.0648
 4425SOL    HW124737   1.639   1.494  15.765 -2.9464 -1.1458  0.0697
 4425SOL    HW224738   1.624   1.453  15.901 -1.1874  0.9234  0.8454
 4426SOL     OW24739   2.378   0.673   3.753 -0.2329 -0.9346 -0.2224
 4426SOL    HW124740   2.389   0.767   3.737 -0.7287 -0.5070  1.9634
 4426SOL    HW224741   2.456   0.644   3.705  1.3359 -0.6164  2.1142
 4427SOL     OW24742   4.479   1.403   9.540  0.1663  0.0359  0.1422
 4427SOL    HW124743   4.515   1.465   9.604 -0.1328  0.5936 -0.2308
 4427SOL    HW224744   4.487   1.318   9.583 -1.3016  1.0725  2.4624
 4428SOL     OW24745   3.595   0.095   6.164 -0.5199  0.3716  0.3942
 4428SOL    HW124746   3.547   0.172   6.193 -2.3818 -0.7362  0.2290
 4428SOL    HW224747   3.661   0.091   6.234 -1.2411 -0.1246  1.0392
 4429SOL     OW24748   3.495   4.317  14.608  0.7528 -0.1466  0.5641
 4429SOL    HW124749   3.421   4.376  14.597 -0.3850 -1.3592  1.8260
 4429SOL    HW224750   3.481   4.297  14.700 -1.4570 -0.2136  0.2092
 4430SOL     OW24751   3.638   0.954  15.351  0.4032  0.2767  0.5001
 4430SOL    HW124752   3.722   0.999  15.360  0.8910 -0.7458  1.0518
 4430SOL    HW224753   3.604   0.994  15.271  1.0207  0.4456  0.3207
 4431SOL     OW24754   1.994   1.787  13.789 -0.4783  0.3626  0.5142
 4431SOL    HW124755   2.089   1.775  13.783 -0.6471  0.1614 -1.6791
 4431SOL    HW224756   1.976   1.839  13.711  0.7477  1.2177  0.8017
 4432SOL     OW24757   0.252   3.366  16.109 -0.1194 -0.2846 -0.6725
 4432SOL    HW124758   0.240   3.460  16.114 -1.2868 -0.5795  2.0268
 4432SOL    HW224759   0.325   3.348  16.169 -1.7411  1.4141  1.7999
 4433SOL     OW24760   1.816   2.692   8.385  0.4525  0.2466  0.1982
 4433SOL    HW124761   1.863   2.675   8.467 -1.1532 -2.4151  0.5277
 4433SOL    HW224762   1.724   2.689   8.411 -0.6315  0.6367 -3.5519
 4434SOL     OW24763   1.403   2.399   4.054 -0.2288 -0.5731  0.3829
 4434SOL    HW124764   1.344   2.411   3.980  0.4560 -1.1103 -0.2545
 4434SOL    HW224765   1.492   2.401   4.017 -0.1745  0.5122  0.5744
 4435SOL     OW24766   1.414   0.999   1.298 -0.1819  0.2420 -0.4413
 4435SOL    HW124767   1.320   1.017   1.306 -0.1032  2.0279 -3.5818
 4435SOL    HW224768   1.401   0.906   1.316  3.3065 -0.2006 -0.3105
 4436SOL     OW24769   3.443   3.157  15.623 -0.3254  0.4949  0.3744
 4436SOL    HW124770   3.368   3.098  15.636  0.3852 -0.2508  1.0248
 4436SOL    HW224771   3.403   3.242  15.645 -2.3020  0.6436 -3.7032
 4437SOL     OW24772   4.328   3.283   5.574 -0.5591  0.4974 -0.2848
 4437SOL    HW124773   4.371   3.342   5.635 -0.0690 -0.6019  0.4131
 4437SOL    HW224774   4.262   3.349   5.549 -0.2796  1.2432  0.9396
 4438SOL     OW24775   0.435   0.526  12.774  0.2247 -0.1409  0.2732
 4438SOL    HW124776   0.378   0.454  12.801  2.1317 -1.8207 -0.1581
 4438SOL    HW224777   0.517   0.506  12.819  0.8898  1.5498 -0.2132
 4439SOL     OW24778   2.333   1.433   5.331  0.9345  0.0680 -0.5129
 4439SOL    HW124779   2.302   1.508   5.281 -0.4245 -0.5476 -0.6006
 4439SOL    HW224780   2.326   1.469   5.419  1.1017 -1.3402  0.0881
 4440SOL     OW24781   1.087   0.830   8.137 -0.6120  0.4769  0.1586
 4440SOL    HW124782   1.156   0.854   8.199  0.6488  0.3468 -1.2027
 4440SOL    HW224783   1.086   0.902   8.073 -2.6550 -0.4136 -0.8142
 4441SOL     OW24784   3.034   2.293   2.937  0.4011  0.0605 -0.0758
 4441SOL    HW124785   3.107   2.292   2.875 -0.3204 -2.3182 -0.8988
 4441SOL    HW224786   3.067   2.305   3.026  0.3007 -0.3931  0.0253
 4442SOL     OW24787   4.537   1.483  11.527 -0.0958  0.2997 -0.1495
 4442SOL    HW124788   4.582   1.481  11.443  0.2653 -0.7210  0.0719
 4442SOL    HW224789   4.584   1.410  11.568 -0.2183  0.0885 -0.3825
 4443SOL     OW24790   1.514   4.362  14.679 -0.1224  0.4017  0.1502
 4443SOL    HW124791   1.579   4.335  14.744 -1.2899  1.2975  1.7020
 4443SOL    HW224792   1.564   4.432  14.636 -0.7744  0.6094 -0.2724
 4444SOL     OW24793   0.576   4.377   9.032  0.6904 -0.1597 -0.3074
 4444SOL    HW124794   0.564   4.433   8.956 -0.3356  0.9412  0.6625
 4444SOL    HW224795   0.661   4.407   9.064  1.0067 -0.7954 -0.5596
 4445SOL     OW24796   3.913   2.560   9.181 -0.1830 -0.0538 -0.2527
 4445SOL    HW124797   3.862   2.619   9.237 -0.0569  0.8859 -1.1395
 4445SOL    HW224798   3.999   2.601   9.175 -0.8251  1.0019 -2.0749
 4446SOL     OW24799   3.705   2.571   4.315 -0.8085  0.0188 -0.1460
 4446SOL    HW124800   3.674   2.657   4.288 -1.0296 -0.3738 -1.1133
 4446SOL    HW224801   3.687   2.531   4.230  1.8964 -2.8330  0.5934
 4447SOL     OW24802   2.992   1.102  14.414  0.5779 -0.5773  0.3325
 4447SOL    HW124803   2.923   1.131  14.475 -0.6362  0.1598 -1.3875
 4447SOL    HW224804   3.073   1.147  14.440 -0.4978 -0.0900  2.8777
 4448SOL     OW24805   1.182   4.113  12.035 -0.1631  0.0565 -0.2482
 4448SOL    HW124806   1.115   4.110  11.968  0.9256  0.2480 -1.3465
 4448SOL    HW224807   1.181   4.204  12.064  0.5564  0.1436 -0.5005
 4449SOL     OW24808   0.685   1.141   5.449 -0.0347 -0.6616 -0.4870
 4449SOL    HW124809   0.722   1.056   5.426  0.5381 -0.7141  0.6618
 4449SOL    HW224810   0.602   1.143   5.400 -0.3802  2.3173  0.1978
 4450SOL     OW24811   2.856   0.414   5.005 -0.2990  0.5810  0.1912
 4450SOL    HW124812   2.841   0.319   5.010 -0.3697  0.6316  0.9791
 4450SOL    HW224813   2.943   0.417   5.044  0.4757 -2.8049 -1.2544
 4451SOL     OW24814   3.294   1.824   2.707  0.3416  0.1994  0.1136
 4451SOL    HW124815   3.211   1.782   2.685  0.8169 -0.7885  0.1856
 4451SOL    HW224816   3.313   1.764   2.779  0.2180 -2.4905 -2.1142
 4452SOL     OW24817   4.569   2.393   7.079 -0.2893  0.1106  0.0485
 4452SOL    HW124818   4.608   2.332   7.142  0.8767 -0.2557 -1.0289
 4452SOL    HW224819   4.545   2.331   7.011  0.4410 -0.1202 -0.0015
 4453SOL     OW24820   4.266   0.958  17.015  0.3991 -0.0400  0.0283
 4453SOL    HW124821   4.218   1.009  17.080  1.1257  0.3211  0.2922
 4453SOL    HW224822   4.333   1.018  16.982  1.0817 -0.6010  0.3985
 4454SOL     OW24823   1.400   3.780   7.894  0.0933  0.3237  0.4951
 4454SOL    HW124824   1.478   3.756   7.844 -0.7245 -0.2347 -0.5373
 4454SOL    HW224825   1.429   3.856   7.943 -0.3900 -0.1895  1.5699
 4455SOL     OW24826   0.679   1.524   8.495 -0.3659  0.1382  0.2332
 4455SOL    HW124827   0.711   1.550   8.408  0.8971 -0.2391  0.5934
 4455SOL    HW224828   0.607   1.585   8.513 -1.1179 -1.0291  1.1924
 4456SOL     OW24829   3.613   1.906  13.535 -0.0908 -0.2003  0.2138
 4456SOL    HW124830   3.569   1.951  13.607  0.5025  0.0780  0.4019
 4456SOL    HW224831   3.703   1.937  13.546 -0.2670  1.0164 -1.7614
 4457SOL     OW24832   3.238   0.813   1.978  0.1359  0.0061 -0.3726
 4457SOL    HW124833   3.231   0.718   1.987 -0.8241  0.0671 -0.4768
 4457SOL    HW224834   3.324   0.818   1.936  0.4620 -2.5278 -0.0070
 4458SOL     OW24835   4.508   4.163   7.840  0.1704  0.4065  0.7060
 4458SOL    HW124836   4.467   4.245   7.811  1.3684  0.6383 -0.3491
 4458SOL    HW224837   4.540   4.136   7.754 -0.6226  1.7885 -0.0333
 4459SOL     OW24838   1.607   1.041   4.210  0.3764  0.1970  0.1804
 4459SOL    HW124839   1.627   1.115   4.268 -0.8791 -0.1823  1.0991
 4459SOL    HW224840   1.513   1.051   4.197  0.1616 -1.0116  0.7839
 4460SOL     OW24841   1.165   2.606   8.203  0.3403 -0.0210  0.2586
 4460SOL    HW124842   1.247   2.561   8.224 -0.4175 -1.1267  0.8258
 4460SOL    HW224843   1.106   2.558   8.261 -0.8567  0.9450 -0.1702
 4461SOL     OW24844   3.868   2.470  16.100 -1.0157  0.8094  0.1740
 4461SOL    HW124845   3.857   2.527  16.024 -1.3956  0.0012 -0.3699
 4461SOL    HW224846   3.883   2.386  16.058  1.0798  1.3731 -0.1824
 4462SOL     OW24847   4.163   3.798  11.294  0.2133  0.1090 -0.2802
 4462SOL    HW124848   4.217   3.775  11.369 -0.6190  0.3689  0.4028
 4462SOL    HW224849   4.084   3.745  11.310 -0.7083  1.6998  0.4561
 4463SOL     OW24850   3.181   1.500   7.455  0.3510 -0.4802 -0.0717
 4463SOL    HW124851   3.158   1.414   7.421  0.0923 -0.0058 -1.0872
 4463SOL    HW224852   3.184   1.549   7.373  1.0487  0.1358  0.3233
 4464SOL     OW24853   2.977   0.149  11.138  0.0678  0.0618  0.3732
 4464SOL    HW124854   2.991   0.055  11.129  1.5798  0.4011 -0.7787
 4464SOL    HW224855   2.982   0.172  11.045 -0.4628  1.1640  0.6177
 4465SOL     OW24856   3.351   1.428   5.364  0.0858  0.0550  0.1575
 4465SOL    HW124857   3.394   1.375   5.430  0.8962  1.6046  0.8896
 4465SOL    HW224858   3.347   1.514   5.406  1.9259 -0.3471  1.1400
 4466SOL     OW24859   3.780   2.758   3.257  0.0342  0.4613 -0.5039
 4466SOL    HW124860   3.824   2.840   3.280 -0.1211  0.7953 -1.4032
 4466SOL    HW224861   3.763   2.735   3.349 -0.5816 -0.5122 -0.8672
 4467SOL     OW24862   4.713   1.804   7.330 -0.0067 -0.2270  0.3850
 4467SOL    HW124863   4.669   1.741   7.273  1.6923 -1.8608  0.8965
 4467SOL    HW224864   4.640   1.818   7.390 -0.0712  1.5386 -0.0884
 4468SOL     OW24865   3.050   2.490  11.914 -0.1411 -0.2537 -0.1808
 4468SOL    HW124866   3.111   2.487  11.841  0.6656 -0.6149  0.5042
 4468SOL    HW224867   3.077   2.419  11.972  1.5098  0.5651  0.0591
 4469SOL     OW24868   0.018   2.068   2.694 -0.4570 -0.2536  0.5031
 4469SOL    HW124869   4.680   2.029   2.630 -1.6381  0.0114  1.4594
 4469SOL    HW224870   0.047   2.150   2.654  0.7583 -0.2653  1.3612
 4470SOL     OW24871   0.390   3.922  16.860 -0.0369  0.0921 -0.0447
 4470SOL    HW124872   0.329   3.890  16.926 -0.8672  2.7659  0.4680
 4470SOL    HW224873   0.330   3.925  16.785  0.6487  2.3914 -0.5074
 4471SOL     OW24874   1.085   0.676   5.929 -0.0631 -0.3532  0.1657
 4471SOL    HW124875   1.016   0.617   5.900 -0.4330 -0.3621  1.0708
 4471SOL    HW224876   1.107   0.622   6.005  0.0807 -0.3026  0.1608
 4472SOL     OW24877   3.346   1.699  16.919  0.0155  0.3418  0.3814
 4472SOL    HW124878   3.286   1.750  16.975  1.2005 -0.0402  2.0030
 4472SOL    HW224879   3.281   1.660  16.861  1.2782 -2.0527  0.5922
 4473SOL     OW24880   2.499   3.278   8.960  0.0445  0.2861  0.2338
 4473SOL    HW124881   2.460   3.363   8.979 -0.6040 -0.1077  0.6839
 4473SOL    HW224882   2.497   3.234   9.045 -2.1728  0.6692  0.3809
 4474SOL     OW24883   0.834   2.059   2.351 -0.4399  0.3490 -0.2415
 4474SOL    HW124884   0.825   2.150   2.382  2.9185  0.6785 -0.2476
 4474SOL    HW224885   0.849   2.003   2.427  1.1790  1.4669  0.2566
 4475SOL     OW24886   4.538   2.655   4.285 -0.1895  0.4581 -0.0084
 4475SOL    HW124887   4.487   2.735   4.294 -0.6514 -0.1227  2.5466
 4475SOL    HW224888   4.504   2.603   4.358  0.6178  1.6742  1.2238
 4476SOL     OW24889   4.517   0.312   1.108  0.5539 -0.2213  0.1545
 4476SOL    HW124890   4.562   0.377   1.161  1.5258 -1.6573  1.0694
 4476SOL    HW224891   4.425   0.338   1.112  0.3890 -0.4419 -2.1483
 4477SOL     OW24892   4.454   3.609  15.847 -0.0046  0.3243  0.7307
 4477SOL    HW124893   4.401   3.688  15.835 -0.6531 -0.1124  0.6668
 4477SOL    HW224894   4.407   3.545  15.793  0.1797 -0.0156  0.9753
 4478SOL     OW24895   4.111   0.069  14.378 -0.1334 -0.2071  0.1535
 4478SOL    HW124896   4.137   0.012  14.450 -2.2761 -0.0530  1.0391
 4478SOL    HW224897   4.034   0.027  14.339 -0.2972  0.3598 -0.1313
 4479SOL     OW24898   3.495   2.728  10.402  0.0921  0.0841 -0.3621
 4479SOL    HW124899   3.562   2.681  10.453 -0.3891 -0.8589 -0.5976
 4479SOL    HW224900   3.453   2.772  10.476  0.7289 -1.6188  1.0381
 4480SOL     OW24901   3.666   4.108   3.996  0.2342 -0.0052  0.5025
 4480SOL    HW124902   3.621   4.088   3.914  1.0087  0.6199 -0.0763
 4480SOL    HW224903   3.739   4.157   3.958  0.5527 -0.8469  0.0199
 4481SOL     OW24904   0.918   3.975   8.283  0.0230 -0.1520  0.2469
 4481SOL    HW124905   0.872   3.903   8.327  0.2697  0.6940  1.8462
 4481SOL    HW224906   0.860   3.983   8.207  0.2528  1.3435  0.2282
 4482SOL     OW24907   2.760   0.545   6.957 -0.0057 -0.3632  0.3096
 4482SOL    HW124908   2.792   0.589   6.878 -0.4332  0.9283  0.8389
 4482SOL    HW224909   2.673   0.584   6.966 -0.6171 -2.0381  1.6132
 4483SOL     OW24910   4.107   1.113  10.970 -0.3961 -0.1704 -0.2635
 4483SOL    HW124911   4.162   1.048  11.015 -2.3985 -4.2136 -3.5891
 4483SOL    HW224912   4.027   1.113  11.021 -0.5638  0.6661 -0.5253
 4484SOL     OW24913   3.088   4.612   1.864 -0.5355  0.2074  0.4368
 4484SOL    HW124914   3.042   4.532   1.839 -0.0690 -0.4508  1.7064
 4484SOL    HW224915   3.018   4.668   1.899 -0.1659 -0.0779  1.6416
 4485SOL     OW24916   0.206   2.149   8.862  0.0804  0.1647 -0.1897
 4485SOL    HW124917   0.156   2.083   8.911  0.9721 -0.6616 -0.3885
 4485SOL    HW224918   0.145   2.205   8.814 -0.2153 -0.6561 -0.7731
 4486SOL     OW24919   3.778   3.062   2.660 -0.1732  0.8244 -0.2931
 4486SOL    HW124920   3.834   3.136   2.682  0.7482 -0.1469  0.5910
 4486SOL    HW224921   3.851   3.018   2.615  0.3010  1.1397  0.1739
 4487SOL     OW24922   3.037   4.079  11.097 -0.7946  0.3666  0.4379
 4487SOL    HW124923   3.080   4.020  11.158  0.4240 -0.6583 -1.4141
 4487SOL    HW224924   3.058   4.165  11.133  0.5866  1.1342 -2.1885
 4488SOL     OW24925   3.850   3.723  16.020  0.2636  0.0841 -0.0627
 4488SOL    HW124926   3.798   3.800  16.041  2.8582  1.3927  1.6379
 4488SOL    HW224927   3.944   3.741  16.029 -0.0017  1.5512 -0.2826
 4489SOL     OW24928   2.942   2.925   2.570 -0.5519  0.0399  0.9454
 4489SOL    HW124929   2.999   2.864   2.522 -0.4507  0.4111  0.5886
 4489SOL    HW224930   2.949   2.997   2.508  1.4869 -3.1119 -2.5353
 4490SOL     OW24931   0.817   2.465   6.494 -0.3113 -0.3091  0.2282
 4490SOL    HW124932   0.878   2.416   6.439 -0.7482 -1.7814  1.0600
 4490SOL    HW224933   0.732   2.421   6.485 -0.5042 -0.0718  0.8144
 4491SOL     OW24934   3.680   0.913   2.190  0.2245 -0.3838  0.3966
 4491SOL    HW124935   3.758   0.912   2.134 -1.1105 -1.3140 -1.4196
 4491SOL    HW224936   3.672   1.009   2.193  0.2547 -0.3209 -1.3504
 4492SOL     OW24937   3.650   2.270   6.439 -0.6872  0.0688  0.2365
 4492SOL    HW124938   3.606   2.185   6.438 -0.2036 -0.1861  0.4526
 4492SOL    HW224939   3.718   2.245   6.502  1.5914  0.1693 -2.1592
 4493SOL     OW24940   2.515   3.344   7.264  0.2233 -0.1913  0.2498
 4493SOL    HW124941   2.498   3.300   7.348  0.3840  0.8985  0.8590
 4493SOL    HW224942   2.503   3.268   7.208 -0.0813  1.1855 -1.5462
 4494SOL     OW24943   1.801   1.348  13.211  0.0235  0.1206 -0.0534
 4494SOL    HW124944   1.768   1.430  13.248 -0.9290  0.8644 -2.5935
 4494SOL    HW224945   1.832   1.360  13.121  1.6423 -0.6472  0.4060
 4495SOL     OW24946   3.610   1.041  16.205 -0.0181  0.6594 -0.4289
 4495SOL    HW124947   3.525   1.011  16.237  1.4398 -3.9753 -0.9000
 4495SOL    HW224948   3.670   1.001  16.268  0.8351 -1.4601 -2.5855
 4496SOL     OW24949   2.281   4.642   8.474 -0.2240  0.1505  0.0511
 4496SOL    HW124950   2.275   0.014   8.455 -0.2399  0.2612  0.6085
 4496SOL    HW224951   2.371   4.632   8.443 -0.8110 -2.8730 -0.6907
 4497SOL     OW24952   0.348   2.192   1.439 -0.5626  0.0944  0.0515
 4497SOL    HW124953   0.314   2.282   1.445 -1.3274 -0.3320  2.1567
 4497SOL    HW224954   0.280   2.139   1.397  1.6488 -0.4144 -2.8320
 4498SOL     OW24955   1.564   0.077  10.815  0.1966  0.5144 -0.1791
 4498SOL    HW124956   1.537   4.708  10.825  0.2503  0.7312  2.1167
 4498SOL    HW224957   1.640   0.071  10.873 -0.1521  1.2097  0.3454
 4499SOL     OW24958   0.516   1.705   1.744 -0.4710  0.9649  0.0834
 4499SOL    HW124959   0.599   1.707   1.697 -1.3899  0.0391 -1.5949
 4499SOL    HW224960   0.482   1.791   1.718 -0.2551  0.4165 -2.0444
 4500SOL     OW24961   0.110   0.912   8.436  0.4321  0.1161  0.2327
 4500SOL    HW124962   0.064   0.887   8.516 -0.0693  2.7434  0.7566
 4500SOL    HW224963   0.049   0.874   8.373  0.3036  1.5197 -0.4903
 4501SOL     OW24964   4.370   2.600   4.597  0.3793  0.0797 -0.2348
 4501SOL    HW124965   4.454   2.643   4.611  0.0516  1.0834 -1.3281
 4501SOL    HW224966   4.319   2.670   4.556 -1.3266 -1.8368 -1.3795
 4502SOL     OW24967   3.136   3.120  10.867  0.4604  0.1633  0.0592
 4502SOL    HW124968   3.043   3.100  10.855  0.8056 -1.0052 -0.6765
 4502SOL    HW224969   3.129   3.211  10.896 -0.7523  0.8717 -2.4739
 4503SOL     OW24970   1.404   4.628   4.394  0.4777  0.2021 -0.8426
 4503SOL    HW124971   1.364   4.543   4.412 -0.1595  0.5969 -0.3610
 4503SOL    HW224972   1.367   4.679   4.467 -0.6871  1.6447 -2.4529
 4504SOL     OW24973   2.938   2.414   6.380  0.0311  0.1909  0.1727
 4504SOL    HW124974   2.893   2.466   6.447  2.7202  2.0469  0.5286
 4504SOL    HW224975   3.020   2.460   6.367  0.2310 -0.0363  0.6314
 4505SOL     OW24976   0.138   0.470   3.782  0.0553 -0.4038  0.0754
 4505SOL    HW124977   0.083   0.411   3.730 -1.0619  0.2020  0.5585
 4505SOL    HW224978   0.191   0.409   3.833 -0.9732 -0.9390  0.5156
 4506SOL     OW24979   1.888   0.613   4.941 -0.5085  0.2839 -0.1851
 4506SOL    HW124980   1.838   0.682   4.896 -0.3105  0.7457  0.3023
 4506SOL    HW224981   1.928   0.669   5.008 -1.5243  1.4504 -0.5536
 4507SOL     OW24982   1.439   2.162  15.519 -0.2827  0.1394  0.1948
 4507SOL    HW124983   1.414   2.238  15.572  2.0742  2.2563 -1.7733
 4507SOL    HW224984   1.471   2.097  15.582  2.8048  1.5073  0.0115
 4508SOL     OW24985   0.576   0.115   3.819  0.1760  0.5073  0.2536
 4508SOL    HW124986   0.645   0.178   3.801 -0.2608  0.2675 -2.2535
 4508SOL    HW224987   0.551   0.135   3.909 -0.9209  0.0998  0.0377
 4509SOL     OW24988   1.588   1.080  14.680 -0.1636 -0.1068 -0.6341
 4509SOL    HW124989   1.547   1.167  14.686  1.3262  0.6860 -1.8770
 4509SOL    HW224990   1.680   1.102  14.686 -0.2953 -0.2325  1.6410
 4510SOL     OW24991   3.368   1.496   3.336  0.0234 -0.1974 -0.6601
 4510SOL    HW124992   3.311   1.502   3.259 -0.9664  0.8098  0.1332
 4510SOL    HW224993   3.389   1.587   3.356 -2.7358  0.2566  0.2717
 4511SOL     OW24994   1.687   2.569   4.400 -0.0392  0.1501 -0.7542
 4511SOL    HW124995   1.644   2.491   4.433 -1.7287  1.0018 -0.9331
 4511SOL    HW224996   1.610   2.608   4.359  0.0985  0.3810 -0.7964
 4512SOL     OW24997   2.532   3.194   8.703 -0.0480  0.8716 -0.1215
 4512SOL    HW124998   2.540   3.107   8.743 -0.1097  1.2071  0.6298
 4512SOL    HW224999   2.506   3.233   8.787  1.1081  0.3510  0.4841
 4513SOL     OW25000   1.020   3.270   0.938 -0.1523  0.8443 -0.1002
 4513SOL    HW125001   0.994   3.319   1.016  2.0207  2.1845 -0.2107
 4513SOL    HW225002   1.091   3.326   0.908  1.7980 -2.2530 -1.2367
 4514SOL     OW25003   2.710   3.645  15.832 -0.0193 -0.4847  0.2819
 4514SOL    HW125004   2.695   3.574  15.770 -3.0697 -0.4768  0.9971
 4514SOL    HW225005   2.802   3.667  15.818 -0.1721 -0.9689 -1.3994
 4515SOL     OW25006   2.333   2.877   5.496 -0.2536 -0.1114 -0.4080
 4515SOL    HW125007   2.280   2.874   5.576 -0.7710  3.4993 -0.6045
 4515SOL    HW225008   2.406   2.817   5.509 -0.0384  0.7582  2.3835
 4516SOL     OW25009   2.086   4.091   2.762 -0.3890 -0.0096 -0.1737
 4516SOL    HW125010   2.164   4.144   2.774 -0.4668 -0.2559  1.3624
 4516SOL    HW225011   2.056   4.134   2.682  1.1244 -0.5398 -1.0348
 4517SOL     OW25012   3.386   1.267   6.979 -0.1852  0.2404  0.0272
 4517SOL    HW125013   3.293   1.242   6.982 -0.1018  0.0760  1.0772
 4517SOL    HW225014   3.385   1.337   6.913  0.7710 -0.2562 -0.5059
 4518SOL     OW25015   1.160   1.140  15.472  0.8970 -0.1740  0.6182
 4518SOL    HW125016   1.156   1.089  15.553  0.2244 -0.2024  0.5699
 4518SOL    HW225017   1.249   1.123  15.443  0.8821 -1.4940  1.3748
 4519SOL     OW25018   2.317   0.444  12.687 -0.0935 -0.1133  0.5828
 4519SOL    HW125019   2.228   0.430  12.717 -0.1066 -1.4945 -0.1069
 4519SOL    HW225020   2.325   0.540  12.685 -0.0044 -0.0727  3.1301
 4520SOL     OW25021   3.504   4.373   3.311  0.0094  0.0883 -0.1812
 4520SOL    HW125022   3.549   4.292   3.334  0.2265 -0.4167 -2.3792
 4520SOL    HW225023   3.558   4.433   3.260 -1.0262 -0.6076 -2.0756
 4521SOL     OW25024   1.829   1.869  17.075 -0.2193  0.8784 -0.3093
 4521SOL    HW125025   1.918   1.880  17.041  0.1905 -3.4993 -0.5969
 4521SOL    HW225026   1.795   1.840  16.990 -0.1738  0.9568 -0.3540
 4522SOL     OW25027   3.318   2.586   7.227 -0.3710 -0.6823 -0.3664
 4522SOL    HW125028   3.396   2.539   7.256 -0.0205 -0.0117 -0.2101
 4522SOL    HW225029   3.276   2.603   7.312  1.8971  1.9592  0.2122
 4523SOL     OW25030   4.606   1.624   6.315  0.2619  0.2038 -0.3980
 4523SOL    HW125031   4.589   1.601   6.224 -0.9015  1.1087 -0.4103
 4523SOL    HW225032   4.576   1.544   6.357  1.4496  0.5754  1.1951
 4524SOL     OW25033   1.467   3.684   8.153  0.1120 -0.2778  0.1861
 4524SOL    HW125034   1.416   3.733   8.087 -0.1799  0.4388  0.9452
 4524SOL    HW225035   1.558   3.679   8.123 -0.2127  1.6509 -1.1760
 4525SOL     OW25036   2.580   3.543   8.733  0.2061 -0.1291  0.6710
 4525SOL    HW125037   2.511   3.608   8.722  0.1459 -0.2639  0.2311
 4525SOL    HW225038   2.540   3.465   8.694  3.6201 -1.9545  0.8169
 4526SOL     OW25039   1.314   0.872   7.356 -0.2102 -0.7574 -0.5461
 4526SOL    HW125040   1.289   0.782   7.335 -4.3336 -0.1692  1.8777
 4526SOL    HW225041   1.351   0.865   7.444  1.6125  1.2915 -1.1500
 4527SOL     OW25042   1.645   1.948   4.602 -0.2834 -0.1938  0.5039
 4527SOL    HW125043   1.587   1.969   4.529  1.6574 -2.3644 -1.6936
 4527SOL    HW225044   1.721   1.999   4.571 -0.7386 -0.4655 -1.0638
 4528SOL     OW25045   0.010   1.857   3.538  0.1708 -0.2046 -0.2318
 4528SOL    HW125046   4.655   1.799   3.534  0.3737 -0.6235  2.0626
 4528SOL    HW225047   4.692   1.932   3.494 -1.8507 -0.5626  0.9943
 4529SOL     OW25048   4.413   1.419   1.710 -0.3447 -0.1506 -0.8520
 4529SOL    HW125049   4.420   1.499   1.658  1.9022 -1.0109 -1.8665
 4529SOL    HW225050   4.496   1.422   1.758 -0.9308  1.5260  0.0689
 4530SOL     OW25051   1.400   1.444  11.396  0.0141 -0.1785 -0.3742
 4530SOL    HW125052   1.386   1.376  11.331  3.9288 -1.2005 -0.1105
 4530SOL    HW225053   1.391   1.394  11.476  1.7818  0.1966  0.0491
 4531SOL     OW25054   0.260   1.072   4.750  0.0290 -0.0264 -0.2957
 4531SOL    HW125055   0.289   1.105   4.835 -0.8916 -1.4075  0.5564
 4531SOL    HW225056   0.313   0.992   4.751 -0.0272 -0.0356  1.4644
 4532SOL     OW25057   1.448   1.543   3.625 -0.3809  0.6612  0.1456
 4532SOL    HW125058   1.502   1.607   3.579  0.6075  1.2315  2.0949
 4532SOL    HW225059   1.482   1.463   3.584 -3.2749  0.1390 -1.2555
 4533SOL     OW25060   0.889   4.613   6.731  0.3255 -0.0969 -0.3925
 4533SOL    HW125061   0.897   4.517   6.724  1.3337 -0.0719  0.3732
 4533SOL    HW225062   0.815   4.626   6.790  0.2407 -0.9380 -0.3146
 4534SOL     OW25063   4.563   3.746  14.520 -0.6328 -0.5313  0.0493
 4534SOL    HW125064   4.533   3.822  14.471  2.4543  0.8516  0.2871
 4534SOL    HW225065   4.500   3.757  14.591 -2.4415  1.2007 -1.8231
 4535SOL     OW25066   4.336   0.847  10.519  0.4449  1.0734  0.0507
 4535SOL    HW125067   4.413   0.900  10.496  0.2304  1.2457 -0.2677
 4535SOL    HW225068   4.314   0.801  10.439 -1.0597  0.1398  0.9976
 4536SOL     OW25069   0.742   3.641  12.451 -0.3685  0.3735  0.1064
 4536SOL    HW125070   0.802   3.703  12.494  1.1173 -0.7212 -0.4186
 4536SOL    HW225071   0.704   3.595  12.526  0.4500 -0.4982 -0.0222
 4537SOL     OW25072   4.320   3.953  10.124 -0.1967  0.0678  0.3753
 4537SOL    HW125073   4.382   3.946  10.051 -1.1718 -0.0906 -0.4458
 4537SOL    HW225074   4.244   3.907  10.086  0.6273 -0.5043 -0.5933
 4538SOL     OW25075   2.286   4.305  13.023 -0.4726 -0.2484 -0.0973
 4538SOL    HW125076   2.307   4.288  12.931  0.4295 -0.1739  0.0947
 4538SOL    HW225077   2.203   4.256  13.022  0.1814 -1.3066 -2.5653
 4539SOL     OW25078   1.321   2.037  12.247 -0.2329  0.6755  0.4607
 4539SOL    HW125079   1.361   2.118  12.279 -1.5335  0.7919  1.7810
 4539SOL    HW225080   1.391   2.027  12.183  0.0381  1.1025  0.6931
 4540SOL     OW25081   2.143   4.328   2.225  0.2672 -0.2550 -0.5492
 4540SOL    HW125082   2.233   4.314   2.196  0.5585  2.3749 -0.9622
 4540SOL    HW225083   2.115   4.407   2.177 -0.7640  0.9072  1.9782
 4541SOL     OW25084   1.802   3.972   2.173  0.0788  0.2749  0.4875
 4541SOL    HW125085   1.809   4.067   2.182 -0.4698  0.5331 -1.7937
 4541SOL    HW225086   1.856   3.936   2.243  1.0609 -0.2591 -0.5327
 4542SOL     OW25087   1.584   3.526  15.293  0.3120 -0.5720 -0.5417
 4542SOL    HW125088   1.536   3.578  15.228 -1.5579 -0.1817  1.1626
 4542SOL    HW225089   1.635   3.605  15.314 -2.5675  1.1036  0.1746
 4543SOL     OW25090   0.904   4.260   2.996 -0.7739  0.2040 -0.6616
 4543SOL    HW125091   0.941   4.245   2.910 -1.6959 -1.2849 -0.7953
 4543SOL    HW225092   0.911   4.168   3.021 -0.8465  0.1572 -0.8120
 4544SOL     OW25093   4.109   4.487   5.644  0.6172  0.3889 -0.4285
 4544SOL    HW125094   4.033   4.444   5.604 -0.6394 -0.3465  2.7158
 4544SOL    HW225095   4.160   4.406   5.657  0.2763 -0.0428 -1.8327
 4545SOL     OW25096   2.759   4.168   9.411 -0.0231  0.7649 -0.4847
 4545SOL    HW125097   2.762   4.092   9.470  0.3650 -0.2214 -1.7681
 4545SOL    HW225098   2.668   4.192   9.426  0.2932  1.0408  1.0336
 4546SOL     OW25099   3.159   3.741   2.998  0.6595 -0.1986 -0.2259
 4546SOL    HW125100   3.215   3.791   2.939  2.0584 -2.3172 -0.7089
 4546SOL    HW225101   3.224   3.720   3.066 -0.3500 -2.1225  0.1348
 4547SOL     OW25102   3.704   3.975   8.225 -0.3523 -0.3362  0.5269
 4547SOL    HW125103   3.651   3.998   8.302 -0.5845  0.5803  0.0838
 4547SOL    HW225104   3.754   4.053   8.203  1.6364 -2.5225 -2.6074
 4548SOL     OW25105   1.634   0.993   5.698  0.1051  0.5392  0.1676
 4548SOL    HW125106   1.586   1.075   5.690  0.8436  0.8979 -0.6102
 4548SOL    HW225107   1.719   1.014   5.658  1.3332 -2.0448  1.4297
 4549SOL     OW25108   4.414   2.934   5.891  0.0760 -0.1030  0.5138
 4549SOL    HW125109   4.441   3.025   5.906 -3.0264  0.5827  2.0459
 4549SOL    HW225110   4.343   2.950   5.828 -0.5553 -1.8061  0.7916
 4550SOL     OW25111   1.479   4.525  14.972  0.0752 -0.6236 -0.3453
 4550SOL    HW125112   1.535   4.460  14.929  0.2338 -0.7790  0.0976
 4550SOL    HW225113   1.396   4.516  14.926 -0.4848  0.1287  0.5171
 4551SOL     OW25114   3.124   3.183   4.938 -0.5432  0.4802  0.7465
 4551SOL    HW125115   3.097   3.131   4.863 -0.7125  0.4469  0.8320
 4551SOL    HW225116   3.166   3.248   4.881  0.4850 -0.3636  0.5379
 4552SOL     OW25117   2.067   3.034   6.673 -0.0006  0.0892 -0.1059
 4552SOL    HW125118   2.107   3.005   6.755  1.7904 -1.7476 -1.6264
 4552SOL    HW225119   2.025   3.118   6.691  1.8527  0.9928 -0.0127
 4553SOL     OW25120   3.416   2.626  13.080  0.3299 -0.7354 -0.1074
 4553SOL    HW125121   3.462   2.702  13.115 -0.3203 -0.7046  0.6754
 4553SOL    HW225122   3.479   2.581  13.024  1.6194 -0.0874  0.8450
 4554SOL     OW25123   0.404   1.612   0.496  0.0593 -0.0424  0.1864
 4554SOL    HW125124   0.443   1.540   0.446  0.7332 -0.4279  1.2722
 4554SOL    HW225125   0.328   1.566   0.532 -0.1390  1.7308  2.0038
 4555SOL     OW25126   2.330   4.663  10.266 -0.5135 -0.0434  0.1085
 4555SOL    HW125127   2.326   4.584  10.320  2.4328 -1.5531 -1.8693
 4555SOL    HW225128   2.247   4.700  10.295 -2.4679 -1.4014 -3.7976
 4556SOL     OW25129   0.620   3.676   0.523  0.3087 -0.0369  0.1039
 4556SOL    HW125130   0.665   3.760   0.517  0.5411 -0.0288  1.7916
 4556SOL    HW225131   0.541   3.701   0.571 -0.9333 -0.7515 -1.5798
 4557SOL     OW25132   4.101   0.102   6.071  0.3459 -0.3706 -0.0769
 4557SOL    HW125133   4.061   0.045   6.006 -0.7220 -0.0055  0.2507
 4557SOL    HW225134   4.052   0.181   6.049  0.6344 -0.0283  0.4942
 4558SOL     OW25135   2.995   1.643   2.773  0.3687 -0.4255  0.1484
 4558SOL    HW125136   3.004   1.562   2.821 -3.2344 -0.6608  0.4574
 4558SOL    HW225137   3.031   1.711   2.829 -0.5557 -0.1942  0.4695
 4559SOL     OW25138   1.859   3.357  15.010 -0.8468  0.4269 -0.3309
 4559SOL    HW125139   1.902   3.387  14.930  1.4494 -1.4162  0.2213
 4559SOL    HW225140   1.847   3.263  14.998  0.3659  0.3937 -1.2960
 4560SOL     OW25141   3.280   1.037   7.545 -0.2664  0.3023  0.1680
 4560SOL    HW125142   3.213   1.081   7.598  0.1628 -0.0652  1.0247
 4560SOL    HW225143   3.351   1.100   7.539  0.4996 -0.6203 -0.4939
 4561SOL     OW25144   0.456   2.392   9.108 -0.6778  0.7234 -0.3260
 4561SOL    HW125145   0.533   2.446   9.129 -1.1229 -0.2726  3.7880
 4561SOL    HW225146   0.460   2.337   9.186  0.0043  0.2282 -0.7065
 4562SOL     OW25147   2.217   1.360   2.355  0.1748  0.2744  0.6247
 4562SOL    HW125148   2.298   1.404   2.329  1.5848 -1.2934  2.4487
 4562SOL    HW225149   2.246   1.310   2.431  1.8136 -0.0645 -0.2260
 4563SOL     OW25150   3.958   3.873   7.364  0.2860  0.1807  0.1583
 4563SOL    HW125151   3.917   3.959   7.349 -0.3054  0.0236  0.8375
 4563SOL    HW225152   4.042   3.902   7.399 -0.4356 -0.8034  2.7454
 4564SOL     OW25153   1.980   4.592   8.402 -0.4892  0.6311 -0.6697
 4564SOL    HW125154   1.967   4.533   8.476 -1.3243  0.3247 -1.0645
 4564SOL    HW225155   2.075   4.601   8.408 -0.5807 -0.9344  3.0380
 4565SOL     OW25156   1.422   3.216   2.414 -0.1634  0.0387  0.2759
 4565SOL    HW125157   1.500   3.168   2.385 -0.1238  0.0963  0.2888
 4565SOL    HW225158   1.361   3.187   2.345  0.8331  0.7929 -0.9317
 4566SOL     OW25159   4.220   0.566  12.573  0.6167 -0.0864  0.4094
 4566SOL    HW125160   4.163   0.490  12.575  0.4401  0.0686  1.3043
 4566SOL    HW225161   4.302   0.530  12.540 -0.8356 -1.8420 -1.2667
 4567SOL     OW25162   1.834   0.720   3.879  0.7591  0.2872  0.9150
 4567SOL    HW125163   1.744   0.689   3.887  0.2307  1.5770  0.0117
 4567SOL    HW225164   1.854   0.754   3.966 -1.7302  2.5328  0.6267
 4568SOL     OW25165   1.499   3.967   5.051 -0.6548  0.4104  0.0540
 4568SOL    HW125166   1.455   3.882   5.046  0.9341 -0.3452 -0.7744
 4568SOL    HW225167   1.424   4.026   5.040  0.1555  0.9673 -2.4162
 4569SOL     OW25168   3.436   0.497   4.223  0.4104  0.2902 -0.0684
 4569SOL    HW125169   3.414   0.577   4.176 -2.7938  1.3514  3.2593
 4569SOL    HW225170   3.525   0.488   4.190  0.4224 -1.0020  0.3201
 4570SOL     OW25171   4.642   0.390   4.782  0.3453  0.5107 -0.3370
 4570SOL    HW125172   4.675   0.377   4.693  0.7468  1.3077 -0.3014
 4570SOL    HW225173   4.549   0.409   4.764  0.8785  1.2273 -2.3491
 4571SOL     OW25174   0.770   0.937   6.816  0.6624  0.4473  0.2244
 4571SOL    HW125175   0.854   0.982   6.825  1.5335 -1.3501  1.1285
 4571SOL    HW225176   0.728   0.996   6.754 -0.7372 -0.3002  0.4722
 4572SOL     OW25177   2.060   0.152   6.315 -0.3400 -0.4733 -0.2686
 4572SOL    HW125178   2.108   0.166   6.233 -2.1307  1.9498 -0.8983
 4572SOL    HW225179   1.979   0.127   6.272 -0.8187 -0.5879  0.7103
 4573SOL     OW25180   1.752   2.637   4.861  0.1166 -0.2869  0.4156
 4573SOL    HW125181   1.759   2.545   4.886 -0.5598  0.1690  2.2464
 4573SOL    HW225182   1.658   2.655   4.864  0.3271  0.6608  1.1775
 4574SOL     OW25183   2.433   1.194   1.730 -0.9652  0.1648  0.0188
 4574SOL    HW125184   2.342   1.186   1.702 -0.5619 -2.1052 -0.6478
 4574SOL    HW225185   2.414   1.265   1.792 -0.3898  0.6916 -0.3995
 4575SOL     OW25186   2.055   0.588  15.507 -0.3645 -0.3331  0.4969
 4575SOL    HW125187   2.094   0.572  15.422  2.4262  0.8875  1.5402
 4575SOL    HW225188   1.997   0.663  15.490  0.4719  0.4148  0.9295
 4576SOL     OW25189   0.079   2.024   5.170  0.0244 -0.0643 -0.0040
 4576SOL    HW125190   0.041   2.111   5.160 -0.6392 -0.8425 -4.2003
 4576SOL    HW225191   0.009   1.986   5.223  0.3036 -0.5201  0.0345
 4577SOL     OW25192   4.503   2.832  15.058 -0.4122 -0.3810  0.3825
 4577SOL    HW125193   4.559   2.908  15.072  0.5005 -0.9438 -0.2425
 4577SOL    HW225194   4.564   2.762  15.080  1.4971  0.3492 -2.6341
 4578SOL     OW25195   3.750   3.381   5.482 -0.0074  0.0943  0.2096
 4578SOL    HW125196   3.769   3.474   5.481  0.7525 -0.0504  0.4119
 4578SOL    HW225197   3.716   3.362   5.570 -0.6595  1.3054  0.2015
 4579SOL     OW25198   0.238   1.119  16.496 -0.3844  0.5305  0.5776
 4579SOL    HW125199   0.231   1.113  16.400 -2.5174 -1.7353  0.8779
 4579SOL    HW225200   0.278   1.206  16.498 -0.9139  0.7635  1.0312
 4580SOL     OW25201   1.226   4.414   4.447 -0.1849 -0.2310  0.3880
 4580SOL    HW125202   1.153   4.372   4.492 -0.6320 -0.0518 -0.1591
 4580SOL    HW225203   1.185   4.485   4.398 -0.4800 -1.7555 -1.5821
 4581SOL     OW25204   3.976   0.548   0.568  0.2913  0.2085  0.3528
 4581SOL    HW125205   4.022   0.582   0.644 -0.6556 -0.9814  1.4507
 4581SOL    HW225206   3.936   0.631   0.541 -4.3020 -1.3494  2.4187
 4582SOL     OW25207   1.722   0.871   6.104 -0.3972  0.3254  0.1102
 4582SOL    HW125208   1.681   0.955   6.128 -1.9442 -0.7572  1.3116
 4582SOL    HW225209   1.679   0.836   6.026  1.1957 -0.4974 -0.3935
 4583SOL     OW25210   4.715   0.614   4.254 -0.0365  0.0610 -0.1147
 4583SOL    HW125211   0.051   0.688   4.236  1.5745 -1.3255 -0.5971
 4583SOL    HW225212   4.628   0.649   4.269 -0.1935  0.4050 -1.8706
 4584SOL     OW25213   3.382   3.674  16.203  0.2467 -0.3369  0.4743
 4584SOL    HW125214   3.436   3.735  16.254  1.8545 -0.3563 -1.2318
 4584SOL    HW225215   3.307   3.664  16.262 -0.5643 -1.6128 -0.7593
 4585SOL     OW25216   3.071   0.990   9.007  0.3025 -0.5003 -0.1021
 4585SOL    HW125217   3.078   0.902   9.042  0.9244 -1.2877 -2.1990
 4585SOL    HW225218   3.116   1.044   9.073  0.8125  0.3970 -1.1633
 4586SOL     OW25219   2.452   3.866   7.422 -0.0445 -0.1710 -0.3326
 4586SOL    HW125220   2.440   3.849   7.329 -0.4719 -1.1444 -0.0963
 4586SOL    HW225221   2.407   3.951   7.422  1.8735  0.8458 -0.6520
 4587SOL     OW25222   3.295   3.087   8.101  0.6763 -0.2826  0.0167
 4587SOL    HW125223   3.330   3.155   8.042 -0.1327 -0.4016 -0.6007
 4587SOL    HW225224   3.210   3.124   8.125  0.6286 -0.7480  0.5566
 4588SOL     OW25225   0.623   1.566   7.410 -0.3905 -0.1495  0.2843
 4588SOL    HW125226   0.635   1.661   7.404 -1.0268  0.0167  1.7509
 4588SOL    HW225227   0.548   1.561   7.469 -1.5552 -0.3682 -1.2177
 4589SOL     OW25228   0.837   0.637  13.843 -0.5115 -0.1427 -0.2985
 4589SOL    HW125229   0.779   0.713  13.851  0.0954  0.3306 -0.3990
 4589SOL    HW225230   0.892   0.651  13.920 -1.1478 -2.2952  0.5584
 4590SOL     OW25231   1.386   2.513   6.316 -0.8797  0.7793  0.0326
 4590SOL    HW125232   1.371   2.520   6.222 -0.0679 -0.9041 -0.2281
 4590SOL    HW225233   1.339   2.592   6.344 -0.7674  1.3703 -1.4857
 4591SOL     OW25234   1.568   2.915   8.582  0.0364 -0.6292 -0.4463
 4591SOL    HW125235   1.645   2.899   8.637  1.3552 -2.9444 -2.9799
 4591SOL    HW225236   1.570   2.826   8.548 -0.9694 -1.0354  0.5744
 4592SOL     OW25237   4.046   4.449   2.774  0.7639 -0.3548  0.0477
 4592SOL    HW125238   4.076   4.382   2.836 -0.8685 -0.4331  0.7405
 4592SOL    HW225239   4.023   4.388   2.705  0.1811 -0.1015  0.0174
 4593SOL     OW25240   1.081   3.976   6.874 -0.4303  0.0844  0.1511
 4593SOL    HW125241   1.041   3.942   6.954 -1.6020 -2.5373 -1.5660
 4593SOL    HW225242   1.111   4.062   6.902  0.1669  0.0542 -0.4046
 4594SOL     OW25243   3.766   1.962   7.756  0.0888  0.0131 -0.4072
 4594SOL    HW125244   3.678   2.000   7.749  0.2460  0.2761 -0.9702
 4594SOL    HW225245   3.756   1.882   7.705  0.0434 -0.6805  0.6930
 4595SOL     OW25246   1.655   0.569   4.054  0.4297 -0.1911 -0.5790
 4595SOL    HW125247   1.691   0.485   4.082 -0.8652 -0.2681  0.8259
 4595SOL    HW225248   1.691   0.616   4.130  1.5194 -2.8122  0.5101
 4596SOL     OW25249   3.150   4.356   5.283 -0.1511  0.1743  0.5412
 4596SOL    HW125250   3.220   4.307   5.326  0.9249  0.6184 -0.7111
 4596SOL    HW225251   3.172   4.448   5.296  0.0328 -0.3090  3.7752
 4597SOL     OW25252   3.864   3.662   6.465 -0.6440 -0.5115 -0.3117
 4597SOL    HW125253   3.782   3.701   6.493  0.4597  1.9143 -0.4636
 4597SOL    HW225254   3.905   3.690   6.547  1.3449 -0.5236 -1.2788
 4598SOL     OW25255   1.682   3.787   3.746 -0.2081  0.4404 -0.1873
 4598SOL    HW125256   1.602   3.765   3.700 -0.8326  0.5003  0.8692
 4598SOL    HW225257   1.731   3.822   3.671  1.6420 -1.3088  0.1984
 4599SOL     OW25258   3.655   2.046  11.883 -0.3081 -0.0150 -0.5853
 4599SOL    HW125259   3.718   2.111  11.851  1.4676 -1.3841  0.1314
 4599SOL    HW225260   3.616   2.041  11.796 -2.1544  0.1569  0.2208
 4600SOL     OW25261   2.326   2.330   8.429  0.0786 -0.3891  0.6776
 4600SOL    HW125262   2.312   2.267   8.358 -0.3128  0.3076  0.1335
 4600SOL    HW225263   2.422   2.337   8.427  0.1503 -1.1519  1.7239
 4601SOL     OW25264   2.871   3.499   5.836  0.0023 -0.5845 -0.0516
 4601SOL    HW125265   2.808   3.544   5.893  0.1562  0.1664 -0.4653
 4601SOL    HW225266   2.940   3.566   5.833 -1.6205  1.0942 -0.2534
 4602SOL     OW25267   0.050   1.265  14.096  0.2800  0.3180 -0.1058
 4602SOL    HW125268   4.687   1.300  14.123  1.1607  0.8664  2.0130
 4602SOL    HW225269   0.096   1.338  14.139  1.8100 -0.7016 -0.0128
 4603SOL     OW25270   3.910   0.328   5.992  0.6970 -0.0714 -0.5476
 4603SOL    HW125271   3.862   0.246   5.978 -0.8432  0.3792  2.1805
 4603SOL    HW225272   3.843   0.392   5.967 -0.5396 -1.0106  0.3587
 4604SOL     OW25273   1.465   3.388   7.093  0.0329  0.8837 -0.2412
 4604SOL    HW125274   1.446   3.398   7.186  2.2324 -1.8746  0.4793
 4604SOL    HW225275   1.383   3.356   7.056  1.2027 -2.1539 -0.2349
 4605SOL     OW25276   4.105   0.927   8.341  0.5128 -0.3929  1.4046
 4605SOL    HW125277   4.133   0.844   8.303  1.6131  1.5620 -2.0076
 4605SOL    HW225278   4.024   0.908   8.387  1.0973 -1.2490  2.0914
 4606SOL     OW25279   0.416   0.812   5.962 -0.1496  0.2342 -1.0240
 4606SOL    HW125280   0.418   0.718   5.983  2.5529  0.2309 -1.2638
 4606SOL    HW225281   0.496   0.807   5.910 -0.0254 -1.0849 -0.7223
 4607SOL     OW25282   2.877   4.672   0.098 -0.3446 -0.0638  0.2183
 4607SOL    HW125283   2.897   0.043   0.111  0.8149 -0.4889  1.4149
 4607SOL    HW225284   2.953   4.642   0.050  0.7446  0.8299  1.3889
 4608SOL     OW25285   3.450   2.443  10.525 -0.2793  0.0506 -0.4167
 4608SOL    HW125286   3.437   2.403  10.611  1.0990  0.8126  0.1460
 4608SOL    HW225287   3.544   2.436  10.510 -0.5628 -0.2518 -2.0673
 4609SOL     OW25288   0.921   3.259  11.816 -0.6407 -0.1764 -0.3134
 4609SOL    HW125289   0.948   3.191  11.878 -1.1523 -0.6567 -0.6156
 4609SOL    HW225290   0.854   3.308  11.865  0.1713 -0.7628  1.3897
 4610SOL     OW25291   1.258   2.792   3.630 -0.0983 -0.0455 -0.1881
 4610SOL    HW125292   1.184   2.837   3.672  1.4374  0.9467  1.4974
 4610SOL    HW225293   1.224   2.779   3.542  1.4050 -0.7580 -0.6562
 4611SOL     OW25294   0.861   2.957   9.552  0.3111  0.4071  0.1700
 4611SOL    HW125295   0.876   2.992   9.464 -0.4507  0.9592  0.2533
 4611SOL    HW225296   0.933   2.894   9.556  0.9430  1.1354  0.1357
 4612SOL     OW25297   4.301   1.134   8.229 -0.2255  0.0715  0.4165
 4612SOL    HW125298   4.230   1.189   8.262  0.3827  0.6640  0.7263
 4612SOL    HW225299   4.364   1.148   8.300  0.6698  1.5978 -0.6650
 4613SOL     OW25300   3.438   3.275   6.783  0.7677 -0.4348  0.3491
 4613SOL    HW125301   3.457   3.244   6.694  2.4089  0.2285  0.4709
 4613SOL    HW225302   3.384   3.350   6.761  1.3546  0.0534  0.5840
 4614SOL     OW25303   0.662   3.579   6.359  0.0009 -0.4116  0.1311
 4614SOL    HW125304   0.567   3.589   6.360  0.3568  2.7435  0.2795
 4614SOL    HW225305   0.672   3.636   6.283  0.4005 -0.9710 -0.2373
 4615SOL     OW25306   3.908   4.162   8.101 -0.2621 -0.2862 -0.4863
 4615SOL    HW125307   3.852   4.185   8.026 -0.7490 -0.5163 -0.1926
 4615SOL    HW225308   3.888   4.235   8.159 -0.2794 -0.4959 -0.2269
 4616SOL     OW25309   3.618   2.823   6.579 -0.3497  0.5299  0.5093
 4616SOL    HW125310   3.665   2.739   6.580 -1.1763  0.0585 -0.2781
 4616SOL    HW225311   3.683   2.872   6.528 -0.1156  2.3433  2.5576
 4617SOL     OW25312   3.310   2.145   7.529 -0.2992  0.7624 -0.2980
 4617SOL    HW125313   3.254   2.186   7.595  0.6554  0.7104  0.5478
 4617SOL    HW225314   3.394   2.164   7.572  0.0397  0.5518 -0.8615
 4618SOL     OW25315   2.728   3.169   4.280 -0.5917 -0.3411  0.4556
 4618SOL    HW125316   2.786   3.198   4.209 -1.1460 -0.9519 -0.2447
 4618SOL    HW225317   2.778   3.174   4.361 -0.9753  1.1577  0.6000
 4619SOL     OW25318   3.700   1.124   3.952  0.6229  0.5901 -0.1746
 4619SOL    HW125319   3.699   1.154   3.861  3.0263 -1.1753 -0.7795
 4619SOL    HW225320   3.792   1.133   3.979  0.9993  2.8379 -2.1373
 4620SOL     OW25321   1.631   1.036   9.147 -0.4557  0.7483  0.2002
 4620SOL    HW125322   1.636   0.945   9.176 -0.2756  0.6694 -0.0753
 4620SOL    HW225323   1.601   1.079   9.227 -1.6845  1.0219 -0.4113
 4621SOL     OW25324   4.042   0.650  10.510 -0.1063 -0.0591  0.9731
 4621SOL    HW125325   3.981   0.633  10.582 -1.1959 -0.5017 -0.0552
 4621SOL    HW225326   4.081   0.563  10.497  0.2245  0.4824 -1.7820
 4622SOL     OW25327   3.555   1.921   8.833 -0.0232 -0.3190 -0.1641
 4622SOL    HW125328   3.506   1.848   8.871 -1.1467  0.7836  0.5298
 4622SOL    HW225329   3.618   1.881   8.774 -0.6838  0.0023 -1.0835
 4623SOL     OW25330   0.590   0.162   4.411 -0.6131 -0.1767  0.9180
 4623SOL    HW125331   0.609   0.252   4.437 -0.1398 -0.7537  2.6099
 4623SOL    HW225332   0.498   0.167   4.388  0.0653  2.9389 -1.0694
 4624SOL     OW25333   3.572   3.053   7.841 -0.1931 -0.4198 -0.1370
 4624SOL    HW125334   3.562   2.989   7.912  0.5917  1.8562  2.0410
 4624SOL    HW225335   3.663   3.082   7.844  0.0356 -1.1529 -0.0508
 4625SOL     OW25336   3.698   3.446   6.659 -0.6157  0.1059 -0.3833
 4625SOL    HW125337   3.621   3.424   6.606 -1.2095 -3.8628  2.1943
 4625SOL    HW225338   3.682   3.539   6.677 -2.1357 -0.0535 -0.9056
 4626SOL     OW25339   3.920   0.973   5.404  0.1470 -0.2211 -0.4804
 4626SOL    HW125340   3.974   0.990   5.327 -0.2341  0.5565 -0.5812
 4626SOL    HW225341   3.992   0.949   5.463 -0.1228  1.5838  0.6027
 4627SOL     OW25342   3.830   3.255  15.886  0.5840 -0.7078  0.4487
 4627SOL    HW125343   3.789   3.331  15.926  0.6950 -0.2398 -0.3260
 4627SOL    HW225344   3.767   3.183  15.898 -0.0824  0.1305  1.9421
 4628SOL     OW25345   1.628   3.471  10.849  0.0087  0.0610  0.2927
 4628SOL    HW125346   1.652   3.513  10.932 -0.9562  0.0866  0.5563
 4628SOL    HW225347   1.537   3.500  10.840  0.0721 -0.0350 -0.6332
 4629SOL     OW25348   4.023   2.816  14.344 -0.0620  0.5316 -0.0092
 4629SOL    HW125349   4.030   2.882  14.413 -0.5368  0.0418  0.5171
 4629SOL    HW225350   4.116   2.796  14.339  0.1557  1.5972 -0.1230
 4630SOL     OW25351   3.962   4.333   7.279  0.2102  0.2348 -0.2583
 4630SOL    HW125352   3.958   4.380   7.363  2.5583 -1.5922  0.8605
 4630SOL    HW225353   3.919   4.389   7.214 -3.3417  0.9480  2.7065
 4631SOL     OW25354   2.455   1.528   2.948 -0.8687 -0.3895 -0.6357
 4631SOL    HW125355   2.541   1.504   2.984 -1.4470  1.2215  1.7921
 4631SOL    HW225356   2.477   1.620   2.931 -0.8235 -0.5375 -1.3465
 4632SOL     OW25357   1.228   1.887   3.803  0.6967  0.1660 -0.2518
 4632SOL    HW125358   1.202   1.979   3.795  0.7513  0.1115 -1.0742
 4632SOL    HW225359   1.301   1.905   3.863 -1.0055 -1.8430  2.4032
 4633SOL     OW25360   2.321   4.396   4.713 -0.2413  0.6077  0.1159
 4633SOL    HW125361   2.249   4.436   4.762  0.5924  2.6225 -0.3104
 4633SOL    HW225362   2.348   4.469   4.658  1.6457 -1.4844 -1.7397
 4634SOL     OW25363   0.153   2.185   4.545 -0.5652 -0.3155 -0.4129
 4634SOL    HW125364   0.110   2.184   4.630  0.6907  1.5469  0.2390
 4634SOL    HW225365   0.085   2.217   4.486 -0.8056 -0.3635 -0.1616
 4635SOL     OW25366   3.360   3.870   0.571  0.8117 -0.2252 -0.2822
 4635SOL    HW125367   3.358   3.930   0.645  3.5461 -0.5740  0.0663
 4635SOL    HW225368   3.407   3.802   0.619  0.0182 -0.9314 -0.5086
 4636SOL     OW25369   3.966   0.223   0.804  0.1991 -0.0284 -0.1407
 4636SOL    HW125370   3.974   0.306   0.851 -0.9727  0.4759 -0.8197
 4636SOL    HW225371   3.927   0.159   0.863  0.8151 -0.3069 -0.0324
 4637SOL     OW25372   2.900   3.458  10.256 -0.6267  0.2369  0.0243
 4637SOL    HW125373   2.857   3.520  10.197 -1.5153 -0.3320  0.0746
 4637SOL    HW225374   2.839   3.385  10.264  0.2149 -0.3735  0.8798
 4638SOL     OW25375   3.528   4.525   8.402  0.4860  0.2907  0.1246
 4638SOL    HW125376   3.507   4.454   8.463 -0.4943  0.6057  0.1535
 4638SOL    HW225377   3.595   4.485   8.347  1.3401  2.5382 -0.4602
 4639SOL     OW25378   2.728   3.862   7.953 -0.2207 -0.7542  0.2462
 4639SOL    HW125379   2.640   3.881   7.919 -0.3123  0.0605  0.9233
 4639SOL    HW225380   2.711   3.805   8.028 -1.3224 -0.0209  0.5729
 4640SOL     OW25381   0.591   3.413  15.604  0.3669 -0.2128  0.2177
 4640SOL    HW125382   0.504   3.434  15.568 -0.6605 -1.4422  1.9754
 4640SOL    HW225383   0.577   3.335  15.658 -2.1150 -1.0585 -1.6708
 4641SOL     OW25384   1.994   0.955   2.333  0.3047  0.0103  0.0166
 4641SOL    HW125385   1.904   0.935   2.358 -0.4907  2.9395 -0.4501
 4641SOL    HW225386   2.030   0.987   2.416 -3.7870  2.9198  0.6533
 4642SOL     OW25387   3.756   2.631  10.499  0.3516 -0.4325  0.2360
 4642SOL    HW125388   3.772   2.722  10.525 -2.8307  0.6180 -1.5738
 4642SOL    HW225389   3.832   2.610  10.445  1.1841  0.1264  1.1820
 4643SOL     OW25390   2.956   4.457  15.819  0.3038  0.2364  0.1390
 4643SOL    HW125391   2.942   4.505  15.901  1.3400  0.6261  0.0913
 4643SOL    HW225392   2.946   4.365  15.841  0.1226 -0.2744 -2.0721
 4644SOL     OW25393   4.218   4.187   3.030 -0.3343 -0.3961  0.1585
 4644SOL    HW125394   4.289   4.149   2.978  0.3268 -0.3738  1.0303
 4644SOL    HW225395   4.250   4.158   3.115 -0.8842  0.5131  0.6825
 4645SOL     OW25396   0.093   1.967  13.153 -0.4534  0.3034 -0.1585
 4645SOL    HW125397   0.041   1.917  13.215  0.1657 -0.5841 -0.3649
 4645SOL    HW225398   0.163   1.906  13.131  0.0742  1.2496 -1.1373
 4646SOL     OW25399   3.429   1.089  11.247 -0.0962  0.0330 -0.2290
 4646SOL    HW125400   3.438   0.994  11.238 -0.9824 -0.1504  0.7716
 4646SOL    HW225401   3.497   1.102  11.313 -0.1636  2.2818 -0.6181
 4647SOL     OW25402   0.644   0.589   2.432  0.1997 -0.7362 -0.7533
 4647SOL    HW125403   0.599   0.518   2.386 -1.4236 -0.0162 -0.2855
 4647SOL    HW225404   0.735   0.560   2.441 -0.2074 -1.2751  1.8384
 4648SOL     OW25405   1.736   3.094   0.259 -0.1111 -0.4058  0.0636
 4648SOL    HW125406   1.775   3.142   0.187 -1.0946 -1.0752 -0.9146
 4648SOL    HW225407   1.659   3.150   0.268 -0.6033 -0.9658 -0.6864
 4649SOL     OW25408   4.456   3.771   5.090 -0.3911 -1.0656 -0.5632
 4649SOL    HW125409   4.487   3.792   5.002 -0.5676 -0.1584 -0.4110
 4649SOL    HW225410   4.479   3.859   5.121  2.3536 -0.9364 -3.0457
 4650SOL     OW25411   2.752   3.073   7.404  0.0203 -0.3128 -0.1116
 4650SOL    HW125412   2.834   3.104   7.364 -0.4111 -1.4069 -1.8562
 4650SOL    HW225413   2.786   3.022   7.478 -0.5738 -0.4411  0.0724
 4651SOL     OW25414   1.553   3.057  17.663 -0.4423  0.4330 -0.3879
 4651SOL    HW125415   1.525   3.145  17.637  0.3405  0.7640 -0.0995
 4651SOL    HW225416   1.639   3.065  17.621  0.7954  0.9827  2.2886
 4652SOL     OW25417   3.892   2.015   2.503 -0.2736 -0.2985  0.2584
 4652SOL    HW125418   3.966   1.973   2.459 -0.5198 -0.2160 -0.2331
 4652SOL    HW225419   3.938   2.061   2.573 -0.0095 -0.7253  0.3657
 4653SOL     OW25420   3.332   4.589   7.322 -0.4161  0.2235 -0.0651
 4653SOL    HW125421   3.382   4.609   7.400  1.2380  1.7371 -1.5224
 4653SOL    HW225422   3.400   4.560   7.261 -0.6637 -1.5165  0.4825
 4654SOL     OW25423   2.862   1.245   0.241  0.5422  0.3707 -0.1341
 4654SOL    HW125424   2.924   1.176   0.216 -0.3709 -0.4907  0.0084
 4654SOL    HW225425   2.883   1.265   0.332  0.4078 -1.5390  0.2990
 4655SOL     OW25426   3.539   0.788   8.072 -0.7974  0.9527 -0.1401
 4655SOL    HW125427   3.561   0.721   8.006 -0.1587  0.7696  0.2585
 4655SOL    HW225428   3.624   0.815   8.107 -0.2149 -0.6782 -0.2619
 4656SOL     OW25429   3.495   4.034   8.442  0.4920  0.4279 -0.1357
 4656SOL    HW125430   3.500   3.949   8.486  1.7268 -0.0187 -1.1526
 4656SOL    HW225431   3.432   4.026   8.371  1.3784  0.0794 -0.8637
 4657SOL     OW25432   2.285   2.530   3.765  0.1874  0.1220  0.4675
 4657SOL    HW125433   2.251   2.544   3.853 -0.1652  1.8047  0.0640
 4657SOL    HW225434   2.375   2.500   3.779  0.3014  0.3198  0.1606
 4658SOL     OW25435   2.010   2.677   6.802  0.4739 -0.5084  0.2081
 4658SOL    HW125436   2.072   2.629   6.746  1.5920  0.7647  0.3343
 4658SOL    HW225437   1.952   2.604   6.823  1.1040 -1.0640  0.0353
 4659SOL     OW25438   2.163   2.309  11.509  0.4622  0.7903 -0.1524
 4659SOL    HW125439   2.198   2.231  11.465 -4.2628 -0.5503 -1.5135
 4659SOL    HW225440   2.146   2.370  11.437 -2.3684  0.7636  0.4830
 4660SOL     OW25441   2.171   0.414   6.645  0.3922 -0.1533  0.0080
 4660SOL    HW125442   2.201   0.324   6.656 -0.4545 -0.3604  0.5974
 4660SOL    HW225443   2.130   0.407   6.731 -1.5766 -1.7357 -1.0573
 4661SOL     OW25444   1.532   4.543   8.075  0.4810  0.2841  0.1840
 4661SOL    HW125445   1.534   4.453   8.106  0.0302 -0.2505 -1.3418
 4661SOL    HW225446   1.622   4.556   8.045  0.8792 -3.0189  0.0402
 4662SOL     OW25447   0.563   3.603   3.625 -0.3719  0.4857 -0.2294
 4662SOL    HW125448   0.512   3.565   3.553 -0.1395 -1.0880  0.4355
 4662SOL    HW225449   0.643   3.629   3.579 -0.3115  0.8133  0.0620
 4663SOL     OW25450   3.968   2.036   0.093 -0.3652  0.2332  0.2886
 4663SOL    HW125451   3.902   2.093   0.054 -0.5560 -0.9053 -1.0350
 4663SOL    HW225452   4.008   2.098   0.154  0.5126  0.8200 -0.8903
 4664SOL     OW25453   2.488   2.916   2.954 -0.2270 -0.1978  0.4565
 4664SOL    HW125454   2.415   2.904   3.015 -0.9360  1.2438 -0.1056
 4664SOL    HW225455   2.537   2.834   2.950  0.8529  0.4326  0.7815
 4665SOL     OW25456   2.051   0.365   6.869  0.3261  0.1891 -0.4401
 4665SOL    HW125457   1.992   0.398   6.937 -1.2953  3.0896 -3.2457
 4665SOL    HW225458   2.096   0.295   6.916  0.4600  0.2184 -0.5225
 4666SOL     OW25459   1.971   2.156  13.090  0.1971  0.1241 -0.4126
 4666SOL    HW125460   1.928   2.178  13.172  0.4767  4.9132 -1.5669
 4666SOL    HW225461   2.062   2.144  13.117 -1.6164 -3.3176  4.1494
 4667SOL     OW25462   3.943   0.777   7.260 -0.1380  0.0134 -0.3594
 4667SOL    HW125463   4.006   0.749   7.327  0.9053 -2.2284 -2.2595
 4667SOL    HW225464   3.998   0.761   7.184 -0.3496  0.5028 -0.6129
 4668SOL     OW25465   3.357   0.515   6.924  0.0819 -0.2153  0.1173
 4668SOL    HW125466   3.436   0.462   6.937 -0.0299 -0.2225  0.7574
 4668SOL    HW225467   3.398   0.594   6.958 -0.9345  0.6641 -0.7360
 4669SOL     OW25468   1.182   1.324   7.566  0.0125  0.2444  0.3281
 4669SOL    HW125469   1.219   1.408   7.593  1.4739 -0.8235  1.7043
 4669SOL    HW225470   1.108   1.350   7.511 -0.5812  0.4877  1.2513
 4670SOL     OW25471   4.182   4.581   3.766  0.2448 -0.0055 -0.1468
 4670SOL    HW125472   4.210   4.581   3.857  0.8137  0.5110 -0.3279
 4670SOL    HW225473   4.223   4.502   3.731  0.5097  0.2452 -0.3936
 4671SOL     OW25474   3.590   1.852   1.630 -0.2848  0.0533 -0.0687
 4671SOL    HW125475   3.628   1.867   1.544  0.8259 -2.6539 -0.0588
 4671SOL    HW225476   3.506   1.898   1.637  0.6909  1.5762  1.5110
 4672SOL     OW25477   2.531   3.059   4.128 -0.8444 -0.3240  0.2825
 4672SOL    HW125478   2.592   3.098   4.190 -2.7057  0.4323  1.6348
 4672SOL    HW225479   2.503   3.145   4.097 -0.5729 -0.8494 -1.4103
 4673SOL     OW25480   3.720   1.700  13.948  0.4843  0.4152  0.2354
 4673SOL    HW125481   3.762   1.786  13.948  1.8660 -0.2670  2.0561
 4673SOL    HW225482   3.687   1.686  13.859 -0.7065  2.5779  0.3420
 4674SOL     OW25483   2.521   4.380   7.187 -0.4586  0.3607 -0.5206
 4674SOL    HW125484   2.513   4.440   7.113 -1.8052  1.1401  0.2541
 4674SOL    HW225485   2.504   4.290   7.159  2.4801  0.1498 -1.6573
 4675SOL     OW25486   1.121   0.036   8.191 -0.1849  0.0236  0.1867
 4675SOL    HW125487   1.213   0.049   8.166 -0.0886 -0.8449  0.0750
 4675SOL    HW225488   1.102   4.672   8.153  0.9926 -0.5538  0.8910
 4676SOL     OW25489   4.446   2.892   0.496  0.2268  0.2579 -0.0161
 4676SOL    HW125490   4.530   2.853   0.471 -0.1579  0.1742 -1.1575
 4676SOL    HW225491   4.448   2.866   0.588  0.2656 -0.5862 -0.2608
 4677SOL     OW25492   2.598   0.300   5.324 -0.0927 -0.1915  0.6619
 4677SOL    HW125493   2.572   0.357   5.396 -0.6765 -2.5111  2.2948
 4677SOL    HW225494   2.585   0.364   5.254 -0.4353 -1.3067 -0.2981
 4678SOL     OW25495   3.800   0.863   0.842  0.0040 -0.4835  0.3691
 4678SOL    HW125496   3.710   0.842   0.868 -0.4387  1.6718  0.5594
 4678SOL    HW225497   3.805   0.955   0.868 -1.7822 -0.8002  1.8230
 4679SOL     OW25498   1.762   4.380   5.462  0.0350 -0.0210  0.0013
 4679SOL    HW125499   1.701   4.425   5.522  0.2733  0.8438 -0.4016
 4679SOL    HW225500   1.729   4.292   5.476 -1.4389  0.3653 -1.0750
 4680SOL     OW25501   4.138   0.012   1.857  0.3036 -0.3875  0.4439
 4680SOL    HW125502   4.194   0.017   1.779  1.2293 -0.3148  1.1088
 4680SOL    HW225503   4.109   4.643   1.862  0.7518 -0.4911  1.2613
 4681SOL     OW25504   1.584   2.260  15.252  0.3374 -0.2556  0.1785
 4681SOL    HW125505   1.557   2.228  15.338  1.5343 -0.5892  0.4340
 4681SOL    HW225506   1.551   2.350  15.251  2.6684  0.6414  2.0908
 4682SOL     OW25507   1.378   0.276   5.866 -0.1963 -1.1730  0.5360
 4682SOL    HW125508   1.380   0.277   5.771 -1.4399 -3.1395  0.4931
 4682SOL    HW225509   1.386   0.367   5.896  0.9224 -0.9054 -0.6041
 4683SOL     OW25510   1.754   1.759   4.307  0.0638 -0.1747  0.0546
 4683SOL    HW125511   1.762   1.813   4.229 -0.2049 -0.8390 -0.4275
 4683SOL    HW225512   1.660   1.757   4.321  0.1110  1.6504  0.6468
 4684SOL     OW25513   1.227   0.458   8.258  0.0375  0.2624  0.1315
 4684SOL    HW125514   1.192   0.432   8.343 -1.2757  1.0475 -0.1812
 4684SOL    HW225515   1.156   0.453   8.195 -0.4003 -2.1662  0.8453
 4685SOL     OW25516   1.142   3.181   8.300 -0.3110  0.4395  0.4658
 4685SOL    HW125517   1.083   3.149   8.231 -1.1701 -0.2810  1.5436
 4685SOL    HW225518   1.127   3.107   8.359 -0.7548 -1.0796 -1.5459
 4686SOL     OW25519   3.251   4.524   8.307  0.1104 -0.2301  0.3107
 4686SOL    HW125520   3.284   4.556   8.223 -1.7487 -0.0296 -0.3475
 4686SOL    HW225521   3.330   4.523   8.360  0.5893  2.0246 -0.3780
 4687SOL     OW25522   1.126   0.506   7.805 -0.4464  0.0307 -0.2801
 4687SOL    HW125523   1.033   0.500   7.784 -0.4956 -1.2830  0.3444
 4687SOL    HW225524   1.121   0.457   7.887 -1.1882 -1.2569 -1.1000
 4688SOL     OW25525   0.576   0.724   2.643  0.6210 -0.6274  0.3396
 4688SOL    HW125526   0.591   0.683   2.557 -2.6473  2.7960 -1.8849
 4688SOL    HW225527   0.651   0.781   2.657  2.2245 -2.6532 -0.0550
 4689SOL     OW25528   0.922   3.095   5.498 -0.3731 -0.1508  0.5696
 4689SOL    HW125529   0.862   3.155   5.453  0.4442 -0.4480 -0.9095
 4689SOL    HW225530   0.954   3.150   5.570 -0.0370 -2.1760  1.9528
 4690SOL     OW25531   0.016   4.484   5.504 -0.1022 -0.1067  0.6115
 4690SOL    HW125532   4.676   4.500   5.574 -0.1091  0.3305  0.5047
 4690SOL    HW225533   0.085   4.444   5.556  0.0163 -0.5897  0.0878
 4691SOL     OW25534   2.046   4.619   5.203  0.0041 -0.1313 -0.0500
 4691SOL    HW125535   2.090   4.704   5.204 -1.4052  0.5666  1.4557
 4691SOL    HW225536   1.955   4.647   5.204 -0.8075 -2.7792  2.0733
 4692SOL     OW25537   4.524   1.752   6.743 -0.0410 -0.7532  0.0355
 4692SOL    HW125538   4.453   1.740   6.806 -1.5676  1.1452 -1.2890
 4692SOL    HW225539   4.588   1.811   6.784  1.4033 -1.9237 -0.5501
 4693SOL     OW25540   3.584   1.570  16.965  0.0196  0.5409  0.1785
 4693SOL    HW125541   3.509   1.628  16.949  0.6370  1.1326 -0.5567
 4693SOL    HW225542   3.536   1.501  17.010  1.8280 -1.1925 -0.5443
 4694SOL     OW25543   1.629   3.228   9.034 -0.5553 -0.3332 -0.5466
 4694SOL    HW125544   1.668   3.306   8.997  2.5211 -1.6134  0.0419
 4694SOL    HW225545   1.653   3.228   9.126  0.6108 -1.0976 -0.8533
 4695SOL     OW25546   0.081   3.889   2.576  0.3725 -0.0489  0.0522
 4695SOL    HW125547   0.012   3.897   2.642 -0.2098 -2.3652 -0.2871
 4695SOL    HW225548   0.155   3.864   2.631 -0.5257 -1.3948  0.6519
 4696SOL     OW25549   2.565   3.703   3.286  0.2465 -0.1407 -0.1853
 4696SOL    HW125550   2.579   3.611   3.262 -1.3053 -0.6704  0.9397
 4696SOL    HW225551   2.493   3.694   3.349  0.4508  2.4471  0.3947
 4697SOL     OW25552   3.844   2.001  13.653 -0.0643 -0.0430 -0.3172
 4697SOL    HW125553   3.933   1.970  13.635  0.5871  1.0182  1.1112
 4697SOL    HW225554   3.824   1.982  13.745  0.3352  2.6039  0.3263
 4698SOL     OW25555   1.824   2.722   2.663  0.0483 -0.3017 -0.3196
 4698SOL    HW125556   1.915   2.721   2.634 -0.5887  1.6220 -2.3605
 4698SOL    HW225557   1.797   2.632   2.678  0.3851 -0.0439  1.8520
 4699SOL     OW25558   4.038   2.817   0.539  0.2061  0.0615 -0.4377
 4699SOL    HW125559   3.943   2.826   0.528 -0.0749 -2.0537  0.2917
 4699SOL    HW225560   4.081   2.850   0.460  1.1639  0.5787  0.2920
 4700SOL     OW25561   3.207   2.443   2.732 -0.4618 -0.3450 -0.5370
 4700SOL    HW125562   3.140   2.512   2.735 -0.3559 -0.2946  0.5883
 4700SOL    HW225563   3.236   2.460   2.643  0.7549 -1.2912 -0.3128
 4701SOL     OW25564   1.611   1.796   0.304 -0.5925  0.2482 -0.3232
 4701SOL    HW125565   1.520   1.792   0.276 -1.0100 -2.8189  1.5486
 4701SOL    HW225566   1.616   1.876   0.357  0.6200 -0.4260  0.5902
 4702SOL     OW25567   4.211   3.531   5.556 -0.2896  0.1885  0.2733
 4702SOL    HW125568   4.156   3.577   5.493  1.2898  3.3558  1.2019
 4702SOL    HW225569   4.284   3.593   5.562 -0.9928  0.9102  1.3411
 4703SOL     OW25570   2.038   2.995   3.295 -0.3888 -0.2793 -0.2833
 4703SOL    HW125571   2.029   3.087   3.271  0.9637 -0.4996 -1.6910
 4703SOL    HW225572   2.049   3.001   3.390  3.5029 -3.8779 -0.4525
 4704SOL     OW25573   3.107   2.536   6.003 -0.2476  0.0983  0.2316
 4704SOL    HW125574   3.056   2.518   6.082 -0.2654  0.6607  0.3517
 4704SOL    HW225575   3.126   2.447   5.975  0.5109  0.1547  0.5582
 4705SOL     OW25576   0.085   2.260   4.061 -0.8013  0.1919 -0.6019
 4705SOL    HW125577   0.179   2.264   4.075 -0.9058  0.1393  0.0878
 4705SOL    HW225578   0.059   2.352   4.063  2.5942  1.1308 -0.5989
 4706SOL     OW25579   2.631   1.203  10.042 -0.1471 -0.3879  0.0569
 4706SOL    HW125580   2.658   1.182  10.131  0.8509  0.1699 -0.1202
 4706SOL    HW225581   2.623   1.115  10.005  1.2791 -0.3332 -0.3718
 4707SOL     OW25582   1.254   4.558   6.849 -0.5168 -0.0979 -0.0149
 4707SOL    HW125583   1.343   4.579   6.876  0.0072  0.2710 -2.0721
 4707SOL    HW225584   1.206   4.544   6.931 -0.9565  0.7628 -0.1293
 4708SOL     OW25585   4.366   3.152   7.646 -0.8325  0.0658  0.5997
 4708SOL    HW125586   4.449   3.200   7.650 -0.2285 -1.0482  1.6965
 4708SOL    HW225587   4.317   3.191   7.574 -0.4497 -1.3830 -0.4594
 4709SOL     OW25588   2.765   2.854   8.853  0.2301 -0.7801  0.1867
 4709SOL    HW125589   2.767   2.902   8.936 -0.6192  0.6599 -0.6414
 4709SOL    HW225590   2.746   2.929   8.797  0.5586 -0.0181  1.1016
 4710SOL     OW25591   1.918   3.567   2.766 -0.4843 -0.1682 -0.0848
 4710SOL    HW125592   1.844   3.589   2.824 -0.6544 -0.8462 -0.0453
 4710SOL    HW225593   1.975   3.644   2.760 -2.8514  1.4937 -1.6608
 4711SOL     OW25594   3.872   3.011   1.005 -0.0373 -0.0875 -1.0129
 4711SOL    HW125595   3.967   3.010   0.996  0.0821 -0.9500  0.3005
 4711SOL    HW225596   3.849   2.929   1.049  1.6245 -0.8890 -1.6300
 4712SOL     OW25597   2.336   1.854  11.526  0.4411  0.1784 -0.0694
 4712SOL    HW125598   2.356   1.934  11.477 -1.0492  0.8994  0.4903
 4712SOL    HW225599   2.244   1.863  11.552  0.0547  0.5895 -1.5955
 4713SOL     OW25600   2.112   4.641   8.730  0.0031 -0.0290 -0.6432
 4713SOL    HW125601   2.034   4.697   8.731 -0.1894 -0.2794 -1.4668
 4713SOL    HW225602   2.172   4.688   8.672 -0.4995  0.9440 -0.3802
 4714SOL     OW25603   2.166   4.575   6.846  0.2060  0.2896 -0.1063
 4714SOL    HW125604   2.093   4.636   6.840 -0.2797 -0.3518 -0.8520
 4714SOL    HW225605   2.165   4.533   6.760  0.5927 -0.7998  0.4197
 4715SOL     OW25606   3.352   2.496   2.021 -0.9257  0.0513 -0.2994
 4715SOL    HW125607   3.427   2.549   2.047  0.0039 -0.4211 -2.0268
 4715SOL    HW225608   3.307   2.555   1.960 -1.6438  0.0118  0.1879
 4716SOL     OW25609   1.817   0.087   4.450 -0.6784 -0.2231 -0.3052
 4716SOL    HW125610   1.886   0.145   4.484 -0.3771 -0.3552 -0.6882
 4716SOL    HW225611   1.850   0.079   4.360  0.0188  3.4824 -0.3834
 4717SOL     OW25612   0.428   3.611   5.222  0.6791 -0.1389 -0.2437
 4717SOL    HW125613   0.521   3.621   5.242  0.5608  0.7454 -0.1223
 4717SOL    HW225614   0.396   3.560   5.296  1.9524  2.4217  2.0465
 4718SOL     OW25615   4.603   3.537   5.416 -0.1368  0.4681  0.5410
 4718SOL    HW125616   4.660   3.460   5.417 -1.5142 -0.5560  0.0393
 4718SOL    HW225617   4.639   3.585   5.342 -1.3535  0.4599 -0.0628
 4719SOL     OW25618   2.816   4.052   7.235  0.3257 -0.3138  0.3374
 4719SOL    HW125619   2.821   4.085   7.325  0.2116  1.5237 -0.3265
 4719SOL    HW225620   2.804   3.957   7.235  0.2903 -0.3049 -0.1335
 4720SOL     OW25621   4.614   4.518   3.666 -0.6105  0.0203  0.2948
 4720SOL    HW125622   4.603   4.466   3.746 -1.3681  1.6522  1.2443
 4720SOL    HW225623   4.639   4.452   3.601  0.9445 -0.8994  1.8175
 4721SOL     OW25624   3.930   2.890   2.486  0.1228  0.0755  0.0019
 4721SOL    HW125625   3.990   2.888   2.561  1.2275 -1.0218 -0.9131
 4721SOL    HW225626   3.975   2.826   2.432  1.9227  1.0850  0.3086
 4722SOL     OW25627   0.913   1.344   4.889  0.5937  0.0456 -0.2528
 4722SOL    HW125628   0.891   1.281   4.958 -0.2253 -1.3141 -1.7794
 4722SOL    HW225629   0.989   1.309   4.843 -0.6779 -1.3906 -1.2250
 4723SOL     OW25630   1.859   3.796   7.322 -0.1435  0.4193  0.0970
 4723SOL    HW125631   1.944   3.827   7.352  0.7799 -0.8513 -1.2083
 4723SOL    HW225632   1.817   3.773   7.405 -0.4520  1.5900  0.2724
 4724SOL     OW25633   2.757   1.025   0.806  0.2383 -0.2190  0.2338
 4724SOL    HW125634   2.772   1.028   0.711  0.8523  2.4170  0.4129
 4724SOL    HW225635   2.672   0.981   0.810  0.1282 -0.0774 -0.4216
 4725SOL     OW25636   0.953   3.434   4.282 -0.0022 -0.5686  0.0776
 4725SOL    HW125637   1.026   3.495   4.270 -1.6788  1.2594 -0.8953
 4725SOL    HW225638   0.880   3.485   4.248  1.9663  1.6869 -0.7483
 4726SOL     OW25639   4.286   0.432   6.295 -0.1240  0.1292  0.1106
 4726SOL    HW125640   4.282   0.406   6.203 -0.4873 -0.6438  0.3429
 4726SOL    HW225641   4.313   0.523   6.290  2.1724 -0.5978 -0.4331
 4727SOL     OW25642   0.100   4.470   9.012  0.4425  0.5804 -0.2850
 4727SOL    HW125643   0.009   4.450   8.989  0.5004 -0.4138  0.3399
 4727SOL    HW225644   0.131   4.399   9.069 -0.1095  1.2754  0.8743
 4728SOL     OW25645   0.921   1.329  13.763  0.0103 -0.0258 -0.1159
 4728SOL    HW125646   0.900   1.351  13.854  1.2337 -1.4355  0.5020
 4728SOL    HW225647   0.926   1.234  13.773  1.0702  0.4680  3.7387
 4729SOL     OW25648   3.689   4.431   4.878 -0.6430  0.1850 -0.3575
 4729SOL    HW125649   3.768   4.377   4.880 -0.7524 -0.0034 -1.1455
 4729SOL    HW225650   3.616   4.371   4.860 -0.9572  0.6530 -0.6393
 4730SOL     OW25651   4.095   3.022   7.527  0.2774 -0.0926  0.4366
 4730SOL    HW125652   4.179   3.000   7.487  0.9612 -0.4813  2.0764
 4730SOL    HW225653   4.113   3.064   7.611  1.9701  1.3636 -0.6472
 4731SOL     OW25654   0.898   2.939   4.451 -0.2600 -0.3261  0.7969
 4731SOL    HW125655   0.923   2.888   4.528 -0.7174  0.2116  1.3073
 4731SOL    HW225656   0.975   2.996   4.443 -0.5970 -0.3038 -2.1482
 4732SOL     OW25657   1.398   2.987   1.528 -0.5653  0.2524 -0.2642
 4732SOL    HW125658   1.357   2.950   1.606  0.2183 -1.9145 -0.9044
 4732SOL    HW225659   1.467   2.923   1.511 -0.6233 -0.1115  0.8770
 4733SOL     OW25660   1.225   2.271  12.038 -0.1422 -0.4711  0.8579
 4733SOL    HW125661   1.244   2.180  12.015 -0.3094  0.3454 -2.4638
 4733SOL    HW225662   1.130   2.262  12.041 -0.0989 -2.2028 -2.8700
 4734SOL     OW25663   2.721   2.031   5.446 -0.0100 -0.2750  0.5719
 4734SOL    HW125664   2.682   1.982   5.374  0.1876 -1.5870  1.3499
 4734SOL    HW225665   2.720   1.967   5.518  1.1092 -1.6974 -0.6710
 4735SOL     OW25666   2.199   0.095   5.849 -0.2418  0.1724 -0.3701
 4735SOL    HW125667   2.130   0.096   5.781 -0.4201 -0.3153 -0.1943
 4735SOL    HW225668   2.196   0.001   5.867 -0.5003  0.0955 -0.7998
 4736SOL     OW25669   1.438   2.235   3.333 -0.3788 -0.0551  0.0559
 4736SOL    HW125670   1.369   2.230   3.399  0.8458 -1.2292  1.2725
 4736SOL    HW225671   1.401   2.284   3.260 -0.7710  1.4793  1.2703
 4737SOL     OW25672   1.523   2.629   2.460  0.1948  0.5669  0.1951
 4737SOL    HW125673   1.456   2.694   2.438 -1.2404 -1.4175 -1.2748
 4737SOL    HW225674   1.494   2.593   2.544  0.4940 -4.9488 -2.0463
 4738SOL     OW25675   0.541   1.456   5.179 -0.5015  0.6127  0.0235
 4738SOL    HW125676   0.497   1.466   5.095  2.0538 -0.6217 -1.4465
 4738SOL    HW225677   0.583   1.371   5.165 -0.9382  0.5324 -0.7589
 4739SOL     OW25678   0.510   3.780   2.292  0.0523 -0.3689 -0.2996
 4739SOL    HW125679   0.435   3.730   2.258  0.7254 -1.5809 -0.0180
 4739SOL    HW225680   0.534   3.808   2.204 -0.4670 -1.6669 -0.8512
 4740SOL     OW25681   0.353   4.352  15.406 -0.0236 -0.1900  0.0790
 4740SOL    HW125682   0.304   4.411  15.464 -3.1762 -0.4306 -2.3807
 4740SOL    HW225683   0.350   4.415  15.334 -0.2181 -2.7030 -2.0984
 4741SOL     OW25684   2.967   3.896   0.832  0.0691  0.5648  0.4652
 4741SOL    HW125685   2.991   3.973   0.884 -0.0596  0.1347  1.1520
 4741SOL    HW225686   3.057   3.868   0.814  0.0112 -0.7287  2.2252
 4742SOL     OW25687   1.838   1.426   3.751  0.6459  0.1051  0.4225
 4742SOL    HW125688   1.825   1.521   3.757  1.6026  0.1407  2.2234
 4742SOL    HW225689   1.925   1.425   3.712 -0.4630 -1.5066 -1.9950
 4743SOL     OW25690   4.650   0.563   5.788  0.0645  0.4972 -0.1213
 4743SOL    HW125691   4.574   0.557   5.730 -0.9041 -0.6959  1.2885
 4743SOL    HW225692   4.702   0.631   5.745 -0.8607  2.5038  1.9423
 4744SOL     OW25693   2.219   0.958   3.100  0.2377  0.2210 -0.5131
 4744SOL    HW125694   2.194   0.867   3.115 -0.1387  0.6161  1.2741
 4744SOL    HW225695   2.141   0.976   3.049  0.7981 -0.6319 -1.6823
 4745SOL     OW25696   0.548   2.039   3.532 -0.0358  0.9062 -0.1597
 4745SOL    HW125697   0.552   2.132   3.556  1.0334  0.8250 -0.0301
 4745SOL    HW225698   0.455   2.023   3.549 -0.0588  1.2503  0.0478
 4746SOL     OW25699   2.456   3.217   4.429  0.4919  1.0088 -0.1351
 4746SOL    HW125700   2.544   3.183   4.412 -0.0384 -0.2052 -0.4104
 4746SOL    HW225701   2.451   3.305   4.390 -1.1247  1.1907  0.4803
 4747SOL     OW25702   2.488   4.208   9.415  0.4189  0.2573 -0.4061
 4747SOL    HW125703   2.484   4.157   9.334  0.6545  0.5408 -0.5954
 4747SOL    HW225704   2.450   4.289   9.381  0.1068  0.0212 -0.6251
 4748SOL     OW25705   2.026   1.834   1.988 -0.0345  0.1360 -0.2636
 4748SOL    HW125706   1.957   1.901   1.985  1.0419  1.2971  0.8957
 4748SOL    HW225707   2.054   1.831   1.897 -1.7504 -1.1722 -0.7417
 4749SOL     OW25708   2.633   0.908   5.975 -0.4659 -0.1400 -0.2484
 4749SOL    HW125709   2.609   0.882   5.886 -0.3807 -0.5001 -0.1644
 4749SOL    HW225710   2.675   0.992   5.959 -0.3155  0.4532  3.2039
 4750SOL     OW25711   4.608   1.228   5.296 -0.0413  0.0997 -0.3527
 4750SOL    HW125712   4.613   1.318   5.266 -0.4068  0.7870  1.6836
 4750SOL    HW225713   4.531   1.233   5.352  0.4315 -2.6830  0.5380
 4751SOL     OW25714   4.497   4.235   9.094  0.2681  0.4537 -0.5876
 4751SOL    HW125715   4.536   4.280   9.019  2.5635  2.2728  1.6808
 4751SOL    HW225716   4.408   4.263   9.114 -0.7524 -4.0276  1.1543
 4752SOL     OW25717   0.743   0.082   1.675 -0.7576  0.3649 -0.1643
 4752SOL    HW125718   0.744   0.064   1.769  1.7937  0.3798 -0.1979
 4752SOL    HW225719   0.710   0.001   1.636  1.1260  0.1219 -1.2303
 4753SOL     OW25720   4.256   2.487   8.827 -0.0266 -0.1062 -0.1359
 4753SOL    HW125721   4.310   2.480   8.905 -0.6428  1.1047  0.4053
 4753SOL    HW225722   4.293   2.560   8.778  0.1616 -0.2094 -0.1442
 4754SOL     OW25723   3.288   4.358   3.119  0.4623  0.1188  0.3706
 4754SOL    HW125724   3.349   4.384   3.188 -2.3580 -0.5624  3.0994
 4754SOL    HW225725   3.354   4.356   3.049 -1.9061 -0.1007 -1.8584
 4755SOL     OW25726   2.417   2.940   9.372 -0.0687 -0.1165  0.2582
 4755SOL    HW125727   2.485   2.921   9.437 -0.2025 -1.6519 -0.0515
 4755SOL    HW225728   2.380   3.011   9.425  0.5157 -0.0881  0.6328
 4756SOL     OW25729   3.336   2.361   3.905  0.0576  0.3246 -0.2833
 4756SOL    HW125730   3.312   2.329   3.818  1.4648  1.0186 -0.9154
 4756SOL    HW225731   3.307   2.452   3.905 -2.2070 -0.3855 -0.3526
 4757SOL     OW25732   3.253   0.595  13.363  0.0364 -0.1799 -0.1203
 4757SOL    HW125733   3.193   0.535  13.318  1.0697 -1.2134 -0.1305
 4757SOL    HW225734   3.330   0.584  13.307  0.2869 -3.0804  0.8159
 4758SOL     OW25735   1.502   0.223   3.399  0.2244  0.1843 -0.3621
 4758SOL    HW125736   1.564   0.258   3.463  0.6014  2.9328 -2.2084
 4758SOL    HW225737   1.455   0.164   3.457 -0.1431 -0.6368 -1.5027
 4759SOL     OW25738   0.152   3.231   9.253  0.6543  0.1123 -0.3713
 4759SOL    HW125739   0.137   3.325   9.238 -0.7718 -0.0668 -0.0388
 4759SOL    HW225740   0.244   3.223   9.229  0.9941  2.7128 -0.0111
 4760SOL     OW25741   0.828   4.376   5.141  0.4483 -0.3571 -0.2932
 4760SOL    HW125742   0.782   4.457   5.163 -0.5313 -1.0434  0.1784
 4760SOL    HW225743   0.772   4.343   5.071  1.9226 -0.0643 -1.6071
 4761SOL     OW25744   0.576   4.000  10.507  0.4690  0.0173 -0.1413
 4761SOL    HW125745   0.592   4.094  10.495  0.1021  0.1157  0.1534
 4761SOL    HW225746   0.628   3.993  10.588 -2.2391 -1.2329  1.4890
 4762SOL     OW25747   4.271   0.897   7.536 -0.4807 -0.7055  0.5682
 4762SOL    HW125748   4.337   0.941   7.590  0.5529 -2.7018  0.9255
 4762SOL    HW225749   4.191   0.947   7.552  1.0147  0.7723  3.3970
 4763SOL     OW25750   0.202   2.908  14.464  0.0741 -0.4135  0.0744
 4763SOL    HW125751   0.197   2.978  14.529  0.0550  1.1447 -1.6238
 4763SOL    HW225752   0.149   2.939  14.391  0.1099  2.2568  1.1791
 4764SOL     OW25753   3.960   2.599   0.899 -0.0760 -0.1682 -0.1191
 4764SOL    HW125754   3.912   2.564   0.824  2.8554  0.0926 -2.1218
 4764SOL    HW225755   4.047   2.560   0.889 -0.1023 -0.7148  1.7878
 4765SOL     OW25756   4.444   2.981  10.356 -0.3143 -0.2413 -0.4589
 4765SOL    HW125757   4.436   2.885  10.354 -1.5975 -0.1716  1.3388
 4765SOL    HW225758   4.365   2.994  10.303 -0.8949  1.5437  0.8506
 4766SOL     OW25759   3.331   2.877   8.831 -0.2673 -0.6481 -0.1792
 4766SOL    HW125760   3.355   2.846   8.743 -0.7908 -1.7526  0.0618
 4766SOL    HW225761   3.257   2.818   8.847 -1.5828  0.8049 -0.9469
 4767SOL     OW25762   3.566   3.189   7.014  0.5957 -0.2331  0.3080
 4767SOL    HW125763   3.538   3.186   6.922 -0.4742 -1.9176  0.6979
 4767SOL    HW225764   3.561   3.094   7.022 -3.7324 -0.1114 -1.1040
 4768SOL     OW25765   2.015   2.254   7.562  0.1562 -0.3267 -0.0275
 4768SOL    HW125766   1.943   2.199   7.531 -1.4705  1.6588  0.2219
 4768SOL    HW225767   2.089   2.195   7.547 -0.8482 -1.9703  1.6862
 4769SOL     OW25768   0.381   2.415   4.801  0.7301 -0.1107  0.2082
 4769SOL    HW125769   0.464   2.461   4.815  0.3990  0.1461  1.3832
 4769SOL    HW225770   0.408   2.338   4.752  1.7185  1.0611 -1.1160
 4770SOL     OW25771   4.036   0.061   8.030  0.6493 -0.0590  0.2002
 4770SOL    HW125772   4.079   0.012   8.100 -0.9320  0.3292  1.4495
 4770SOL    HW225773   4.102   0.069   7.961  1.7703 -1.5918  1.0872
 4771SOL     OW25774   2.268   4.003   9.544 -0.0185  0.8323 -0.1823
 4771SOL    HW125775   2.275   4.095   9.567  2.0619  0.6228 -0.0037
 4771SOL    HW225776   2.219   3.973   9.621  0.8045 -1.0925 -0.3922
 4772SOL     OW25777   3.117   2.876  11.026  0.1372 -0.8282 -0.4374
 4772SOL    HW125778   3.155   2.915  10.948 -0.5582  1.4933  0.3679
 4772SOL    HW225779   3.155   2.934  11.093  2.2240 -0.9128 -1.5749
 4773SOL     OW25780   0.940   0.295   3.078 -0.0612  0.2466  0.9355
 4773SOL    HW125781   1.020   0.332   3.115  0.6250  1.1684 -1.4625
 4773SOL    HW225782   0.913   0.366   3.020 -0.7677 -0.5915  0.2294
 4774SOL     OW25783   3.438   2.229   2.639  0.0152  0.4804  0.5052
 4774SOL    HW125784   3.394   2.298   2.589 -1.1969 -0.7581 -0.1616
 4774SOL    HW225785   3.525   2.269   2.641  0.0950  0.5130 -2.4458
 4775SOL     OW25786   1.176   1.822   4.939 -0.0278 -0.0873  0.5272
 4775SOL    HW125787   1.269   1.828   4.915  0.0953 -0.2730  0.9547
 4775SOL    HW225788   1.144   1.779   4.860  1.5385 -1.7088  0.7822
 4776SOL     OW25789   4.200   2.649   5.635  0.0066 -0.4167  0.0932
 4776SOL    HW125790   4.109   2.656   5.666  0.6371  1.2977  1.5979
 4776SOL    HW225791   4.217   2.743   5.641 -1.0648 -0.0644 -2.4246
 4777SOL     OW25792   0.773   0.437   4.795  0.1514 -0.3256  0.6842
 4777SOL    HW125793   0.823   0.502   4.845 -1.8386 -0.1542  2.4457
 4777SOL    HW225794   0.848   0.386   4.765 -1.0919 -1.4267 -0.5188
 4778SOL     OW25795   0.551   2.950   5.864  0.2984 -0.2831 -0.0804
 4778SOL    HW125796   0.617   3.014   5.892 -0.0336 -1.3367  3.1773
 4778SOL    HW225797   0.588   2.902   5.790 -2.4694 -0.5579 -1.2694
 4779SOL     OW25798   3.043   1.580   5.931 -0.3105  0.0912 -0.0735
 4779SOL    HW125799   3.036   1.675   5.921 -0.0406  0.3225  1.8394
 4779SOL    HW225800   3.107   1.587   6.002  1.0446  0.1653 -1.3289
 4780SOL     OW25801   4.554   1.214   6.415 -0.7182  0.9032 -0.3440
 4780SOL    HW125802   4.491   1.144   6.396  1.5550 -1.4501  0.6763
 4780SOL    HW225803   4.502   1.277   6.465 -1.3067  0.4863 -0.4213
 4781SOL     OW25804   0.088   4.133   8.978 -0.7090  0.1553 -0.5935
 4781SOL    HW125805   0.100   4.125   8.884  1.1813 -1.7864 -0.1866
 4781SOL    HW225806   0.176   4.165   8.998 -0.5243  0.6538 -2.2492
 4782SOL     OW25807   1.409   1.889   4.805 -0.1453  0.5636 -0.1879
 4782SOL    HW125808   1.498   1.903   4.771 -1.6443  4.4240 -2.4504
 4782SOL    HW225809   1.362   1.874   4.724  0.6838 -0.9621 -0.3886
 4783SOL     OW25810   1.344   4.029   9.378  0.3379 -0.1591 -0.1574
 4783SOL    HW125811   1.254   4.010   9.402  0.8201  0.6061  2.2231
 4783SOL    HW225812   1.373   4.058   9.464  1.0291  1.6837 -0.9926
 4784SOL     OW25813   2.260   1.910  14.713  0.0826 -0.0324 -0.1931
 4784SOL    HW125814   2.216   1.888  14.795 -1.0857 -0.3261 -0.8916
 4784SOL    HW225815   2.260   2.005  14.718  0.7903 -0.0119 -0.5280
 4785SOL     OW25816   3.350   2.352   0.161 -0.3804  0.2478  0.1210
 4785SOL    HW125817   3.441   2.340   0.188 -0.8442 -0.6955  1.2625
 4785SOL    HW225818   3.351   2.387   0.072  0.7327 -1.6900 -0.6138
 4786SOL     OW25819   1.338   3.227   0.669 -0.1275 -0.0561  0.3875
 4786SOL    HW125820   1.399   3.225   0.596  0.1163  1.5459  0.5528
 4786SOL    HW225821   1.260   3.235   0.615  0.4450  2.0096 -0.1232
 4787SOL     OW25822   2.166   0.629   3.555  0.2655  0.6070  0.0685
 4787SOL    HW125823   2.214   0.710   3.534 -0.5809  0.7134 -1.4296
 4787SOL    HW225824   2.193   0.615   3.646  0.8472  0.1819 -0.1705
 4788SOL     OW25825   2.897   1.798   5.267 -0.4256  0.3819 -0.6004
 4788SOL    HW125826   2.974   1.852   5.281 -0.3542 -0.1754  1.1945
 4788SOL    HW225827   2.907   1.728   5.332  0.5009  0.2250 -0.9102
 4789SOL     OW25828   1.734   2.052   3.804  0.3106  0.5099  0.4145
 4789SOL    HW125829   1.674   2.017   3.737 -0.2887  0.6812  0.8632
 4789SOL    HW225830   1.791   2.093   3.739 -0.1143 -1.3756 -1.1692
 4790SOL     OW25831   2.463   0.451   8.381 -0.2548 -0.2560 -0.4543
 4790SOL    HW125832   2.484   0.534   8.423  0.5663 -0.2979 -0.7725
 4790SOL    HW225833   2.368   0.448   8.385 -0.3630  1.0357 -1.9724
 4791SOL     OW25834   3.282   3.013   0.976  0.1393  0.4392 -0.2934
 4791SOL    HW125835   3.325   3.089   1.016  0.0322  0.0866  0.4810
 4791SOL    HW225836   3.198   3.051   0.949 -0.4465  0.5155  1.6337
 4792SOL     OW25837   1.907   4.037   5.963 -0.5242  0.1558 -0.2519
 4792SOL    HW125838   1.927   4.022   5.871  0.0212 -0.4577 -0.0294
 4792SOL    HW225839   1.954   3.964   6.002  1.2748  1.2294 -0.3792
 4793SOL     OW25840   1.719   0.050  15.186  0.3546 -0.5563 -0.1322
 4793SOL    HW125841   1.684   0.065  15.098  0.7898 -2.7801 -0.6621
 4793SOL    HW225842   1.667   0.120  15.227 -0.0249  0.7528 -2.8776
 4794SOL     OW25843   4.707   0.618   8.859  0.3515  0.0851 -0.4333
 4794SOL    HW125844   4.711   0.565   8.938 -1.5415  0.7357  0.1206
 4794SOL    HW225845   0.037   0.691   8.892 -0.1756  0.6794 -0.8916
 4795SOL     OW25846   2.629   0.489  12.582  0.3889 -0.1084 -0.4851
 4795SOL    HW125847   2.625   0.562  12.645  0.0166  1.0398 -1.8526
 4795SOL    HW225848   2.725   0.486  12.587  0.2538 -1.8164  1.1197
 4796SOL     OW25849   3.591   2.500  16.694 -0.1507  0.2982  0.2968
 4796SOL    HW125850   3.499   2.502  16.667  0.1598  2.3669 -0.6248
 4796SOL    HW225851   3.630   2.430  16.642 -0.0355  0.2773  0.4124
 4797SOL     OW25852   0.987   2.407  10.393  0.2136  0.7175  0.1459
 4797SOL    HW125853   1.010   2.315  10.406  1.4123  1.2250  1.6096
 4797SOL    HW225854   0.967   2.437  10.482  0.6968 -1.2501  0.9297
 4798SOL     OW25855   3.788   1.093   5.110  0.6215 -0.0994  1.0654
 4798SOL    HW125856   3.748   1.130   5.032  0.0134 -1.9818  0.4728
 4798SOL    HW225857   3.873   1.136   5.103  0.4870  0.0473  0.3844
 4799SOL     OW25858   1.263   2.184   6.989  0.7517 -0.3030  0.2425
 4799SOL    HW125859   1.241   2.162   6.898 -1.1109 -0.2076  0.6721
 4799SOL    HW225860   1.321   2.257   6.968  0.3616 -0.0289  0.1151
 4800SOL     OW25861   3.317   1.564   1.727 -0.2019 -0.2284 -0.3910
 4800SOL    HW125862   3.304   1.471   1.708  0.7221 -1.0556  2.9064
 4800SOL    HW225863   3.306   1.604   1.641 -0.4827  0.2071 -0.1501
 4801SOL     OW25864   3.168   3.018   6.380 -0.1631  0.5161 -0.2311
 4801SOL    HW125865   3.249   3.052   6.343  0.1643 -0.9072 -0.8475
 4801SOL    HW225866   3.142   2.941   6.328  3.2494 -0.9659  0.2463
 4802SOL     OW25867   1.625   0.828   4.402  0.2381 -0.0100 -0.1535
 4802SOL    HW125868   1.701   0.796   4.451  0.0732  0.0461  0.1421
 4802SOL    HW225869   1.618   0.921   4.424 -2.2088  0.1818 -1.7400
 4803SOL     OW25870   4.172   0.565   4.580 -0.4646  0.3532 -0.1581
 4803SOL    HW125871   4.183   0.660   4.576  0.0869  0.3916  2.0430
 4803SOL    HW225872   4.253   0.532   4.621 -0.8868  0.2602  0.5959
 4804SOL     OW25873   3.851   2.429  15.750  0.0772 -0.2572  0.6916
 4804SOL    HW125874   3.800   2.478  15.813 -2.2034  0.3492 -1.6191
 4804SOL    HW225875   3.798   2.439  15.671  0.6269 -2.7894 -0.0026
 4805SOL     OW25876   2.982   3.774  17.028  0.4444 -0.0442 -0.1952
 4805SOL    HW125877   3.010   3.831  16.956  0.1318  0.1110 -0.1916
 4805SOL    HW225878   2.888   3.788  17.018  0.3230 -0.3237  0.5980
 4806SOL     OW25879   3.436   3.320   3.655 -0.3551  0.2171 -0.0351
 4806SOL    HW125880   3.413   3.262   3.584  0.7023  0.2104 -0.3827
 4806SOL    HW225881   3.360   3.306   3.710 -0.7973  0.0696 -0.6939
 4807SOL     OW25882   2.307   4.237   2.775 -0.1485 -0.4843  0.4654
 4807SOL    HW125883   2.295   4.265   2.866 -0.3071 -2.4823  1.0572
 4807SOL    HW225884   2.391   4.191   2.781  0.7273  1.1656  1.0446
 4808SOL     OW25885   1.189   1.444  11.729 -0.2744  0.2414 -0.1082
 4808SOL    HW125886   1.190   1.529  11.684  0.8973  1.4248  2.1478
 4808SOL    HW225887   1.261   1.398  11.687 -0.6247  1.0475 -1.5998
 4809SOL     OW25888   3.351   3.027   4.318 -0.8497  0.0002 -0.3634
 4809SOL    HW125889   3.426   3.087   4.314 -1.2606  0.7132  2.3218
 4809SOL    HW225890   3.333   3.046   4.410  1.1900 -1.2131  0.2963
 4810SOL     OW25891   1.084   0.261  15.936 -0.0941  0.2858 -0.2539
 4810SOL    HW125892   0.999   0.233  15.969 -1.0025  1.6550 -1.4759
 4810SOL    HW225893   1.119   0.181  15.896  0.2323 -0.1241  0.8501
 4811SOL     OW25894   0.427   0.208   7.950  0.4233 -0.4508 -0.3069
 4811SOL    HW125895   0.447   0.248   8.035  0.2352 -1.8487  0.3992
 4811SOL    HW225896   0.333   0.229   7.950  0.3563 -0.7026  1.0077
 4812SOL     OW25897   0.735   2.926   2.319 -0.2468 -0.2573 -0.2635
 4812SOL    HW125898   0.745   2.988   2.247 -1.5385 -0.6821 -0.8062
 4812SOL    HW225899   0.675   2.970   2.379 -0.1131 -1.1188  0.5047
 4813SOL     OW25900   3.450   3.934   5.518  0.1336 -0.2429 -0.2694
 4813SOL    HW125901   3.474   3.979   5.599 -2.9809  1.1250 -0.0895
 4813SOL    HW225902   3.532   3.925   5.470 -0.1011  0.5309 -0.8122
 4814SOL     OW25903   2.137   2.032   8.606  0.1139 -0.4599  0.7038
 4814SOL    HW125904   2.121   2.022   8.700 -2.4761  1.1730  0.4312
 4814SOL    HW225905   2.218   2.082   8.615 -0.0355 -0.1460  0.3001
 4815SOL     OW25906   2.992   2.891   6.953 -0.1750  0.0234 -0.3002
 4815SOL    HW125907   3.066   2.911   7.010  0.3808 -2.2193 -0.2268
 4815SOL    HW225908   2.944   2.974   6.944  1.9350  1.0465 -2.2341
 4816SOL     OW25909   3.614   3.692   7.046  0.1266 -0.3744  0.0588
 4816SOL    HW125910   3.708   3.692   7.026 -0.3484 -0.2065 -2.2046
 4816SOL    HW225911   3.609   3.597   7.033  1.2806 -0.3752 -0.4074
 4817SOL     OW25912   3.765   0.515   8.105  0.6814  0.1778 -0.5172
 4817SOL    HW125913   3.787   0.601   8.140 -1.1113  0.3817  0.0734
 4817SOL    HW225914   3.727   0.481   8.186  0.2381  0.4002 -0.6335
 4818SOL     OW25915   0.729   0.840   3.733 -0.0964  0.2887  0.1522
 4818SOL    HW125916   0.670   0.885   3.672 -0.0422 -0.2977 -0.3255
 4818SOL    HW225917   0.728   0.910   3.798  0.0674  0.3395  0.0999
 4819SOL     OW25918   0.897   0.819   1.639  0.7251 -0.0897  0.0105
 4819SOL    HW125919   0.898   0.908   1.673 -2.3380  0.6906 -1.9310
 4819SOL    HW225920   0.909   0.780   1.726 -1.6403 -2.6949 -0.8163
 4820SOL     OW25921   2.779   1.785   0.224  0.0153  0.1828  0.2009
 4820SOL    HW125922   2.728   1.774   0.144 -0.6121  1.7358  0.3811
 4820SOL    HW225923   2.826   1.702   0.232  0.8093  0.3493 -2.6979
 4821SOL     OW25924   1.922   1.889   9.885  0.0828 -0.0046 -0.0005
 4821SOL    HW125925   1.995   1.894   9.823 -0.0782 -0.9451 -0.2685
 4821SOL    HW225926   1.942   1.963   9.943  3.7765 -0.6293 -0.4720
 4822SOL     OW25927   2.973   1.307   3.719 -0.0221 -0.6823 -0.0103
 4822SOL    HW125928   2.989   1.275   3.630 -1.8879  1.6972 -1.2252
 4822SOL    HW225929   3.053   1.358   3.735 -1.2438  1.5272 -0.8968
 4823SOL     OW25930   1.510   1.580   5.158 -0.6439 -0.2516 -0.0735
 4823SOL    HW125931   1.597   1.614   5.137 -0.2763 -1.4021 -0.4464
 4823SOL    HW225932   1.466   1.659   5.187 -1.4788 -0.1611 -1.5558
 4824SOL     OW25933   0.383   4.224   2.902 -0.2727 -0.2932  0.0977
 4824SOL    HW125934   0.476   4.226   2.924  0.0300  1.1177 -1.3083
 4824SOL    HW225935   0.372   4.302   2.848  0.9390  0.5634  1.0920
 4825SOL     OW25936   2.974   0.787   5.520  0.0187  0.3345  0.2015
 4825SOL    HW125937   3.020   0.790   5.436 -0.5076  0.1465 -0.0994
 4825SOL    HW225938   3.021   0.711   5.554  0.8440 -0.4432 -2.6761
 4826SOL     OW25939   0.961   3.575   5.975 -0.2683  0.4695 -0.0169
 4826SOL    HW125940   0.888   3.636   5.980 -0.4142  0.3108 -0.2201
 4826SOL    HW225941   1.027   3.642   5.960 -1.7526  1.8159 -0.5623
 4827SOL     OW25942   1.791   2.890   6.623  0.8374 -0.1099 -0.6130
 4827SOL    HW125943   1.867   2.948   6.626  0.5149  0.2120  1.3218
 4827SOL    HW225944   1.751   2.915   6.706  0.9768 -0.2545 -0.5029
 4828SOL     OW25945   0.471   3.447   8.131  0.2767 -1.2137 -0.2358
 4828SOL    HW125946   0.519   3.482   8.207 -0.3807 -1.7565  0.4194
 4828SOL    HW225947   0.389   3.419   8.171 -1.1624  3.0417 -0.1748
 4829SOL     OW25948   3.771   1.249   0.324 -0.1966  0.0371 -0.4178
 4829SOL    HW125949   3.732   1.221   0.407 -0.8819  0.6261 -0.5434
 4829SOL    HW225950   3.855   1.287   0.351 -1.2352  1.1337  1.3388
 4830SOL     OW25951   3.753   2.491   1.521  0.2927  0.2837 -0.0874
 4830SOL    HW125952   3.817   2.521   1.586  0.1958 -1.8338  0.9667
 4830SOL    HW225953   3.675   2.479   1.575  0.0535  1.1845 -0.2347
 4831SOL     OW25954   3.386   3.804  10.330  0.3418 -0.0281  0.0665
 4831SOL    HW125955   3.332   3.736  10.291  0.7871 -1.1346  1.3664
 4831SOL    HW225956   3.380   3.792  10.425  3.5577  0.5148  0.3267
 4832SOL     OW25957   2.041   4.701   2.413 -0.3980  0.9384 -0.6759
 4832SOL    HW125958   2.048   4.694   2.318 -0.2577  0.1859 -0.6097
 4832SOL    HW225959   2.095   0.055   2.434 -2.0661  1.4834  1.6740
 4833SOL     OW25960   1.385   0.991  11.021  0.4918 -0.5091 -0.0251
 4833SOL    HW125961   1.380   0.995  11.117 -0.8781 -0.9750 -0.0774
 4833SOL    HW225962   1.466   1.043  11.020  0.8287 -1.0197  1.3546
 4834SOL     OW25963   2.056   4.431   8.897 -0.1632  0.2838 -0.1111
 4834SOL    HW125964   2.074   4.488   8.823 -0.7878 -0.6273 -0.9603
 4834SOL    HW225965   1.976   4.469   8.934 -0.9939  0.1048 -1.7391
 4835SOL     OW25966   2.698   3.707   5.374 -0.2894  0.2496  0.5189
 4835SOL    HW125967   2.675   3.620   5.408 -0.2856 -0.2160 -0.6715
 4835SOL    HW225968   2.781   3.717   5.420 -0.5682  3.9783  0.1780
 4836SOL     OW25969   3.052   1.522  14.915  0.1882 -0.5511  0.0140
 4836SOL    HW125970   3.030   1.519  15.008  1.4703  1.9718  0.3992
 4836SOL    HW225971   3.047   1.615  14.895 -3.4785 -0.6773  0.4480
 4837SOL     OW25972   3.750   1.988  12.128  0.1614  0.2037 -0.1657
 4837SOL    HW125973   3.679   1.930  12.154  1.3436 -1.0238  0.3498
 4837SOL    HW225974   3.729   1.996  12.035  0.4592  0.4546 -0.2117
 4838SOL     OW25975   2.699   4.380  13.005 -0.1412 -0.1447 -0.0686
 4838SOL    HW125976   2.721   4.353  13.094 -1.0008  1.2295  0.5628
 4838SOL    HW225977   2.657   4.464  13.022  0.3692  0.6325 -2.6885
 4839SOL     OW25978   2.892   1.425   2.510 -0.1296 -0.0502  0.5137
 4839SOL    HW125979   2.854   1.386   2.588 -1.3204 -1.1378 -0.6207
 4839SOL    HW225980   2.875   1.366   2.437  0.4067 -0.1155  0.4363
 4840SOL     OW25981   3.020   0.925   4.004 -0.5202  0.5858  0.1087
 4840SOL    HW125982   2.968   0.934   3.924  0.1128  1.6358 -0.1765
 4840SOL    HW225983   2.974   0.972   4.073 -0.3412 -0.4947  0.9721
 4841SOL     OW25984   2.231   1.681   0.687 -0.4024 -0.0707 -0.6059
 4841SOL    HW125985   2.223   1.740   0.762 -1.3158 -0.8556 -0.0854
 4841SOL    HW225986   2.142   1.649   0.672 -0.9053  0.7649  0.5432
 4842SOL     OW25987   0.895   2.850   2.529  0.2122  0.1910 -0.4987
 4842SOL    HW125988   0.872   2.873   2.439  0.6899 -2.7874 -1.4057
 4842SOL    HW225989   0.880   2.936   2.567  1.0312  0.3345 -0.5069
 4843SOL     OW25990   0.638   4.040  16.803 -0.4393  0.3947 -0.5326
 4843SOL    HW125991   0.555   3.992  16.797 -2.1328  2.8944  2.9145
 4843SOL    HW225992   0.608   4.119  16.846  1.9059  1.3667 -0.6844
 4844SOL     OW25993   1.569   3.968   6.305  0.0268  0.1295  0.0204
 4844SOL    HW125994   1.497   3.911   6.329 -0.8919  1.0233 -0.6180
 4844SOL    HW225995   1.538   4.000   6.220 -0.8331 -1.4177 -0.2508
 4845SOL     OW25996   0.335   3.926   8.193  0.1028  0.3972 -0.4398
 4845SOL    HW125997   0.344   3.833   8.215 -0.4859  0.8392  1.7065
 4845SOL    HW225998   0.362   3.926   8.102 -2.5827  2.0431 -1.2350
 4846SOL     OW25999   3.901   3.294  10.067  0.0089 -0.6835  0.2590
 4846SOL    HW126000   3.859   3.216  10.031 -0.9615  0.0441 -0.1780
 4846SOL    HW226001   3.859   3.299  10.152 -0.4168 -1.5079  0.0981
 4847SOL     OW26002   4.456   3.422   7.370 -0.3698 -0.3700 -0.1470
 4847SOL    HW126003   4.421   3.442   7.457  1.9897  2.2498  0.2310
 4847SOL    HW226004   4.451   3.507   7.326  2.8170 -0.1023  0.0126
 4848SOL     OW26005   1.404   0.347   4.735  0.2060 -0.4275 -0.4692
 4848SOL    HW126006   1.442   0.267   4.771 -2.1353 -0.5427  1.7264
 4848SOL    HW226007   1.319   0.341   4.779  0.2650  0.5434 -0.2338
 4849SOL     OW26008   3.275   0.503   7.763  0.3815 -0.3542 -0.4576
 4849SOL    HW126009   3.269   0.507   7.668  1.7942  0.8630 -0.4958
 4849SOL    HW226010   3.330   0.576   7.792 -1.0327 -0.3436  2.1571
 4850SOL     OW26011   4.589   3.663   0.776 -0.2317  0.3794  0.3975
 4850SOL    HW126012   4.511   3.686   0.826 -0.3470  1.5411 -0.3170
 4850SOL    HW226013   4.648   3.626   0.842 -0.1525 -1.1779 -0.5546
 4851SOL     OW26014   3.339   4.122   5.303  0.2118 -0.3430  0.1314
 4851SOL    HW126015   3.374   4.101   5.389 -0.4688  1.9943  0.9666
 4851SOL    HW226016   3.412   4.140   5.243 -0.2882  0.3729 -0.2602
 4852SOL     OW26017   4.521   4.055   5.256 -0.4529 -0.1038 -0.2138
 4852SOL    HW126018   4.530   4.113   5.332  1.0156 -0.0220 -0.4565
 4852SOL    HW226019   4.571   3.977   5.280  1.5535  1.5811  1.0289
 4853SOL     OW26020   3.066   4.346   7.771 -1.0149  0.8299  0.0982
 4853SOL    HW126021   3.152   4.348   7.729 -1.3025  0.1323 -0.5312
 4853SOL    HW226022   3.065   4.253   7.796  0.1064  0.3507 -1.6223
 4854SOL     OW26023   2.730   3.116  12.142  0.5186 -0.0231 -0.1982
 4854SOL    HW126024   2.803   3.162  12.182  0.0299  0.5667  0.0191
 4854SOL    HW226025   2.705   3.058  12.214 -2.6946  0.9839 -0.4791
 4855SOL     OW26026   2.117   2.045   7.253 -0.2063  0.1571 -0.3994
 4855SOL    HW126027   2.201   2.028   7.295 -0.1767  4.6665  1.4109
 4855SOL    HW226028   2.121   1.991   7.174 -0.2492 -1.3351  0.6211
 4856SOL     OW26029   1.164   2.528  17.584  0.0230  0.1049  0.0985
 4856SOL    HW126030   1.259   2.522  17.593  0.0914 -1.0423 -1.2288
 4856SOL    HW226031   1.158   2.608  17.532 -2.4532 -0.2284 -0.1329
 4857SOL     OW26032   3.581   3.868   7.989  0.3644 -0.7827 -0.7378
 4857SOL    HW126033   3.526   3.823   8.054 -1.3030  1.1829 -0.8014
 4857SOL    HW226034   3.618   3.943   8.037  0.5249 -2.2459  1.4636
 4858SOL     OW26035   2.121   2.637   8.746 -0.3404 -0.5521  0.4304
 4858SOL    HW126036   2.157   2.558   8.705  0.9913 -0.9025  2.2716
 4858SOL    HW226037   2.028   2.613   8.751 -1.3847  3.2142 -0.9780
 4859SOL     OW26038   1.425   1.783  16.897  0.0771 -0.3689 -0.1065
 4859SOL    HW126039   1.344   1.762  16.944  0.3218  0.3090  0.6110
 4859SOL    HW226040   1.377   1.845  16.842 -1.0535 -0.3287  0.9355
 4860SOL     OW26041   4.407   3.285   3.732  0.3654 -0.1939 -0.2214
 4860SOL    HW126042   4.447   3.213   3.683 -0.3445 -0.1504 -0.8564
 4860SOL    HW226043   4.390   3.348   3.662  0.3747  0.0433 -0.0103
 4861SOL     OW26044   0.548   3.223   4.468 -0.4348  0.0146  0.3975
 4861SOL    HW126045   0.552   3.130   4.489  0.0843  0.2725  1.4543
 4861SOL    HW226046   0.636   3.257   4.484 -0.6531  0.6580  0.2509
 4862SOL     OW26047   1.264   3.794   3.443 -0.0698 -0.3755 -0.3492
 4862SOL    HW126048   1.339   3.766   3.390 -0.6683 -0.4663 -1.1438
 4862SOL    HW226049   1.305   3.860   3.499 -0.9773 -0.5283  0.5013
 4863SOL     OW26050   3.708   4.414   8.221  0.2731 -0.0698  0.0407
 4863SOL    HW126051   3.639   4.369   8.172  1.3928  0.4719 -2.0015
 4863SOL    HW226052   3.734   4.486   8.164 -1.1432  0.2673 -0.1696
 4864SOL     OW26053   4.532   4.116   2.487 -0.2732  0.3263  0.0016
 4864SOL    HW126054   4.562   4.192   2.438 -0.2917 -0.3243 -1.0265
 4864SOL    HW226055   4.592   4.052   2.448 -2.2807 -1.1635 -0.6230
 4865SOL     OW26056   0.707   2.191  11.546 -0.7682 -0.7336  0.6253
 4865SOL    HW126057   0.793   2.231  11.531 -1.0084 -0.2637  0.4868
 4865SOL    HW226058   0.739   2.115  11.595  2.5509  1.2461  1.5545
 4866SOL     OW26059   0.115   0.555   2.729 -0.2548  0.9814  0.2010
 4866SOL    HW126060   0.175   0.577   2.657  0.1535 -0.4263  0.1041
 4866SOL    HW226061   0.061   0.501   2.671 -0.5281 -0.1784  1.5306
 4867SOL     OW26062   0.369   2.761  14.919  0.2945 -0.5436  0.2976
 4867SOL    HW126063   0.292   2.765  14.975  1.2191 -0.3102  1.5563
 4867SOL    HW226064   0.422   2.688  14.950  1.6318 -1.5451 -4.3527
 4868SOL     OW26065   3.798   1.893   8.698  0.6681 -0.3465 -0.1564
 4868SOL    HW126066   3.863   1.860   8.760 -0.5904 -1.6989  0.4674
 4868SOL    HW226067   3.841   1.937   8.625  0.1745 -0.1121 -0.3083
 4869SOL     OW26068   4.203   0.259   2.011 -0.3625 -0.2551  0.0576
 4869SOL    HW126069   4.186   0.193   1.944 -1.8409  0.7700 -0.5663
 4869SOL    HW226070   4.172   0.206   2.085 -3.5911  1.0658 -0.3448
 4870SOL     OW26071   0.337   3.378   6.577  0.4469 -0.2790 -0.1355
 4870SOL    HW126072   0.365   3.294   6.613  0.4820  0.6312  2.0274
 4870SOL    HW226073   0.363   3.354   6.488  0.6117  0.0797 -0.1842
 4871SOL     OW26074   3.311   2.823   6.881 -0.1521 -0.4603 -0.8723
 4871SOL    HW126075   3.244   2.862   6.826 -1.9132  0.0671  1.6725
 4871SOL    HW226076   3.267   2.811   6.964  1.7257 -1.2259  0.0252
 4872SOL     OW26077   4.056   3.303   4.962 -0.2047 -0.0023  0.0104
 4872SOL    HW126078   3.984   3.361   4.988  0.8331  1.5378 -0.4955
 4872SOL    HW226079   4.004   3.235   4.920 -1.5071  2.3744 -2.2876
 4873SOL     OW26080   0.669   1.885   4.354 -0.2471 -0.2325 -0.0153
 4873SOL    HW126081   0.737   1.873   4.420  0.0331  0.9160 -0.0996
 4873SOL    HW226082   0.675   1.808   4.298  0.8476 -0.2004  0.0538
 4874SOL     OW26083   4.155   3.032   2.151 -0.0958 -0.2331 -0.3196
 4874SOL    HW126084   4.078   3.052   2.099  1.2367  2.3584 -1.3308
 4874SOL    HW226085   4.187   3.122   2.160  0.3498 -0.5906  1.8046
 4875SOL     OW26086   0.256   1.753   7.373 -0.2754 -0.6940  0.1468
 4875SOL    HW126087   0.277   1.660   7.364 -0.1218 -0.7491  1.1631
 4875SOL    HW226088   0.160   1.752   7.376 -0.1874 -0.9286  2.9298
 4876SOL     OW26089   4.456   1.655   7.985 -0.4383 -0.0127 -0.0064
 4876SOL    HW126090   4.459   1.610   7.901  1.9313  1.4476 -0.7260
 4876SOL    HW226091   4.521   1.601   8.029 -2.2899 -0.4417  2.1874
 4877SOL     OW26092   3.042   0.121   2.528  0.5713 -0.1931 -0.0702
 4877SOL    HW126093   2.998   0.061   2.468 -0.1366  1.9212 -1.6712
 4877SOL    HW226094   3.103   0.059   2.568 -1.9844 -1.6590  1.5734
 4878SOL     OW26095   0.423   0.283   1.939  0.2295  0.4228 -0.1095
 4878SOL    HW126096   0.411   0.188   1.950 -0.6849  0.4587 -0.8573
 4878SOL    HW226097   0.392   0.292   1.849  0.1019 -0.0669 -0.1147
 4879SOL     OW26098   2.546   1.577   5.697  0.3461 -0.3646 -0.2760
 4879SOL    HW126099   2.626   1.561   5.748 -0.4794 -1.4758  0.6816
 4879SOL    HW226100   2.526   1.666   5.727 -0.6021 -0.9492  0.8381
 4880SOL     OW26101   3.525   3.746   4.472  0.6307 -0.2006 -0.6675
 4880SOL    HW126102   3.464   3.681   4.437  0.0004  1.6904 -3.0656
 4880SOL    HW226103   3.475   3.826   4.460 -0.5498 -0.4891  2.2312
 4881SOL     OW26104   1.706   0.068   1.560 -0.5124 -0.2733 -0.3524
 4881SOL    HW126105   1.785   0.095   1.605 -1.0974  0.2488  0.3650
 4881SOL    HW226106   1.729   4.717   1.503  0.6426 -0.0934 -0.1033
 4882SOL     OW26107   3.644   1.573   7.998 -0.0482 -0.4157 -0.2316
 4882SOL    HW126108   3.662   1.640   8.065  0.6288 -3.4267  2.6032
 4882SOL    HW226109   3.714   1.595   7.937 -0.6162 -0.8553 -1.0372
 4883SOL     OW26110   0.887   3.512   8.893  0.3078  0.1217  0.2623
 4883SOL    HW126111   0.968   3.485   8.851 -0.7110  0.4964 -1.9128
 4883SOL    HW226112   0.857   3.592   8.848 -0.4499 -0.5880 -0.4974
 4884SOL     OW26113   1.161   3.953  15.836  0.5131 -0.2181 -0.2015
 4884SOL    HW126114   1.155   3.945  15.741 -0.0144 -2.0348 -0.0243
 4884SOL    HW226115   1.069   3.951  15.865  0.6698  2.3337  0.5145
 4885SOL     OW26116   2.487   3.796   4.593 -0.4040 -0.4526  0.7360
 4885SOL    HW126117   2.524   3.709   4.613 -2.0812 -0.8987  1.9438
 4885SOL    HW226118   2.533   3.812   4.511 -1.2253 -2.6875 -0.1814
 4886SOL     OW26119   2.915   3.529   4.904  0.2295 -0.2252  0.2123
 4886SOL    HW126120   2.905   3.468   4.831  1.4418  1.5718 -1.4408
 4886SOL    HW226121   2.893   3.616   4.870  0.1320 -0.9269 -1.5104
 4887SOL     OW26122   1.823   1.588   6.396  0.3161 -0.2452  0.1007
 4887SOL    HW126123   1.836   1.614   6.305 -2.8042 -0.5564 -0.4157
 4887SOL    HW226124   1.768   1.512   6.379 -0.3210  0.3223 -0.3702
 4888SOL     OW26125   1.419   2.754  16.335  0.2532 -0.4900 -0.2470
 4888SOL    HW126126   1.504   2.794  16.317  0.2896 -0.9975 -1.2332
 4888SOL    HW226127   1.434   2.661  16.316 -1.7532 -0.9715  0.5536
 4889SOL     OW26128   3.307   2.747   4.066 -0.0155  0.2662  0.8064
 4889SOL    HW126129   3.375   2.797   4.021  0.0037 -0.9786 -0.5500
 4889SOL    HW226130   3.318   2.663   4.021 -2.0393  1.6163 -2.1921
 4890SOL     OW26131   3.071   3.044  14.163 -0.0588 -0.5176 -0.1129
 4890SOL    HW126132   3.095   3.063  14.072  2.8537 -0.4691  0.6661
 4890SOL    HW226133   3.150   3.030  14.214 -0.1523  0.1345  0.2129
 4891SOL     OW26134   2.457   2.366   6.285 -0.2473  0.5392  0.1801
 4891SOL    HW126135   2.364   2.372   6.306 -0.1328  2.4825  0.1732
 4891SOL    HW226136   2.445   2.339   6.194 -2.2677 -1.1255  0.9411
 4892SOL     OW26137   4.540   3.880   4.152 -0.1509  0.2923 -0.1055
 4892SOL    HW126138   4.608   3.919   4.207 -0.0401 -0.8185  0.5613
 4892SOL    HW226139   4.586   3.856   4.072  0.7673  3.9421 -0.6697
 4893SOL     OW26140   1.969   0.687   2.866  0.6195 -0.2856 -0.7133
 4893SOL    HW126141   1.943   0.769   2.909  1.9712 -1.2246  1.8581
 4893SOL    HW226142   2.026   0.722   2.798  1.3719  2.7030  1.4532
 4894SOL     OW26143   0.383   1.887  17.189  0.1188  0.1738  0.1141
 4894SOL    HW126144   0.449   1.817  17.183  0.7676  0.8057 -0.0850
 4894SOL    HW226145   0.392   1.917  17.280 -0.9632 -0.8212  0.5446
 4895SOL     OW26146   3.079   3.830   3.793  0.5418  0.0949 -0.0703
 4895SOL    HW126147   3.051   3.879   3.715 -0.3052  0.0186  0.1830
 4895SOL    HW226148   3.094   3.749   3.745 -0.3701  0.5048 -1.0599
 4896SOL     OW26149   4.181   3.209  11.574  0.0071 -0.3337 -0.0852
 4896SOL    HW126150   4.140   3.169  11.651  2.1217 -0.7695  0.8333
 4896SOL    HW226151   4.272   3.216  11.603  0.1144 -1.2071 -0.1891
 4897SOL     OW26152   3.247   0.877   3.819 -0.5243  0.2250 -0.2380
 4897SOL    HW126153   3.292   0.947   3.866 -0.2688 -1.0813  1.4733
 4897SOL    HW226154   3.156   0.899   3.842 -0.7551  0.9621 -1.9139
 4898SOL     OW26155   1.219   3.478   0.879 -0.4090 -0.1151 -0.0653
 4898SOL    HW126156   1.167   3.531   0.939  1.2216  0.4127  0.8971
 4898SOL    HW226157   1.280   3.541   0.839 -0.8990  0.8005  0.6118
 4899SOL     OW26158   4.479   0.896  12.693  0.2687  0.2307  0.1452
 4899SOL    HW126159   4.568   0.909  12.726  1.0392  0.6635 -2.0653
 4899SOL    HW226160   4.495   0.890  12.599 -2.9685  0.0434 -0.3946
 4900SOL     OW26161   2.916   3.868  10.965 -0.2578 -0.5911 -0.3570
 4900SOL    HW126162   2.944   3.796  11.021 -0.6039  1.4455  2.4111
 4900SOL    HW226163   2.950   3.938  11.019  0.4860 -1.5956  0.4815
 4901SOL     OW26164   3.636   2.402   4.079  0.1706 -0.1610 -0.1320
 4901SOL    HW126165   3.612   2.379   3.989  0.2148 -0.7643  0.0075
 4901SOL    HW226166   3.547   2.390   4.114  0.2652 -2.9478 -0.7929
 4902SOL     OW26167   0.154   0.829   7.683  0.1648 -0.1828  0.0236
 4902SOL    HW126168   0.213   0.898   7.653 -0.7048  0.9103  0.8338
 4902SOL    HW226169   0.073   0.845   7.634  0.2366  0.2553  0.0444
 4903SOL     OW26170   4.117   1.282   6.399 -0.3716  0.4416 -0.4333
 4903SOL    HW126171   4.108   1.188   6.416  2.0711 -0.3592 -3.3626
 4903SOL    HW226172   4.151   1.275   6.309  2.4213  0.5457  0.6178
 4904SOL     OW26173   2.740   0.939   7.693 -0.0686 -0.1473 -0.3386
 4904SOL    HW126174   2.713   0.855   7.655  0.7484  0.0983 -1.4543
 4904SOL    HW226175   2.804   0.910   7.759 -0.2486 -0.3082 -0.2331
 4905SOL     OW26176   0.095   1.005  15.827  0.1249  0.2162  0.6477
 4905SOL    HW126177   0.155   0.939  15.792 -0.3598  0.4820 -0.6898
 4905SOL    HW226178   0.141   1.085  15.804 -1.6607  0.4326 -2.1540
 4906SOL     OW26179   3.870   2.904   7.460  0.0622  0.8684 -0.0507
 4906SOL    HW126180   3.908   2.880   7.376  0.0368 -0.2734  0.2619
 4906SOL    HW226181   3.946   2.949   7.497  0.5952 -0.2865  0.2357
 4907SOL     OW26182   0.122   1.962   9.079  0.1901 -0.0757 -0.2356
 4907SOL    HW126183   0.198   1.983   9.133 -0.0389 -0.5100  0.2593
 4907SOL    HW226184   0.075   1.906   9.140  1.9725  0.5343  1.7265
 4908SOL     OW26185   3.378   4.445  13.591  0.0647 -0.2862  0.5313
 4908SOL    HW126186   3.440   4.516  13.577 -2.8488  2.2643  0.6043
 4908SOL    HW226187   3.350   4.464  13.681  2.2322  3.2661  0.4318
 4909SOL     OW26188   4.295   2.027   7.667 -0.2796  0.2861  0.2172
 4909SOL    HW126189   4.285   2.085   7.742 -0.4614  0.6252 -0.0713
 4909SOL    HW226190   4.242   2.075   7.603  0.2746  2.5816  1.4846
 4910SOL     OW26191   0.888   0.664   8.213  0.3532 -0.1321 -0.1629
 4910SOL    HW126192   0.898   0.643   8.306 -1.4523 -0.6907 -0.1015
 4910SOL    HW226193   0.965   0.721   8.208  0.5413 -0.3628  0.0297
 4911SOL     OW26194   0.209   0.088  14.778 -0.1080  0.1730 -0.9848
 4911SOL    HW126195   0.261   0.011  14.802  0.1057  1.0589  1.4027
 4911SOL    HW226196   0.222   0.093  14.684  2.5593  2.3295 -0.5059
 4912SOL     OW26197   0.008   1.731   3.822  0.2811  0.2029 -0.3363
 4912SOL    HW126198   4.715   1.821   3.853 -0.1681 -0.1261  0.3871
 4912SOL    HW226199   0.015   1.750   3.728 -0.7104 -1.6652 -0.7706
 4913SOL     OW26200   2.290   3.615   2.458 -0.1310  0.1710 -0.0232
 4913SOL    HW126201   2.275   3.693   2.512  3.3427  0.1450  0.9704
 4913SOL    HW226202   2.339   3.555   2.514  1.5861  0.1847 -1.5453
 4914SOL     OW26203   0.082   0.098   1.186 -0.5442 -0.3052 -0.3638
 4914SOL    HW126204   0.128   0.017   1.208  1.1350  0.4845 -0.9443
 4914SOL    HW226205   4.715   0.071   1.205 -1.0284 -0.8235 -3.3462
 4915SOL     OW26206   3.999   4.303   3.137 -0.2618  0.1089 -0.0164
 4915SOL    HW126207   4.035   4.365   3.201 -0.7457  0.9844 -0.5969
 4915SOL    HW226208   4.075   4.284   3.082  0.5445 -0.9320  1.4522
 4916SOL     OW26209   3.092   3.110   1.245 -0.5147 -0.8539 -0.1265
 4916SOL    HW126210   3.092   3.204   1.229  2.1590 -0.4991  1.9884
 4916SOL    HW226211   2.999   3.087   1.251 -1.0173  1.3118  0.3174
 4917SOL     OW26212   0.631   0.155   7.264  0.0386  0.3908  0.2503
 4917SOL    HW126213   0.568   0.206   7.314  0.0661 -0.2786  0.9695
 4917SOL    HW226214   0.606   0.065   7.287 -0.4204  1.1388  2.7068
 4918SOL     OW26215   1.693   3.736   7.119  0.1799  0.0170 -0.1607
 4918SOL    HW126216   1.711   3.807   7.058 -0.7812  0.3043 -0.1070
 4918SOL    HW226217   1.743   3.752   7.199 -0.6136 -0.8281  0.5028
 4919SOL     OW26218   0.773   4.057  13.134 -0.0087 -0.0290  0.1137
 4919SOL    HW126219   0.714   4.068  13.059  1.9846  0.0537 -1.4614
 4919SOL    HW226220   0.862   4.053  13.099 -0.0922 -0.5152 -0.0454
 4920SOL     OW26221   0.288   0.400   3.036  0.3636  0.3640  0.1697
 4920SOL    HW126222   0.262   0.394   3.128  2.4184  0.7143  0.7719
 4920SOL    HW226223   0.273   0.494   3.024 -0.2763  0.1259 -0.9575
 4921SOL     OW26224   3.730   1.377   6.142 -0.7093  0.1739 -0.2714
 4921SOL    HW126225   3.733   1.326   6.223  1.3062 -0.7730 -0.9432
 4921SOL    HW226226   3.763   1.312   6.080 -0.1263  1.1732 -1.0131
 4922SOL     OW26227   1.986   0.365   3.630 -0.5263 -0.8566 -0.4295
 4922SOL    HW126228   1.914   0.350   3.691 -0.9172  0.8612 -0.4612
 4922SOL    HW226229   2.028   0.443   3.667 -3.5956 -1.2056  3.7889
 4923SOL     OW26230   2.615   3.731   5.117 -0.0889 -0.1478 -0.3242
 4923SOL    HW126231   2.658   3.737   5.202 -1.7068 -2.8019  0.6728
 4923SOL    HW226232   2.664   3.789   5.059  0.4683 -1.6690 -1.3804
 4924SOL     OW26233   0.770   3.855  13.479 -0.3226 -0.0419  0.4868
 4924SOL    HW126234   0.755   3.856  13.574  0.1405  3.4717  0.5366
 4924SOL    HW226235   0.700   3.915  13.451  0.5429 -0.3402 -2.2869
 4925SOL     OW26236   1.379   3.049   3.960 -0.6128  0.4217 -0.3443
 4925SOL    HW126237   1.336   3.115   3.906 -0.8039 -0.5760 -1.4312
 4925SOL    HW226238   1.330   2.976   3.921  0.8962 -0.5501 -0.3885
 4926SOL     OW26239   4.311   2.430   1.522  0.1318 -0.0983  0.3035
 4926SOL    HW126240   4.365   2.425   1.443  0.0962 -2.6312  0.4405
 4926SOL    HW226241   4.226   2.404   1.487  0.7851  0.5344 -1.7776
 4927SOL     OW26242   0.250   4.022  12.567 -0.0395 -0.4034  0.3646
 4927SOL    HW126243   0.325   4.028  12.627 -0.7503  1.7834  1.0371
 4927SOL    HW226244   0.179   4.053  12.623 -1.3440 -0.5377 -1.2118
 4928SOL     OW26245   2.507   0.925   0.855  0.4031  0.0236 -0.0830
 4928SOL    HW126246   2.450   0.998   0.878  2.0193  1.5287 -0.8361
 4928SOL    HW226247   2.452   0.847   0.850 -0.4898  0.6681 -0.4222
 4929SOL     OW26248   2.406   3.177   7.829  1.1380 -0.8260  0.3472
 4929SOL    HW126249   2.426   3.257   7.781 -0.4487 -0.3386  0.4766
 4929SOL    HW226250   2.314   3.169   7.803  0.7046  0.3266  1.4716
 4930SOL     OW26251   0.738   2.284   3.688  0.0660  0.1825  0.0681
 4930SOL    HW126252   0.725   2.291   3.783 -1.7599 -1.4961 -0.0491
 4930SOL    HW226253   0.756   2.190   3.691 -1.4521 -0.0247  3.1255
 4931SOL     OW26254   3.430   0.628   8.290 -0.2449 -0.2409 -0.1395
 4931SOL    HW126255   3.421   0.538   8.259 -1.2683  0.1575 -1.0167
 4931SOL    HW226256   3.479   0.666   8.217 -0.5586 -2.5001 -1.5256
 4932SOL     OW26257   2.695   4.413   8.825  0.3468 -0.0164 -0.5634
 4932SOL    HW126258   2.722   4.498   8.861  0.6548 -0.8732  1.2186
 4932SOL    HW226259   2.602   4.422   8.806 -0.0538 -0.9208  0.9728
 4933SOL     OW26260   2.615   1.593   7.831 -0.2047 -0.2677 -0.2928
 4933SOL    HW126261   2.574   1.680   7.823  1.9272  0.6656 -0.9790
 4933SOL    HW226262   2.674   1.611   7.904  0.1566  0.3889 -0.7443
 4934SOL     OW26263   0.383   4.276   7.529 -0.1782 -0.4200  0.2257
 4934SOL    HW126264   0.379   4.257   7.436 -0.8584  1.9508 -0.2140
 4934SOL    HW226265   0.306   4.330   7.545  2.1690  2.9571  0.0286
 4935SOL     OW26266   4.142   1.037   7.194  0.6833  0.2085 -0.3727
 4935SOL    HW126267   4.072   1.052   7.130 -1.4117 -1.3983  1.5232
 4935SOL    HW226268   4.088   1.061   7.269 -0.5845  2.5677 -2.0239
 4936SOL     OW26269   2.688   1.191   9.293  0.4105  0.1144  0.4408
 4936SOL    HW126270   2.718   1.266   9.346 -1.8645  1.5133 -0.2558
 4936SOL    HW226271   2.674   1.132   9.367  1.4506 -0.5131  0.1386
 4937SOL     OW26272   2.405   4.061   1.148  0.3971  0.0587  0.0345
 4937SOL    HW126273   2.429   4.016   1.229  2.9219  3.5310  1.2050
 4937SOL    HW226274   2.490   4.066   1.104  1.0970  0.0054  1.4047
 4938SOL     OW26275   4.081   2.531  15.861  0.0888  1.0887 -0.1901
 4938SOL    HW126276   4.000   2.509  15.814  0.1127  0.9497 -0.1661
 4938SOL    HW226277   4.139   2.523  15.786 -0.4101 -1.7720 -0.2637
 4939SOL     OW26278   0.530   2.643  11.532  0.1851 -0.1142 -0.4410
 4939SOL    HW126279   0.573   2.563  11.503 -1.2126 -0.7619 -0.7328
 4939SOL    HW226280   0.592   2.662  11.602  0.5415 -0.1771 -0.7367
 4940SOL     OW26281   1.312   2.649   5.060 -0.0239 -0.3145 -0.2711
 4940SOL    HW126282   1.388   2.625   5.114 -0.2088  1.6509  0.8779
 4940SOL    HW226283   1.242   2.657   5.124 -0.0215 -0.1394 -0.2914
 4941SOL     OW26284   4.106   4.698  10.155  0.2542  0.2905 -0.7255
 4941SOL    HW126285   4.041   4.722  10.221  1.7528  1.6256  0.2636
 4941SOL    HW226286   4.125   4.610  10.188 -0.6268  0.7937  1.0799
 4942SOL     OW26287   1.888   4.668   4.188 -0.5028  0.5523 -0.2313
 4942SOL    HW126288   1.946   4.592   4.188  1.9575  2.4241  1.2449
 4942SOL    HW226289   1.815   4.628   4.236  1.7050 -0.3180  2.3818
 4943SOL     OW26290   0.712   0.866   4.280  0.3747 -0.3263 -0.1466
 4943SOL    HW126291   0.698   0.918   4.201  1.0989  0.7618  0.4419
 4943SOL    HW226292   0.691   0.925   4.353 -0.1038 -1.5617  0.7089
 4944SOL     OW26293   0.166   2.264   8.213 -0.2680  0.6355 -0.4949
 4944SOL    HW126294   0.200   2.334   8.269 -0.1572  0.6782 -0.6154
 4944SOL    HW226295   0.206   2.278   8.128  0.7715  1.4743  0.1334
 4945SOL     OW26296   3.069   2.858   9.763 -0.1431 -0.1350  0.3273
 4945SOL    HW126297   3.051   2.764   9.772 -1.3696 -0.1654 -2.4419
 4945SOL    HW226298   3.122   2.867   9.843 -0.4880  0.0472  0.5316
 4946SOL     OW26299   3.303   1.315   4.285 -0.6244 -0.5521 -0.1255
 4946SOL    HW126300   3.264   1.380   4.344 -0.5287 -1.1281  0.5835
 4946SOL    HW226301   3.340   1.257   4.352  1.4398  0.1951 -0.6068
 4947SOL     OW26302   3.149   1.477  17.049  0.1502  0.0227  0.1854
 4947SOL    HW126303   3.089   1.423  17.099 -0.4829  1.8254  1.3818
 4947SOL    HW226304   3.181   1.425  16.976  0.8802 -1.2323  1.3988
 4948SOL     OW26305   0.392   2.840   7.085 -0.0499  0.0195 -0.0364
 4948SOL    HW126306   0.393   2.899   7.011  0.8866 -1.1771 -0.9838
 4948SOL    HW226307   0.475   2.868   7.122 -0.0019  1.7604 -1.5109
 4949SOL     OW26308   0.069   1.676   3.015  0.2408  0.2586 -0.4737
 4949SOL    HW126309   0.036   1.747   3.070  0.3646  0.7932 -1.0975
 4949SOL    HW226310   0.033   1.710   2.933 -2.3623  0.7835  0.8791
 4950SOL     OW26311   1.383   2.642   1.075 -0.1671 -0.2363 -0.1907
 4950SOL    HW126312   1.304   2.635   1.021 -1.1764 -0.2021  1.2754
 4950SOL    HW226313   1.359   2.712   1.136 -1.0740 -0.2703 -0.5056
 4951SOL     OW26314   4.031   1.197   5.101  0.4200 -1.0238 -0.0415
 4951SOL    HW126315   4.033   1.276   5.046 -0.1931 -0.5392  0.6347
 4951SOL    HW226316   4.069   1.232   5.182 -0.9861  1.1304 -0.3035
 4952SOL     OW26317   3.946   3.173   2.951  0.0558 -0.1301 -0.0058
 4952SOL    HW126318   3.912   3.086   2.975  0.5799 -0.3322  0.0074
 4952SOL    HW226319   4.031   3.143   2.918  0.9818  2.1778  0.2773
 4953SOL     OW26320   3.580   2.449   3.587  0.2420  0.9305 -0.2166
 4953SOL    HW126321   3.631   2.418   3.513 -0.0161 -2.2600  0.9575
 4953SOL    HW226322   3.493   2.450   3.546  0.1076  1.7569  0.0841
 4954SOL     OW26323   2.358   3.657   2.890 -0.7546  0.2200  0.4194
 4954SOL    HW126324   2.403   3.734   2.926  0.6392  0.0417 -0.9052
 4954SOL    HW226325   2.271   3.667   2.928 -0.4873 -0.0152  1.0847
 4955SOL     OW26326   0.596   0.466   8.376  0.0866  0.1335 -0.1298
 4955SOL    HW126327   0.612   0.403   8.447  0.9129 -1.0756 -1.4134
 4955SOL    HW226328   0.500   0.467   8.386  0.1639 -1.9848  0.8316
 4956SOL     OW26329   1.600   1.949   6.735  0.0731  0.4715 -0.1267
 4956SOL    HW126330   1.598   2.028   6.681 -0.2409  2.2515  2.5280
 4956SOL    HW226331   1.535   1.893   6.693 -1.9844  1.6546  1.5029
 4957SOL     OW26332   3.803   1.551   9.924 -0.6697 -0.3314 -0.7190
 4957SOL    HW126333   3.821   1.622   9.862  1.6489  0.1349  0.4559
 4957SOL    HW226334   3.721   1.579   9.964 -0.3320 -1.1141  0.5135
 4958SOL     OW26335   4.594   3.860   6.372 -0.4809  0.1597  0.8934
 4958SOL    HW126336   4.681   3.896   6.351 -1.0683  0.5773 -0.8404
 4958SOL    HW226337   4.620   3.809   6.448 -0.0518 -0.9217  0.0313
 4959SOL     OW26338   4.305   1.460   4.157  0.0826 -0.8277 -0.0543
 4959SOL    HW126339   4.277   1.369   4.149 -1.1882 -0.5396  1.1484
 4959SOL    HW226340   4.272   1.493   4.073  0.0056  1.8457  1.0166
 4960SOL     OW26341   0.653   0.365   7.634 -0.1218 -0.0264 -0.1112
 4960SOL    HW126342   0.686   0.284   7.596  0.1530  0.4373 -0.8598
 4960SOL    HW226343   0.612   0.414   7.563  0.4640 -1.7544 -1.6359
 4961SOL     OW26344   2.870   3.239  14.166 -0.2487  0.3555  0.8689
 4961SOL    HW126345   2.893   3.320  14.122  2.5814  0.1846  1.9995
 4961SOL    HW226346   2.943   3.176  14.162  2.0275  3.0093  0.3838
 4962SOL     OW26347   1.181   0.918  10.883  0.5490  0.0506 -0.2389
 4962SOL    HW126348   1.249   0.944  10.945 -0.6999 -1.3059  1.7004
 4962SOL    HW226349   1.207   0.827  10.871  1.4602  0.3033 -0.1357
 4963SOL     OW26350   2.241   3.790   4.459 -0.1804 -0.5698 -0.2709
 4963SOL    HW126351   2.311   3.812   4.520 -0.1483  1.2598 -0.9662
 4963SOL    HW226352   2.189   3.724   4.504 -0.7280  0.3238  0.4193
 4964SOL     OW26353   4.606   0.934  10.408  0.2869 -0.0049  0.2620
 4964SOL    HW126354   4.655   0.959  10.487  0.0661 -1.7322  0.9447
 4964SOL    HW226355   4.575   1.021  10.384  1.1610  0.1197 -0.4364
 4965SOL     OW26356   4.020   0.106   7.684  0.3361  0.1396  0.5745
 4965SOL    HW126357   4.063   0.103   7.599  2.9267 -1.1249  1.9180
 4965SOL    HW226358   4.083   0.052   7.733  1.8804  0.5210 -1.0210
 4966SOL     OW26359   3.093   4.467   4.821  0.0516  0.5538  0.5031
 4966SOL    HW126360   3.068   4.400   4.757 -1.1195 -2.1911  3.8335
 4966SOL    HW226361   3.135   4.534   4.768  0.5893  0.1015  0.3620
 4967SOL     OW26362   0.789   4.114  10.940 -0.6800 -0.3745 -0.1501
 4967SOL    HW126363   0.747   4.095  11.024  0.0270 -2.1807 -0.2067
 4967SOL    HW226364   0.717   4.161  10.899  2.7321  2.9756 -2.2474
 4968SOL     OW26365   0.527   4.327   5.794  0.7821 -0.6752 -0.0882
 4968SOL    HW126366   0.467   4.269   5.840  0.0361 -0.6391 -1.0310
 4968SOL    HW226367   0.476   4.408   5.785  0.8173 -0.6736 -0.2813
 4969SOL     OW26368   1.710   2.867   3.805  0.5458 -0.4322 -0.3268
 4969SOL    HW126369   1.682   2.942   3.753  0.8834 -0.8868 -1.1678
 4969SOL    HW226370   1.786   2.835   3.757  2.4643  0.5480  2.0702
 4970SOL     OW26371   3.489   1.108   6.013  0.5089  0.3384  0.1610
 4970SOL    HW126372   3.545   1.031   6.007  1.2464  0.8399  0.7183
 4970SOL    HW226373   3.474   1.133   5.921 -0.3952  1.3240  0.5757
 4971SOL     OW26374   1.976   1.391   1.840 -0.0635 -0.3429 -0.2424
 4971SOL    HW126375   1.993   1.302   1.872  0.8626  0.3720  1.2750
 4971SOL    HW226376   1.945   1.365   1.754 -1.1861  0.6190 -0.1247
 4972SOL     OW26377   3.089   0.897   9.833  0.1582  0.1459 -0.4313
 4972SOL    HW126378   3.108   0.926   9.922  0.5356  0.3385 -0.5756
 4972SOL    HW226379   3.013   0.840   9.845  1.3052 -1.0517  1.2199
 4973SOL     OW26380   3.943   0.287  14.802  0.5814  0.3292 -0.1941
 4973SOL    HW126381   3.986   0.372  14.813 -0.3546  0.6819  0.7581
 4973SOL    HW226382   3.849   0.304  14.802  0.4528 -0.4175  1.6757
 4974SOL     OW26383   3.362   4.278  14.864  0.3929  0.4953  0.1396
 4974SOL    HW126384   3.275   4.316  14.852  1.1736  3.1785  2.9368
 4974SOL    HW226385   3.341   4.184  14.863 -0.2542  0.6433 -0.1850
 4975SOL     OW26386   3.323   2.297   5.742  0.0485 -0.6741 -0.2809
 4975SOL    HW126387   3.403   2.269   5.785  1.3482  0.5856 -1.8820
 4975SOL    HW226388   3.263   2.276   5.814 -2.1854  0.7057 -1.7135
 4976SOL     OW26389   2.057   1.647   9.486 -0.2635 -0.2830 -0.5521
 4976SOL    HW126390   1.965   1.632   9.506 -0.0579  0.8156  1.2426
 4976SOL    HW226391   2.090   1.679   9.570  1.0039  1.2565 -1.6407
 4977SOL     OW26392   2.684   1.818   6.731 -0.2692  0.3902  0.4852
 4977SOL    HW126393   2.644   1.806   6.817 -0.2978 -0.9254  0.2888
 4977SOL    HW226394   2.681   1.731   6.691  1.2046  0.5701 -0.0097
 4978SOL     OW26395   2.646   0.960   9.438  0.3888  0.5961  0.2209
 4978SOL    HW126396   2.587   0.887   9.422 -1.8643  2.3561  0.4316
 4978SOL    HW226397   2.661   0.951   9.532  0.4286 -1.6461  0.0038
 4979SOL     OW26398   4.079   3.786   6.094  0.7421 -0.5268 -0.4218
 4979SOL    HW126399   3.999   3.747   6.128 -0.3421  0.8566 -1.4224
 4979SOL    HW226400   4.149   3.763   6.155  2.1750 -0.7443 -2.1405
 4980SOL     OW26401   4.300   1.781   5.349  0.0729 -0.6524 -0.3877
 4980SOL    HW126402   4.313   1.769   5.443  0.4145 -0.9418 -0.4722
 4980SOL    HW226403   4.296   1.690   5.320 -0.0385 -0.2485 -1.6368
 4981SOL     OW26404   4.509   3.448  10.273  0.4729 -0.1993  0.3157
 4981SOL    HW126405   4.592   3.406  10.295  0.5822  1.2329  2.6349
 4981SOL    HW226406   4.520   3.482  10.184  1.2517  0.0402  0.5042
 4982SOL     OW26407   2.081   1.591   6.772 -0.6817 -0.5500 -0.0961
 4982SOL    HW126408   2.070   1.567   6.680 -0.4915 -2.6289  0.4086
 4982SOL    HW226409   2.165   1.636   6.778 -0.8655 -0.1902 -0.2499
 4983SOL     OW26410   4.690   0.335   5.965  0.1995  0.3418 -0.3593
 4983SOL    HW126411   0.015   0.258   5.933  0.6736  0.5242 -0.1030
 4983SOL    HW226412   4.679   0.389   5.887 -0.9802 -1.3358 -1.3450
 4984SOL     OW26413   4.082   1.232   2.983  0.4730  0.7155  0.1623
 4984SOL    HW126414   4.036   1.311   2.954  1.5301  1.4727  0.5625
 4984SOL    HW226415   4.173   1.260   2.978  0.6105  0.5081  1.4382
 4985SOL     OW26416   1.332   1.215  11.254 -0.1657 -0.1412  0.3690
 4985SOL    HW126417   1.278   1.136  11.261 -0.3416 -0.0793 -0.2555
 4985SOL    HW226418   1.415   1.175  11.280 -0.0177 -0.3770 -0.4831
 4986SOL     OW26419   3.858   4.448   5.187 -0.0879 -0.3842  0.0517
 4986SOL    HW126420   3.942   4.471   5.146 -0.6713 -0.2551 -1.0745
 4986SOL    HW226421   3.818   4.535   5.183 -2.5398 -1.4922  0.9638
 4987SOL     OW26422   3.034   3.686  11.147  0.3726  0.2312 -0.0620
 4987SOL    HW126423   2.970   3.624  11.182 -0.6185  2.5102  2.1787
 4987SOL    HW226424   3.113   3.638  11.169  0.0410  0.0318  0.6905
 4988SOL     OW26425   1.342   0.407   1.400 -0.4142  0.0817  0.4468
 4988SOL    HW126426   1.353   0.488   1.449  0.1285  0.5028 -0.3612
 4988SOL    HW226427   1.427   0.368   1.417 -0.1083  0.2772 -0.5966
 4989SOL     OW26428   4.707   2.937  17.610 -0.0246  0.3366 -0.5097
 4989SOL    HW126429   4.695   2.904   0.008 -0.7816  0.7940 -0.4396
 4989SOL    HW226430   0.060   2.995  17.622 -1.3510  1.8120  0.5979
 4990SOL     OW26431   0.902   3.881  12.811  0.2182 -0.9578 -0.1142
 4990SOL    HW126432   0.940   3.810  12.759 -1.0781 -0.6061 -1.5184
 4990SOL    HW226433   0.966   3.867  12.881  1.1132  0.1706 -0.7036
 4991SOL     OW26434   3.116   3.610   9.550  0.4221 -0.3740 -0.3641
 4991SOL    HW126435   3.175   3.564   9.490 -2.3542 -1.3201 -2.3564
 4991SOL    HW226436   3.079   3.529   9.586  3.6346 -1.2492  0.9396
 4992SOL     OW26437   3.338   1.640   8.320  0.5335  0.7405  0.2075
 4992SOL    HW126438   3.299   1.632   8.407 -2.1305  0.3277 -1.0484
 4992SOL    HW226439   3.430   1.656   8.342  0.8565  0.5821 -1.0123
 4993SOL     OW26440   2.927   3.624   8.604 -0.2483  0.2845 -0.3463
 4993SOL    HW126441   2.856   3.684   8.628  0.3505  1.1196 -0.6257
 4993SOL    HW226442   2.975   3.677   8.540 -0.2904  0.8371  0.0744
 4994SOL     OW26443   0.781   1.999  13.970 -0.3263 -0.0516  0.7773
 4994SOL    HW126444   0.862   1.949  13.964 -0.6877 -0.6673  1.0593
 4994SOL    HW226445   0.781   2.038  14.058  1.0977 -1.4625  1.3852
 4995SOL     OW26446   1.348   3.925  15.365  0.0387 -0.3144 -0.3566
 4995SOL    HW126447   1.377   3.897  15.452 -0.3668  1.8309  0.4671
 4995SOL    HW226448   1.404   3.999  15.342 -2.1136  0.8857 -1.7409
 4996SOL     OW26449   4.271   0.884   9.260  0.5124  0.3982 -0.4980
 4996SOL    HW126450   4.216   0.911   9.186 -0.9902  3.1550  1.6550
 4996SOL    HW226451   4.349   0.934   9.237 -0.3398  2.1116  0.3702
 4997SOL     OW26452   2.977   2.672  12.369 -0.0088 -0.5791  0.1713
 4997SOL    HW126453   2.915   2.619  12.419 -0.1945 -1.3852 -0.9081
 4997SOL    HW226454   2.970   2.761  12.403  4.1822 -1.1102  2.3168
 4998SOL     OW26455   4.051   2.003   6.439 -0.0592 -0.0632  0.6202
 4998SOL    HW126456   4.108   1.937   6.401 -2.3735 -0.4238 -2.2154
 4998SOL    HW226457   4.022   1.958   6.518  1.4803 -0.1496  1.1522
 4999SOL     OW26458   2.598   0.657  14.057  0.3871 -0.4569 -0.0202
 4999SOL    HW126459   2.670   0.718  14.046 -1.2573  1.9557  2.4621
 4999SOL    HW226460   2.630   0.587  14.000  0.2050  0.8315 -1.7000
 5000SOL     OW26461   1.014   2.791   0.036 -0.2513 -0.3359  0.4243
 5000SOL    HW126462   0.925   2.823   0.020  0.0586  0.6235  0.6123
 5000SOL    HW226463   0.992   2.720   0.096  2.2730  0.0607  1.8396
 5001SOL     OW26464   4.087   0.740   7.038  0.2346  0.2332 -0.0380
 5001SOL    HW126465   4.177   0.733   7.008  0.2133  0.9865 -0.2790
 5001SOL    HW226466   4.044   0.793   6.971 -0.0391 -0.3871 -0.3452
 5002SOL     OW26467   2.765   3.982   6.161 -0.0553 -0.3732  0.5512
 5002SOL    HW126468   2.841   4.037   6.176  2.7204 -3.5092 -2.0432
 5002SOL    HW226469   2.797   3.910   6.106  0.1304 -0.5246  0.8611
 5003SOL     OW26470   2.268   1.398   1.848 -0.4682  0.3210 -0.6687
 5003SOL    HW126471   2.180   1.388   1.886 -0.5614  0.2628 -0.9010
 5003SOL    HW226472   2.263   1.492   1.830  2.9956  0.8063  0.8594
 5004SOL     OW26473   4.477   2.343   2.752  0.0659 -0.1367 -0.0781
 5004SOL    HW126474   4.400   2.368   2.804  1.9522  1.6051  1.9166
 5004SOL    HW226475   4.457   2.251   2.739 -0.1721  0.0749 -1.1790
 5005SOL     OW26476   4.618   1.784   4.951  0.8089  0.1663 -0.1184
 5005SOL    HW126477   4.609   1.852   4.885  1.3075  0.1352 -0.2176
 5005SOL    HW226478   4.529   1.786   4.986 -0.1159 -0.8040 -2.4036
 5006SOL     OW26479   0.380   3.976   0.780  0.0961 -0.1912  0.2386
 5006SOL    HW126480   0.371   3.884   0.756  0.2625 -0.4490  1.1449
 5006SOL    HW226481   0.472   3.985   0.807  0.6152 -3.4350 -0.4041
 5007SOL     OW26482   2.814   2.897   5.407 -0.1645  0.3220 -0.2220
 5007SOL    HW126483   2.885   2.961   5.404  3.7725 -4.1208 -2.0517
 5007SOL    HW226484   2.771   2.922   5.489 -0.6559 -1.0525 -0.0540
 5008SOL     OW26485   2.779   3.310  12.431  0.1675  0.4365  0.5356
 5008SOL    HW126486   2.747   3.230  12.389  0.5269 -0.2209  1.5193
 5008SOL    HW226487   2.827   3.268  12.503  0.9180 -0.2319 -0.3560
 5009SOL     OW26488   4.346   2.145   7.351 -0.4850  0.1474  0.0483
 5009SOL    HW126489   4.314   2.136   7.261 -0.4973 -1.9299  0.2467
 5009SOL    HW226490   4.264   2.160   7.399 -1.0097 -1.5499 -0.3117
 5010SOL     OW26491   0.559   3.137   2.708 -0.3221 -0.1493 -0.1429
 5010SOL    HW126492   0.547   3.134   2.803 -2.6076 -0.2371 -0.4286
 5010SOL    HW226493   0.513   3.217   2.681  0.0959 -0.3912 -1.5842
 5011SOL     OW26494   0.337   4.278   8.693 -0.0428  0.1947  0.5716
 5011SOL    HW126495   0.394   4.344   8.730 -0.8836  1.4314 -0.3343
 5011SOL    HW226496   0.399   4.206   8.699 -0.4903 -0.2104  0.3559
 5012SOL     OW26497   1.299   1.026   0.705 -0.8504  0.1343 -0.0675
 5012SOL    HW126498   1.217   1.074   0.692 -1.6250 -1.7045 -1.7742
 5012SOL    HW226499   1.268   0.951   0.755 -1.1667 -0.4231 -1.1267
 5013SOL     OW26500   0.699   3.389   7.710  0.6279  0.1284  0.0979
 5013SOL    HW126501   0.645   3.366   7.786  1.4813  0.0435  0.6689
 5013SOL    HW226502   0.698   3.305   7.664 -1.6786 -0.4386  1.1489
 5014SOL     OW26503   0.380   3.457   1.562  0.6503  0.1498  0.4534
 5014SOL    HW126504   0.351   3.546   1.579  1.4161  0.4334  0.2687
 5014SOL    HW226505   0.349   3.410   1.639 -0.4049  1.2496  0.6994
 5015SOL     OW26506   0.450   0.517   4.263 -0.3647  0.6470  0.6545
 5015SOL    HW126507   0.520   0.577   4.238  1.1373 -0.1213  2.9996
 5015SOL    HW226508   0.495   0.470   4.333  2.0883 -0.1973 -1.5050
 5016SOL     OW26509   1.931   1.045   6.857 -0.2510  1.1632 -0.1711
 5016SOL    HW126510   1.840   1.029   6.832  0.4999 -0.9318 -1.5519
 5016SOL    HW226511   1.913   1.058   6.951  2.0661 -2.4820  0.7586
 5017SOL     OW26512   3.610   0.919   3.522 -0.0364  0.2146 -0.1980
 5017SOL    HW126513   3.574   0.921   3.433  0.8670 -1.3729 -0.6020
 5017SOL    HW226514   3.613   0.824   3.525  0.6866  0.2259 -0.4843
 5018SOL     OW26515   4.068   0.740   4.957  0.9729  0.5607 -0.2634
 5018SOL    HW126516   4.135   0.672   4.953  0.2675 -0.1518 -0.0191
 5018SOL    HW226517   4.108   0.799   5.022 -0.8136 -0.0409  1.3832
 5019SOL     OW26518   1.504   1.286   6.478  0.0489  0.4096 -0.1649
 5019SOL    HW126519   1.439   1.222   6.507  1.2006  0.5691  2.7603
 5019SOL    HW226520   1.573   1.270   6.542 -1.3978  2.0327  1.8249
 5020SOL     OW26521   2.734   2.851   2.748 -0.4975  0.7300 -0.4407
 5020SOL    HW126522   2.794   2.872   2.677 -0.2306  0.4962 -0.2864
 5020SOL    HW226523   2.785   2.885   2.822 -0.4453 -1.4551  0.5389
 5021SOL     OW26524   1.091   3.568  13.266  0.0227 -0.0346 -0.1863
 5021SOL    HW126525   1.034   3.516  13.210 -1.1024 -1.3001  2.1544
 5021SOL    HW226526   1.033   3.627  13.314 -1.2423 -0.2708 -1.4379
 5022SOL     OW26527   4.610   1.362  16.367  0.4056  0.4773  0.1885
 5022SOL    HW126528   4.598   1.267  16.360 -2.2779  0.8891 -0.8308
 5022SOL    HW226529   4.519   1.389  16.354  0.2291  0.7080  1.9514
 5023SOL     OW26530   4.015   4.254  11.570  0.1193  0.1430  0.0253
 5023SOL    HW126531   3.933   4.250  11.519  0.1953 -2.8768  0.1507
 5023SOL    HW226532   4.014   4.324  11.635 -1.2160 -0.8667  1.0856
 5024SOL     OW26533   2.329   4.721   5.571  0.7413  0.4305 -0.1311
 5024SOL    HW126534   2.338   4.683   5.658 -1.9060 -0.0053 -0.0263
 5024SOL    HW226535   2.243   4.684   5.548  1.5408 -0.2662 -1.9914
 5025SOL     OW26536   4.708   0.490   6.223  0.2197  0.8441  0.4133
 5025SOL    HW126537   0.004   0.567   6.169 -1.2169  0.3998 -0.7019
 5025SOL    HW226538   4.687   0.430   6.151 -1.4861  2.4334 -0.4113
 5026SOL     OW26539   2.537   3.460   4.350  0.0076  0.5012  0.4674
 5026SOL    HW126540   2.585   3.495   4.425  0.2187 -2.0727  1.5112
 5026SOL    HW226541   2.610   3.452   4.288 -2.1164  0.5786 -2.0551
 5027SOL     OW26542   3.378   3.000  12.756 -0.5073 -0.5082 -0.1504
 5027SOL    HW126543   3.344   2.940  12.690  1.1792 -0.2449 -1.2428
 5027SOL    HW226544   3.401   2.941  12.828 -4.4907 -0.4702  1.1274
 5028SOL     OW26545   2.727   1.890   5.688  0.1387 -0.0650  0.5134
 5028SOL    HW126546   2.668   1.887   5.763 -0.5576  1.4379  0.0343
 5028SOL    HW226547   2.762   1.802   5.700  0.0493 -0.1836 -0.0593
 5029SOL     OW26548   1.630   1.224   2.534 -0.0047  0.5646  0.5394
 5029SOL    HW126549   1.702   1.287   2.524  0.2092 -0.3091 -3.3908
 5029SOL    HW226550   1.560   1.268   2.582 -0.6996  2.6252 -2.3442
 5030SOL     OW26551   4.653   0.504   7.706 -0.0283  0.1895  0.6047
 5030SOL    HW126552   4.644   0.409   7.716 -2.0482  0.3615  0.2980
 5030SOL    HW226553   4.574   0.518   7.654 -2.1684  0.6895  4.0302
 5031SOL     OW26554   2.196   3.202   5.800 -0.0073  0.3401 -0.0463
 5031SOL    HW126555   2.154   3.249   5.871 -1.4323  1.2167 -1.4854
 5031SOL    HW226556   2.189   3.112   5.834  1.5219  0.2600  0.0621
 5032SOL     OW26557   3.570   4.471  13.016  0.1689 -0.1646  0.0807
 5032SOL    HW126558   3.567   4.439  12.926  2.0899  2.3974 -0.9200
 5032SOL    HW226559   3.611   4.394  13.056 -2.7331 -2.0443 -0.5791
 5033SOL     OW26560   3.976   2.444   6.401 -0.7194 -0.2326 -0.0979
 5033SOL    HW126561   3.936   2.372   6.450  0.1470 -0.1490  0.7409
 5033SOL    HW226562   3.938   2.434   6.314 -0.4030 -0.7116 -0.1788
 5034SOL     OW26563   2.903   0.467   0.219 -0.4997  0.2645 -0.1684
 5034SOL    HW126564   2.824   0.423   0.187  0.0444  0.1364 -1.3326
 5034SOL    HW226565   2.902   0.446   0.312 -1.3015  0.6667 -0.0848
 5035SOL     OW26566   2.537   0.729  15.232 -0.1544 -0.4097 -0.2457
 5035SOL    HW126567   2.602   0.699  15.167 -0.8240 -0.9028 -0.6837
 5035SOL    HW226568   2.575   0.815  15.250 -3.1681  1.1761 -1.4827
 5036SOL     OW26569   2.281   3.807   4.205  0.1999  0.1357  0.0558
 5036SOL    HW126570   2.238   3.813   4.290 -0.7176 -0.8266 -0.3407
 5036SOL    HW226571   2.371   3.779   4.221  0.7752  1.2354 -1.2881
 5037SOL     OW26572   2.284   1.910   6.824  0.8676  0.6044  0.4556
 5037SOL    HW126573   2.322   1.826   6.850 -1.2851 -0.0729  1.3757
 5037SOL    HW226574   2.302   1.908   6.730  2.5804  0.1726  0.7927
 5038SOL     OW26575   0.245   3.427   0.623 -0.7620 -0.0278  0.1548
 5038SOL    HW126576   0.210   3.373   0.693 -2.0900  0.4581 -0.1328
 5038SOL    HW226577   0.186   3.401   0.553  0.5447 -1.0401 -0.5787
 5039SOL     OW26578   2.839   4.628  15.424 -0.5535 -0.1822  0.0450
 5039SOL    HW126579   2.768   4.690  15.442  0.4696  0.7609  0.8466
 5039SOL    HW226580   2.881   4.649  15.507  0.8942 -0.3737 -0.6491
 5040SOL     OW26581   1.488   1.014   7.131 -0.1785 -0.0523  0.3076
 5040SOL    HW126582   1.451   0.992   7.217 -0.4811 -2.7291 -0.5068
 5040SOL    HW226583   1.497   0.932   7.082 -0.6646 -0.6384  1.1785
 5041SOL     OW26584   3.860   4.046   6.179 -0.9322 -0.1044  0.6172
 5041SOL    HW126585   3.891   4.132   6.151  1.2152 -0.8555  0.7173
 5041SOL    HW226586   3.792   4.017   6.117  0.2528  0.9981 -1.2043
 5042SOL     OW26587   2.774   1.146  11.316 -0.3276 -0.3569  0.3681
 5042SOL    HW126588   2.751   1.142  11.223 -2.0204  3.2973  0.6170
 5042SOL    HW226589   2.711   1.085  11.354 -1.8200  1.5169  0.9430
 5043SOL     OW26590   1.410   4.339   7.853  0.4334 -0.5399 -0.0467
 5043SOL    HW126591   1.430   4.430   7.877  1.7810 -0.8731  0.0619
 5043SOL    HW226592   1.434   4.296   7.935  1.3836 -2.4018 -1.3119
 5044SOL     OW26593   4.062   2.215   0.262  0.0763  0.0480 -0.0835
 5044SOL    HW126594   4.111   2.290   0.228  1.4011 -0.4633  0.7229
 5044SOL    HW226595   4.115   2.208   0.341 -2.8946  0.9426  1.9913
 5045SOL     OW26596   0.520   0.053   5.777 -0.2535  0.1456 -0.1076
 5045SOL    HW126597   0.445   0.102   5.743 -1.5593 -1.2226  0.7470
 5045SOL    HW226598   0.517   0.049   5.873 -2.6756 -1.4377 -0.2476
 5046SOL     OW26599   2.878   3.482   4.307 -0.3451  0.0003 -0.8493
 5046SOL    HW126600   2.960   3.443   4.336  0.4471  1.6582 -0.9211
 5046SOL    HW226601   2.897   3.559   4.254 -0.8485  1.0052  0.4486
 5047SOL     OW26602   2.905   3.203   5.104 -0.6871 -0.5808  0.3003
 5047SOL    HW126603   2.984   3.203   5.050  0.3779  0.3913  1.8370
 5047SOL    HW226604   2.835   3.188   5.040 -0.6939  1.2446 -0.1024
 5048SOL     OW26605   3.624   1.852   3.913  0.5665  0.1860  0.5290
 5048SOL    HW126606   3.675   1.852   3.832  2.4886  1.7911  1.7429
 5048SOL    HW226607   3.676   1.904   3.974  0.8467  0.9660 -0.3757
 5049SOL     OW26608   3.655   3.026   7.307  0.0252  0.5182  0.2878
 5049SOL    HW126609   3.708   2.985   7.239  0.1520 -1.1633  1.3718
 5049SOL    HW226610   3.716   3.005   7.378 -1.0768 -0.0171  1.0818
 5050SOL     OW26611   0.294   2.781   6.800 -0.3159 -0.1159  0.2603
 5050SOL    HW126612   0.226   2.714   6.795  0.4252 -0.9388  1.3975
 5050SOL    HW226613   0.242   2.857   6.827  1.7930  1.8307 -1.1653
 5051SOL     OW26614   2.569   4.601   7.007  0.2786 -0.0829 -0.1732
 5051SOL    HW126615   2.630   4.594   6.933  0.6474 -1.1390  0.2317
 5051SOL    HW226616   2.504   4.541   6.969  0.5562 -0.5366  0.0665
 5052SOL     OW26617   1.829   4.352  14.013 -0.6185  0.4911 -0.5902
 5052SOL    HW126618   1.803   4.342  13.922  1.2929  0.3519 -1.1125
 5052SOL    HW226619   1.749   4.326  14.060  0.8023 -1.1045  0.9364
 5053SOL     OW26620   0.741   1.345  12.559  0.0296 -0.1115  0.6417
 5053SOL    HW126621   0.789   1.409  12.506  2.5872 -1.9671  0.6890
 5053SOL    HW226622   0.812   1.282  12.570  0.2509  0.1907  0.9183
 5054SOL     OW26623   0.351   1.046   9.376 -0.1210 -0.5352 -0.7865
 5054SOL    HW126624   0.430   1.100   9.367  0.6372 -1.4131  0.4593
 5054SOL    HW226625   0.327   1.039   9.284 -2.4373  2.3367 -0.3764
 5055SOL     OW26626   3.149   3.118   7.129 -0.2114 -0.1057  0.0958
 5055SOL    HW126627   3.211   3.067   7.182 -0.0883  2.0815  2.0507
 5055SOL    HW226628   3.185   3.207   7.121 -0.2750  0.0633  1.6702
 5056SOL     OW26629   2.493   2.608   8.318  0.4537  0.7537  0.4756
 5056SOL    HW126630   2.560   2.647   8.263 -0.0124 -0.6952 -1.1177
 5056SOL    HW226631   2.538   2.537   8.362 -0.1559 -0.4905 -0.9241
 5057SOL     OW26632   0.401   1.805   3.728 -0.0787  0.3311 -0.3540
 5057SOL    HW126633   0.334   1.868   3.702  0.9526  0.9383 -1.4963
 5057SOL    HW226634   0.381   1.738   3.662  1.1317 -0.5975  0.2190
 5058SOL     OW26635   4.142   2.808   0.806 -0.0760 -0.5204 -0.4324
 5058SOL    HW126636   4.081   2.766   0.867 -2.5929  2.7044 -0.7198
 5058SOL    HW226637   4.096   2.794   0.723 -1.4374 -0.2897  0.2927
 5059SOL     OW26638   1.835   1.674   4.539  0.7636 -0.1533  0.2879
 5059SOL    HW126639   1.763   1.634   4.588  0.0272  0.8123  0.0175
 5059SOL    HW226640   1.782   1.696   4.462 -0.5321  1.5885  1.6769
 5060SOL     OW26641   3.735   4.228   8.496 -0.0423 -0.2789 -0.4162
 5060SOL    HW126642   3.773   4.305   8.454 -1.4451  1.3036  1.2144
 5060SOL    HW226643   3.646   4.254   8.517 -0.3124 -0.2674 -1.5525
 5061SOL     OW26644   2.552   0.508   1.956 -0.1872 -0.2014 -0.4244
 5061SOL    HW126645   2.511   0.427   1.925  0.1692 -0.6405  0.2428
 5061SOL    HW226646   2.484   0.568   1.926 -0.3998 -0.4082 -0.3563
 5062SOL     OW26647   2.953   0.770  11.557 -0.3069 -0.7767 -0.3106
 5062SOL    HW126648   2.914   0.855  11.538  2.6525  0.4076 -1.0040
 5062SOL    HW226649   2.960   0.778  11.652  3.4829  0.4106 -0.7156
 5063SOL     OW26650   1.000   4.312   3.879  0.4980  0.1706 -0.6599
 5063SOL    HW126651   1.019   4.381   3.815 -0.7669  0.4604 -0.7275
 5063SOL    HW226652   1.012   4.230   3.831 -1.3899 -0.0751 -0.7085
 5064SOL     OW26653   0.328   1.029   3.208 -0.2036  0.1252 -0.1522
 5064SOL    HW126654   0.404   0.999   3.158  1.4167  1.6517  1.4319
 5064SOL    HW226655   0.324   1.124   3.196  0.7900  0.4927  2.5862
 5065SOL     OW26656   2.017   1.105   5.772  0.5810 -0.5235  0.1450
 5065SOL    HW126657   2.005   1.032   5.832 -4.8597 -0.5125 -0.9556
 5065SOL    HW226658   2.036   1.066   5.686 -1.9846  0.3803 -0.8063
 5066SOL     OW26659   3.595   1.902   6.924 -0.0468  0.1120 -0.1019
 5066SOL    HW126660   3.522   1.854   6.885 -0.3871 -0.6917  1.5154
 5066SOL    HW226661   3.630   1.836   6.984  2.6461  1.1159 -0.5970
 5067SOL     OW26662   2.901   2.240   8.590 -0.4185 -0.2624 -0.6998
 5067SOL    HW126663   2.899   2.208   8.500 -1.4307 -1.1741 -0.3493
 5067SOL    HW226664   2.934   2.329   8.576  1.8205 -1.0143 -0.2144
 5068SOL     OW26665   3.058   4.354   8.895  0.0350 -0.7973  0.0130
 5068SOL    HW126666   3.141   4.308   8.889  2.1522  2.5078  3.8293
 5068SOL    HW226667   3.012   4.325   8.817  2.2457 -0.4707 -1.4282
 5069SOL     OW26668   2.913   3.038  14.413 -0.4972  0.6031 -0.1866
 5069SOL    HW126669   2.975   3.100  14.451  0.5134 -0.2883 -0.3621
 5069SOL    HW226670   2.959   3.003  14.336  1.8649  1.7548  0.6978
 5070SOL     OW26671   4.198   1.792   5.850  0.1028 -1.0819 -0.0587
 5070SOL    HW126672   4.211   1.864   5.911 -2.1564 -2.1250  1.6867
 5070SOL    HW226673   4.207   1.834   5.764 -0.6193  0.3990  0.5860
 5071SOL     OW26674   1.661   1.550   4.691 -0.3074 -0.0883  0.2042
 5071SOL    HW126675   1.645   1.462   4.724 -0.2760 -0.2537 -0.2251
 5071SOL    HW226676   1.575   1.579   4.661 -0.6535 -1.6444 -0.3048
 5072SOL     OW26677   1.764   1.070   7.089 -0.4119  0.2940  0.2832
 5072SOL    HW126678   1.783   0.979   7.110  1.1427  0.8838  1.3804
 5072SOL    HW226679   1.674   1.064   7.120 -0.7062  0.5150 -0.5209
 5073SOL     OW26680   2.059   2.649  14.749  0.3267 -0.0499 -0.6294
 5073SOL    HW126681   2.131   2.712  14.752  1.8641 -1.7854 -1.3185
 5073SOL    HW226682   1.987   2.696  14.705 -0.8181 -2.1227 -0.9847
 5074SOL     OW26683   1.293   1.046  13.731 -0.2129 -0.0555 -0.3208
 5074SOL    HW126684   1.372   0.993  13.742 -1.2308 -1.0750  2.0377
 5074SOL    HW226685   1.327   1.093  13.655 -1.6515  1.6495  0.0644
 5075SOL     OW26686   3.883   2.730   8.132  0.4189 -0.2559  0.4128
 5075SOL    HW126687   3.932   2.652   8.107  0.3036  0.1952 -1.2335
 5075SOL    HW226688   3.914   2.784   8.060  1.1571 -0.6201  0.4605
 5076SOL     OW26689   0.293   4.485   5.809 -0.3979  0.5472 -0.2676
 5076SOL    HW126690   0.253   4.423   5.748  0.2795 -1.6451  1.5174
 5076SOL    HW226691   0.290   4.552   5.742  1.8517  2.8581  1.9482
 5077SOL     OW26692   1.606   4.540   5.896 -0.2886  0.0216  0.4228
 5077SOL    HW126693   1.566   4.539   5.809  0.2443  1.2056  0.1687
 5077SOL    HW226694   1.631   4.630   5.914  0.3012 -0.0954  0.1967
 5078SOL     OW26695   1.521   1.547   2.138 -0.5986 -0.2442 -0.0298
 5078SOL    HW126696   1.474   1.624   2.169 -0.2012  0.0590 -0.1790
 5078SOL    HW226697   1.609   1.585   2.138 -0.4278 -0.6369 -0.5315
 5079SOL     OW26698   3.763   0.001   2.957  0.3157 -0.6053 -0.8395
 5079SOL    HW126699   3.709   0.027   3.032  1.2102 -1.3358  0.0513
 5079SOL    HW226700   3.830   4.668   2.996 -0.0073 -0.7897 -0.5515
 5080SOL     OW26701   3.067   2.185   7.290  0.5280 -0.2733 -0.8084
 5080SOL    HW126702   3.134   2.173   7.358 -0.6690 -0.0879  0.3862
 5080SOL    HW226703   3.060   2.280   7.291  2.4603 -0.1217 -0.4931
 5081SOL     OW26704   2.290   2.364   0.359  0.1765 -0.1082  0.0579
 5081SOL    HW126705   2.225   2.434   0.362  1.7957  1.3655  0.9150
 5081SOL    HW226706   2.275   2.311   0.281 -1.1373  2.1218 -1.1842
 5082SOL     OW26707   4.217   1.890   4.748 -0.2438  0.1118 -0.3937
 5082SOL    HW126708   4.161   1.956   4.789  1.8895  1.1602  0.8424
 5082SOL    HW226709   4.250   1.940   4.673 -2.3335  2.5403  0.3062
 5083SOL     OW26710   4.107   3.790   0.473  0.0433 -0.7456  0.0515
 5083SOL    HW126711   4.084   3.705   0.436 -1.8189 -0.9476  1.7085
 5083SOL    HW226712   4.092   3.846   0.397 -0.6260 -0.0271  0.7223
 5084SOL     OW26713   1.665   1.285   7.270  0.1394  0.2346  0.5416
 5084SOL    HW126714   1.685   1.315   7.181  0.3657 -0.8472  0.2322
 5084SOL    HW226715   1.572   1.266   7.278  0.2723  0.1521  1.8321
 5085SOL     OW26716   0.239   4.628   2.228  0.7507  0.1435 -0.6464
 5085SOL    HW126717   0.204   4.560   2.171  1.3391 -1.7930  1.2939
 5085SOL    HW226718   0.161   4.654   2.276  0.7706  1.2169 -1.2065
 5086SOL     OW26719   3.723   1.393   8.277 -0.1636 -0.7254 -0.0317
 5086SOL    HW126720   3.760   1.448   8.207 -1.4864  2.7374  2.0352
 5086SOL    HW226721   3.674   1.329   8.225 -0.2719  0.1177 -0.9722
 5087SOL     OW26722   1.938   1.990   2.499 -0.5463  0.8029 -0.5000
 5087SOL    HW126723   1.914   2.080   2.518  2.5934  1.5529 -0.0538
 5087SOL    HW226724   1.974   1.995   2.410  0.2988 -1.8210 -0.3169
 5088SOL     OW26725   4.394   1.147   7.462 -0.1093  0.0467  0.5918
 5088SOL    HW126726   4.365   1.235   7.485  0.6003 -0.0434  1.8334
 5088SOL    HW226727   4.481   1.147   7.503  1.4586 -0.7274 -2.7310
 5089SOL     OW26728   4.353   3.267  13.846  0.1691  0.9752  0.7268
 5089SOL    HW126729   4.374   3.220  13.765  0.2959  0.3064  1.1423
 5089SOL    HW226730   4.267   3.226  13.858 -0.0012  0.6894 -1.4988
 5090SOL     OW26731   3.183   0.583   6.364  0.3901 -0.1470 -0.5831
 5090SOL    HW126732   3.122   0.603   6.292 -4.0502 -2.1752  2.6223
 5090SOL    HW226733   3.255   0.540   6.317 -0.0142 -1.4730  0.0103
 5091SOL     OW26734   2.389   3.940   8.922 -0.0929 -0.0956 -0.4342
 5091SOL    HW126735   2.414   3.923   9.012  1.2562  2.1264 -0.3755
 5091SOL    HW226736   2.370   4.033   8.938 -0.1794 -0.4523  1.4968
 5092SOL     OW26737   0.835   4.257  12.507  0.4059  0.2832 -0.1023
 5092SOL    HW126738   0.913   4.288  12.554  0.6008 -1.3334  0.6146
 5092SOL    HW226739   0.773   4.297  12.569  0.0525 -0.7783  0.2160
 5093SOL     OW26740   4.108   1.549   8.114  0.2496 -0.4824  0.0460
 5093SOL    HW126741   4.152   1.511   8.190  1.2925  1.4493  0.3923
 5093SOL    HW226742   4.117   1.468   8.062 -1.3649 -0.3204 -0.4939
 5094SOL     OW26743   1.308   3.554  16.483 -0.2486  0.7707 -0.7031
 5094SOL    HW126744   1.253   3.614  16.432 -1.0580  1.7232  1.2954
 5094SOL    HW226745   1.259   3.472  16.474  2.0854 -0.9367  2.5310
 5095SOL     OW26746   4.129   4.262   3.788  0.2815  0.5796  0.4653
 5095SOL    HW126747   4.101   4.173   3.766 -0.9184  1.2242 -0.5454
 5095SOL    HW226748   4.143   4.305   3.704  0.3003  0.4247  0.3887
 5096SOL     OW26749   1.302   2.350   9.976 -0.1407  0.7565 -0.1460
 5096SOL    HW126750   1.256   2.297  10.041 -0.3628 -0.4722 -1.3032
 5096SOL    HW226751   1.359   2.394  10.038  2.4162 -0.8426 -1.3425
 5097SOL     OW26752   3.897   0.680   4.058 -0.7072  0.3821  0.0714
 5097SOL    HW126753   3.822   0.632   4.095  0.0880 -0.6809  0.3178
 5097SOL    HW226754   3.971   0.622   4.078  1.4463  3.1796  0.2148
 5098SOL     OW26755   4.696   1.965  14.611 -0.0536 -0.8383  0.3761
 5098SOL    HW126756   4.684   1.870  14.614 -1.0976 -0.6643  1.7922
 5098SOL    HW226757   0.046   1.982  14.550 -0.8437 -0.9959 -0.5988
 5099SOL     OW26758   3.940   4.443   8.427 -0.3753 -0.6570  0.1389
 5099SOL    HW126759   3.966   4.495   8.504 -1.8261  0.2274  0.0380
 5099SOL    HW226760   3.931   4.510   8.359 -1.0669 -1.2773 -0.3788
 5100SOL     OW26761   0.903   3.346   3.552 -0.4534 -0.3135 -0.2519
 5100SOL    HW126762   0.969   3.335   3.620  0.9542  1.4301 -1.3235
 5100SOL    HW226763   0.838   3.278   3.571 -0.9375  0.2895  0.2290
 5101SOL     OW26764   2.052   2.455  13.295 -0.2252  0.8483  0.2531
 5101SOL    HW126765   1.958   2.466  13.288 -0.0672  1.5247 -0.7367
 5101SOL    HW226766   2.059   2.382  13.357  1.0854  0.0745 -0.7901
 5102SOL     OW26767   2.846   4.342  13.542  0.0387  0.4610  0.1364
 5102SOL    HW126768   2.821   4.286  13.616 -0.3906  2.1791  1.3031
 5102SOL    HW226769   2.781   4.412  13.545 -0.9886 -0.5222  0.9371
 5103SOL     OW26770   3.190   2.801  11.778  0.0600 -0.6952  0.3457
 5103SOL    HW126771   3.150   2.782  11.693  0.6424  0.7442 -0.2307
 5103SOL    HW226772   3.137   2.744  11.834 -2.6827  0.6541 -0.8765
 5104SOL     OW26773   0.211   1.750  11.422  0.2183  0.6359 -0.1500
 5104SOL    HW126774   0.253   1.669  11.391  0.2741  0.7503 -0.3775
 5104SOL    HW226775   0.262   1.766  11.501 -1.0559  0.9933  0.5913
 5105SOL     OW26776   4.218   2.761   8.484 -0.2654 -0.0729 -0.3461
 5105SOL    HW126777   4.309   2.789   8.490  0.0611 -1.7875  2.4520
 5105SOL    HW226778   4.228   2.685   8.427 -0.2699 -0.9754  0.8559
 5106SOL     OW26779   2.728   0.174   3.849 -0.0906  0.5024  0.1499
 5106SOL    HW126780   2.662   0.157   3.783 -0.2196 -0.6579  0.5774
 5106SOL    HW226781   2.811   0.139   3.818 -0.3607 -0.5537  0.6128
 5107SOL     OW26782   3.362   2.597  12.118  0.2382 -0.1611  0.5226
 5107SOL    HW126783   3.289   2.544  12.151 -0.7619 -0.3739 -2.0286
 5107SOL    HW226784   3.437   2.584  12.177  1.0336  1.0210 -0.2339
 5108SOL     OW26785   3.165   3.888   9.422  0.4901  0.2104 -0.3391
 5108SOL    HW126786   3.214   3.969   9.437  1.2496  0.2058 -2.7306
 5108SOL    HW226787   3.193   3.843   9.501 -2.7501 -0.2760  0.5573
 5109SOL     OW26788   4.565   3.935   0.955  0.4080 -0.5981 -0.0618
 5109SOL    HW126789   4.523   3.853   0.932 -0.8020 -0.3214  1.1306
 5109SOL    HW226790   4.575   3.984   0.873  0.3693 -0.2542  0.1372
 5110SOL     OW26791   3.130   0.757   7.538 -0.0626 -0.6160 -0.2574
 5110SOL    HW126792   3.111   0.778   7.630 -0.3330  0.5409 -0.5714
 5110SOL    HW226793   3.093   0.834   7.495  0.5862  0.7796  1.6824
 5111SOL     OW26794   0.372   4.102   2.426 -0.3368 -0.4621  0.3261
 5111SOL    HW126795   0.312   4.035   2.393 -0.9109  0.8994 -1.3688
 5111SOL    HW226796   0.370   4.172   2.360 -0.4905 -1.6945 -0.9610
 5112SOL     OW26797   1.133   2.255  10.172  0.2894 -0.0600 -0.5248
 5112SOL    HW126798   1.190   2.178  10.168 -2.2573 -2.0520  1.9426
 5112SOL    HW226799   1.163   2.300  10.251 -2.3381  1.0869 -0.1758
 5113SOL     OW26800   4.220   3.253  17.162 -0.3630  0.1291  0.7193
 5113SOL    HW126801   4.209   3.212  17.248  0.5036  1.3306  1.4072
 5113SOL    HW226802   4.278   3.191  17.119 -0.4626 -0.6187  1.6741
 5114SOL     OW26803   1.137   0.104  11.171 -0.2321 -0.8497 -0.8100
 5114SOL    HW126804   1.216   0.119  11.222  0.6602  1.4118 -2.8741
 5114SOL    HW226805   1.075   0.131  11.239  1.2124 -0.8857  0.5376
 5115SOL     OW26806   3.980   3.319   3.960 -0.1171  0.0309  0.0808
 5115SOL    HW126807   4.029   3.387   4.006  0.2710 -1.9000  2.5532
 5115SOL    HW226808   4.055   3.259   3.953 -0.9617 -1.0512  0.3056
 5116SOL     OW26809   3.527   0.990   8.482  0.4454 -0.4299 -0.2953
 5116SOL    HW126810   3.530   1.046   8.560  1.7718  0.5561 -1.0503
 5116SOL    HW226811   3.616   1.004   8.451  0.6391 -0.0067  0.4452
 5117SOL     OW26812   1.311   1.685  11.230 -0.2258 -0.3126  0.1454
 5117SOL    HW126813   1.369   1.617  11.266  1.9133  1.3488 -0.1770
 5117SOL    HW226814   1.268   1.639  11.157 -2.0514  0.6914  0.6083
 5118SOL     OW26815   4.666   3.246   6.781 -0.4413 -0.1199  0.2643
 5118SOL    HW126816   0.024   3.290   6.811 -0.2557  0.5053 -1.1892
 5118SOL    HW226817   4.689   3.226   6.691  0.6626 -2.5608  1.0771
 5119SOL     OW26818   1.280   0.010   3.766 -0.7753 -0.8362  0.6819
 5119SOL    HW126819   1.251   4.667   3.830 -0.7626 -0.7555  0.7696
 5119SOL    HW226820   1.210   0.075   3.774  1.3602  1.7289 -1.3415
 5120SOL     OW26821   1.530   0.632   9.043 -0.2540 -0.1407  0.1406
 5120SOL    HW126822   1.494   0.609   9.129  0.4104 -0.7363  0.2655
 5120SOL    HW226823   1.456   0.684   9.014 -0.9604 -0.5706  1.1828
 5121SOL     OW26824   2.662   4.198  12.807 -0.4541 -0.4086  0.3892
 5121SOL    HW126825   2.568   4.187  12.793 -0.5800  0.0429  0.8837
 5121SOL    HW226826   2.669   4.261  12.880 -0.0581 -0.2107  0.1818
 5122SOL     OW26827   3.724   2.804  11.990  0.2907 -0.3048 -0.0373
 5122SOL    HW126828   3.634   2.783  11.968  0.5714  0.4927 -1.9295
 5122SOL    HW226829   3.718   2.794  12.085  0.3604  0.0690  0.0081
 5123SOL     OW26830   3.231   2.090   2.695  0.5910 -0.5671 -0.2171
 5123SOL    HW126831   3.314   2.127   2.663  1.3749 -2.2372 -0.0819
 5123SOL    HW226832   3.252   1.998   2.706  0.5949 -0.3556  1.4868
 5124SOL     OW26833   0.259   1.555  15.396  0.0406  0.1818  0.0638
 5124SOL    HW126834   0.196   1.568  15.466 -0.6285  0.0402 -0.5140
 5124SOL    HW226835   0.250   1.461  15.380 -0.7112  0.1228  0.8653
 5125SOL     OW26836   0.233   3.274   2.792 -0.3637  0.3562 -0.4395
 5125SOL    HW126837   0.263   3.184   2.791  2.0241  1.1295  3.0680
 5125SOL    HW226838   0.292   3.315   2.729  1.4733 -0.6656  0.6397
 5126SOL     OW26839   0.367   2.154   2.899 -0.0543  0.2340 -0.1743
 5126SOL    HW126840   0.435   2.107   2.946  0.9799  0.6987 -1.1921
 5126SOL    HW226841   0.330   2.083   2.848  1.1517 -0.8898  0.5133
 5127SOL     OW26842   0.755   3.182   8.647  0.0044 -0.3673 -0.3541
 5127SOL    HW126843   0.687   3.176   8.580 -0.9697 -0.8929  0.6631
 5127SOL    HW226844   0.704   3.233   8.711  1.9624 -0.2268  1.0871
 5128SOL     OW26845   1.839   0.199   6.101  1.0179 -0.6764  0.6335
 5128SOL    HW126846   1.800   0.112   6.113 -0.1588  0.1126  2.4689
 5128SOL    HW226847   1.774   0.245   6.047  2.8544  1.6937  0.4297
 5129SOL     OW26848   3.748   3.310   6.268 -0.1093 -0.3880 -0.7170
 5129SOL    HW126849   3.830   3.344   6.304 -1.1603  1.6776 -0.2691
 5129SOL    HW226850   3.771   3.285   6.179  0.3048  0.8942 -0.9691
 5130SOL     OW26851   1.798   3.826   3.509 -0.5355  0.2008  0.0834
 5130SOL    HW126852   1.885   3.803   3.477 -0.2397 -2.6399  2.8713
 5130SOL    HW226853   1.771   3.904   3.462  0.0805  1.1854  1.3712
 5131SOL     OW26854   0.136   0.378  14.456 -0.3973 -0.1185  0.1503
 5131SOL    HW126855   0.102   0.443  14.395  0.7765  0.2364 -0.1247
 5131SOL    HW226856   0.057   0.365  14.508 -0.6467  0.2782 -0.1375
 5132SOL     OW26857   4.685   3.710   4.487  0.2079 -0.2757  0.7256
 5132SOL    HW126858   4.652   3.777   4.427  1.4609  0.9401  1.3923
 5132SOL    HW226859   4.672   3.755   4.571 -3.0270  0.0210  0.0873
 5133SOL     OW26860   0.696   0.309   1.939 -0.0685 -0.4818  0.1156
 5133SOL    HW126861   0.685   0.357   1.857  1.3167 -1.7727 -0.8159
 5133SOL    HW226862   0.604   0.300   1.964  0.0929  0.7688  1.1505
 5134SOL     OW26863   3.885   2.608   2.938 -0.3129  0.5646 -0.1245
 5134SOL    HW126864   3.898   2.615   2.843 -3.6121 -0.2781 -0.6613
 5134SOL    HW226865   3.790   2.605   2.950  0.0460 -1.3528  2.1519
 5135SOL     OW26866   0.557   1.903   7.898  0.0839 -0.1972  0.1890
 5135SOL    HW126867   0.613   1.980   7.905 -1.4332  1.0630 -1.4955
 5135SOL    HW226868   0.627   1.838   7.899 -0.8047 -1.1529  0.1329
 5136SOL     OW26869   0.726   2.909   6.684 -0.0179  0.6924  0.4577
 5136SOL    HW126870   0.654   2.865   6.637  3.4905 -0.9108 -3.4296
 5136SOL    HW226871   0.768   2.834   6.724 -0.0421 -0.0437 -0.8961
 5137SOL     OW26872   4.191   0.226   4.099 -0.2189  0.3693  0.5285
 5137SOL    HW126873   4.239   0.205   4.179 -3.3676 -1.8858  1.8091
 5137SOL    HW226874   4.226   0.154   4.048 -0.8314 -0.5461  1.3997
 5138SOL     OW26875   4.472   0.319  15.824  0.2443 -0.0540  0.1599
 5138SOL    HW126876   4.428   0.264  15.759  1.1034 -3.0116  2.0904
 5138SOL    HW226877   4.559   0.332  15.785  0.6906 -2.2075  0.4282
 5139SOL     OW26878   1.333   0.516   4.048 -0.1597  0.4448  0.5458
 5139SOL    HW126879   1.336   0.433   4.002 -2.6379  2.0565 -2.5936
 5139SOL    HW226880   1.418   0.556   4.029 -0.4331  1.0740  0.6484
 5140SOL     OW26881   1.332   3.423   5.551 -0.1580 -0.7586 -0.5700
 5140SOL    HW126882   1.288   3.357   5.605 -1.8324 -2.0701 -3.5099
 5140SOL    HW226883   1.279   3.431   5.472  0.1875 -1.8180 -0.9140
 5141SOL     OW26884   2.953   1.609  13.267 -0.4364 -0.6591  0.2834
 5141SOL    HW126885   2.924   1.671  13.200  0.2267  0.7684  1.3060
 5141SOL    HW226886   2.925   1.645  13.351  2.0322  1.1724  0.3072
 5142SOL     OW26887   1.398   3.085  10.585 -0.7040  0.0164 -0.4680
 5142SOL    HW126888   1.400   3.106  10.679  2.3215  2.0264 -0.9731
 5142SOL    HW226889   1.488   3.094  10.551 -0.4869  0.6115  0.2612
 5143SOL     OW26890   1.115   1.900   7.199 -0.1314  0.1848 -0.2503
 5143SOL    HW126891   1.045   1.912   7.134  0.0998 -1.3293 -0.7762
 5143SOL    HW226892   1.159   1.817   7.181  2.8857  1.0274  3.2604
 5144SOL     OW26893   4.702   0.069   4.192 -0.0890 -0.1702  0.1237
 5144SOL    HW126894   0.067   0.033   4.175  1.2865  2.7264  0.9884
 5144SOL    HW226895   4.715   0.115   4.275 -1.0448  2.0347 -0.9387
 5145SOL     OW26896   1.529   1.547   4.106 -0.2236 -0.2045  0.9202
 5145SOL    HW126897   1.467   1.480   4.136 -1.2551 -0.3175 -1.5269
 5145SOL    HW226898   1.609   1.526   4.154 -0.4338 -1.3253  0.7835
 5146SOL     OW26899   3.182   3.352  12.762 -0.0028 -0.3172  0.2813
 5146SOL    HW126900   3.103   3.385  12.719 -0.0750 -3.9834 -2.3663
 5146SOL    HW226901   3.159   3.263  12.790 -1.0144  0.4634  1.9399
 5147SOL     OW26902   3.417   4.340  10.058  0.6297 -0.0411  0.0719
 5147SOL    HW126903   3.415   4.290   9.977  2.2200 -1.6708  1.0640
 5147SOL    HW226904   3.478   4.413  10.043 -0.4009  0.8376  0.1308
 5148SOL     OW26905   1.761   3.804   6.454  0.2053 -0.1326 -0.1663
 5148SOL    HW126906   1.724   3.884   6.418 -1.8880 -1.4106 -0.8739
 5148SOL    HW226907   1.688   3.760   6.497 -0.6818  0.5104 -1.0328
 5149SOL     OW26908   4.217   3.191  11.312 -0.5352 -0.3156 -0.1282
 5149SOL    HW126909   4.242   3.281  11.292 -0.8728 -0.0039  0.8853
 5149SOL    HW226910   4.207   3.188  11.407  1.4154 -1.3867  0.0532
 5150SOL     OW26911   3.251   3.109   1.470  0.0539  0.1131  0.1970
 5150SOL    HW126912   3.193   3.088   1.397 -1.6681 -2.9004  2.4235
 5150SOL    HW226913   3.219   3.197   1.491 -1.6636 -0.3678 -0.4147
 5151SOL     OW26914   4.261   0.331   8.292  0.0978 -0.4123 -0.2998
 5151SOL    HW126915   4.253   0.267   8.362  1.3760 -1.0802 -0.7595
 5151SOL    HW226916   4.180   0.381   8.294  0.6257  0.4898 -1.0435
 5152SOL     OW26917   4.087   1.578   5.455 -0.7101 -0.4104  0.5158
 5152SOL    HW126918   4.079   1.651   5.518  0.1339  0.8983 -0.8965
 5152SOL    HW226919   4.027   1.613   5.390  0.9977 -0.5775 -1.1528
 5153SOL     OW26920   4.132   3.714  15.996  0.8355  0.1019 -0.4182
 5153SOL    HW126921   4.193   3.738  15.927  0.6814  2.8007  0.3771
 5153SOL    HW226922   4.145   3.620  16.004  0.1827  0.0277 -0.2417
 5154SOL     OW26923   3.070   0.511   1.684 -0.5227  0.6176 -0.2105
 5154SOL    HW126924   3.121   0.442   1.640 -0.8163  0.6094 -0.5439
 5154SOL    HW226925   3.129   0.524   1.758 -1.0764  1.3832  0.0980
 5155SOL     OW26926   3.585   2.335   7.873  0.4884 -0.1128 -0.9766
 5155SOL    HW126927   3.647   2.345   7.945 -3.1277  1.4438  1.8890
 5155SOL    HW226928   3.553   2.424   7.859  0.7709  0.3917  1.5586
 5156SOL     OW26929   2.912   4.244   9.079 -0.7835 -0.4152  0.1101
 5156SOL    HW126930   2.952   4.293   9.007 -0.1331  0.3944  1.0228
 5156SOL    HW226931   2.949   4.160   9.054 -0.2932 -0.9840  2.8043
 5157SOL     OW26932   1.380   3.024   8.373 -0.0961  0.2976 -0.1853
 5157SOL    HW126933   1.398   2.972   8.452  0.5563  0.1679 -0.4200
 5157SOL    HW226934   1.287   3.006   8.362 -0.1210 -0.2412  0.8851
 5158SOL     OW26935   1.483   0.700  16.207 -0.1994  0.6038  0.0018
 5158SOL    HW126936   1.551   0.654  16.255 -1.0136 -0.2263  0.3648
 5158SOL    HW226937   1.471   0.642  16.131 -1.4287 -0.0025  0.6604
 5159SOL     OW26938   2.744   1.840   9.062 -0.0252 -0.2037  0.1960
 5159SOL    HW126939   2.787   1.805   9.141 -0.1846 -1.1415 -0.1341
 5159SOL    HW226940   2.713   1.928   9.083 -0.3894 -0.0491 -0.9918
 5160SOL     OW26941   0.282   1.759   8.301  0.0386 -0.3124  0.3123
 5160SOL    HW126942   0.250   1.803   8.223 -0.4703 -0.1906  0.5881
 5160SOL    HW226943   0.358   1.812   8.324  0.3254 -0.5462 -0.0937
 5161SOL     OW26944   4.474   2.664   8.688  0.0070  0.2695  0.2516
 5161SOL    HW126945   4.476   2.751   8.649 -4.0157 -0.1544 -0.9447
 5161SOL    HW226946   4.522   2.607   8.628  0.8035 -0.3142  1.4452
 5162SOL     OW26947   3.046   1.995   1.423  0.2974 -0.7064 -0.2363
 5162SOL    HW126948   3.083   2.082   1.405 -0.7082  0.0819  1.4868
 5162SOL    HW226949   3.027   1.961   1.336  0.3835 -0.4250 -0.3666
 5163SOL     OW26950   0.082   4.055   5.710  0.3134 -0.6328 -0.0719
 5163SOL    HW126951   0.142   3.997   5.758  1.4995  0.2133 -0.5430
 5163SOL    HW226952   0.011   3.993   5.691  0.0860  0.3949 -2.4958
 5164SOL     OW26953   3.240   4.381  13.157 -0.3294 -0.2492  0.5613
 5164SOL    HW126954   3.224   4.475  13.159  0.3957 -0.1836  2.5906
 5164SOL    HW226955   3.269   4.373  13.066  0.3222 -2.5866  0.9651
 5165SOL     OW26956   2.349   1.740   7.193 -0.0820  0.0284  0.6178
 5165SOL    HW126957   2.376   1.696   7.274  2.7432 -2.0865 -1.4393
 5165SOL    HW226958   2.282   1.681   7.161  2.2463 -1.6889 -1.0526
 5166SOL     OW26959   1.087   1.730   0.461 -0.6567  0.1191  0.2254
 5166SOL    HW126960   1.103   1.687   0.376 -0.2855  0.6920  0.0060
 5166SOL    HW226961   0.992   1.731   0.473 -0.5653  3.2547  0.6921
 5167SOL     OW26962   0.512   2.587   7.056 -0.0031  0.7207 -0.1949
 5167SOL    HW126963   0.456   2.664   7.065  1.2978  1.8620 -1.8066
 5167SOL    HW226964   0.476   2.542   6.979  0.2599 -1.0431  0.7073
 5168SOL     OW26965   0.194   1.218  17.017 -0.3502 -0.5257  0.3899
 5168SOL    HW126966   0.152   1.132  17.014 -0.3755 -0.5040  0.1061
 5168SOL    HW226967   0.169   1.250  16.930  1.0454 -3.2371 -1.0435
 5169SOL     OW26968   4.073   4.701  15.577 -0.1122  0.2465  0.7699
 5169SOL    HW126969   4.118   4.620  15.601  1.1689  0.8687  0.4748
 5169SOL    HW226970   3.993   4.686  15.528 -0.4670 -0.8091  1.6824
 5170SOL     OW26971   3.086   0.201   4.780  0.3441 -0.8809  0.0871
 5170SOL    HW126972   3.039   0.263   4.724 -0.5110 -0.3631  1.3820
 5170SOL    HW226973   3.014   0.168   4.834 -2.5535  1.8837 -2.0467
 5171SOL     OW26974   4.206   1.106   6.880  0.1615  0.6773  0.3557
 5171SOL    HW126975   4.128   1.052   6.863  0.3532  0.7651 -0.7973
 5171SOL    HW226976   4.274   1.062   6.830  0.2337 -0.1679  1.1965
 5172SOL     OW26977   1.903   3.657  13.134  0.0058  0.0463 -0.1708
 5172SOL    HW126978   1.918   3.655  13.229  0.9358  0.2309 -0.3107
 5172SOL    HW226979   1.841   3.585  13.121 -1.9631  1.3333  2.1433
 5173SOL     OW26980   3.829   0.489   8.849  0.8916 -0.1041 -0.2235
 5173SOL    HW126981   3.785   0.495   8.934 -0.2369 -0.0570 -0.8041
 5173SOL    HW226982   3.920   0.518   8.850  0.8282  0.0541  1.2095
 5174SOL     OW26983   0.869   1.048   5.018  0.2069  0.1549 -0.3244
 5174SOL    HW126984   0.850   1.054   5.111 -1.5319 -1.7141 -0.5785
 5174SOL    HW226985   0.932   0.976   5.016 -0.5759 -0.5256  0.1162
 5175SOL     OW26986   2.298   1.381   6.001  0.1229 -0.5232  0.5145
 5175SOL    HW126987   2.308   1.286   6.006  0.7155 -0.5387 -0.7314
 5175SOL    HW226988   2.222   1.379   5.943 -0.1013 -2.5032  0.8765
 5176SOL     OW26989   0.999   1.488   7.408 -1.0831 -0.0454  0.3027
 5176SOL    HW126990   0.983   1.404   7.366 -0.8240 -0.5205  1.1432
 5176SOL    HW226991   1.066   1.526   7.352 -0.6905 -0.2897  0.6080
 5177SOL     OW26992   4.626   1.025  16.318  0.3140 -0.2221 -0.6127
 5177SOL    HW126993   4.532   1.008  16.312  0.2543  0.0320 -0.3780
 5177SOL    HW226994   4.643   1.021  16.224 -0.7740 -2.3238 -0.7354
 5178SOL     OW26995   0.460   1.707  15.465  0.1381 -0.2793  0.4125
 5178SOL    HW126996   0.416   1.775  15.516  0.6672  1.0112 -0.8573
 5178SOL    HW226997   0.387   1.648  15.445  0.8403 -0.5337 -1.4265
 5179SOL     OW26998   4.123   0.073   7.421  0.9182  0.7089  1.1917
 5179SOL    HW126999   4.074   0.122   7.355  0.3057 -0.3424  0.8588
 5179SOL    HW227000   4.169   0.006   7.370  3.9250  2.5048  1.5291
 5180SOL     OW27001   0.060   0.305  17.221 -0.0329  0.3136  0.7542
 5180SOL    HW127002   0.120   0.259  17.163  0.4683  3.0658 -0.8959
 5180SOL    HW227003   0.010   0.365  17.166  0.8086  0.5729  0.2823
 5181SOL     OW27004   4.489   4.236   4.176 -1.0984 -0.5748 -0.1617
 5181SOL    HW127005   4.435   4.229   4.097 -1.5592  1.0953  0.0218
 5181SOL    HW227006   4.456   4.312   4.224 -1.7143  1.5101 -3.9034
 5182SOL     OW27007   0.847   2.549   5.082 -0.1357  0.2534  0.5020
 5182SOL    HW127008   0.817   2.502   5.160  2.8509 -0.4629  1.2429
 5182SOL    HW227009   0.928   2.509   5.049 -0.6106  0.8927 -1.4135
 5183SOL     OW27010   0.370   1.948   6.125 -0.2148 -0.2505  0.0508
 5183SOL    HW127011   0.290   1.917   6.083  1.1085 -2.1236 -1.0964
 5183SOL    HW227012   0.377   2.042   6.105 -1.1420 -0.5678 -1.7563
 5184SOL     OW27013   0.589   1.416   7.936 -1.0623 -0.0182 -0.5729
 5184SOL    HW127014   0.507   1.458   7.964 -0.6447 -0.9545  2.1089
 5184SOL    HW227015   0.645   1.430   8.012  0.9367 -2.1080 -1.6974
 5185SOL     OW27016   2.212   0.542  10.532  1.0964  0.2386  0.3696
 5185SOL    HW127017   2.156   0.527  10.608  1.1849 -0.7371  0.2426
 5185SOL    HW227018   2.290   0.493  10.561  1.0067 -0.3366 -0.3624
 5186SOL     OW27019   3.074   0.506   3.210  0.3235  0.0922  0.3814
 5186SOL    HW127020   2.983   0.496   3.184  0.5872 -2.1232  0.3529
 5186SOL    HW227021   3.064   0.597   3.240  0.4185 -0.1293  1.0813
 5187SOL     OW27022   0.884   3.062   9.279 -0.1601 -0.2246  0.2528
 5187SOL    HW127023   0.869   3.118   9.202 -0.2769 -1.3402 -0.5373
 5187SOL    HW227024   0.931   2.988   9.240 -0.8649 -0.7633  0.4203
 5188SOL     OW27025   4.583   0.081   8.843  0.1091 -0.8765  0.0408
 5188SOL    HW127026   4.595   0.044   8.756 -3.9220  0.8010 -1.2360
 5188SOL    HW227027   4.672   0.108   8.866  0.4988 -0.2712 -2.2133
 5189SOL     OW27028   2.584   2.483  14.902 -0.0707 -0.0912 -0.2538
 5189SOL    HW127029   2.615   2.396  14.929  0.4055  0.0446 -0.3693
 5189SOL    HW227030   2.666   2.516  14.868 -0.0316 -0.3016 -0.3646
 5190SOL     OW27031   1.632   2.382   1.328 -0.2923 -0.2185 -0.4425
 5190SOL    HW127032   1.586   2.303   1.357 -0.6753  0.2224  0.1587
 5190SOL    HW227033   1.639   2.370   1.233  0.6958 -0.6472 -0.3095
 5191SOL     OW27034   3.543   1.849  12.194  0.3080  0.2864  0.0626
 5191SOL    HW127035   3.530   1.767  12.241 -0.0860  1.1290  1.4315
 5191SOL    HW227036   3.455   1.885  12.187 -0.2593 -1.5349 -2.1535
 5192SOL     OW27037   0.758   3.881   6.227 -0.1200 -0.4865  0.5933
 5192SOL    HW127038   0.817   3.954   6.208 -0.5881 -0.8080 -2.0849
 5192SOL    HW227039   0.764   3.833   6.144  1.1108 -1.3228  1.1670
 5193SOL     OW27040   4.316   0.598   8.448  0.2124  0.0496 -0.1645
 5193SOL    HW127041   4.367   0.520   8.469 -1.1718 -0.9813 -0.5910
 5193SOL    HW227042   4.239   0.564   8.495  1.3340 -0.4788  1.2884
 5194SOL     OW27043   1.996   0.695  17.684  0.5770  0.3992  0.0887
 5194SOL    HW127044   2.007   0.689  17.590 -1.1343  0.6069 -0.1212
 5194SOL    HW227045   1.923   0.755   0.005  0.0956 -0.2459  0.4274
 5195SOL     OW27046   0.033   2.038   5.563 -0.1006  0.5823  0.3812
 5195SOL    HW127047   0.013   2.124   5.524 -0.8087  0.4211  0.3827
 5195SOL    HW227048   4.673   2.023   5.609  0.5720 -1.6649  0.8066
 5196SOL     OW27049   1.886   3.444  12.125  0.2550  0.3025  0.1267
 5196SOL    HW127050   1.965   3.457  12.073  0.3604  0.7141  0.3909
 5196SOL    HW227051   1.926   3.454  12.212  1.7928 -2.4823 -0.2820
 5197SOL     OW27052   4.420   1.736  14.654 -0.0214  0.7036 -0.0263
 5197SOL    HW127053   4.468   1.740  14.571 -1.7312  1.6166 -0.9603
 5197SOL    HW227054   4.358   1.807  14.636 -0.3712  0.0990 -1.1883
 5198SOL     OW27055   4.623   2.665   2.134  0.1365  0.0644 -0.7909
 5198SOL    HW127056   4.686   2.605   2.175 -0.9875 -1.6835 -1.6384
 5198SOL    HW227057   4.652   2.747   2.173 -0.3376 -0.3411  0.4353
 5199SOL     OW27058   0.534   2.624   7.328 -0.1354  0.3186 -0.3471
 5199SOL    HW127059   0.546   2.647   7.236 -0.9620  0.7953 -0.3300
 5199SOL    HW227060   0.449   2.582   7.338  0.0936 -0.1626 -0.4450
 5200SOL     OW27061   2.096   1.961   5.955 -0.0705  0.1924  0.0598
 5200SOL    HW127062   2.057   1.979   5.870  1.8309  0.1856 -0.8068
 5200SOL    HW227063   2.090   1.866   5.959  0.5559  0.0386 -2.7378
 5201SOL     OW27064   3.654   3.351   9.436  0.1038 -0.3315 -0.1844
 5201SOL    HW127065   3.567   3.333   9.472  0.5361 -0.4433  0.7832
 5201SOL    HW227066   3.718   3.297   9.483 -0.0173 -0.2859  0.0325
 5202SOL     OW27067   4.030   3.164   8.089  0.8986  0.4781  0.5812
 5202SOL    HW127068   4.024   3.069   8.080  1.1332  0.4244  0.9532
 5202SOL    HW227069   3.990   3.171   8.175  1.6941  0.1618  0.9779
 5203SOL     OW27070   3.260   3.262  11.860 -0.2423  0.2634  0.0022
 5203SOL    HW127071   3.339   3.310  11.836 -0.7407  0.8491 -0.4637
 5203SOL    HW227072   3.255   3.270  11.956  2.1292  0.7670  0.1009
 5204SOL     OW27073   0.081   2.583   6.810  0.4296  0.1677 -0.3842
 5204SOL    HW127074   0.031   2.532   6.747  0.9645 -1.2135  0.2973
 5204SOL    HW227075   0.124   2.521   6.870 -1.7157  0.0708  1.0781
 5205SOL     OW27076   0.462   4.248   7.093  0.4279  0.7763 -0.5011
 5205SOL    HW127077   0.475   4.209   7.006 -1.7426  2.5169 -1.6047
 5205SOL    HW227078   0.466   4.342   7.071 -2.1303  1.3147  1.4290
 5206SOL     OW27079   2.636   2.042  15.184 -0.0497  0.0834 -0.5387
 5206SOL    HW127080   2.554   2.066  15.225  0.9484  0.2761  1.3591
 5206SOL    HW227081   2.676   2.019  15.268  0.4594 -2.0238 -1.3499
 5207SOL     OW27082   2.486   2.633  12.753 -0.3508  0.3768  0.5744
 5207SOL    HW127083   2.424   2.654  12.822  0.1362 -1.6420  1.6134
 5207SOL    HW227084   2.527   2.560  12.799 -1.1144 -0.3993  0.0416
 5208SOL     OW27085   4.283   4.144   0.143 -0.6664  0.4981 -0.1115
 5208SOL    HW127086   4.345   4.148   0.216  0.3607  0.4436 -0.9761
 5208SOL    HW227087   4.338   4.119   0.068 -0.9462  1.1218 -0.5241
 5209SOL     OW27088   1.430   2.562  12.026  0.2988 -0.1076  0.2664
 5209SOL    HW127089   1.427   2.512  11.945  2.0297 -1.7170  1.2109
 5209SOL    HW227090   1.422   2.650  11.987 -1.2612 -1.4569 -2.4614
 5210SOL     OW27091   3.261   3.880   4.194 -0.7036 -0.2750 -0.8493
 5210SOL    HW127092   3.346   3.873   4.150 -0.4657 -0.7630 -0.3232
 5210SOL    HW227093   3.227   3.941   4.129 -1.1263  0.1323 -0.2422
 5211SOL     OW27094   2.073   1.230  16.252 -0.3322  0.2337 -0.1555
 5211SOL    HW127095   2.021   1.304  16.221  0.2843  0.9807  0.5998
 5211SOL    HW227096   2.054   1.178  16.174  0.8680  0.7882 -0.8355
 5212SOL     OW27097   0.688   4.481   3.579  0.2630 -0.0717 -0.1110
 5212SOL    HW127098   0.712   4.551   3.518 -0.9381 -0.2941 -0.8505
 5212SOL    HW227099   0.686   4.414   3.510  0.0891  0.3022 -0.4717
 5213SOL     OW27100   0.999   4.370   7.244  0.2477  0.0421 -0.5236
 5213SOL    HW127101   0.934   4.314   7.286  0.0894 -0.0822 -0.9352
 5213SOL    HW227102   1.001   4.340   7.154 -0.4141 -1.3228 -0.0775
 5214SOL     OW27103   3.693   0.685   5.025 -0.7028  0.2651 -0.0647
 5214SOL    HW127104   3.626   0.693   4.958 -2.6145 -1.9251  1.5940
 5214SOL    HW227105   3.754   0.746   4.984 -1.7138  0.2441 -1.6078
 5215SOL     OW27106   2.355   0.465   2.392 -1.0351  0.0934 -0.1844
 5215SOL    HW127107   2.334   0.558   2.387 -1.2521 -0.0135 -1.3362
 5215SOL    HW227108   2.324   0.446   2.480  1.6303  1.2286  0.9777
 5216SOL     OW27109   4.511   0.768   3.293  0.1826 -0.2912  0.8319
 5216SOL    HW127110   4.457   0.692   3.317  0.5456 -0.9070 -0.2953
 5216SOL    HW227111   4.488   0.818   3.372 -1.6214 -0.8163  0.6365
 5217SOL     OW27112   0.024   0.560   1.552  0.4248  0.8064  0.1055
 5217SOL    HW127113   0.109   0.536   1.587  0.4763  1.6050  0.5111
 5217SOL    HW227114   0.003   0.645   1.590 -1.1875 -0.3644  1.8666
 5218SOL     OW27115   1.204   4.387  10.380 -0.3214 -0.2425  0.2519
 5218SOL    HW127116   1.185   4.477  10.408 -0.2260 -0.2586  0.3672
 5218SOL    HW227117   1.126   4.337  10.403 -0.3076 -0.5520 -0.3835
 5219SOL     OW27118   2.890   2.735   9.166  0.1064  0.8131  0.2904
 5219SOL    HW127119   2.830   2.675   9.208 -0.1773  2.0644  1.6729
 5219SOL    HW227120   2.828   2.803   9.140 -0.2466  0.1527 -0.5842
 5220SOL     OW27121   4.517   4.403   4.682  0.3663  0.5886  0.5744
 5220SOL    HW127122   4.490   4.311   4.677  0.0893  0.7755 -1.5948
 5220SOL    HW227123   4.610   4.407   4.660  0.3753 -1.4061  0.1833
 5221SOL     OW27124   4.280   3.641  17.492  0.0635 -0.3313 -0.0003
 5221SOL    HW127125   4.196   3.658  17.449  0.6621  1.2587 -0.5697
 5221SOL    HW227126   4.346   3.664  17.426 -0.8522  0.0222 -0.7989
 5222SOL     OW27127   3.900   0.917   8.683 -0.0698 -0.5858 -0.0114
 5222SOL    HW127128   3.815   0.918   8.727  0.4498 -1.3495  1.0041
 5222SOL    HW227129   3.962   0.904   8.754  1.3462  0.7085 -1.0189
 5223SOL     OW27130   4.658   2.477   2.991  0.9991 -0.5435 -0.6471
 5223SOL    HW127131   0.001   2.446   3.053  0.3357 -2.3529 -0.8244
 5223SOL    HW227132   4.614   2.393   2.974  1.9957 -1.3088  0.5802
 5224SOL     OW27133   4.058   2.691   7.020  0.2641  0.2522  0.0168
 5224SOL    HW127134   4.089   2.602   7.037 -1.0862 -0.1326  0.4324
 5224SOL    HW227135   4.065   2.721   7.110 -0.2348  0.7037 -0.0951
 5225SOL     OW27136   3.819   2.347   6.173 -0.9962  0.5455 -0.1926
 5225SOL    HW127137   3.810   2.408   6.100  1.0651 -0.2335 -1.0826
 5225SOL    HW227138   3.734   2.364   6.215  0.5289  0.2903  3.0101
 5226SOL     OW27139   1.121   4.065   2.414  0.0489  0.3354 -0.3785
 5226SOL    HW127140   1.113   4.153   2.451 -2.9200 -0.8833  1.8046
 5226SOL    HW227141   1.210   4.050   2.446 -0.2442 -1.5442 -0.4501
 5227SOL     OW27142   3.337   2.738   2.402 -0.2797 -0.1737 -0.5111
 5227SOL    HW127143   3.413   2.689   2.372  1.0128  0.2306  2.0269
 5227SOL    HW227144   3.295   2.730   2.316 -0.3986  0.6303 -0.5294
 5228SOL     OW27145   3.503   1.216   4.736  0.2208 -0.0856  0.0299
 5228SOL    HW127146   3.514   1.301   4.694 -0.6788 -0.3278 -0.6903
 5228SOL    HW227147   3.428   1.231   4.794  0.0315 -3.5581  0.7284
 5229SOL     OW27148   3.489   4.604   4.986 -0.3074 -0.7557 -0.1370
 5229SOL    HW127149   3.459   4.635   4.900  1.1931 -0.5717 -0.5889
 5229SOL    HW227150   3.568   4.564   4.950  0.3103  0.6562 -0.3392
 5230SOL     OW27151   0.829   3.620   4.612  0.0196 -0.0823 -0.2417
 5230SOL    HW127152   0.772   3.633   4.688 -0.0225  1.2520 -0.5025
 5230SOL    HW227153   0.794   3.536   4.584  0.3149  0.0051 -0.8748
 5231SOL     OW27154   1.819   3.750   0.871  0.0615 -0.4057  0.1777
 5231SOL    HW127155   1.805   3.691   0.797  1.7782  0.5598 -0.9139
 5231SOL    HW227156   1.771   3.704   0.940 -0.1056  0.0840  0.3852
 5232SOL     OW27157   4.692   0.745   2.279 -0.1802 -0.2506 -0.3757
 5232SOL    HW127158   4.645   0.729   2.197  1.6178 -0.8526 -1.2886
 5232SOL    HW227159   0.002   0.835   2.283 -1.5420  0.1840  1.4097
 5233SOL     OW27160   4.283   2.666   5.295  0.1340  0.3464 -0.5664
 5233SOL    HW127161   4.353   2.720   5.334 -0.4322 -0.6202  1.7617
 5233SOL    HW227162   4.262   2.727   5.224  2.0002  1.3809 -0.2479
 5234SOL     OW27163   4.537   4.311  12.717 -0.5432  0.6085  0.3031
 5234SOL    HW127164   4.578   4.311  12.803  0.7006  0.7767 -0.2857
 5234SOL    HW227165   4.583   4.389  12.685  0.8474  0.9938  3.2505
 5235SOL     OW27166   3.493   1.593   4.104  0.1528  0.1986 -0.0500
 5235SOL    HW127167   3.569   1.592   4.163  0.6101  1.4003 -0.6184
 5235SOL    HW227168   3.504   1.678   4.062 -0.5588  1.6213  2.6951
 5236SOL     OW27169   3.357   1.608   2.872 -0.2059  0.1608  0.2243
 5236SOL    HW127170   3.426   1.578   2.812  0.3420  0.7610  0.5532
 5236SOL    HW227171   3.333   1.522   2.908  0.1484  0.2759  0.7373
 5237SOL     OW27172   0.432   1.283   6.153 -0.0960  0.0917 -0.5305
 5237SOL    HW127173   0.429   1.377   6.137 -2.9384 -0.0060 -0.6057
 5237SOL    HW227174   0.476   1.248   6.075 -0.2301 -0.2676 -0.4429
 5238SOL     OW27175   2.936   4.130   1.614 -0.1371 -0.1370 -0.1652
 5238SOL    HW127176   2.900   4.204   1.663 -0.7580  0.0649 -0.9401
 5238SOL    HW227177   2.936   4.057   1.676  0.6986  0.9175  1.0786
 5239SOL     OW27178   2.316   0.062   9.758  0.0810  0.1158 -0.2606
 5239SOL    HW127179   2.387   0.127   9.757 -1.4203  1.8047  2.2136
 5239SOL    HW227180   2.325   0.028   9.848  3.2647 -1.8170 -1.3153
 5240SOL     OW27181   4.475   1.806   0.333  0.2735  0.1458  0.1219
 5240SOL    HW127182   4.510   1.757   0.408  1.3839 -0.8652 -1.0603
 5240SOL    HW227183   4.559   1.806   0.287 -1.5044  1.3573 -3.1105
 5241SOL     OW27184   0.882   0.832   5.763 -0.4594 -0.5342 -0.4876
 5241SOL    HW127185   0.911   0.881   5.685  1.4590 -1.1759 -0.1885
 5241SOL    HW227186   0.963   0.784   5.783 -0.1059  0.9395  1.6435
 5242SOL     OW27187   1.841   3.445   3.906  0.3263  0.0106  0.4427
 5242SOL    HW127188   1.927   3.478   3.879  0.3390 -0.2821  0.1281
 5242SOL    HW227189   1.852   3.356   3.939  2.4864 -0.5477 -1.8278
 5243SOL     OW27190   1.822   4.197   9.131 -0.1371  0.2749  0.0862
 5243SOL    HW127191   1.776   4.114   9.117  1.6460 -0.6897 -0.1336
 5243SOL    HW227192   1.853   4.217   9.043  1.0926  1.3785  0.7821
 5244SOL     OW27193   4.482   1.436  15.940 -0.3957  0.0844  0.1300
 5244SOL    HW127194   4.551   1.472  15.995 -1.5280  1.7233  0.4638
 5244SOL    HW227195   4.530   1.418  15.859  0.3124 -1.0320  0.7852
 5245SOL     OW27196   3.881   0.818  15.552 -0.2666 -0.3791 -0.2471
 5245SOL    HW127197   3.874   0.883  15.482 -1.2097 -0.2769 -0.0538
 5245SOL    HW227198   3.932   0.862  15.620 -0.8451 -1.7013  1.0403
 5246SOL     OW27199   0.265   2.555   8.972  0.0383 -0.6875  0.6734
 5246SOL    HW127200   0.278   2.614   9.046  1.0099 -0.6637  0.4796
 5246SOL    HW227201   0.287   2.473   9.016 -0.0898 -0.5549  0.9798
 5247SOL     OW27202   0.592   3.117   0.617  0.3233 -0.1371  0.2822
 5247SOL    HW127203   0.563   3.190   0.562 -2.0152 -0.0979  1.5939
 5247SOL    HW227204   0.653   3.159   0.678 -0.0536  2.9035 -1.4691
 5248SOL     OW27205   3.138   0.336  13.218  0.2585  0.0406  0.1605
 5248SOL    HW127206   3.087   0.254  13.220 -0.4286  0.4737  0.4639
 5248SOL    HW227207   3.200   0.324  13.146  2.0603 -0.7339  1.8417
 5249SOL     OW27208   3.427   3.699   6.075 -0.4462  0.4977 -0.0622
 5249SOL    HW127209   3.486   3.626   6.093 -0.3052  0.3415 -1.1694
 5249SOL    HW227210   3.384   3.666   5.997 -0.3731 -1.0092  0.5401
 5250SOL     OW27211   1.564   2.243  13.621  0.2977  0.8222  0.3643
 5250SOL    HW127212   1.476   2.265  13.590 -0.6329  0.7163  2.8572
 5250SOL    HW227213   1.542   2.170  13.679  0.6715 -1.0926 -1.9136
 5251SOL     OW27214   0.143   1.723  12.114  0.0635  0.1578  0.5222
 5251SOL    HW127215   0.225   1.681  12.141 -0.1359 -2.3887 -2.8438
 5251SOL    HW227216   0.136   1.793  12.179  2.8484  0.1915  0.7860
 5252SOL     OW27217   1.589   2.540  17.450  0.3668  0.0207 -0.2698
 5252SOL    HW127218   1.572   2.632  17.428  0.7752  0.3494  0.8052
 5252SOL    HW227219   1.684   2.551  17.456  0.5538 -1.0220 -1.4203
 5253SOL     OW27220   0.379   1.174  14.164  0.3123 -0.2519  0.3612
 5253SOL    HW127221   0.375   1.078  14.164 -0.3371 -0.2232  1.3612
 5253SOL    HW227222   0.286   1.190  14.152  0.6782  0.6138 -1.1725
 5254SOL     OW27223   2.677   0.661  13.541  0.0563  0.0247 -0.3655
 5254SOL    HW127224   2.676   0.754  13.517 -1.4118  0.0054 -0.3977
 5254SOL    HW227225   2.588   0.649  13.574  0.2702  0.7842  0.4692
 5255SOL     OW27226   3.454   3.283  10.901  0.2675  0.9113  0.2111
 5255SOL    HW127227   3.476   3.196  10.935  0.8428  0.8480 -0.3271
 5255SOL    HW227228   3.396   3.253  10.831  2.1797 -0.5026 -0.7541
 5256SOL     OW27229   0.872   4.680  14.138 -0.3258  0.5594 -0.1518
 5256SOL    HW127230   0.858   0.051  14.117 -0.2180  0.4393 -0.7405
 5256SOL    HW227231   0.815   4.678  14.215 -0.5434 -0.5790 -0.3492
 5257SOL     OW27232   2.116   0.270   7.143  0.0907  0.3643 -0.2222
 5257SOL    HW127233   2.187   0.218   7.181  0.1148 -0.8159 -1.8791
 5257SOL    HW227234   2.089   0.328   7.214  1.4938  2.6250 -1.5390
 5258SOL     OW27235   3.674   3.719   1.347  0.6367 -0.1279  0.3513
 5258SOL    HW127236   3.694   3.697   1.256  2.9974 -0.6313  1.0064
 5258SOL    HW227237   3.618   3.795   1.332  1.0354  0.3832  1.4706
 5259SOL     OW27238   1.767   3.100   5.911  0.0109  0.3033 -0.5738
 5259SOL    HW127239   1.791   3.113   6.002  1.9393 -0.7995 -0.9247
 5259SOL    HW227240   1.802   3.179   5.869 -2.6769  1.2644 -1.0172
 5260SOL     OW27241   2.318   4.251   3.666 -0.1070  0.0328 -0.3792
 5260SOL    HW127242   2.283   4.163   3.657 -0.6338  0.1467  0.5312
 5260SOL    HW227243   2.303   4.265   3.759  1.7191 -0.8520  0.0432
 5261SOL     OW27244   0.845   2.698   6.934  0.2285 -0.3510 -0.0301
 5261SOL    HW127245   0.789   2.624   6.911  0.6685 -0.9691  0.8742
 5261SOL    HW227246   0.932   2.663   6.955 -0.1069 -1.8710 -1.1947
 5262SOL     OW27247   4.236   2.314   2.579 -0.4733  0.3711  0.9767
 5262SOL    HW127248   4.290   2.261   2.638 -0.7201 -0.8319  0.1144
 5262SOL    HW227249   4.252   2.279   2.491 -0.7443  0.3629  0.9311
 5263SOL     OW27250   1.651   3.883  11.892 -0.0269  0.1216  0.9789
 5263SOL    HW127251   1.581   3.915  11.949 -1.5585  0.1712 -0.9573
 5263SOL    HW227252   1.727   3.925  11.933 -0.2118  1.5339 -0.1304
 5264SOL     OW27253   3.309   2.860   7.769  0.9771  0.1007 -0.0749
 5264SOL    HW127254   3.317   2.826   7.858 -0.9173  1.4237  0.6024
 5264SOL    HW227255   3.385   2.827   7.721  0.4007 -1.8660  0.3598
 5265SOL     OW27256   2.194   2.179   4.292  0.2243 -0.2199  0.0890
 5265SOL    HW127257   2.228   2.090   4.282 -0.7632 -0.4607 -1.2093
 5265SOL    HW227258   2.193   2.181   4.387 -0.4054  0.9230  0.0458
 5266SOL     OW27259   0.958   1.936   2.835 -0.2204 -0.0627  0.1711
 5266SOL    HW127260   1.012   1.859   2.856 -0.4896  0.0132  1.1649
 5266SOL    HW227261   0.883   1.926   2.894 -0.5039  3.3881  0.3980
 5267SOL     OW27262   2.218   2.589   8.233 -0.2782 -0.5559  0.2734
 5267SOL    HW127263   2.232   2.579   8.139 -1.9996  1.7217 -0.2011
 5267SOL    HW227264   2.289   2.530   8.257 -0.0649 -0.0541  0.8586
 5268SOL     OW27265   3.667   2.259  12.115 -0.5328 -0.1009  0.5862
 5268SOL    HW127266   3.573   2.278  12.108 -0.0794  2.4930  1.6137
 5268SOL    HW227267   3.653   2.164  12.121 -0.3797 -0.0050  2.3792
 5269SOL     OW27268   3.970   0.035  10.406 -0.1993 -0.5305  0.2140
 5269SOL    HW127269   4.015   4.686  10.452  2.1353 -0.2042 -1.5576
 5269SOL    HW227270   3.944   0.095  10.476  3.1412  1.2725 -0.1046
 5270SOL     OW27271   3.237   1.442   9.332 -0.1376 -0.3081 -0.0200
 5270SOL    HW127272   3.222   1.362   9.383 -3.5223  0.0825 -0.4686
 5270SOL    HW227273   3.330   1.438   9.355 -0.7942  0.0047  2.6498
 5271SOL     OW27274   3.320   1.789   6.885 -0.3944 -0.2262  0.0291
 5271SOL    HW127275   3.254   1.836   6.937  0.1553 -0.5187  1.0056
 5271SOL    HW227276   3.338   1.854   6.817 -2.1757 -1.6506 -1.7726
 5272SOL     OW27277   3.299   0.857   9.316 -0.5263  0.0222  0.0264
 5272SOL    HW127278   3.289   0.779   9.261  0.5412  1.0438 -1.6096
 5272SOL    HW227279   3.235   0.842   9.385 -3.0730  0.5159 -2.2196
 5273SOL     OW27280   3.155   0.556   0.046  0.4640  0.2295 -0.0756
 5273SOL    HW127281   3.200   0.577  17.654  1.5904  0.6185  0.6456
 5273SOL    HW227282   3.226   0.512   0.092  1.1649  2.4246  0.9388
 5274SOL     OW27283   1.850   3.518   7.227 -0.4632 -0.0602 -0.1298
 5274SOL    HW127284   1.783   3.528   7.159 -0.5588 -1.3475 -0.2135
 5274SOL    HW227285   1.899   3.599   7.215  1.6287 -1.3386 -0.1863
 5275SOL     OW27286   2.597   1.294  12.973 -0.0006  0.8869  0.1957
 5275SOL    HW127287   2.668   1.314  13.035  1.5386 -0.8289 -1.0267
 5275SOL    HW227288   2.631   1.243  12.900 -2.1788 -3.0859  1.9798
 5276SOL     OW27289   1.831   3.841  15.774 -0.1427 -0.2856 -0.5567
 5276SOL    HW127290   1.774   3.867  15.702  0.7220 -1.0409 -1.5186
 5276SOL    HW227291   1.914   3.814  15.734 -0.3485 -1.5172 -0.1645
 5277SOL     OW27292   0.071   2.573  10.677  0.4430 -0.1472 -0.3340
 5277SOL    HW127293   0.060   2.666  10.698 -2.7863 -0.1411 -1.9541
 5277SOL    HW227294   0.130   2.538  10.744 -0.4906  0.5843  0.8722
 5278SOL     OW27295   1.892   1.773   6.885  0.0543  0.2113 -0.1139
 5278SOL    HW127296   1.858   1.738   6.967  0.6102  1.3797  0.5997
 5278SOL    HW227297   1.943   1.695   6.862  0.7621  1.0480 -1.3778
 5279SOL     OW27298   3.973   4.067   5.762 -0.4186  0.3179 -0.4768
 5279SOL    HW127299   3.927   4.146   5.790 -0.3709 -0.4657  1.8071
 5279SOL    HW227300   4.020   4.099   5.685 -0.5020 -0.3982 -0.8174
 5280SOL     OW27301   1.262   1.169   1.906 -0.0342 -0.5519  0.1391
 5280SOL    HW127302   1.320   1.164   1.982  0.7854 -1.2276 -0.5339
 5280SOL    HW227303   1.274   1.262   1.885  0.7051 -0.5315  0.6383
 5281SOL     OW27304   2.693   0.884   5.419 -0.0892  0.1936  0.0985
 5281SOL    HW127305   2.648   0.856   5.339 -1.6078  0.8378  0.7302
 5281SOL    HW227306   2.779   0.910   5.385 -1.0827  0.8476 -1.8935
 5282SOL     OW27307   4.573   2.789   7.446  0.1463 -0.1852  0.7838
 5282SOL    HW127308   4.606   2.726   7.382 -0.3151  0.1234  0.2381
 5282SOL    HW227309   4.640   2.787   7.514 -0.3279  1.8179  1.2899
 5283SOL     OW27310   4.275   1.997   8.211  0.1111 -0.1421  0.2429
 5283SOL    HW127311   4.287   1.910   8.249  2.2052  0.0871  0.1097
 5283SOL    HW227312   4.322   2.056   8.270 -1.2840  1.2599 -0.0596
 5284SOL     OW27313   3.274   1.700   7.616 -0.6607 -0.1501 -0.3954
 5284SOL    HW127314   3.357   1.670   7.654 -0.9794 -1.1410 -0.5087
 5284SOL    HW227315   3.243   1.620   7.575  0.0742  0.5993 -2.4169
 5285SOL     OW27316   0.522   3.029   5.451 -0.2475 -0.4722  0.4796
 5285SOL    HW127317   0.475   2.959   5.406 -0.3363 -0.6492  0.8467
 5285SOL    HW227318   0.541   3.088   5.378  2.0959 -1.3294  0.3943
 5286SOL     OW27319   3.655   3.587   2.939  0.6808  0.4804 -0.2659
 5286SOL    HW127320   3.721   3.623   2.880 -0.5678  2.7045 -0.2727
 5286SOL    HW227321   3.634   3.660   2.997  0.3742  1.5798 -1.7709
 5287SOL     OW27322   0.324   0.539   1.758 -0.5924  0.0437  0.1886
 5287SOL    HW127323   0.355   0.505   1.674 -0.7427  1.4995 -0.4614
 5287SOL    HW227324   0.407   0.581   1.781  0.5878 -1.8969 -0.5239
 5288SOL     OW27325   1.743   0.508   2.857  0.4140 -0.7350 -0.4694
 5288SOL    HW127326   1.718   0.469   2.941  0.9373 -1.3617 -0.6088
 5288SOL    HW227327   1.803   0.580   2.876  1.4839 -1.8869  0.5036
 5289SOL     OW27328   2.938   0.019   5.765 -0.3776  0.1478 -0.5882
 5289SOL    HW127329   2.919   0.053   5.853 -0.6400 -0.3655 -0.4445
 5289SOL    HW227330   2.955   4.648   5.776  1.2621  0.3195 -1.7566
 5290SOL     OW27331   4.483   4.657   7.640 -0.1659  0.5637  0.0043
 5290SOL    HW127332   4.429   4.622   7.569  0.7959 -0.6798 -0.1090
 5290SOL    HW227333   4.560   4.691   7.594 -0.0114  2.3976  1.6452
 5291SOL     OW27334   3.818   1.299  16.002  0.4772  0.1073  0.3329
 5291SOL    HW127335   3.899   1.284  15.954 -0.9923 -1.3833 -1.6282
 5291SOL    HW227336   3.855   1.346  16.077  0.1382  2.2737 -0.8494
 5292SOL     OW27337   4.305   3.598   8.843 -0.1181  0.2710 -0.5107
 5292SOL    HW127338   4.247   3.571   8.915 -0.5768 -1.1588 -1.4245
 5292SOL    HW227339   4.354   3.521   8.816 -2.2043 -2.0204  2.2087
 5293SOL     OW27340   0.340   2.664  14.392 -0.1184 -0.9024  0.1982
 5293SOL    HW127341   0.298   2.598  14.447  1.6582 -2.1023  0.0938
 5293SOL    HW227342   0.291   2.747  14.391  1.5503  0.0731 -0.9634
 5294SOL     OW27343   2.473   0.234  12.572  0.3151 -0.0137  0.0651
 5294SOL    HW127344   2.427   0.303  12.619 -1.0395 -0.1610 -1.0561
 5294SOL    HW227345   2.560   0.274  12.577  0.4065 -0.0258 -1.3440
 5295SOL     OW27346   1.345   4.432   2.564 -0.1954 -0.1418  0.1445
 5295SOL    HW127347   1.384   4.519   2.563 -2.1309  0.7379  2.3015
 5295SOL    HW227348   1.376   4.389   2.484  1.9667  1.3954  0.1594
 5296SOL     OW27349   3.345   2.238   0.593  0.1252 -0.1887 -0.6273
 5296SOL    HW127350   3.351   2.159   0.540  0.2145 -0.8160  0.3027
 5296SOL    HW227351   3.369   2.201   0.678  1.5583  1.7832 -0.1724
 5297SOL     OW27352   4.649   4.053  12.584  0.9561  0.1749  0.3944
 5297SOL    HW127353   4.691   4.030  12.667  1.3447 -1.1449 -0.1702
 5297SOL    HW227354   4.650   4.148  12.590  0.8809  0.2633 -1.2509
 5298SOL     OW27355   4.091   2.749  10.419 -0.8358  0.4477  0.1030
 5298SOL    HW127356   4.049   2.666  10.395  0.3237  0.2610 -1.3266
 5298SOL    HW227357   4.095   2.738  10.514 -1.6714  0.8341  0.1813
 5299SOL     OW27358   2.423   4.644   2.840  0.3705  0.4748  0.0038
 5299SOL    HW127359   2.353   4.608   2.895 -0.4734  0.8172 -0.8544
 5299SOL    HW227360   2.480   4.665   2.914  0.6576 -0.5696  0.0746
 5300SOL     OW27361   1.950   4.387   9.803  0.3832  0.4116  0.1295
 5300SOL    HW127362   1.983   4.465   9.758  0.2854 -0.4268 -1.3959
 5300SOL    HW227363   1.958   4.326   9.730 -0.1888 -0.6074  0.9124
 5301SOL     OW27364   1.629   3.481  14.897 -0.2909 -0.0463  0.3999
 5301SOL    HW127365   1.686   3.545  14.855 -0.2962  0.0791  0.5808
 5301SOL    HW227366   1.691   3.434  14.953 -0.8783  1.1459  2.0602
 5302SOL     OW27367   1.103   2.880   8.082  0.3097  0.6892 -0.0431
 5302SOL    HW127368   1.125   2.796   8.122  1.7981 -0.7039 -3.7853
 5302SOL    HW227369   1.008   2.874   8.091  0.1711  0.3352 -1.7147
 5303SOL     OW27370   2.988   2.379  14.579  0.2261  0.1357  0.2240
 5303SOL    HW127371   3.072   2.386  14.534  0.8948  2.0221  1.7846
 5303SOL    HW227372   2.958   2.469  14.569  1.3710  0.2935 -1.8039
 5304SOL     OW27373   2.532   1.104  10.764 -0.0208  0.4197 -0.6949
 5304SOL    HW127374   2.577   1.139  10.687  0.0635 -0.4200 -1.0269
 5304SOL    HW227375   2.602   1.095  10.829  0.7225 -3.6304 -2.0141
 5305SOL     OW27376   0.868   3.396  15.964  0.8084  0.5688  0.1866
 5305SOL    HW127377   0.772   3.387  15.960  0.7167  0.7700  1.9174
 5305SOL    HW227378   0.872   3.483  16.003 -0.0556  0.5409  0.3532
 5306SOL     OW27379   1.005   1.391  10.884  0.0680  0.1019  0.4156
 5306SOL    HW127380   1.063   1.435  10.946 -1.4834  2.0917  0.4516
 5306SOL    HW227381   1.002   1.460  10.817 -1.9670 -1.1909 -0.8221
 5307SOL     OW27382   4.012   4.451  13.873  0.9352 -0.6355 -0.3492
 5307SOL    HW127383   3.924   4.488  13.887  2.3252  2.7156 -0.5217
 5307SOL    HW227384   3.999   4.412  13.786 -0.7565 -0.9813  0.0510
 5308SOL     OW27385   1.724   1.819   8.066  0.1943 -0.0947  0.3247
 5308SOL    HW127386   1.814   1.851   8.075 -0.3319  1.5399 -0.1350
 5308SOL    HW227387   1.682   1.848   8.147  0.1407  0.0739  0.2365
 5309SOL     OW27388   0.692   3.926  13.750  0.5830 -0.2767 -1.3383
 5309SOL    HW127389   0.725   3.980  13.822  1.5948 -0.3312 -1.7635
 5309SOL    HW227390   0.598   3.912  13.762  0.2880  0.8175 -2.3879
 5310SOL     OW27391   3.422   4.669   2.008  0.3072  0.4312  0.0935
 5310SOL    HW127392   3.394   0.006   1.938 -0.1930  0.4725  0.3301
 5310SOL    HW227393   3.428   4.582   1.968  0.2765  0.7381 -0.5698
 5311SOL     OW27394   3.234   4.023   1.604  0.0617 -0.5127 -0.1125
 5311SOL    HW127395   3.194   3.997   1.687 -1.6037 -1.2781 -1.1693
 5311SOL    HW227396   3.256   3.941   1.559  1.8923 -0.8634  1.3802
 5312SOL     OW27397   2.916   1.759   8.589  0.7353 -0.1744 -0.2897
 5312SOL    HW127398   2.917   1.802   8.674  0.7767 -1.7595  0.4984
 5312SOL    HW227399   2.865   1.680   8.605  0.6236  0.3129  1.6943
 5313SOL     OW27400   4.253   0.028  12.200  0.2682  0.0520 -0.2221
 5313SOL    HW127401   4.321   4.689  12.172  0.1138 -0.5320  0.6847
 5313SOL    HW227402   4.223   0.052  12.112 -2.6426 -0.3094  0.6453
 5314SOL     OW27403   4.331   0.664  16.686 -0.1844  0.6536  0.4642
 5314SOL    HW127404   4.336   0.744  16.634 -2.3919  0.7841  0.4792
 5314SOL    HW227405   4.248   0.676  16.732 -1.1112 -0.8516 -0.8207
 5315SOL     OW27406   0.153   4.422   7.453 -0.1070  0.2061  0.3098
 5315SOL    HW127407   0.172   4.374   7.373 -0.6526 -1.3615  1.1357
 5315SOL    HW227408   0.058   4.415   7.442 -0.2692  4.1683 -0.9140
 5316SOL     OW27409   3.037   0.287  10.496  0.5510 -0.2077  0.6257
 5316SOL    HW127410   3.008   0.217  10.438  0.0903  0.3237  0.2139
 5316SOL    HW227411   2.955   0.299  10.544 -0.8496 -4.0848 -0.8168
 5317SOL     OW27412   4.380   0.622  11.931 -0.2280  0.1700 -0.0005
 5317SOL    HW127413   4.293   0.586  11.915 -0.1741  0.2500 -0.4917
 5317SOL    HW227414   4.382   0.685  11.859  2.3332  0.6278  0.4673
 5318SOL     OW27415   2.118   2.265   5.486 -0.0498 -0.0625 -0.1508
 5318SOL    HW127416   2.176   2.335   5.515 -1.0915  0.6455  0.2232
 5318SOL    HW227417   2.169   2.213   5.423  2.2244  0.5242  1.2111
 5319SOL     OW27418   0.297   4.435  10.585  1.0594  0.8920  0.2906
 5319SOL    HW127419   0.343   4.507  10.543  1.2505  0.1336 -0.8028
 5319SOL    HW227420   0.332   4.432  10.674  0.6870  0.6011  0.4293
 5320SOL     OW27421   0.092   2.337  15.483  0.3976  0.0802 -0.0245
 5320SOL    HW127422   0.187   2.329  15.479  0.2956 -1.4153  0.4247
 5320SOL    HW227423   0.070   2.328  15.391 -0.0514 -4.6668  0.5148
 5321SOL     OW27424   1.971   0.450   6.470  0.7790  0.2870 -0.2066
 5321SOL    HW127425   1.980   0.357   6.453  0.6961  0.5330 -1.6167
 5321SOL    HW227426   2.048   0.459   6.526  0.1608  0.6936  0.5855
 5322SOL     OW27427   3.060   4.697   9.659 -0.1638  0.0625  0.7211
 5322SOL    HW127428   3.091   4.622   9.709  0.1179  0.2875  0.8814
 5322SOL    HW227429   3.071   4.672   9.567  0.7475 -0.1204  0.8810
 5323SOL     OW27430   3.672   1.665  10.230  0.1272  0.0052 -0.7336
 5323SOL    HW127431   3.707   1.583  10.265  1.0163  0.1526 -1.2955
 5323SOL    HW227432   3.638   1.640  10.144  0.4473 -0.8824 -0.6055
 5324SOL     OW27433   3.506   4.103   1.565  0.6255 -0.1152 -0.4246
 5324SOL    HW127434   3.508   4.040   1.492 -0.4597 -1.1658  0.4545
 5324SOL    HW227435   3.416   4.094   1.596  0.3600  0.0971 -1.1402
 5325SOL     OW27436   0.761   0.907  13.934  0.0688  0.3129  0.0370
 5325SOL    HW127437   0.751   0.954  14.017 -1.2814  0.5823 -0.2630
 5325SOL    HW227438   0.762   0.979  13.870 -1.0701  0.9874  0.7717
 5326SOL     OW27439   0.709   1.240  13.348  0.3678  1.1540  0.1787
 5326SOL    HW127440   0.799   1.207  13.346 -0.9731 -2.6149  1.3495
 5326SOL    HW227441   0.659   1.191  13.414  0.0393 -0.6824 -1.4254
 5327SOL     OW27442   4.613   0.079   4.616  0.0130  0.5650  0.5429
 5327SOL    HW127443   4.706   0.084   4.635  0.4591 -1.2278 -1.0984
 5327SOL    HW227444   4.582   0.080   4.707  0.1523  0.6490  0.5885
 5328SOL     OW27445   3.161   0.029   5.583  0.0837 -1.1929 -0.1305
 5328SOL    HW127446   3.198   0.113   5.610 -4.3129  0.2864  1.2592
 5328SOL    HW227447   3.082   0.028   5.636  0.5077 -3.1481  0.4575
 5329SOL     OW27448   0.033   1.848   6.898 -0.4046  0.6409 -0.3536
 5329SOL    HW127449   0.066   1.905   6.967  1.4221 -1.6835  0.6729
 5329SOL    HW227450   0.077   1.765   6.914 -1.5201  0.1384  0.1067
 5330SOL     OW27451   3.792   4.485   3.142 -0.1269 -0.0545  0.2188
 5330SOL    HW127452   3.868   4.428   3.136 -0.3975 -0.4841  0.9581
 5330SOL    HW227453   3.814   4.514   3.230  1.1650 -0.8612  0.1591
 5331SOL     OW27454   0.826   4.352   5.823  0.1802  0.2234 -0.1446
 5331SOL    HW127455   0.850   4.406   5.748 -1.5126  0.2682 -0.6458
 5331SOL    HW227456   0.735   4.325   5.808 -0.1080 -0.2320  2.3464
 5332SOL     OW27457   1.224   0.793  13.385 -0.1394 -0.3915  0.2699
 5332SOL    HW127458   1.300   0.759  13.431  1.9239  1.0669 -2.0705
 5332SOL    HW227459   1.228   0.752  13.299 -0.0781  0.0816  0.0462
 5333SOL     OW27460   3.070   4.046   8.639  0.1190 -0.1944 -0.0310
 5333SOL    HW127461   3.125   4.056   8.716  2.8405  0.8119 -2.1012
 5333SOL    HW227462   2.987   4.059   8.684 -0.1735  0.1676 -0.6715
 5334SOL     OW27463   2.684   2.776   5.215  0.1573  0.5080  0.2461
 5334SOL    HW127464   2.727   2.834   5.278 -2.7307  3.7713 -0.7143
 5334SOL    HW227465   2.594   2.809   5.224 -0.1111 -0.1493 -0.0747
 5335SOL     OW27466   4.324   2.526   6.804  0.0917 -0.2545 -0.3961
 5335SOL    HW127467   4.236   2.514   6.769 -0.5025  0.6881  0.7554
 5335SOL    HW227468   4.389   2.533   6.734 -1.0936  0.4915 -1.4110
 5336SOL     OW27469   3.160   0.225   3.181  0.1120  0.0999 -0.0452
 5336SOL    HW127470   3.251   0.221   3.152 -0.1374 -1.5139 -0.6230
 5336SOL    HW227471   3.157   0.308   3.228  1.8128 -0.6335  1.3819
 5337SOL     OW27472   3.776   0.593   8.614 -0.4388 -0.8230  0.2243
 5337SOL    HW127473   3.804   0.546   8.692  0.1651 -1.7953 -0.5859
 5337SOL    HW227474   3.713   0.655   8.651  0.1338 -1.1286  1.7014
 5338SOL     OW27475   4.376   1.217   1.934  0.3612 -0.0140  0.1346
 5338SOL    HW127476   4.461   1.262   1.942  1.5242 -2.2414  0.2221
 5338SOL    HW227477   4.396   1.132   1.973 -2.4567 -0.3638  0.7459
 5339SOL     OW27478   3.512   2.442   6.645 -0.2599  0.2724  0.0603
 5339SOL    HW127479   3.517   2.510   6.712 -2.4876 -0.7248  1.2201
 5339SOL    HW227480   3.533   2.364   6.695  2.2705  0.6145 -0.4592
 5340SOL     OW27481   2.361   2.465  17.371 -0.4267  0.0791 -0.0432
 5340SOL    HW127482   2.285   2.417  17.403 -0.5944 -0.3245 -1.0504
 5340SOL    HW227483   2.406   2.398  17.321 -0.3674 -2.1312  2.9759
 5341SOL     OW27484   3.428   3.349   7.261  0.4742  0.7225 -0.2931
 5341SOL    HW127485   3.510   3.302   7.247  0.5577  1.2074 -1.4300
 5341SOL    HW227486   3.379   3.349   7.178  1.2779 -1.7713 -0.7733
 5342SOL     OW27487   1.639   4.417  13.055 -0.1202  0.0710 -0.2427
 5342SOL    HW127488   1.574   4.484  13.038  1.1499  1.0892 -1.0959
 5342SOL    HW227489   1.657   4.384  12.967 -2.4159 -0.9007 -0.3482
 5343SOL     OW27490   3.887   3.408   7.935 -0.1281 -0.1250  0.5198
 5343SOL    HW127491   3.880   3.503   7.928 -0.0932 -0.3186 -1.9570
 5343SOL    HW227492   3.960   3.399   7.996  0.9432  2.4469 -0.3971
 5344SOL     OW27493   0.857   0.354   5.078  0.0382  0.2538  0.0324
 5344SOL    HW127494   0.847   0.355   4.983  0.5660 -1.0976 -0.0273
 5344SOL    HW227495   0.809   0.433   5.103 -2.9782 -1.7158  0.4699
 5345SOL     OW27496   4.491   4.405  11.880 -0.5138 -0.2107  0.4297
 5345SOL    HW127497   4.397   4.393  11.870 -0.3193  0.6663 -2.2921
 5345SOL    HW227498   4.520   4.349  11.808 -2.0511 -1.2939  0.6536
 5346SOL     OW27499   0.485   4.129   1.131 -0.4161  0.1395  0.1932
 5346SOL    HW127500   0.498   4.196   1.064 -1.6032  2.5297  2.3491
 5346SOL    HW227501   0.389   4.134   1.135 -0.3177  2.3990  0.0272
 5347SOL     OW27502   1.178   3.661   5.656  0.0208 -0.8495  0.4160
 5347SOL    HW127503   1.178   3.585   5.715 -1.0060 -0.9609  0.2687
 5347SOL    HW227504   1.192   3.733   5.718 -0.3966 -0.9381  0.6210
 5348SOL     OW27505   0.554   2.084  13.841 -0.3158 -0.0900  0.3009
 5348SOL    HW127506   0.640   2.052  13.867  0.1394  0.2232 -0.8135
 5348SOL    HW227507   0.562   2.171  13.881 -0.4335  0.4171 -0.7555
 5349SOL     OW27508   0.472   4.658  13.375 -0.0320  0.0987  0.4750
 5349SOL    HW127509   0.527   0.012  13.393  0.1309 -0.5558  2.6998
 5349SOL    HW227510   0.532   4.585  13.357 -0.9900 -0.9489  1.5186
 5350SOL     OW27511   0.782   0.555  15.259 -0.4461 -0.4570 -0.2604
 5350SOL    HW127512   0.864   0.581  15.301  0.2293 -0.2215 -1.7305
 5350SOL    HW227513   0.771   0.608  15.180  1.0061 -0.0124 -0.1659
 5351SOL     OW27514   3.916   1.398   0.029 -0.3847  0.0315  0.1424
 5351SOL    HW127515   3.981   1.377   0.095 -0.7509 -1.8982 -0.1106
 5351SOL    HW227516   3.871   1.316   0.008 -0.1975  1.0519 -4.4041
 5352SOL     OW27517   0.660   2.925  12.692  0.2220  0.1702 -0.4819
 5352SOL    HW127518   0.577   2.953  12.654  0.5806  0.9356 -0.7017
 5352SOL    HW227519   0.697   3.004  12.731  2.3398 -0.5149 -1.0500
 5353SOL     OW27520   0.476   2.517   3.870  0.2113  0.3375  0.0161
 5353SOL    HW127521   0.541   2.582   3.899  0.4536 -0.2264  0.7367
 5353SOL    HW227522   0.464   2.470   3.953  0.8113  0.0864 -0.0369
 5354SOL     OW27523   3.911   4.704   9.340  0.0656 -0.0636  0.1247
 5354SOL    HW127524   3.836   4.721   9.398  0.5372  1.9420  0.1314
 5354SOL    HW227525   3.867   4.649   9.275 -1.2696 -1.5798  2.3077
 5355SOL     OW27526   1.773   1.145   2.199 -0.4828 -0.6688  0.1367
 5355SOL    HW127527   1.764   1.186   2.113  0.2839 -0.4799  0.1469
 5355SOL    HW227528   1.848   1.189   2.240 -1.4433  0.6762  0.4171
 5356SOL     OW27529   2.997   1.420   8.298 -0.5945 -0.4311 -0.3229
 5356SOL    HW127530   2.919   1.394   8.346  0.2640 -2.1616  0.1417
 5356SOL    HW227531   3.069   1.410   8.360 -1.6197 -0.1105  0.9214
 5357SOL     OW27532   1.374   3.793   7.030  0.7682  0.3685 -0.5205
 5357SOL    HW127533   1.385   3.778   7.124 -0.8635 -0.3666 -0.4405
 5357SOL    HW227534   1.399   3.885   7.032 -0.0308  0.6050 -1.7131
 5358SOL     OW27535   2.659   2.612   4.470 -0.7006  0.2578 -0.2415
 5358SOL    HW127536   2.738   2.601   4.417  0.3770 -1.2516  1.7029
 5358SOL    HW227537   2.595   2.628   4.401 -0.8689 -0.2998 -0.2153
 5359SOL     OW27538   2.964   4.376   8.615  0.3994 -0.1970 -0.0085
 5359SOL    HW127539   2.911   4.309   8.657 -1.8509  0.8816 -1.1340
 5359SOL    HW227540   2.910   4.388   8.536  1.6989  2.6696 -0.4802
 5360SOL     OW27541   3.262   1.423   3.087 -0.1697  0.0774  0.0179
 5360SOL    HW127542   3.258   1.329   3.068 -0.4954  0.2990 -1.0235
 5360SOL    HW227543   3.175   1.453   3.063  0.4850  1.4821 -0.6026
 5361SOL     OW27544   1.883   0.068   7.764 -0.4664  0.2910  0.3306
 5361SOL    HW127545   1.850   4.701   7.754  0.6358 -0.0629 -0.1408
 5361SOL    HW227546   1.808   0.082   7.822 -0.2810 -0.2940  0.7025
 5362SOL     OW27547   1.103   2.984   4.187  0.4528  0.3252  0.3492
 5362SOL    HW127548   1.133   2.913   4.244 -1.1747  1.3865  2.5035
 5362SOL    HW227549   1.087   3.052   4.252  0.3398  0.2501  0.4014
 5363SOL     OW27550   0.786   2.249   2.845  0.1360 -0.2307 -0.2285
 5363SOL    HW127551   0.857   2.281   2.790 -0.1012 -1.9472 -1.5638
 5363SOL    HW227552   0.739   2.331   2.859 -1.3144 -1.2380  0.8521
 5364SOL     OW27553   2.391   2.439   7.657  0.1104 -0.7149  0.0236
 5364SOL    HW127554   2.483   2.436   7.631  0.7609  0.5198  2.1602
 5364SOL    HW227555   2.341   2.453   7.578 -1.4345 -0.2940  1.0771
 5365SOL     OW27556   3.607   2.935   1.419  0.1017 -0.5214  0.4751
 5365SOL    HW127557   3.695   2.913   1.388  0.5919 -1.0241  2.1953
 5365SOL    HW227558   3.558   2.949   1.339 -0.8981  0.9827  1.3301
 5366SOL     OW27559   3.625   3.024  10.984 -0.1933 -0.4156 -0.0626
 5366SOL    HW127560   3.689   3.088  10.953  0.0855 -0.4062  0.5191
 5366SOL    HW227561   3.688   2.958  11.012  0.0631  0.0016  0.3519
 5367SOL     OW27562   2.673   2.489   7.525  0.2021  0.0090 -0.3216
 5367SOL    HW127563   2.655   2.495   7.432  1.3278  0.1136 -0.5371
 5367SOL    HW227564   2.740   2.421   7.511  1.6165  1.5788 -1.1445
 5368SOL     OW27565   1.931   1.323   2.962 -0.0578  0.2824 -0.4297
 5368SOL    HW127566   2.017   1.333   3.002 -0.7032 -1.4054  1.4124
 5368SOL    HW227567   1.910   1.407   2.921 -0.4871  0.2978 -0.1776
 5369SOL     OW27568   3.511   3.408   9.756  0.1100  0.6666 -0.1953
 5369SOL    HW127569   3.585   3.348   9.751 -0.6089 -0.2770  0.6187
 5369SOL    HW227570   3.520   3.453   9.840  0.2655  0.1274  0.0761
 5370SOL     OW27571   1.369   3.122  16.173  0.5828  0.1881  0.4155
 5370SOL    HW127572   1.313   3.190  16.209  0.5280  0.9801 -1.1797
 5370SOL    HW227573   1.375   3.064  16.249 -2.9953 -1.2831 -0.4330
 5371SOL     OW27574   1.207   3.335   6.945 -0.1455 -0.2416  0.3808
 5371SOL    HW127575   1.174   3.296   6.864 -2.5265  0.9102  0.7849
 5371SOL    HW227576   1.133   3.314   7.001 -1.4465 -0.1264 -1.3014
 5372SOL     OW27577   0.927   0.524   2.484 -0.0153  0.0598  0.5592
 5372SOL    HW127578   0.980   0.576   2.425 -0.0125 -0.5658  0.0113
 5372SOL    HW227579   0.989   0.454   2.506 -1.6655 -2.2299 -2.1031
 5373SOL     OW27580   2.357   3.229  12.687 -0.0053  0.5575  0.6419
 5373SOL    HW127581   2.415   3.176  12.631 -0.4349  1.8324 -1.0247
 5373SOL    HW227582   2.421   3.271  12.745  0.9602 -0.9747  0.6957
 5374SOL     OW27583   2.111   2.743   2.610 -0.2748 -0.7028  0.4778
 5374SOL    HW127584   2.112   2.839   2.608  1.4013 -0.7159  0.2580
 5374SOL    HW227585   2.170   2.727   2.684  0.2540  1.2361  0.4723
 5375SOL     OW27586   3.639   2.599   0.664 -0.5931  0.7185  0.7018
 5375SOL    HW127587   3.548   2.583   0.691  0.0309  0.6155  2.7342
 5375SOL    HW227588   3.668   2.521   0.617 -0.7576  0.7323  0.5764
 5376SOL     OW27589   1.432   0.141   6.100  0.3029 -0.2517  0.1927
 5376SOL    HW127590   1.379   0.159   6.022  1.7663 -2.1087 -1.2618
 5376SOL    HW227591   1.422   0.217   6.156 -0.3327 -0.8933  0.9473
 5377SOL     OW27592   4.698   2.723  14.817  0.1826 -0.7061 -0.2653
 5377SOL    HW127593   4.698   2.679  14.902  2.6043  0.3662  0.2930
 5377SOL    HW227594   4.630   2.665  14.783 -0.6387  0.7713 -1.1686
 5378SOL     OW27595   3.206   2.477   0.361 -0.2301 -0.3735  0.2910
 5378SOL    HW127596   3.246   2.455   0.278  0.7239  1.0877  0.3700
 5378SOL    HW227597   3.248   2.559   0.387  0.0511 -0.3032 -0.4041
 5379SOL     OW27598   2.187   0.737   8.397 -0.4168  0.0201 -0.3722
 5379SOL    HW127599   2.163   0.747   8.489  2.6458 -0.3355  0.4697
 5379SOL    HW227600   2.268   0.788   8.398  0.1639 -0.8964 -0.3034
 5380SOL     OW27601   4.632   3.439   4.468  0.0225  0.5880  0.0876
 5380SOL    HW127602   0.001   3.425   4.445 -0.5804 -1.9156 -0.8001
 5380SOL    HW227603   4.627   3.533   4.482 -2.3147  0.1652  2.3476
 5381SOL     OW27604   2.130   3.102  12.705 -0.2017 -0.1396  0.1996
 5381SOL    HW127605   2.145   3.011  12.728 -1.8298 -0.3366  0.4456
 5381SOL    HW227606   2.218   3.129  12.677  0.3474 -2.2399 -0.0965
 5382SOL     OW27607   1.995   4.590   3.322 -0.3110 -0.1709  0.1765
 5382SOL    HW127608   2.076   4.640   3.328 -0.6783  0.2165  1.9907
 5382SOL    HW227609   2.011   4.525   3.391 -0.2251 -2.5070 -2.0541
 5383SOL     OW27610   3.150   1.725   4.163 -0.8448  0.3783 -0.3057
 5383SOL    HW127611   3.177   1.697   4.251 -0.6975  1.5887  0.0315
 5383SOL    HW227612   3.216   1.791   4.144 -0.1959 -0.1074  0.2430
 5384SOL     OW27613   3.818   2.238   8.604  0.2545  0.1233  0.3008
 5384SOL    HW127614   3.794   2.273   8.689  2.1085  0.1118  0.8337
 5384SOL    HW227615   3.738   2.235   8.551  0.2222 -1.5241  0.4637
 5385SOL     OW27616   3.663   0.082   2.100 -0.5109 -0.3608  0.3201
 5385SOL    HW127617   3.746   0.034   2.102 -0.9172 -1.0470  1.1455
 5385SOL    HW227618   3.607   0.015   2.060  1.9770 -1.8660 -0.6316
 5386SOL     OW27619   2.290   0.812  15.114 -0.5913 -0.2739  0.3101
 5386SOL    HW127620   2.371   0.781  15.155 -0.4185 -0.2246  0.0032
 5386SOL    HW227621   2.240   0.730  15.109 -2.8390  1.0728  0.5192
 5387SOL     OW27622   4.290   3.976   4.022 -0.3411 -0.1697 -0.0209
 5387SOL    HW127623   4.345   3.912   4.069 -0.8546 -0.8354 -0.3238
 5387SOL    HW227624   4.224   4.001   4.086  0.0011  0.4687  0.0852
 5388SOL     OW27625   3.101   1.212  16.529  0.2816  0.2148  0.6872
 5388SOL    HW127626   3.029   1.212  16.592  0.8071 -1.8391  1.2847
 5388SOL    HW227627   3.129   1.304  16.522 -0.7271  0.2514 -2.7807
 5389SOL     OW27628   0.071   1.754   5.545  0.1571  0.0884 -0.7933
 5389SOL    HW127629   0.045   1.844   5.529 -2.8539 -0.4960  0.8029
 5389SOL    HW227630   0.028   1.734   5.629  0.8978  1.5729 -0.0764
 5390SOL     OW27631   1.147   2.862   0.724 -0.2077  0.1201 -0.2447
 5390SOL    HW127632   1.211   2.860   0.652 -1.9096 -0.0093 -1.7368
 5390SOL    HW227633   1.101   2.778   0.728 -0.4083  0.0518 -3.6923
 5391SOL     OW27634   0.788   0.134  10.047 -0.8771  0.4691 -0.8099
 5391SOL    HW127635   0.845   0.206  10.074  1.9918 -1.5581 -1.4808
 5391SOL    HW227636   0.847   0.059  10.038 -0.6125  0.7786 -1.6105
 5392SOL     OW27637   2.758   1.901  14.645  0.0934  0.2072  0.2858
 5392SOL    HW127638   2.666   1.921  14.626  0.9742  0.3738 -3.9482
 5392SOL    HW227639   2.798   1.949  14.572 -0.0570 -2.0062 -1.2379
 5393SOL     OW27640   2.445   1.478   2.403  0.1777  0.1065 -0.0620
 5393SOL    HW127641   2.474   1.567   2.424 -0.3195 -0.4322  2.8449
 5393SOL    HW227642   2.461   1.436   2.487 -0.6321  1.8149  0.9395
 5394SOL     OW27643   1.954   0.205   4.986 -0.2460  0.6851 -0.1033
 5394SOL    HW127644   1.937   0.140   4.918 -0.8337  0.2815  0.4309
 5394SOL    HW227645   1.963   0.146   5.061  0.8645 -1.8167 -2.2253
 5395SOL     OW27646   0.702   2.527   2.874  0.7076  1.0525 -0.0197
 5395SOL    HW127647   0.743   2.528   2.960  0.6881 -0.5976  0.0097
 5395SOL    HW227648   0.770   2.578   2.829  0.8260  0.7469 -0.1879
 5396SOL     OW27649   0.936   1.652   2.857  0.4789  0.6632 -0.0817
 5396SOL    HW127650   0.861   1.602   2.891  1.0987  0.5905  1.1762
 5396SOL    HW227651   1.007   1.593   2.883 -0.8996 -1.3943 -0.9423
 5397SOL     OW27652   3.755   3.842   5.741 -0.6031  0.2391  0.1174
 5397SOL    HW127653   3.710   3.850   5.825  0.8912 -0.1342  0.9530
 5397SOL    HW227654   3.823   3.908   5.753  0.8284 -1.1285 -0.4648
 5398SOL     OW27655   4.627   1.015   5.122 -0.4522 -0.4624  0.0605
 5398SOL    HW127656   4.678   1.070   5.062 -1.6584  0.6660  0.0693
 5398SOL    HW227657   4.663   1.042   5.207 -2.3570  0.4298  0.5752
 5399SOL     OW27658   3.934   0.163   1.173 -0.0699 -0.0941  0.3965
 5399SOL    HW127659   3.896   0.251   1.168  2.3110  0.9213 -0.0507
 5399SOL    HW227660   3.900   0.135   1.088 -1.4438  0.3998  0.7851
 5400SOL     OW27661   1.726   4.385  13.318  0.7976  0.1241  0.0835
 5400SOL    HW127662   1.734   4.385  13.222 -1.1536 -2.7654 -0.1019
 5400SOL    HW227663   1.733   4.293  13.343  3.2657  0.6447  1.3531
 5401SOL     OW27664   0.080   2.813  10.822 -0.0629  0.2027 -0.1440
 5401SOL    HW127665   0.101   2.764  10.901 -0.3680  2.1121  1.1209
 5401SOL    HW227666   0.164   2.848  10.792 -0.8134 -0.2000 -2.7217
 5402SOL     OW27667   0.677   0.743   6.998  0.1082  0.0607  0.1086
 5402SOL    HW127668   0.695   0.810   6.932  1.4645  0.1481  0.5639
 5402SOL    HW227669   0.711   0.792   7.073  1.9037 -0.1169 -0.5776
 5403SOL     OW27670   1.003   1.765   3.706 -0.3092 -0.7095  0.3596
 5403SOL    HW127671   1.065   1.828   3.741 -1.3786  1.1604 -1.1175
 5403SOL    HW227672   1.066   1.715   3.655 -1.3432 -0.6374 -0.9815
 5404SOL     OW27673   1.696   3.109   3.941  0.1647 -0.2303  0.1556
 5404SOL    HW127674   1.678   3.018   3.965 -2.2878 -0.5587 -2.8828
 5404SOL    HW227675   1.654   3.157   4.013 -0.9188 -0.8796 -0.0313
 5405SOL     OW27676   3.619   2.346  14.752  0.4695  0.0367  0.1651
 5405SOL    HW127677   3.657   2.258  14.757  1.6482  0.4304 -1.8059
 5405SOL    HW227678   3.699   2.396  14.737  1.5023 -1.6184  0.1557
 5406SOL     OW27679   1.513   4.534   5.619 -0.6680 -0.0728 -0.1967
 5406SOL    HW127680   1.420   4.554   5.615 -0.4496  1.1432  0.4760
 5406SOL    HW227681   1.524   4.543   5.525 -1.7281 -1.0254 -0.4082
 5407SOL     OW27682   4.477   2.105   3.762  0.1103 -0.2191  0.0984
 5407SOL    HW127683   4.533   2.091   3.685  1.7299 -0.8169  1.3763
 5407SOL    HW227684   4.538   2.068   3.826 -1.1260  0.8943  1.9279
 5408SOL     OW27685   4.168   2.325   3.699 -0.1788  0.1707 -0.4449
 5408SOL    HW127686   4.181   2.405   3.647 -0.6548 -1.2516 -2.7479
 5408SOL    HW227687   4.143   2.265   3.629 -4.0968  0.5185  0.6702
 5409SOL     OW27688   2.913   3.844   6.969 -0.0480  0.2624 -0.1652
 5409SOL    HW127689   2.900   3.907   6.898 -0.6368  0.1304 -0.1779
 5409SOL    HW227690   2.977   3.889   7.024 -0.3942  0.2241  0.2714
 5410SOL     OW27691   3.245   0.043  12.157  0.0378 -0.1030  0.7588
 5410SOL    HW127692   3.165   0.073  12.200 -0.3869 -0.8570  0.5067
 5410SOL    HW227693   3.304   0.098  12.207 -1.3459  2.4872 -0.4439
 5411SOL     OW27694   0.223   3.394   7.049 -0.4179 -0.3570  0.3849
 5411SOL    HW127695   0.198   3.384   6.957 -0.3911  0.7472  0.2613
 5411SOL    HW227696   0.263   3.309   7.071 -0.1061 -0.8093 -1.9572
 5412SOL     OW27697   0.832   2.550   3.095 -1.0839 -0.7182 -0.0510
 5412SOL    HW127698   0.818   2.461   3.125 -1.9319 -0.7029 -0.4153
 5412SOL    HW227699   0.811   2.595   3.177 -1.0419  0.6853 -0.7965
 5413SOL     OW27700   0.068   4.638   5.280 -0.5290  0.3154  0.0657
 5413SOL    HW127701   4.702   4.666   5.255 -0.2824 -1.5559 -2.9288
 5413SOL    HW227702   0.040   4.601   5.363  3.3236  1.9822  2.1121
 5414SOL     OW27703   0.551   3.270   7.947  0.2281  0.4924  0.0562
 5414SOL    HW127704   0.539   3.348   8.002 -0.6597 -1.1110  2.1376
 5414SOL    HW227705   0.465   3.265   7.904  0.2777  0.6083 -0.0542
 5415SOL     OW27706   2.221   0.554   8.723  1.0369 -0.1871  0.5064
 5415SOL    HW127707   2.153   0.492   8.751  0.9541 -1.1929 -1.9306
 5415SOL    HW227708   2.182   0.641   8.715  1.5974 -0.0846 -1.0020
 5416SOL     OW27709   3.846   4.592   7.171 -0.1729 -0.5597  0.1970
 5416SOL    HW127710   3.768   4.627   7.214  0.3332  0.6534  0.1231
 5416SOL    HW227711   3.916   4.629   7.224  1.2391 -3.2500  0.1994
 5417SOL     OW27712   3.163   0.853  13.944  0.1164 -0.0705 -0.2724
 5417SOL    HW127713   3.189   0.767  13.911 -2.1512 -0.8866  0.0562
 5417SOL    HW227714   3.199   0.905  13.872 -0.7015  0.4120 -0.3302
 5418SOL     OW27715   2.648   0.731  17.000  0.4218 -0.0160  0.3429
 5418SOL    HW127716   2.565   0.685  16.990  0.5455 -0.7017  2.6524
 5418SOL    HW227717   2.669   0.726  17.093  1.1497  0.8478  0.2284
 5419SOL     OW27718   0.971   4.141  12.324  0.1604 -0.4958 -1.0932
 5419SOL    HW127719   1.029   4.212  12.296  1.5556 -0.2684  2.3615
 5419SOL    HW227720   0.927   4.183  12.398 -1.5214 -1.8627 -1.3248
 5420SOL     OW27721   3.598   1.224  11.767  0.4849  0.1300 -0.2392
 5420SOL    HW127722   3.563   1.182  11.688  0.8577  0.8761 -0.7941
 5420SOL    HW227723   3.673   1.270  11.731  0.5095 -0.1724 -0.5753
 5421SOL     OW27724   2.319   0.981   4.022 -0.1562  0.2761  0.8277
 5421SOL    HW127725   2.269   1.063   4.023  0.8329  0.8794 -0.7458
 5421SOL    HW227726   2.250   0.927   4.062 -0.2056  0.0784  0.4716
 5422SOL     OW27727   2.443   2.886   5.258 -0.6919  0.2811  0.1899
 5422SOL    HW127728   2.383   2.892   5.333  1.1073  0.2483  1.6300
 5422SOL    HW227729   2.468   2.977   5.244 -0.5779 -0.2804 -3.1286
 5423SOL     OW27730   4.358   0.707  17.137 -1.0721 -0.6962  0.6111
 5423SOL    HW127731   4.423   0.690  17.069 -0.6541 -0.8587  1.0502
 5423SOL    HW227732   4.325   0.794  17.115  1.9487 -0.3334 -2.5842
 5424SOL     OW27733   3.188   2.823  12.977  0.0086  0.4247 -0.1741
 5424SOL    HW127734   3.245   2.753  12.944 -0.2596  0.3279 -0.4232
 5424SOL    HW227735   3.151   2.793  13.060 -0.3847 -2.5583 -1.4063
 5425SOL     OW27736   2.800   0.117   5.366  0.3763 -0.5732 -0.3915
 5425SOL    HW127737   2.774   0.065   5.442 -2.3147  1.3307  0.0059
 5425SOL    HW227738   2.723   0.173   5.359 -0.2542 -1.4004 -0.1410
 5426SOL     OW27739   0.955   3.062  10.284  0.0145  0.3544 -0.5381
 5426SOL    HW127740   1.040   3.040  10.322 -0.1132 -0.9142 -0.9863
 5426SOL    HW227741   0.923   2.972  10.273 -0.5781  0.4093  0.6447
 5427SOL     OW27742   2.788   2.741  13.741  0.0849  0.3533  0.6883
 5427SOL    HW127743   2.738   2.823  13.744  0.0946  0.4246 -1.0592
 5427SOL    HW227744   2.839   2.745  13.821  2.3538  1.7666 -0.8131
 5428SOL     OW27745   0.989   2.208   3.566  0.1986 -0.0110  0.2549
 5428SOL    HW127746   0.905   2.252   3.579  1.0435  1.2795  1.3963
 5428SOL    HW227747   0.994   2.184   3.474  0.4396 -0.1725  0.3095
 5429SOL     OW27748   2.793   2.837  10.056  0.1631 -0.1333  0.5253
 5429SOL    HW127749   2.885   2.849  10.080  0.4682 -1.0648 -0.1786
 5429SOL    HW227750   2.741   2.867  10.131 -0.9442  0.3954 -0.4511
 5430SOL     OW27751   0.491   2.745   6.381  0.2376 -0.3461 -0.1588
 5430SOL    HW127752   0.398   2.753   6.364  0.4044  2.5708  0.3019
 5430SOL    HW227753   0.497   2.704   6.467  1.3175  1.6082  0.7025
 5431SOL     OW27754   0.652   1.299  11.410  0.2951 -0.3842 -0.1794
 5431SOL    HW127755   0.633   1.361  11.481 -0.0532  1.7181 -2.1086
 5431SOL    HW227756   0.740   1.270  11.436  1.7550  2.2520 -2.1495
 5432SOL     OW27757   2.359   4.333   6.203  0.3034 -0.0027  0.2068
 5432SOL    HW127758   2.321   4.287   6.129 -1.9468 -1.0667  2.0389
 5432SOL    HW227759   2.447   4.353   6.169 -0.5503  1.1978 -1.2809
 5433SOL     OW27760   3.965   0.467   4.771  0.6688  0.6704  0.2042
 5433SOL    HW127761   3.890   0.481   4.714  1.8367  0.9748 -1.2595
 5433SOL    HW227762   4.036   0.520   4.735  0.7132  1.0997  0.9358
 5434SOL     OW27763   4.320   2.113   2.763 -0.1095  0.5294  0.3374
 5434SOL    HW127764   4.298   2.117   2.856 -0.6891  1.0019  0.1780
 5434SOL    HW227765   4.338   2.021   2.741  1.8931  0.7506  1.0342
 5435SOL     OW27766   2.869   4.508   5.497  0.1203  0.0869 -0.1270
 5435SOL    HW127767   2.891   4.522   5.405  1.1209  0.6304  0.1949
 5435SOL    HW227768   2.775   4.485   5.496 -0.0993  0.9821  0.5508
 5436SOL     OW27769   2.237   3.777  14.995  0.1596 -0.2334 -0.2984
 5436SOL    HW127770   2.208   3.690  15.023 -2.0639  1.2192  1.9416
 5436SOL    HW227771   2.332   3.763  14.998  0.3745  1.4529  0.9144
 5437SOL     OW27772   1.434   4.312   6.005 -0.7636  0.4124 -0.2300
 5437SOL    HW127773   1.378   4.345   6.075  0.6031  0.1310  0.9931
 5437SOL    HW227774   1.490   4.388   5.991 -1.0957  0.3259 -1.9889
 5438SOL     OW27775   3.367   3.777   3.442  0.6672  0.5324 -0.8427
 5438SOL    HW127776   3.438   3.742   3.497 -2.1361 -0.0148  2.4001
 5438SOL    HW227777   3.315   3.826   3.505  0.6338 -1.5478  0.7536
 5439SOL     OW27778   4.421   3.939  10.987  0.0152 -0.1003  0.3516
 5439SOL    HW127779   4.402   4.031  11.004 -0.1654 -0.1320  0.3228
 5439SOL    HW227780   4.480   3.955  10.913 -2.3793 -2.2205 -2.0123
 5440SOL     OW27781   0.262   1.126   8.550  0.2409  0.4765 -0.1821
 5440SOL    HW127782   0.332   1.074   8.590 -0.7856 -0.3847  0.4687
 5440SOL    HW227783   0.200   1.056   8.530  1.3009 -0.5037 -0.0257
 5441SOL     OW27784   4.582   0.127  16.570 -0.4793  0.0332  0.1666
 5441SOL    HW127785   4.670   0.163  16.558 -0.7162  0.3625 -0.5616
 5441SOL    HW227786   4.528   0.205  16.584  1.5597  1.4413  0.1944
 5442SOL     OW27787   1.708   2.072  14.187  0.5005  0.1392 -0.3064
 5442SOL    HW127788   1.776   2.032  14.134  0.8698  2.3636 -1.4982
 5442SOL    HW227789   1.637   2.077  14.123  0.5495 -1.9192 -0.5241
 5443SOL     OW27790   3.663   0.290   9.164  0.1423  0.4438  0.1837
 5443SOL    HW127791   3.620   0.365   9.124 -1.7455  0.0594  1.4474
 5443SOL    HW227792   3.621   0.220   9.115  0.6868  0.3856 -0.1978
 5444SOL     OW27793   3.083   0.533   6.842  0.6041 -0.0745  0.1197
 5444SOL    HW127794   3.162   0.514   6.892  1.2512 -0.6038 -1.0839
 5444SOL    HW227795   3.067   0.626   6.854 -2.0479 -0.6218  0.9576
 5445SOL     OW27796   1.579   0.993  11.936  0.0623  0.3819 -0.2548
 5445SOL    HW127797   1.584   1.071  11.881 -2.8007  1.6983  1.3497
 5445SOL    HW227798   1.673   0.988  11.954  0.1284 -0.7358 -0.9156
 5446SOL     OW27799   0.798   4.095   9.707  0.0523  0.0500  0.4897
 5446SOL    HW127800   0.869   4.095   9.644  0.1444 -2.1636  0.5984
 5446SOL    HW227801   0.757   4.175   9.673 -0.7944 -0.4943  0.2457
 5447SOL     OW27802   3.688   2.869   2.158 -0.3814 -0.0625  0.2703
 5447SOL    HW127803   3.663   2.951   2.115  0.6367  1.2551  2.1817
 5447SOL    HW227804   3.768   2.837   2.115 -1.3211 -2.3017  0.2111
 5448SOL     OW27805   3.120   1.717  17.140 -0.1025 -0.5147 -0.1226
 5448SOL    HW127806   3.127   1.627  17.109  0.5587 -0.0289 -1.3958
 5448SOL    HW227807   3.050   1.753  17.086  1.3955  2.5981 -0.0486
 5449SOL     OW27808   3.032   3.786   6.203  0.3695 -0.0031 -0.8036
 5449SOL    HW127809   3.124   3.775   6.227  0.0669  0.0440  0.3631
 5449SOL    HW227810   3.002   3.801   6.293  2.5686 -2.3444  0.3230
 5450SOL     OW27811   1.238   2.460   3.193 -0.0108  0.3961 -0.0825
 5450SOL    HW127812   1.257   2.501   3.277  2.4975 -1.4862  0.2608
 5450SOL    HW227813   1.174   2.525   3.164 -1.8304 -1.4345 -0.1651
 5451SOL     OW27814   3.834   1.700   9.399 -0.5020 -0.3298  0.0081
 5451SOL    HW127815   3.851   1.607   9.382 -2.9546 -0.3295 -2.4225
 5451SOL    HW227816   3.759   1.720   9.343  0.0603 -1.2792 -1.0821
 5452SOL     OW27817   3.565   2.823  13.169 -0.1900  0.6585  0.4621
 5452SOL    HW127818   3.628   2.834  13.240 -0.9360 -0.9358  1.3583
 5452SOL    HW227819   3.628   2.835  13.098  0.5280  0.5772  1.0863
 5453SOL     OW27820   0.049   2.690   8.748 -0.3289 -0.3634  0.1602
 5453SOL    HW127821   0.114   2.675   8.817  1.4245  1.0366 -1.1753
 5453SOL    HW227822   4.693   2.720   8.794 -0.7716 -0.3989 -0.5757
 5454SOL     OW27823   1.322   2.918   0.069  0.2348  0.2958  0.1897
 5454SOL    HW127824   1.390   2.975   0.035  1.2630 -0.0152  1.7011
 5454SOL    HW227825   1.271   2.989   0.108  1.1845  2.2364 -2.1616
 5455SOL     OW27826   0.147   0.128   6.622  0.4642  0.0701 -0.1253
 5455SOL    HW127827   0.175   0.180   6.698 -1.3087 -1.9756  1.9428
 5455SOL    HW227828   0.052   0.128   6.636  0.7050 -1.9803  1.5946
 5456SOL     OW27829   2.828   3.251   5.720 -0.0269 -0.3967 -0.5442
 5456SOL    HW127830   2.739   3.270   5.691  0.6600  0.0542 -2.3392
 5456SOL    HW227831   2.846   3.333   5.766  0.7788 -0.4858 -0.7067
 5457SOL     OW27832   0.557   3.912   6.410  0.2697 -0.2135 -0.6992
 5457SOL    HW127833   0.492   3.895   6.341  0.6708 -0.2248 -1.0744
 5457SOL    HW227834   0.635   3.911   6.354  0.3042 -1.3191 -0.6167
 5458SOL     OW27835   2.466   1.525   4.561 -0.2892  0.6047  0.2932
 5458SOL    HW127836   2.491   1.477   4.483 -0.4662  0.8816  0.0644
 5458SOL    HW227837   2.532   1.496   4.623  0.4514  1.4056 -0.1284
 5459SOL     OW27838   1.759   3.079   3.205  0.0276 -0.6567 -0.4393
 5459SOL    HW127839   1.680   3.057   3.155 -1.1380  0.7358  0.8137
 5459SOL    HW227840   1.722   3.095   3.291 -1.5913  1.1511 -1.4607
 5460SOL     OW27841   3.226   0.855   3.327 -0.7774  0.3604  0.6378
 5460SOL    HW127842   3.251   0.822   3.413  0.0998  0.3410  0.3732
 5460SOL    HW227843   3.306   0.903   3.304 -0.7150 -1.0304 -2.0106
 5461SOL     OW27844   4.047   1.005   4.762 -0.4232 -0.7820  1.0258
 5461SOL    HW127845   4.051   0.936   4.696 -0.5749 -2.2230  2.5331
 5461SOL    HW227846   4.141   1.016   4.775  0.0024  0.3229 -2.9999
 5462SOL     OW27847   3.507   3.650   8.126  0.1856  0.8095  0.6898
 5462SOL    HW127848   3.433   3.608   8.170 -0.3034  1.8906  0.8798
 5462SOL    HW227849   3.527   3.583   8.060 -1.0697  1.3421 -0.2237
 5463SOL     OW27850   2.931   1.556   0.261 -0.4087 -0.6618  0.2753
 5463SOL    HW127851   2.879   1.483   0.295  2.1261 -2.8448 -0.5306
 5463SOL    HW227852   3.008   1.500   0.266 -1.0459 -1.4381  1.3506
 5464SOL     OW27853   0.234   1.170   6.310  0.1275 -0.5032  0.0797
 5464SOL    HW127854   0.318   1.207   6.284  1.2846 -0.6116  3.6999
 5464SOL    HW227855   0.229   1.110   6.236 -2.7586 -1.6475  1.1658
 5465SOL     OW27856   4.513   0.409  11.808 -0.1116  0.5876 -0.0594
 5465SOL    HW127857   4.475   0.393  11.722 -1.4623  2.0451  0.2725
 5465SOL    HW227858   4.487   0.495  11.842 -0.1419 -0.2639  2.1066
 5466SOL     OW27859   4.646   1.518   6.726 -0.3247 -0.1527 -0.1701
 5466SOL    HW127860   4.577   1.584   6.720  0.6195  0.9406  0.8969
 5466SOL    HW227861   4.716   1.571   6.765  0.0772 -1.9983  1.5849
 5467SOL     OW27862   2.404   1.384   7.861 -0.5955  0.1076  0.0806
 5467SOL    HW127863   2.335   1.437   7.901  0.2955  1.6087 -0.3770
 5467SOL    HW227864   2.478   1.444   7.866  0.0929 -0.6772 -0.7865
 5468SOL     OW27865   1.432   4.197   1.621  0.2567 -0.4816 -0.4999
 5468SOL    HW127866   1.418   4.217   1.714 -0.4892  0.9895 -0.9162
 5468SOL    HW227867   1.420   4.103   1.610 -0.6952 -0.1032 -2.6573
 5469SOL     OW27868   2.372   1.164  11.262 -0.2181  1.0733 -0.4922
 5469SOL    HW127869   2.452   1.182  11.212  0.9499 -1.2973  0.5625
 5469SOL    HW227870   2.339   1.254  11.265 -0.1564  1.1488 -1.7498
 5470SOL     OW27871   1.651   4.342   2.466 -0.4353  0.2554  0.1913
 5470SOL    HW127872   1.623   4.260   2.423 -0.2840  0.1838  0.2297
 5470SOL    HW227873   1.690   4.312   2.548 -0.5187  0.2210  0.2190
 5471SOL     OW27874   0.089   2.118   2.371 -0.2065  0.1785  0.7639
 5471SOL    HW127875   0.166   2.155   2.413  0.2768  1.5713 -1.3723
 5471SOL    HW227876   0.097   2.026   2.395  1.1160  0.3013  0.7923
 5472SOL     OW27877   2.667   0.681   4.069  0.1267 -0.2939 -0.3401
 5472SOL    HW127878   2.624   0.691   3.984  0.2384  1.0656 -0.2455
 5472SOL    HW227879   2.650   0.766   4.109  2.2309 -0.0039 -0.0756
 5473SOL     OW27880   0.153   4.487   0.444  0.3022 -0.2936  0.5516
 5473SOL    HW127881   0.086   4.420   0.435 -0.3051  0.5626 -1.2154
 5473SOL    HW227882   0.222   4.458   0.384  0.1210  1.3287 -0.4581
 5474SOL     OW27883   1.182   2.128   0.774  0.0228  0.2614  0.0517
 5474SOL    HW127884   1.215   2.074   0.846 -3.2706 -1.5381  0.2548
 5474SOL    HW227885   1.127   2.065   0.727  0.1392  0.2052 -0.0074
 5475SOL     OW27886   4.635   0.736   7.188 -0.2572 -0.0720  0.1200
 5475SOL    HW127887   4.594   0.708   7.106  1.6088 -1.1383 -0.4624
 5475SOL    HW227888   4.559   0.779   7.227 -0.7024 -0.5999 -0.1497
 5476SOL     OW27889   3.738   1.056   2.786  0.0307 -0.2401  0.3562
 5476SOL    HW127890   3.658   1.108   2.782  1.7109  2.2864 -0.7473
 5476SOL    HW227891   3.717   0.979   2.733  1.2914 -1.2341  1.2912
 5477SOL     OW27892   1.941   2.423  16.378 -0.1912  0.3932  0.6897
 5477SOL    HW127893   2.036   2.419  16.377 -0.2942 -1.2829 -1.2650
 5477SOL    HW227894   1.926   2.339  16.335  0.6867 -0.1143  1.3660
 5478SOL     OW27895   1.610   1.871  11.056  0.0711 -0.3513  0.1340
 5478SOL    HW127896   1.600   1.873  11.151 -2.5419 -0.6932 -0.1262
 5478SOL    HW227897   1.571   1.954  11.028  0.6348  0.0873  0.6673
 5479SOL     OW27898   3.432   2.671   6.241  0.0028  0.8207  0.0547
 5479SOL    HW127899   3.378   2.677   6.162 -0.7590  0.4629  0.5410
 5479SOL    HW227900   3.492   2.745   6.230  0.3833  0.3886 -0.8515
 5480SOL     OW27901   0.677   0.367   8.959 -0.2283  0.4895  0.2766
 5480SOL    HW127902   0.646   0.343   9.046 -0.8589  0.1494 -0.0419
 5480SOL    HW227903   0.764   0.330   8.952 -0.7496 -0.6190 -0.3631
 5481SOL     OW27904   1.427   2.508  17.662  0.1371  0.5389 -0.0114
 5481SOL    HW127905   1.492   2.492   0.039 -0.0858  4.2778  1.0760
 5481SOL    HW227906   1.477   2.518  17.580 -0.3134 -1.2554 -0.5146
 5482SOL     OW27907   1.709   2.750   0.489 -0.0727  0.1344 -0.0048
 5482SOL    HW127908   1.676   2.713   0.407 -0.9231 -2.0109  1.3092
 5482SOL    HW227909   1.629   2.755   0.542 -1.1807 -1.6364 -1.4763
 5483SOL     OW27910   0.279   2.165   7.441 -0.1120  0.0629  0.1372
 5483SOL    HW127911   0.305   2.170   7.349  1.7379 -1.8191  0.5664
 5483SOL    HW227912   0.315   2.080   7.466 -0.0238 -0.1310 -0.6448
 5484SOL     OW27913   1.092   3.229   0.567  0.5268  0.2708 -0.6908
 5484SOL    HW127914   1.081   3.162   0.635  1.8937  0.5203 -0.2099
 5484SOL    HW227915   1.061   3.197   0.482 -1.5976 -1.8093  0.8710
 5485SOL     OW27916   1.548   2.659   8.526 -0.5921  0.4582  0.1778
 5485SOL    HW127917   1.470   2.626   8.482  0.0742 -1.6867  0.6209
 5485SOL    HW227918   1.565   2.588   8.588 -1.4636 -0.4260 -0.5957
 5486SOL     OW27919   2.029   2.093  10.044  0.3729 -0.0538 -0.3971
 5486SOL    HW127920   2.045   2.072  10.136  0.3777  0.2011 -0.3374
 5486SOL    HW227921   2.081   2.174  10.041 -0.9173  0.8119  0.1840
 5487SOL     OW27922   0.044   3.268  15.055 -0.3916  0.6511 -0.0602
 5487SOL    HW127923   4.695   3.242  14.997  0.6098  1.2848 -1.5788
 5487SOL    HW227924   0.044   3.193  15.114 -1.6566  1.6696  1.2200
 5488SOL     OW27925   0.817   2.782   8.158  0.4190 -0.6433  0.0641
 5488SOL    HW127926   0.756   2.845   8.197 -0.2935 -3.0193  2.7719
 5488SOL    HW227927   0.813   2.715   8.226  2.9596 -1.1237 -0.2956
 5489SOL     OW27928   1.989   4.666  15.798 -0.4401  0.2815  0.1846
 5489SOL    HW127929   2.038   0.016  15.758 -0.6593  0.4663  0.2426
 5489SOL    HW227930   1.955   4.611  15.728  0.5853  0.4093 -0.4025
 5490SOL     OW27931   4.671   2.454   1.684  0.1021 -0.6255 -0.6181
 5490SOL    HW127932   4.684   2.414   1.771 -3.2229 -2.5675 -0.9761
 5490SOL    HW227933   4.577   2.471   1.695 -0.2098 -2.1817 -0.8744
 5491SOL     OW27934   4.545   0.994   4.462  0.2058 -0.1492  0.0516
 5491SOL    HW127935   4.485   1.065   4.440 -0.9348 -0.7607  1.1346
 5491SOL    HW227936   4.613   1.029   4.519 -0.0570  2.0600 -1.0045
 5492SOL     OW27937   2.790   4.525   5.988  0.3895  0.1980 -0.4495
 5492SOL    HW127938   2.846   4.485   5.921 -0.5629 -0.1725 -1.0297
 5492SOL    HW227939   2.822   4.615   5.991  0.1961  0.2955 -1.3845
 5493SOL     OW27940   3.974   3.139   8.364  0.6150  0.1421  0.0914
 5493SOL    HW127941   3.894   3.175   8.403  2.4244  3.4690  0.7018
 5493SOL    HW227942   4.046   3.185   8.406  1.0845 -0.0936 -0.4562
 5494SOL     OW27943   3.348   2.676   0.504  0.0226  0.4485 -0.6548
 5494SOL    HW127944   3.334   2.610   0.573  0.2480  1.3259  0.2264
 5494SOL    HW227945   3.334   2.760   0.547 -0.2410 -0.3538  0.8346
 5495SOL     OW27946   1.780   2.485   4.159  0.0044 -0.1905 -0.2980
 5495SOL    HW127947   1.742   2.515   4.242  1.2611 -0.8490  0.5140
 5495SOL    HW227948   1.868   2.522   4.167 -0.1561  0.1155  0.0886
 5496SOL     OW27949   3.608   3.452   8.496  0.2579 -0.1512 -0.2305
 5496SOL    HW127950   3.571   3.512   8.561 -0.1615 -2.5090  1.7010
 5496SOL    HW227951   3.591   3.497   8.413  0.7469 -1.6065 -1.1276
 5497SOL     OW27952   2.947   0.703  13.844 -0.3683 -0.1401  0.2648
 5497SOL    HW127953   2.940   0.749  13.761 -1.7673 -0.5178  0.1702
 5497SOL    HW227954   2.903   0.624  13.812  3.0415 -0.9019 -2.5182
 5498SOL     OW27955   2.690   3.186   8.010  0.0327 -0.7178 -0.1747
 5498SOL    HW127956   2.665   3.106   8.057  0.1806 -1.0548 -0.6786
 5498SOL    HW227957   2.659   3.249   8.075 -0.5760  0.9448 -2.1218
 5499SOL     OW27958   4.707   4.341   5.196 -0.3187 -0.5443 -0.1039
 5499SOL    HW127959   0.067   4.342   5.148 -0.8257 -1.7104 -0.9922
 5499SOL    HW227960   4.719   4.267   5.255  0.1546 -0.6514 -0.3334
 5500SOL     OW27961   2.604   3.690   2.234  0.3498 -0.8359 -0.0777
 5500SOL    HW127962   2.695   3.692   2.204  1.0494 -2.3560  1.9254
 5500SOL    HW227963   2.584   3.604   2.197 -1.6942  0.0214 -0.9692
 5501SOL     OW27964   3.097   2.222   9.902  0.5359 -0.4898 -0.7261
 5501SOL    HW127965   3.020   2.203   9.849  1.3461  1.1645 -2.5089
 5501SOL    HW227966   3.075   2.315   9.908 -1.9909 -1.2319  1.3607
 5502SOL     OW27967   0.044   2.674   0.873 -0.0291 -0.6456 -0.0323
 5502SOL    HW127968   0.082   2.706   0.954 -2.3166  1.2089  0.3072
 5502SOL    HW227969   0.085   2.736   0.813 -0.7533  2.5919  2.8742
 5503SOL     OW27970   1.241   3.235  17.489 -0.5312  0.3495  0.3170
 5503SOL    HW127971   1.306   3.217  17.421 -0.2322 -2.1055  1.2425
 5503SOL    HW227972   1.173   3.202  17.429  1.6150 -2.5211 -0.5820
 5504SOL     OW27973   3.225   2.351   7.013 -0.5847 -0.1796 -0.0743
 5504SOL    HW127974   3.162   2.414   7.048  0.6552  0.0518  1.7532
 5504SOL    HW227975   3.286   2.416   6.980  1.4427 -2.3776 -0.6582
 5505SOL     OW27976   4.427   4.068   5.904 -0.4724 -0.0114  0.1820
 5505SOL    HW127977   4.520   4.092   5.901 -1.6608  4.4297 -0.9883
 5505SOL    HW227978   4.392   4.102   5.986 -0.7704 -1.0861  0.5065
 5506SOL     OW27979   2.298   0.620   4.709 -0.6411  0.1386  0.4116
 5506SOL    HW127980   2.386   0.640   4.677 -1.0654  2.3616  0.6372
 5506SOL    HW227981   2.253   0.704   4.712 -0.8273  0.0091  1.3038
 5507SOL     OW27982   1.131   3.507  17.525  0.1729 -0.2665 -0.0073
 5507SOL    HW127983   1.110   3.529  17.616 -0.7437 -2.0236  0.2190
 5507SOL    HW227984   1.181   3.426  17.528 -0.0688 -0.4592 -1.3884
 5508SOL     OW27985   0.959   3.142   4.690  0.2935  0.4549  0.2389
 5508SOL    HW127986   0.958   3.046   4.689 -3.0297  0.4752  2.2220
 5508SOL    HW227987   0.914   3.153   4.774 -0.1258  0.6311 -0.0081
 5509SOL     OW27988   1.683   1.300   8.059 -0.3719  0.7073 -1.3828
 5509SOL    HW127989   1.597   1.269   8.086 -0.2653  1.4061 -0.2298
 5509SOL    HW227990   1.703   1.353   8.137 -1.0027 -0.0400 -0.7080
 5510SOL     OW27991   3.410   2.952   7.253 -0.4405 -0.4365  0.3255
 5510SOL    HW127992   3.500   2.977   7.275  0.0368 -1.6005 -0.3354
 5510SOL    HW227993   3.361   2.999   7.321  0.8388  0.9367  0.2986
 5511SOL     OW27994   1.112   3.372   5.024 -0.3255 -0.1142 -0.0317
 5511SOL    HW127995   1.022   3.395   5.003 -0.1505 -0.2351 -0.9496
 5511SOL    HW227996   1.143   3.330   4.943  0.5733  0.3518  0.0655
 5512SOL     OW27997   3.959   0.952   6.874 -0.3696 -0.3535  1.0410
 5512SOL    HW127998   3.940   1.024   6.934  0.0146 -0.2064  0.9857
 5512SOL    HW227999   3.870   0.916   6.880 -1.2889  1.6813 -0.0946
 5513SOL     OW28000   4.250   0.993   4.214 -0.0490  0.2979  0.2992
 5513SOL    HW128001   4.155   0.979   4.214  0.1412 -1.0220  1.2024
 5513SOL    HW228002   4.271   0.905   4.183  0.6403 -0.3253  2.5327
 5514SOL     OW28003   1.094   2.899   3.056  0.6194  0.5131 -0.2617
 5514SOL    HW128004   1.081   2.805   3.059 -4.0734  1.2072  1.6723
 5514SOL    HW228005   1.086   2.936   3.144 -0.1723  0.4469 -0.3030
 5515SOL     OW28006   3.662   0.631   1.990  0.6302 -0.3930 -0.1695
 5515SOL    HW128007   3.638   0.538   1.981 -0.0054 -0.1317 -1.1763
 5515SOL    HW228008   3.749   0.628   1.950 -0.9886  1.6605 -3.8317
 5516SOL     OW28009   4.689   3.432   2.469 -0.1454 -0.8179 -0.3872
 5516SOL    HW128010   0.000   3.383   2.545  0.8742 -0.1259 -0.3828
 5516SOL    HW228011   4.638   3.506   2.501 -0.9958 -1.7206  0.3161
 5517SOL     OW28012   0.729   3.192  12.846 -0.4715 -0.0785  0.0997
 5517SOL    HW128013   0.645   3.224  12.880  1.3751  1.6594  3.0936
 5517SOL    HW228014   0.743   3.277  12.804  1.4266 -0.4478  0.0120
 5518SOL     OW28015   4.696   0.746   4.570 -0.5946 -0.0505  0.0055
 5518SOL    HW128016   0.049   0.805   4.572 -0.9465  0.3046  2.7733
 5518SOL    HW228017   4.682   0.765   4.477 -2.0385  0.3213  0.2995
 5519SOL     OW28018   0.541   1.520  11.127 -0.5185  0.1869  0.4015
 5519SOL    HW128019   0.636   1.532  11.125 -0.4535 -0.6109 -1.7124
 5519SOL    HW228020   0.530   1.434  11.085 -0.0468 -1.0107  2.7026
 5520SOL     OW28021   3.308   0.888   7.319 -0.2544 -0.0620 -0.2233
 5520SOL    HW128022   3.294   0.948   7.392  1.5322 -3.1505  2.6666
 5520SOL    HW228023   3.380   0.842   7.363 -1.1440 -0.9846  0.2693
 5521SOL     OW28024   2.204   2.111  17.476 -0.0627  0.0472 -0.0797
 5521SOL    HW128025   2.290   2.075  17.454  0.7649  2.0574 -0.1062
 5521SOL    HW228026   2.201   2.096  17.570  0.8029 -1.1326 -0.2459
 5522SOL     OW28027   1.048   0.814   2.432  0.3038 -0.6995  0.2499
 5522SOL    HW128028   1.077   0.885   2.374 -1.5222 -0.0805  0.1156
 5522SOL    HW228029   1.126   0.759   2.436  0.5069 -0.3425  1.3063
 5523SOL     OW28030   4.251   1.200   4.055  0.1479 -0.5592  0.3569
 5523SOL    HW128031   4.335   1.215   4.011 -2.2912  0.5173 -3.9347
 5523SOL    HW228032   4.270   1.121   4.105 -0.5497 -0.3049  1.0344
 5524SOL     OW28033   2.572   1.956   1.531  0.2088 -0.6812  0.4005
 5524SOL    HW128034   2.564   2.003   1.614 -1.2284 -0.1811 -0.0078
 5524SOL    HW228035   2.490   1.977   1.485  1.1199 -0.5260 -1.1423
 5525SOL     OW28036   0.959   1.242   7.331  0.3360  0.0865  0.0368
 5525SOL    HW128037   0.914   1.250   7.247  1.9025  1.9675 -0.6240
 5525SOL    HW228038   1.029   1.185   7.299  0.2183 -1.0929  1.8883
 5526SOL     OW28039   4.064   4.465   4.301  0.1628 -0.1167  0.0698
 5526SOL    HW128040   3.978   4.438   4.331  0.1359  1.3876  1.3366
 5526SOL    HW228041   4.084   4.530   4.368  0.3980 -0.2380  0.1195
 5527SOL     OW28042   1.736   1.888   4.043 -0.0917 -0.4342  0.0140
 5527SOL    HW128043   1.728   1.974   4.083  0.8794  0.1743 -1.1113
 5527SOL    HW228044   1.722   1.919   3.953 -3.3330  0.4473  0.8295
 5528SOL     OW28045   2.310   3.847   8.445 -0.0609 -0.0532  0.5318
 5528SOL    HW128046   2.326   3.801   8.528 -0.0867  1.2843  1.2864
 5528SOL    HW228047   2.339   3.937   8.465 -2.0533  0.2856  1.9220
 5529SOL     OW28048   4.308   0.901  16.487  0.4427 -0.1405  0.5069
 5529SOL    HW128049   4.342   0.935  16.404  1.9797 -0.8934  0.8322
 5529SOL    HW228050   4.295   0.976  16.545  0.7364 -1.3982  2.1892
 5530SOL     OW28051   0.586   2.290  16.105 -0.8751  0.4006  0.1122
 5530SOL    HW128052   0.666   2.305  16.054  0.4476 -2.0028  1.4846
 5530SOL    HW228053   0.547   2.377  16.106 -1.5102  0.1115  0.4445
 5531SOL     OW28054   1.722   3.206   9.273 -0.0667  0.6090 -0.3636
 5531SOL    HW128055   1.738   3.112   9.282  2.0675  0.7185 -3.0117
 5531SOL    HW228056   1.761   3.238   9.355 -1.6227 -1.8479  1.3274
 5532SOL     OW28057   2.279   1.816   5.612 -0.1085  0.3606  0.0219
 5532SOL    HW128058   2.332   1.882   5.656  1.6018 -0.8636 -0.1970
 5532SOL    HW228059   2.282   1.863   5.528  1.1282 -0.5873 -0.4675
 5533SOL     OW28060   1.009   3.758   7.910 -0.1019  0.2071 -0.3264
 5533SOL    HW128061   0.959   3.679   7.929  0.2588 -1.2724 -5.6108
 5533SOL    HW228062   1.061   3.758   7.990  1.0996  0.2382 -1.1038
 5534SOL     OW28063   3.118   2.835   9.289 -0.3932  0.0634 -0.4139
 5534SOL    HW128064   3.070   2.882   9.357  0.2339 -0.4093  0.3472
 5534SOL    HW228065   3.045   2.805   9.235 -0.9832  1.4960 -0.4243
 5535SOL     OW28066   0.953   0.610  14.078 -0.4164 -0.0756  0.5805
 5535SOL    HW128067   1.006   0.664  14.137 -1.4566  0.8917  0.6333
 5535SOL    HW228068   0.977   0.523  14.108 -3.5893 -1.4647 -1.0076
 5536SOL     OW28069   1.380   4.092   3.438  0.4782 -0.2134 -0.0595
 5536SOL    HW128070   1.350   4.114   3.350  0.4043  1.0727  0.2819
 5536SOL    HW228071   1.367   4.180   3.475 -1.7837 -0.2623 -0.7243
 5537SOL     OW28072   2.640   2.504   5.944  0.2810  0.3277  0.0775
 5537SOL    HW128073   2.711   2.557   5.908  1.9264 -2.8327 -1.3426
 5537SOL    HW228074   2.656   2.500   6.038  0.8247  0.0323 -0.0314
 5538SOL     OW28075   1.150   3.368   4.483  0.0696  0.4710  0.3458
 5538SOL    HW128076   1.145   3.455   4.523  1.6731  2.8609 -4.6794
 5538SOL    HW228077   1.096   3.381   4.404  1.3089  1.7752 -0.2792
 5539SOL     OW28078   4.542   4.686   3.144  0.0340 -0.8982  0.0100
 5539SOL    HW128079   4.598   0.039   3.166 -1.2751  0.1343 -0.1673
 5539SOL    HW228080   4.481   0.002   3.081  0.7726 -1.0653 -0.7993
 5540SOL     OW28081   0.007   0.065   3.400 -0.0322 -0.3226 -0.3308
 5540SOL    HW128082   0.043   0.068   3.311  0.3870 -0.7630 -0.1813
 5540SOL    HW228083   0.078   0.022   3.449  0.2660  0.2884 -0.2272
 5541SOL     OW28084   4.566   1.491   4.079  0.2930 -0.2703  0.1994
 5541SOL    HW128085   4.598   1.505   4.168  1.1758 -1.8719  0.1364
 5541SOL    HW228086   4.473   1.475   4.098 -0.0829  2.2691  0.4387
 5542SOL     OW28087   2.830   1.252   5.412 -0.3822  0.0650  0.3215
 5542SOL    HW128088   2.918   1.262   5.375 -1.6155  0.7509 -2.3738
 5542SOL    HW228089   2.844   1.266   5.506  1.6068  1.6193 -0.2002
 5543SOL     OW28090   2.595   0.845   2.242 -0.2970 -0.2520  0.2933
 5543SOL    HW128091   2.655   0.806   2.178 -1.1357  1.3367 -1.4472
 5543SOL    HW228092   2.577   0.931   2.204 -0.7096  0.4235  2.0012
 5544SOL     OW28093   4.393   0.056   7.114 -0.2368 -0.1169  0.3284
 5544SOL    HW128094   4.488   0.059   7.113 -0.2802  0.1766 -2.5753
 5544SOL    HW228095   4.371   0.133   7.060  2.8670 -0.1518 -0.9466
 5545SOL     OW28096   3.883   4.387  12.030 -0.1844  0.0573 -0.4437
 5545SOL    HW128097   3.849   4.413  12.116  1.9977 -0.6641  0.6202
 5545SOL    HW228098   3.863   4.461  11.972  0.7954 -0.5392 -1.5516
 5546SOL     OW28099   0.699   3.588   4.262 -0.0769 -0.0250  0.5263
 5546SOL    HW128100   0.651   3.670   4.268 -0.7122 -0.2944 -1.0249
 5546SOL    HW228101   0.691   3.551   4.350  0.3329 -0.1697  0.5047
 5547SOL     OW28102   1.588   2.578   1.642 -0.6418 -0.1422  0.8094
 5547SOL    HW128103   1.528   2.519   1.686  0.2070  0.8442  3.3214
 5547SOL    HW228104   1.674   2.556   1.678 -1.0724 -2.1357  0.5934
 5548SOL     OW28105   0.244   1.347   6.658 -0.4529  0.0478 -0.4775
 5548SOL    HW128106   0.245   1.399   6.578  1.1503  0.0031 -0.5035
 5548SOL    HW228107   0.153   1.332   6.683 -0.0864 -0.4107  0.5897
 5549SOL     OW28108   3.815   4.398  12.285  1.1367 -0.2264 -0.1792
 5549SOL    HW128109   3.807   4.333  12.355 -2.6557  0.8296  0.3989
 5549SOL    HW228110   3.814   4.476  12.341 -1.0944  0.3824 -1.0308
 5550SOL     OW28111   0.692   0.249   8.527  0.0775  0.1458  0.1839
 5550SOL    HW128112   0.774   0.290   8.556 -0.4058  1.3546 -0.1385
 5550SOL    HW228113   0.641   0.241   8.608 -1.4005 -2.9199 -1.0715
 5551SOL     OW28114   0.721   3.564   5.731  0.1550  1.1828 -0.0581
 5551SOL    HW128115   0.700   3.514   5.652 -0.6245 -2.3694  2.4170
 5551SOL    HW228116   0.724   3.494   5.796  0.0338  0.3566 -0.9507
 5552SOL     OW28117   2.395   2.753   7.344  0.3101  0.3337 -0.3271
 5552SOL    HW128118   2.427   2.811   7.413 -1.7159 -0.0757  0.9606
 5552SOL    HW228119   2.367   2.680   7.400 -1.3019  0.3142 -1.1669
 5553SOL     OW28120   2.138   2.623   5.963 -0.3692 -0.1788 -0.0676
 5553SOL    HW128121   2.111   2.695   6.020 -0.3856  1.4953 -2.2197
 5553SOL    HW228122   2.232   2.637   5.961 -0.3539 -0.3359 -0.4710
 5554SOL     OW28123   3.449   3.231   4.799  0.2048  0.5535  0.5781
 5554SOL    HW128124   3.466   3.179   4.877 -1.9207 -3.3108 -1.4947
 5554SOL    HW228125   3.536   3.267   4.782  1.5255 -1.5617  2.9410
 5555SOL     OW28126   1.401   2.242  12.371  0.7644 -1.0339 -0.3869
 5555SOL    HW128127   1.334   2.291  12.419  0.8052 -1.0147 -0.3498
 5555SOL    HW228128   1.478   2.230  12.427  1.6624  3.0244 -0.7215
 5556SOL     OW28129   4.488   1.481   8.959 -0.6138 -0.4499 -0.2804
 5556SOL    HW128130   4.578   1.478   8.927 -0.3834 -1.7098  0.4871
 5556SOL    HW228131   4.495   1.544   9.032 -1.1864  0.3498 -0.9201
 5557SOL     OW28132   3.776   2.385   8.073  0.4792 -0.5358 -0.5685
 5557SOL    HW128133   3.833   2.374   8.148  0.9909 -0.0492 -0.8841
 5557SOL    HW228134   3.815   2.463   8.033 -2.1935  1.4395  0.6946
 5558SOL     OW28135   3.421   2.112   4.208  0.3042 -0.2823 -0.2725
 5558SOL    HW128136   3.460   2.099   4.294  1.6170  0.9710 -0.6684
 5558SOL    HW228137   3.393   2.023   4.186 -0.1669 -0.1839 -0.0504
 5559SOL     OW28138   3.102   2.330  13.750  0.1108 -0.5563 -0.2784
 5559SOL    HW128139   3.146   2.265  13.695 -1.1481  0.5144 -2.5106
 5559SOL    HW228140   3.179   2.386  13.761 -0.0437 -0.7528  1.8121
 5560SOL     OW28141   0.916   1.614   2.531 -0.4687 -0.6920  0.1909
 5560SOL    HW128142   0.896   1.702   2.561 -1.8340 -0.7653 -0.5143
 5560SOL    HW228143   0.836   1.576   2.567 -1.6709  1.2497 -0.4493
 5561SOL     OW28144   4.559   2.207   6.844  0.0389 -0.5575  0.0843
 5561SOL    HW128145   4.652   2.185   6.849  0.4213  0.1792 -3.2872
 5561SOL    HW228146   4.555   2.212   6.748 -0.1851  0.5798  0.1553
 5562SOL     OW28147   0.153   2.352   5.772 -1.0145 -0.3274  0.5648
 5562SOL    HW128148   0.164   2.358   5.677  1.0384 -0.5408  0.7899
 5562SOL    HW228149   0.071   2.400   5.786 -1.1409 -0.4166  0.1396
 5563SOL     OW28150   1.373   1.784   5.332  0.3615 -0.0755  0.0325
 5563SOL    HW128151   1.291   1.817   5.369 -0.3432 -1.1399 -0.5842
 5563SOL    HW228152   1.430   1.830   5.393  0.0880  0.3589 -0.0311
 5564SOL     OW28153   2.216   3.125  17.103 -0.5385 -0.1406 -0.3904
 5564SOL    HW128154   2.220   3.218  17.124  3.6815 -0.7268  1.5755
 5564SOL    HW228155   2.241   3.082  17.185 -3.7451  0.2399  0.7727
 5565SOL     OW28156   1.088   2.824  10.664 -0.2860  0.3678 -0.0518
 5565SOL    HW128157   1.127   2.855  10.746 -0.3440  2.7058 -0.8890
 5565SOL    HW228158   1.082   2.731  10.686  1.5923 -0.4487 -3.0406
 5566SOL     OW28159   3.508   4.548   7.644  0.2137 -0.0960 -0.3065
 5566SOL    HW128160   3.496   4.636   7.609  0.4778  0.0636  0.0099
 5566SOL    HW228161   3.598   4.561   7.672  0.5307  0.0519 -1.3798
 5567SOL     OW28162   2.600   1.417   4.334  0.0877  0.0508 -0.5163
 5567SOL    HW128163   2.632   1.477   4.266 -1.7343  0.1286 -1.3094
 5567SOL    HW228164   2.575   1.341   4.282  1.0776 -1.2142  0.8484
 5568SOL     OW28165   2.132   3.510   3.206 -0.1822 -0.6823 -0.1026
 5568SOL    HW128166   2.128   3.505   3.301  0.7143 -0.5030 -0.0607
 5568SOL    HW228167   2.052   3.466   3.177  0.4727 -1.5216 -0.6456
 5569SOL     OW28168   2.662   1.357   7.706  0.3622  0.2822  0.4740
 5569SOL    HW128169   2.655   1.428   7.770  2.0339  0.5903  0.2952
 5569SOL    HW228170   2.577   1.371   7.663  0.5740 -1.3331 -0.4713
 5570SOL     OW28171   0.379   0.588   4.611 -0.4254  0.6355 -0.6191
 5570SOL    HW128172   0.455   0.606   4.555  0.7743 -1.1629  0.4132
 5570SOL    HW228173   0.420   0.529   4.674 -1.8810  0.1517 -0.1193
 5571SOL     OW28174   1.324   3.624   0.235  0.2616 -0.5051 -0.0696
 5571SOL    HW128175   1.352   3.533   0.237 -1.1882 -0.9210  0.4423
 5571SOL    HW228176   1.410   3.667   0.234  0.7054 -1.4014  0.2148
 5572SOL     OW28177   4.429   2.524   5.528  0.2969  0.1731 -0.1928
 5572SOL    HW128178   4.361   2.582   5.563 -0.5793 -0.0441 -1.5260
 5572SOL    HW228179   4.487   2.584   5.480  0.9061  0.1896  0.5641
 5573SOL     OW28180   1.658   2.409   5.711  0.1384  0.1073  0.2843
 5573SOL    HW128181   1.696   2.345   5.771  0.2966  1.5600  1.7307
 5573SOL    HW228182   1.569   2.375   5.716  0.3985 -0.5459  0.5815
 5574SOL     OW28183   0.098   0.862   6.291 -0.1207 -0.5651  0.2372
 5574SOL    HW128184   0.132   0.921   6.223 -0.6097  0.2336  0.6814
 5574SOL    HW228185   0.012   0.900   6.307  0.4307  0.2886  1.1970
 5575SOL     OW28186   0.155   2.765   3.198 -0.1130  0.0570  1.0299
 5575SOL    HW128187   0.201   2.765   3.282 -2.3369  1.4696  2.2417
 5575SOL    HW228188   0.227   2.786   3.139 -1.2907  2.2514  0.4072
 5576SOL     OW28189   1.412   3.431   8.374  0.3879  0.4614 -0.3513
 5576SOL    HW128190   1.454   3.504   8.419 -1.7953  2.5893 -1.7567
 5576SOL    HW228191   1.425   3.454   8.283  0.7125 -0.6487 -0.5908
 5577SOL     OW28192   3.490   4.061   3.786  0.3533 -0.6346 -0.0235
 5577SOL    HW128193   3.469   3.970   3.766  2.3626 -1.4458  1.5826
 5577SOL    HW228194   3.406   4.087   3.822 -0.1500  1.5698 -2.7500
 5578SOL     OW28195   0.005   2.438  16.075  0.0460 -0.6229  0.2633
 5578SOL    HW128196   0.010   2.533  16.069 -0.6753 -0.7140 -2.1466
 5578SOL    HW228197   4.632   2.429  16.086  0.1118 -0.7839  0.6800
 5579SOL     OW28198   1.301   3.657  11.631 -0.0999 -0.1039  1.0670
 5579SOL    HW128199   1.313   3.631  11.540  1.6671  0.3993  1.1561
 5579SOL    HW228200   1.392   3.674  11.652 -0.2655  2.8678 -0.5497
 5580SOL     OW28201   2.788   0.323   8.463 -0.5056 -0.4387  0.1713
 5580SOL    HW128202   2.786   0.405   8.413 -0.3849 -1.0368 -0.8110
 5580SOL    HW228203   2.880   0.310   8.485  0.4548  1.5004 -2.6459
 5581SOL     OW28204   0.755   2.219  15.014  0.3021 -0.1964 -0.1539
 5581SOL    HW128205   0.736   2.206  14.921 -0.2214  0.1553 -0.0987
 5581SOL    HW228206   0.717   2.305  15.033 -0.2977  0.0261 -2.2650
 5582SOL     OW28207   3.182   0.835   2.477  0.2407  0.1809 -0.4923
 5582SOL    HW128208   3.240   0.855   2.403 -0.2781  1.4374 -0.5526
 5582SOL    HW228209   3.244   0.856   2.547 -0.9200 -0.3788  0.6825
 5583SOL     OW28210   2.842   4.287   3.987 -0.1823  0.2028  0.1159
 5583SOL    HW128211   2.794   4.260   4.065 -0.6469  0.1529 -0.1873
 5583SOL    HW228212   2.775   4.327   3.932  1.7052 -0.7020 -2.8322
 5584SOL     OW28213   3.680   1.380   5.210 -0.1830  0.1626  0.1949
 5584SOL    HW128214   3.737   1.408   5.138  1.3860 -0.4924  1.1670
 5584SOL    HW228215   3.625   1.311   5.172 -0.3948 -0.1565  1.0737
 5585SOL     OW28216   2.611   0.040  15.421 -0.0825 -0.1485 -0.0025
 5585SOL    HW128217   2.564   0.042  15.337  0.1999  1.4492 -0.1209
 5585SOL    HW228218   2.567   0.113  15.466 -1.1648 -2.3066  2.4429
 5586SOL     OW28219   1.374   3.583   3.043 -0.0544 -0.0217 -0.1438
 5586SOL    HW128220   1.415   3.643   2.980 -0.8972 -1.8211 -2.4092
 5586SOL    HW228221   1.332   3.531   2.975  0.6406  1.6182 -1.8473
 5587SOL     OW28222   1.610   0.813   9.291  0.2318 -0.4479 -0.0382
 5587SOL    HW128223   1.525   0.770   9.276  0.1221 -0.7980  1.4747
 5587SOL    HW228224   1.657   0.746   9.341 -0.0750  0.7289  1.8171
 5588SOL     OW28225   2.229   2.880   8.824  0.0933 -0.4646 -0.1506
 5588SOL    HW128226   2.205   2.880   8.917 -0.8183 -0.9806 -0.3917
 5588SOL    HW228227   2.166   2.814   8.797  0.9420 -0.3286 -2.4658
 5589SOL     OW28228   1.825   0.604  10.574 -0.1291 -0.0049 -0.1643
 5589SOL    HW128229   1.886   0.549  10.525 -0.9323 -0.1148 -1.0355
 5589SOL    HW228230   1.869   0.688  10.589  1.1591 -0.5841 -0.6948
 5590SOL     OW28231   3.479   0.971   0.653  0.1169  0.2351 -0.7451
 5590SOL    HW128232   3.450   0.884   0.626 -0.6377 -0.0074  0.8274
 5590SOL    HW228233   3.412   1.020   0.606 -0.6692 -1.2929 -1.2248
 5591SOL     OW28234   4.595   0.959   5.671  0.1800 -0.0390  0.0696
 5591SOL    HW128235   4.666   0.905   5.706  1.6940  2.7359  1.2887
 5591SOL    HW228236   4.646   1.038   5.651 -1.7183  0.7327 -1.6572
 5592SOL     OW28237   0.911   3.980   4.519  0.1018  0.2852  0.8800
 5592SOL    HW128238   0.853   3.915   4.479  0.1696  0.7274  0.0668
 5592SOL    HW228239   0.944   3.943   4.601 -0.7646 -1.1853  0.5739
 5593SOL     OW28240   3.049   3.419   3.959 -0.0532  0.0488 -0.2102
 5593SOL    HW128241   2.998   3.351   4.004 -0.3363  0.0597 -0.5125
 5593SOL    HW228242   2.990   3.440   3.887  0.2001 -0.7794 -0.6636
 5594SOL     OW28243   3.142   0.398   4.340  0.3640 -0.0310 -0.2848
 5594SOL    HW128244   3.054   0.360   4.335  0.1243  0.6877 -1.5538
 5594SOL    HW228245   3.181   0.346   4.269  3.5579  2.7933 -0.6206
 5595SOL     OW28246   1.714   3.297   8.250  0.1375 -0.4025  0.0993
 5595SOL    HW128247   1.623   3.274   8.231  1.5188 -1.4853 -5.3654
 5595SOL    HW228248   1.754   3.219   8.287  1.1275 -0.0222 -0.1803
 5596SOL     OW28249   2.318   2.302   6.051  0.0751 -0.4639 -0.0384
 5596SOL    HW128250   2.302   2.340   5.965  0.1065 -2.2153 -0.8119
 5596SOL    HW228251   2.241   2.321   6.104 -0.8401  0.4718 -1.6930
 5597SOL     OW28252   3.110   1.487  16.236  0.3011  0.5823 -0.1790
 5597SOL    HW128253   3.157   1.477  16.153  0.9430  4.4613 -0.2636
 5597SOL    HW228254   3.046   1.556  16.217 -0.9379 -0.2965  0.7859
 5598SOL     OW28255   3.567   1.654   3.642 -0.2800  0.3939 -0.4628
 5598SOL    HW128256   3.652   1.681   3.676  0.2203 -0.3442 -1.1074
 5598SOL    HW228257   3.529   1.606   3.716  1.8202 -0.3326  0.1328
 5599SOL     OW28258   1.794   2.361   2.456  0.0817  0.1264  0.3818
 5599SOL    HW128259   1.750   2.394   2.535  0.6055 -1.0352  1.1568
 5599SOL    HW228260   1.881   2.334   2.486  0.6189 -0.3147 -1.5987
 5600SOL     OW28261   1.879   3.484   3.561 -0.0420  0.3935 -0.3406
 5600SOL    HW128262   1.830   3.534   3.495 -0.9606  1.1858  0.9472
 5600SOL    HW228263   1.822   3.493   3.637 -0.0893  1.1651 -0.4730
 5601SOL     OW28264   0.733   1.741   2.271  0.0085 -0.0337 -0.2005
 5601SOL    HW128265   0.812   1.790   2.296 -1.5195  2.9171 -1.1890
 5601SOL    HW228266   0.665   1.779   2.327  1.8621 -0.9307  2.6536
 5602SOL     OW28267   0.686   2.266   6.873  0.1940  0.3788 -0.0421
 5602SOL    HW128268   0.776   2.238   6.889 -0.0754  0.5783  1.8221
 5602SOL    HW228269   0.707   2.346   6.824  2.0554 -0.6833 -0.9740
 5603SOL     OW28270   2.860   4.549   2.464  0.0465 -0.2738 -0.3467
 5603SOL    HW128271   2.889   4.611   2.397 -0.1940  3.6853  3.2571
 5603SOL    HW228272   2.811   4.487   2.410 -1.5633  0.7442 -0.0348
 5604SOL     OW28273   1.457   3.463   4.169  0.1823  0.7444 -0.0923
 5604SOL    HW128274   1.420   3.438   4.253  1.5765 -0.0470  0.2767
 5604SOL    HW228275   1.520   3.533   4.188  2.3722 -0.7023 -1.9683
 5605SOL     OW28276   2.303   3.350  15.592 -0.3430  0.2883 -0.2611
 5605SOL    HW128277   2.310   3.359  15.687 -0.5304 -0.3660 -0.1900
 5605SOL    HW228278   2.227   3.294  15.578 -0.0608 -0.0368 -0.5212
 5606SOL     OW28279   2.312   0.167  15.041 -0.0030 -0.6903 -0.9670
 5606SOL    HW128280   2.323   0.242  14.983 -0.0446  0.4572  0.5150
 5606SOL    HW228281   2.227   0.191  15.076  0.8983  1.1105 -0.0319
 5607SOL     OW28282   3.308   4.386   4.596  0.0085  0.6124 -0.6384
 5607SOL    HW128283   3.264   4.336   4.527  0.6305  1.1729 -1.4435
 5607SOL    HW228284   3.282   4.476   4.579 -2.5436  0.8166  4.2202
 5608SOL     OW28285   1.087   4.606   7.338 -0.1727  0.2271 -0.7007
 5608SOL    HW128286   1.147   4.562   7.399  0.7454  1.0549 -1.0058
 5608SOL    HW228287   1.045   4.535   7.289  0.6568 -1.1935  0.6234
 5609SOL     OW28288   4.598   0.102  11.580  0.9780 -0.1543  0.3854
 5609SOL    HW128289   4.656   0.178  11.572 -1.2019  1.8045  3.1724
 5609SOL    HW228290   4.653   0.031  11.547 -1.0136 -0.0761 -3.1430
 5610SOL     OW28291   1.802   3.162  10.016  0.2280  0.0694  0.1225
 5610SOL    HW128292   1.729   3.219   9.991  0.8649  1.1643  0.7546
 5610SOL    HW228293   1.862   3.230  10.045 -0.4810  0.4540  0.7054
 5611SOL     OW28294   4.362   3.458   6.575 -0.1670 -0.5839  0.0330
 5611SOL    HW128295   4.418   3.422   6.643  0.1325 -2.3154 -1.1320
 5611SOL    HW228296   4.398   3.419   6.496 -2.3604 -0.2951 -1.1192
 5612SOL     OW28297   3.828   4.079   9.144 -0.3021  0.1377  0.0738
 5612SOL    HW128298   3.880   4.064   9.065 -2.3959 -1.1566 -1.0353
 5612SOL    HW228299   3.798   3.990   9.160 -0.8206  0.2404 -0.3247
 5613SOL     OW28300   0.077   3.090   4.258  0.1906 -0.3162 -0.3775
 5613SOL    HW128301   0.169   3.102   4.235  0.2188 -2.2662 -1.2743
 5613SOL    HW228302   0.051   3.017   4.201  0.9106  0.7555 -2.0624
 5614SOL     OW28303   0.146   0.210  16.493 -0.3840  0.4722 -0.1617
 5614SOL    HW128304   0.156   0.118  16.519 -0.4420  0.4054 -0.3789
 5614SOL    HW228305   0.227   0.258  16.511 -0.2958 -0.1243  1.0784
 5615SOL     OW28306   1.923   1.106   9.168 -0.0135 -0.2949  0.7393
 5615SOL    HW128307   1.830   1.129   9.164  0.0131 -0.3423 -0.1448
 5615SOL    HW228308   1.965   1.187   9.137 -0.3801  0.4977  2.2846
 5616SOL     OW28309   2.827   2.003   2.514  0.1674  0.0225 -0.6135
 5616SOL    HW128310   2.861   2.043   2.594  1.7724  1.8308 -2.2039
 5616SOL    HW228311   2.903   1.947   2.496 -0.8064 -1.7645  0.7637
 5617SOL     OW28312   0.572   3.720   9.344 -0.4070  0.2423  0.2509
 5617SOL    HW128313   0.636   3.739   9.412  2.0770 -0.5939 -1.8601
 5617SOL    HW228314   0.624   3.724   9.264  0.0750 -2.9441  0.3938
 5618SOL     OW28315   2.161   2.355   4.869 -0.2389 -0.1490 -0.4393
 5618SOL    HW128316   2.231   2.324   4.927 -2.5901 -2.0693  1.3415
 5618SOL    HW228317   2.206   2.429   4.827 -0.3424  0.6960  0.9178
 5619SOL     OW28318   4.570   3.053   8.859  0.0496  0.5407  0.6918
 5619SOL    HW128319   4.557   2.989   8.930  0.1417  0.3362  0.5241
 5619SOL    HW228320   4.558   3.135   8.907 -0.7089  0.8305 -0.0007
 5620SOL     OW28321   0.432   2.963  16.281  0.1333 -0.4494  0.0544
 5620SOL    HW128322   0.520   2.963  16.244 -0.7019 -2.2104 -1.9650
 5620SOL    HW228323   0.456   2.965  16.373 -0.0720  1.1024  0.0587
 5621SOL     OW28324   1.803   2.016   2.027 -0.0125  0.0048  0.2409
 5621SOL    HW128325   1.835   2.087   1.971 -0.2799  0.6506  0.9047
 5621SOL    HW228326   1.710   2.035   2.039 -0.7735 -2.0935 -2.3385
 5622SOL     OW28327   3.611   0.917   3.080 -0.2983  0.5202  0.3414
 5622SOL    HW128328   3.662   0.907   3.000 -0.9629 -0.5768  0.0441
 5622SOL    HW228329   3.577   0.827   3.085 -0.0627  0.4202  0.1280
 5623SOL     OW28330   0.816   2.235  12.997 -0.2659 -0.0825  0.2541
 5623SOL    HW128331   0.791   2.167  12.936  0.5027  0.0542 -0.2175
 5623SOL    HW228332   0.748   2.242  13.064  0.2115 -0.0893  0.7449
 5624SOL     OW28333   2.564   0.652   6.628  0.6945 -0.1047  0.2918
 5624SOL    HW128334   2.469   0.663   6.629  0.7339  0.2746 -0.3693
 5624SOL    HW228335   2.568   0.558   6.608 -3.3801 -0.6845  2.1149
 5625SOL     OW28336   3.358   0.191   8.597 -0.0671  0.0589 -0.1557
 5625SOL    HW128337   3.289   0.158   8.655  0.0198 -0.4078 -0.3175
 5625SOL    HW228338   3.320   0.164   8.513  0.3393 -1.1318  0.0492
 5626SOL     OW28339   0.070   0.110  15.089  0.3946  0.3110 -0.1415
 5626SOL    HW128340   0.096   0.054  15.162  1.4244  0.1167 -0.6603
 5626SOL    HW228341   0.036   0.053  15.019 -0.1194  0.9896 -0.4403
 5627SOL     OW28342   1.339   1.910  10.412  0.0880  0.4369  0.3752
 5627SOL    HW128343   1.357   1.868  10.328  0.1395  0.6949  0.2587
 5627SOL    HW228344   1.360   2.003  10.398  3.3157  0.0519  2.4226
 5628SOL     OW28345   0.471   0.919   7.548 -0.2453 -0.4814  0.7695
 5628SOL    HW128346   0.382   0.951   7.535  0.3857 -0.0065 -2.4435
 5628SOL    HW228347   0.492   0.948   7.637 -3.0691  3.8050  0.0055
 5629SOL     OW28348   4.190   0.574  13.688 -0.5534  0.1003 -0.5169
 5629SOL    HW128349   4.221   0.583  13.778  1.3460 -1.4882 -0.9928
 5629SOL    HW228350   4.252   0.635  13.647  0.4577 -0.2016  0.5549
 5630SOL     OW28351   0.889   3.528   7.927 -0.1345 -0.2760 -0.5988
 5630SOL    HW128352   0.922   3.471   7.857  0.3266  1.1396 -1.5319
 5630SOL    HW228353   0.796   3.525   7.903 -0.8329 -0.3404  2.1436
 5631SOL     OW28354   0.681   0.281   2.541  0.4145 -0.1237 -0.0056
 5631SOL    HW128355   0.746   0.293   2.472  0.4351 -1.3575 -0.1989
 5631SOL    HW228356   0.640   0.201   2.505  1.2455 -0.5173 -0.0660
 5632SOL     OW28357   3.865   2.837   1.377 -0.3322 -0.1484  0.2262
 5632SOL    HW128358   3.865   2.810   1.285 -2.4772  1.4873 -0.2420
 5632SOL    HW228359   3.937   2.782   1.410  0.3347  1.2810  1.1718
 5633SOL     OW28360   0.961   2.838   5.550  0.1486 -0.1701  0.0931
 5633SOL    HW128361   1.023   2.863   5.483 -1.1860  1.6873 -0.4376
 5633SOL    HW228362   0.922   2.925   5.556  0.4195 -0.0048 -0.6688
 5634SOL     OW28363   3.917   3.927  14.769 -0.3477 -0.4326  0.3081
 5634SOL    HW128364   3.925   3.992  14.699  0.8440  2.7872  3.4031
 5634SOL    HW228365   3.981   3.864  14.736 -0.2517  0.4812 -1.2526
 5635SOL     OW28366   0.788   4.664  15.779 -0.1684 -0.0686 -0.0063
 5635SOL    HW128367   0.711   4.609  15.773 -0.2081 -0.1240  0.9989
 5635SOL    HW228368   0.818   4.660  15.688 -0.7871  1.1282 -0.2634
 5636SOL     OW28369   4.569   3.159  11.985 -0.0392 -0.5335 -0.4232
 5636SOL    HW128370   4.647   3.103  11.987  0.6318  0.4581  1.3024
 5636SOL    HW228371   4.504   3.089  11.993 -0.8799  0.3047 -0.0046
 5637SOL     OW28372   0.922   1.538   3.435 -0.5549  0.1315  0.0162
 5637SOL    HW128373   1.006   1.581   3.451 -1.1067  0.9512  0.6820
 5637SOL    HW228374   0.943   1.446   3.448 -0.3108 -0.0008 -1.2608
 5638SOL     OW28375   2.246   2.953  16.896 -0.5554  0.7766 -0.2087
 5638SOL    HW128376   2.252   3.031  16.950 -0.3312  0.2299  0.5472
 5638SOL    HW228377   2.315   2.972  16.832  0.9281 -1.3333  0.7534
 5639SOL     OW28378   0.330   1.386   8.576 -0.2450 -0.3355  0.2130
 5639SOL    HW128379   0.300   1.296   8.571  1.9517 -1.1057  1.1240
 5639SOL    HW228380   0.396   1.400   8.509  1.8819  0.3336  2.4520
 5640SOL     OW28381   4.476   2.849   7.121  0.0587 -0.3023  0.5767
 5640SOL    HW128382   4.546   2.895   7.168 -0.8588  0.6425  1.0240
 5640SOL    HW228383   4.524   2.809   7.049 -0.6649  2.2365 -1.2769
 5641SOL     OW28384   2.282   1.123   7.151  0.6300  0.5651 -0.6170
 5641SOL    HW128385   2.326   1.094   7.231 -0.0410 -2.4348 -1.3477
 5641SOL    HW228386   2.221   1.051   7.132 -2.0091  2.7618 -0.5496
 5642SOL     OW28387   4.532   1.614   7.231 -0.0208  0.3241  0.2575
 5642SOL    HW128388   4.459   1.665   7.198  1.0808  1.0546 -1.0741
 5642SOL    HW228389   4.548   1.547   7.164  0.6966 -4.2828  5.0440
 5643SOL     OW28390   0.646   3.760  10.191 -0.8943 -0.2944 -0.3253
 5643SOL    HW128391   0.700   3.693  10.149 -0.3224 -0.2927  0.3944
 5643SOL    HW228392   0.654   3.835  10.132  2.3279  1.5588  2.3809
 5644SOL     OW28393   1.320   0.181   2.852 -0.5875  0.1048  0.2833
 5644SOL    HW128394   1.245   0.172   2.794 -0.4783  1.4730 -0.0654
 5644SOL    HW228395   1.356   0.093   2.864  0.5610  0.6787  1.0549
 5645SOL     OW28396   2.318   0.732   6.110 -0.1422  0.4090  0.2016
 5645SOL    HW128397   2.277   0.784   6.179 -0.0242  2.3681 -1.1851
 5645SOL    HW228398   2.388   0.701   6.167  0.6356 -3.3592 -2.8120
 5646SOL     OW28399   3.094   4.630   3.910  0.1524  0.5248 -0.0184
 5646SOL    HW128400   3.149   4.555   3.929 -0.1554  0.5252  0.8883
 5646SOL    HW228401   3.067   4.611   3.820  1.1683 -0.6002 -0.0733
 5647SOL     OW28402   1.456   0.858  14.165 -0.4946 -0.0771 -0.0311
 5647SOL    HW128403   1.548   0.840  14.184 -0.2872  0.9597 -0.0156
 5647SOL    HW228404   1.427   0.904  14.244  0.4901  1.9532 -0.8350
 5648SOL     OW28405   4.307   3.851  15.848 -0.5040  0.0981  0.1525
 5648SOL    HW128406   4.347   3.915  15.906 -1.2575  2.2268 -1.6931
 5648SOL    HW228407   4.279   3.905  15.774 -0.1310  1.0359  0.7014
 5649SOL     OW28408   3.035   3.561   8.838 -0.3403  0.0179  0.5917
 5649SOL    HW128409   2.999   3.603   8.916 -0.3538  1.8492 -0.4007
 5649SOL    HW228410   2.974   3.573   8.766 -0.9144  0.6155  1.1823
 5650SOL     OW28411   0.297   1.078   9.866 -0.1408 -0.3662 -0.1006
 5650SOL    HW128412   0.324   0.988   9.884 -0.1780  0.1899  2.8552
 5650SOL    HW228413   0.339   1.089   9.781  0.4347 -0.3363  0.1879
 5651SOL     OW28414   3.894   2.430   5.446  0.4001  0.0162 -0.5530
 5651SOL    HW128415   3.827   2.498   5.444  1.0394  0.5140 -4.7971
 5651SOL    HW228416   3.836   2.355   5.463 -0.7451  0.9110 -0.5285
 5652SOL     OW28417   4.642   4.161   6.845 -0.0864  0.2884  0.1692
 5652SOL    HW128418   4.684   4.156   6.759 -0.0369  0.0064  0.2103
 5652SOL    HW228419   4.559   4.115   6.836  0.6368 -1.1277  0.5846
 5653SOL     OW28420   1.486   0.642   4.330  0.0357 -0.4968  0.1777
 5653SOL    HW128421   1.489   0.585   4.406 -0.9311 -1.4482 -0.4951
 5653SOL    HW228422   1.558   0.702   4.349  0.8807 -1.1372 -1.0118
 5654SOL     OW28423   3.115   1.854   2.966 -0.2557  0.1402 -0.0502
 5654SOL    HW128424   3.127   1.946   2.988 -2.3277  0.2606  0.6391
 5654SOL    HW228425   3.171   1.809   3.029  1.0808  2.5389  0.4785
 5655SOL     OW28426   0.408   2.254   6.129  0.5358  0.1431 -0.1174
 5655SOL    HW128427   0.353   2.218   6.060 -1.7426  0.3457  1.5855
 5655SOL    HW228428   0.367   2.339   6.145 -0.1073 -0.2398  0.3006
 5656SOL     OW28429   4.275   2.903   9.008 -0.4331  0.5219 -0.1663
 5656SOL    HW128430   4.261   2.890   8.915  0.3119 -1.0104 -0.0873
 5656SOL    HW228431   4.360   2.859   9.019 -0.4842  1.2027  2.9327
 5657SOL     OW28432   0.539   1.468  11.602 -0.7546  0.0698 -0.1148
 5657SOL    HW128433   0.521   1.400  11.667  0.6854 -1.1905 -1.0231
 5657SOL    HW228434   0.467   1.530  11.612 -0.1332  0.7624  0.0451
 5658SOL     OW28435   0.867   1.857  12.273 -0.0012  0.4956  0.1003
 5658SOL    HW128436   0.819   1.933  12.307 -1.6342 -0.2994 -0.4321
 5658SOL    HW228437   0.951   1.879  12.313 -0.7372 -0.4150  2.1536
 5659SOL     OW28438   1.109   3.134  12.215  0.6286 -0.1686  0.5158
 5659SOL    HW128439   1.084   3.203  12.276  0.1160  1.1614 -1.1850
 5659SOL    HW228440   1.200   3.123  12.242  0.8861 -1.1023 -0.7669
 5660SOL     OW28441   1.252   1.091   5.712 -0.1653 -0.0410  0.0573
 5660SOL    HW128442   1.319   1.159   5.704 -2.0402  2.0652  2.4311
 5660SOL    HW228443   1.192   1.138   5.770 -0.3161  0.9371 -0.8900
 5661SOL     OW28444   1.814   4.336   5.161 -0.3810 -0.2498 -0.5350
 5661SOL    HW128445   1.846   4.376   5.081 -1.0471  0.6509 -0.3554
 5661SOL    HW228446   1.811   4.407   5.225 -0.5283 -2.3462  1.7819
 5662SOL     OW28447   3.130   3.997   3.242  0.4015  0.8496  0.3928
 5662SOL    HW128448   3.058   4.058   3.228 -1.6895 -1.2185  2.0364
 5662SOL    HW228449   3.085   3.918   3.275  3.2652 -1.4905 -1.3651
 5663SOL     OW28450   0.266   4.116   3.641  0.2309  0.0754 -0.5659
 5663SOL    HW128451   0.333   4.083   3.582  0.5400 -2.6638  1.2905
 5663SOL    HW228452   0.227   4.182   3.585 -0.9087  1.1443  1.4804
 5664SOL     OW28453   0.458   2.551   3.598  0.1639  0.1372  0.1715
 5664SOL    HW128454   0.376   2.602   3.599  0.7294  1.0476  0.6056
 5664SOL    HW228455   0.446   2.529   3.690  0.5074  0.1315  0.2166
 5665SOL     OW28456   2.397   1.965   9.221  0.1491  0.1107  0.2184
 5665SOL    HW128457   2.485   1.956   9.258  0.3621  0.3828 -0.2222
 5665SOL    HW228458   2.390   2.060   9.224 -0.3044  0.0470  1.0224
 5666SOL     OW28459   3.668   2.545   7.133 -0.1014  0.6329 -0.2477
 5666SOL    HW128460   3.698   2.619   7.080  0.9525 -1.2684 -2.3484
 5666SOL    HW228461   3.613   2.575   7.205  0.0622 -0.1652  0.2105
 5667SOL     OW28462   2.759   2.399   3.726  0.1610  0.2954 -0.7985
 5667SOL    HW128463   2.696   2.328   3.719  0.7580 -0.1916 -1.2293
 5667SOL    HW228464   2.788   2.390   3.635  1.5484 -0.4664 -0.2699
 5668SOL     OW28465   3.129   1.703   1.891 -0.1294  0.6062 -0.3353
 5668SOL    HW128466   3.187   1.775   1.912 -0.8379  0.8492  0.7627
 5668SOL    HW228467   3.186   1.649   1.836 -2.0486 -1.1042 -0.6566
 5669SOL     OW28468   0.327   0.555  14.782 -0.1781  0.1709  0.5114
 5669SOL    HW128469   0.386   0.496  14.829 -2.0083 -1.5501  0.6353
 5669SOL    HW228470   0.364   0.639  14.810  0.0450 -0.0216  0.7970
 5670SOL     OW28471   3.624   4.131  12.938 -0.1559  0.2378  0.1766
 5670SOL    HW128472   3.580   4.192  12.879 -0.1803  0.4873  0.4569
 5670SOL    HW228473   3.607   4.053  12.884 -2.3424  1.7068 -1.2926
 5671SOL     OW28474   1.662   2.496   6.084 -0.5400 -0.0034  0.6302
 5671SOL    HW128475   1.704   2.463   6.164  1.1454 -0.9721 -0.6417
 5671SOL    HW228476   1.608   2.417   6.075  1.2561 -1.1102 -0.4658
 5672SOL     OW28477   3.288   1.750   8.069  0.1178  0.2305  0.0343
 5672SOL    HW128478   3.199   1.718   8.051  0.5751 -0.5713 -0.7906
 5672SOL    HW228479   3.297   1.711   8.155 -2.1323  1.2652  0.7492
 5673SOL     OW28480   2.630   3.133   2.888 -0.3130 -0.3858  0.3785
 5673SOL    HW128481   2.671   3.165   2.968  1.1633 -1.7407  0.1750
 5673SOL    HW228482   2.571   3.064   2.919 -0.8615 -0.1617 -0.1690
 5674SOL     OW28483   0.156   1.292  13.842  0.2739 -0.1806 -0.6388
 5674SOL    HW128484   0.153   1.383  13.814 -1.5140 -0.1224 -0.2585
 5674SOL    HW228485   0.136   1.300  13.935 -2.1325  1.6766 -1.3283
 5675SOL     OW28486   2.462   3.703  11.757  0.0643  0.1114  0.7375
 5675SOL    HW128487   2.535   3.759  11.729  0.5097 -0.1688  1.3379
 5675SOL    HW228488   2.496   3.668  11.839  0.9455 -0.7824 -0.0187
 5676SOL     OW28489   0.521   0.928   5.649  0.4563  0.2449  0.3171
 5676SOL    HW128490   0.506   0.837   5.673  1.4405  0.0760  0.2947
 5676SOL    HW228491   0.586   0.921   5.579  1.6074  0.6711  1.3438
 5677SOL     OW28492   0.144   0.206   1.755  0.1884  0.5964 -0.3660
 5677SOL    HW128493   0.064   0.210   1.703  1.1748 -1.4443 -2.0395
 5677SOL    HW228494   0.125   0.136   1.817 -2.6640 -0.3971 -2.3735
 5678SOL     OW28495   0.265   2.365   3.041  0.1635  0.0188 -0.2459
 5678SOL    HW128496   0.300   2.291   2.992 -1.5499  0.6287 -2.3819
 5678SOL    HW228497   0.337   2.397   3.095  0.1893  0.6319 -0.6449
 5679SOL     OW28498   3.950   3.181   5.452  0.2279  0.5362 -0.4261
 5679SOL    HW128499   4.030   3.210   5.409  0.7094 -0.7210 -0.3897
 5679SOL    HW228500   3.884   3.250   5.445 -0.1271  0.3229  0.7092
 5680SOL     OW28501   1.631   4.212   6.436 -0.2068  0.4017 -0.0651
 5680SOL    HW128502   1.626   4.187   6.528  0.6187  0.4233 -0.0099
 5680SOL    HW228503   1.627   4.124   6.400  1.8563 -0.0106  0.6977
 5681SOL     OW28504   2.010   3.092   9.361 -0.2821  0.2328 -0.1180
 5681SOL    HW128505   1.954   3.168   9.379 -0.0067  0.3355  0.3012
 5681SOL    HW228506   1.948   3.023   9.337  0.4125  0.1373 -1.6683
 5682SOL     OW28507   1.864   0.833  14.811 -0.0041 -0.1364  0.1485
 5682SOL    HW128508   1.849   0.886  14.733 -1.2587 -0.4876  0.1548
 5682SOL    HW228509   1.860   0.744  14.775  0.7285 -1.1732  2.6090
 5683SOL     OW28510   4.455   0.594   4.365  0.6255 -0.4332 -0.5788
 5683SOL    HW128511   4.386   0.654   4.336  0.6974  0.2112  0.5754
 5683SOL    HW228512   4.436   0.575   4.457 -0.0667  0.7375 -0.4709
 5684SOL     OW28513   0.551   1.936   6.613  0.1990 -0.3317 -0.4011
 5684SOL    HW128514   0.586   1.966   6.530 -1.7784  0.3964 -0.9579
 5684SOL    HW228515   0.504   1.857   6.586 -0.0681 -0.7282  1.2311
 5685SOL     OW28516   2.882   2.440   8.330 -0.1274  0.6653  0.1468
 5685SOL    HW128517   2.879   2.444   8.235  0.7766 -4.4591 -0.1034
 5685SOL    HW228518   2.810   2.499   8.352 -0.0434 -0.5903  3.7470
 5686SOL     OW28519   2.746   0.711   6.105  0.0893  0.8896  0.2608
 5686SOL    HW128520   2.707   0.780   6.051  1.3155  1.0525 -0.4281
 5686SOL    HW228521   2.689   0.636   6.090  1.6088 -0.4010  1.0216
 5687SOL     OW28522   1.171   0.326   0.557 -0.0274 -0.3685  0.2633
 5687SOL    HW128523   1.157   0.251   0.615  1.7613  0.0422  1.2467
 5687SOL    HW228524   1.265   0.337   0.575  0.0040  1.2159 -0.9356
 5688SOL     OW28525   1.441   1.775   2.825  0.3769  0.8778  0.8043
 5688SOL    HW128526   1.388   1.696   2.839  1.7289 -0.4309 -1.3200
 5688SOL    HW228527   1.403   1.832   2.891 -1.9853  0.6889 -0.3888
 5689SOL     OW28528   3.014   4.422  16.881 -0.4886 -0.1527 -0.0092
 5689SOL    HW128529   3.018   4.450  16.972 -1.3109  0.7183 -0.2398
 5689SOL    HW228530   3.099   4.379  16.871 -1.3539 -1.8654  0.0124
 5690SOL     OW28531   1.101   3.286  16.136  0.0682 -0.2001  0.1072
 5690SOL    HW128532   1.074   3.195  16.144 -0.3651 -0.0334  0.5254
 5690SOL    HW228533   1.023   3.316  16.089  1.0312  1.2980 -0.5268
 5691SOL     OW28534   1.198   2.751   0.449 -0.3297  0.1440 -0.5466
 5691SOL    HW128535   1.219   2.675   0.505 -1.7407  0.6904  0.7280
 5691SOL    HW228536   1.280   2.766   0.401  0.1345  0.4322  0.3324
 5692SOL     OW28537   1.505   1.284   2.973  0.2865 -0.0928 -0.2457
 5692SOL    HW128538   1.590   1.287   3.017  0.6512  2.3208 -1.1226
 5692SOL    HW228539   1.454   1.236   3.038  1.2523  1.1124  1.4047
 5693SOL     OW28540   2.277   2.640  11.458  0.4178 -0.4121  0.2931
 5693SOL    HW128541   2.324   2.575  11.509  0.4692 -0.2121  0.4977
 5693SOL    HW228542   2.234   2.684  11.531 -0.4699 -1.2047  0.2576
 5694SOL     OW28543   0.016   4.596   6.493  0.0569 -0.2079 -0.1954
 5694SOL    HW128544   4.655   4.575   6.536 -1.6361  3.5464 -1.6950
 5694SOL    HW228545   0.044   4.506   6.475 -1.3527 -0.6579 -0.1625
 5695SOL     OW28546   4.704   4.528   4.922  0.0086  0.0548  0.0669
 5695SOL    HW128547   4.641   4.559   4.857 -1.0001  1.1246  1.5506
 5695SOL    HW228548   4.711   4.437   4.893 -2.1789 -0.9946  2.7775
 5696SOL     OW28549   1.284   0.201   6.894  0.1702 -0.0648 -0.6598
 5696SOL    HW128550   1.338   0.156   6.829  2.1603  1.0745  0.2034
 5696SOL    HW228551   1.193   0.176   6.878 -0.5320  1.4686  0.9517
 5697SOL     OW28552   4.053   3.693   5.382  0.3380 -0.0386 -0.6945
 5697SOL    HW128553   4.080   3.778   5.348 -1.3615  0.5428 -0.5913
 5697SOL    HW228554   4.043   3.656   5.294  1.4807 -2.4357  0.1644
 5698SOL     OW28555   0.981   2.066  10.926  0.4341 -0.5381  0.4233
 5698SOL    HW128556   1.076   2.060  10.923  0.2500 -3.7940  0.3225
 5698SOL    HW228557   0.950   1.978  10.902  0.1137  0.0803 -1.4350
 5699SOL     OW28558   3.844   0.016   8.387 -0.5804  0.0357 -0.0301
 5699SOL    HW128559   3.879   4.699   8.467 -1.5250  2.0023  1.3368
 5699SOL    HW228560   3.869   0.107   8.403  1.5822  0.0345 -3.3130
 5700SOL     OW28561   3.358   1.352   2.150  0.0067 -0.2448  0.3530
 5700SOL    HW128562   3.378   1.440   2.118 -1.6911  0.2923  0.7769
 5700SOL    HW228563   3.317   1.316   2.072 -1.6142 -1.8020  1.9075
 5701SOL     OW28564   3.835   0.527  10.161  0.4233  0.1227  0.2204
 5701SOL    HW128565   3.873   0.475  10.090 -0.0307 -0.5362  0.4622
 5701SOL    HW228566   3.763   0.565  10.112  0.1433 -0.0512  0.4945
 5702SOL     OW28567   4.413   0.984   8.468 -0.0134 -0.2951 -0.0739
 5702SOL    HW128568   4.319   0.983   8.483 -0.4950 -0.1592 -3.0052
 5702SOL    HW228569   4.434   0.892   8.484 -0.9332 -0.5773 -0.4803
 5703SOL     OW28570   4.515   3.824   7.059  0.6035 -0.4694  0.0041
 5703SOL    HW128571   4.433   3.791   7.097  0.5842  0.9123  1.2199
 5703SOL    HW228572   4.517   3.914   7.093  0.8899  0.2690 -1.9961
 5704SOL     OW28573   3.534   0.863   0.896  0.2862  0.3911  0.0671
 5704SOL    HW128574   3.446   0.826   0.897 -1.4770  4.5441 -0.0630
 5704SOL    HW228575   3.526   0.908   0.812 -0.4569 -0.6343 -0.4124
 5705SOL     OW28576   1.466   3.709   5.501  0.4267 -0.5755 -0.3860
 5705SOL    HW128577   1.401   3.766   5.460 -0.8275 -1.1740  0.7766
 5705SOL    HW228578   1.413   3.632   5.521 -1.3135  1.2598  2.0035
 5706SOL     OW28579   0.435   3.931  16.022 -0.6421 -0.1684 -0.2892
 5706SOL    HW128580   0.487   3.916  15.942 -1.5908 -1.2165 -0.7055
 5706SOL    HW228581   0.479   3.869  16.080  0.5401  0.4988 -0.4695
 5707SOL     OW28582   4.438   4.279   6.126  0.0865  0.2915 -0.6781
 5707SOL    HW128583   4.464   4.236   6.208 -2.2575 -2.5945 -1.4698
 5707SOL    HW228584   4.516   4.330   6.104 -0.6223  1.7769  0.2192
 5708SOL     OW28585   3.575   2.177   1.404 -0.2086 -0.0489 -0.1284
 5708SOL    HW128586   3.491   2.135   1.384 -1.4024  1.9081  0.8192
 5708SOL    HW228587   3.634   2.103   1.392 -0.1168  0.3027 -1.8305
 5709SOL     OW28588   3.603   0.816   8.730 -0.0574  0.0050 -0.2895
 5709SOL    HW128589   3.537   0.837   8.796 -0.7283 -0.0360 -0.9411
 5709SOL    HW228590   3.545   0.802   8.655 -0.0954 -1.0792 -0.0511
 5710SOL     OW28591   2.463   1.181   4.523 -0.3349  0.2822  0.1688
 5710SOL    HW128592   2.464   1.129   4.604 -0.4231 -0.7534 -0.4964
 5710SOL    HW228593   2.552   1.216   4.518 -1.7222  3.2229 -3.2020
 5711SOL     OW28594   2.636   4.250   9.101 -0.1286  0.1125  0.4832
 5711SOL    HW128595   2.668   4.180   9.159 -2.1158  0.6032  2.1613
 5711SOL    HW228596   2.719   4.271   9.057  0.0348 -0.0619  0.7047
 5712SOL     OW28597   3.406   4.107   2.265 -0.1542  0.2927  0.6756
 5712SOL    HW128598   3.477   4.169   2.281  1.0516 -1.0679  0.5994
 5712SOL    HW228599   3.391   4.130   2.173 -0.0944 -1.5338  0.2057
 5713SOL     OW28600   1.913   1.533   5.623 -0.4022 -0.0601 -0.0396
 5713SOL    HW128601   1.882   1.588   5.551  0.4669  0.3217 -0.1293
 5713SOL    HW228602   1.938   1.449   5.586  0.3582 -0.8349  2.1884
 5714SOL     OW28603   4.440   1.253   5.852  0.2997 -0.0850  0.2097
 5714SOL    HW128604   4.371   1.318   5.840 -1.0405 -1.4996  0.1335
 5714SOL    HW228605   4.438   1.240   5.947  0.6564  1.3298  0.4004
 5715SOL     OW28606   2.996   4.707  15.175  0.2496 -0.4869 -0.1276
 5715SOL    HW128607   2.912   0.025  15.152 -0.0023 -0.8422  0.1755
 5715SOL    HW228608   2.974   4.683  15.266  0.8499 -2.7919 -0.5914
 5716SOL     OW28609   2.648   2.475  10.122  0.0284  0.2055 -0.6540
 5716SOL    HW128610   2.579   2.472  10.056 -2.0224  1.2344  1.4172
 5716SOL    HW228611   2.614   2.551  10.169  1.1239 -1.1887  2.4055
 5717SOL     OW28612   3.440   0.247   2.323  0.1699 -0.0582  0.4772
 5717SOL    HW128613   3.447   0.177   2.387  2.8468  0.4361  0.7274
 5717SOL    HW228614   3.356   0.228   2.283  0.7011  3.3238 -2.2830
 5718SOL     OW28615   3.788   4.581   3.450 -1.2140 -0.3655  0.8574
 5718SOL    HW128616   3.841   4.606   3.526  0.4342  1.6317 -0.9407
 5718SOL    HW228617   3.702   4.610   3.478 -2.2273 -1.4110 -1.1733
 5719SOL     OW28618   2.978   4.412  12.043 -0.0355 -0.7588 -0.0641
 5719SOL    HW128619   3.060   4.449  12.009 -1.7029  0.9986 -2.1819
 5719SOL    HW228620   3.010   4.323  12.056  0.6899 -0.6113 -0.8481
 5720SOL     OW28621   3.102   2.526   6.674 -0.0085  0.3530 -0.3757
 5720SOL    HW128622   3.170   2.590   6.653 -1.7793  2.5817  0.6708
 5720SOL    HW228623   3.039   2.558   6.610 -1.7325  0.4247  1.3807
 5721SOL     OW28624   1.224   0.615   0.268  0.2340  0.1757  0.4940
 5721SOL    HW128625   1.309   0.592   0.306  2.0340  0.9438 -3.0971
 5721SOL    HW228626   1.252   0.656   0.187 -1.1991  0.4778  0.1514
 5722SOL     OW28627   0.893   3.391   2.645 -0.3861 -0.3944 -0.1838
 5722SOL    HW128628   0.841   3.468   2.670  0.4203 -0.3300  1.3133
 5722SOL    HW228629   0.926   3.361   2.730  0.5165 -2.1076 -1.1553
 5723SOL     OW28630   1.173   0.541   2.708  0.3972 -0.4183  0.2150
 5723SOL    HW128631   1.204   0.542   2.798  0.8886  0.6356  0.0360
 5723SOL    HW228632   1.244   0.488   2.673  0.5492  0.1494 -0.3479
 5724SOL     OW28633   2.473   2.530  16.121  0.1218 -0.1893  0.2864
 5724SOL    HW128634   2.386   2.501  16.147 -0.3912  1.8969  0.9356
 5724SOL    HW228635   2.462   2.589  16.047 -0.7549 -0.2942  0.3360
 5725SOL     OW28636   4.500   0.937   3.534 -0.0012 -0.0196 -0.4111
 5725SOL    HW128637   4.586   0.958   3.497  0.4739 -0.3214  0.5282
 5725SOL    HW228638   4.491   1.029   3.561 -0.3096  0.4825 -2.1945
 5726SOL     OW28639   4.513   3.468   2.967  0.5388 -0.5237  0.5967
 5726SOL    HW128640   4.491   3.558   2.991 -0.3811 -0.5190 -0.2781
 5726SOL    HW228641   4.443   3.434   2.911 -0.9689  2.9371  0.3995
 5727SOL     OW28642   2.127   0.857   4.502 -0.5491  0.2168  0.1726
 5727SOL    HW128643   2.189   0.896   4.440  0.8896 -1.6682  0.4386
 5727SOL    HW228644   2.178   0.863   4.583  1.6049 -1.1418 -1.1050
 5728SOL     OW28645   1.653   0.509  12.362 -0.1796 -0.6466  0.1605
 5728SOL    HW128646   1.644   0.528  12.455  0.3655 -1.0168  0.2888
 5728SOL    HW228647   1.578   0.552  12.321  0.3487 -0.3546 -0.5104
 5729SOL     OW28648   2.189   2.446   6.312  0.7303  0.0459 -0.5327
 5729SOL    HW128649   2.130   2.383   6.355 -0.4212  0.3361 -1.6675
 5729SOL    HW228650   2.130   2.514   6.280  0.3288  0.3092  0.7739
 5730SOL     OW28651   0.131   1.266  16.735  0.6420  0.0581  0.4278
 5730SOL    HW128652   0.118   1.247  16.642 -0.4741  1.5019  0.2752
 5730SOL    HW228653   0.062   1.332  16.748  0.7612  0.1792  0.4509
 5731SOL     OW28654   2.155   2.457   2.202  0.5730 -0.1608 -0.1021
 5731SOL    HW128655   2.120   2.523   2.263 -0.4942 -0.0043 -0.8866
 5731SOL    HW228656   2.172   2.393   2.271  1.4106  1.1651  0.9334
 5732SOL     OW28657   0.744   4.048  11.223  0.3190 -1.0237  0.2600
 5732SOL    HW128658   0.657   4.074  11.254  1.5999  1.3086  1.8662
 5732SOL    HW228659   0.753   3.975  11.284  1.2637  0.6996  2.1800
 5733SOL     OW28660   1.781   1.368   4.012  0.6272  0.5314  0.1157
 5733SOL    HW128661   1.830   1.379   3.930  0.0181  3.5111  0.1383
 5733SOL    HW228662   1.697   1.410   3.993  1.9433  2.6098 -1.0192
 5734SOL     OW28663   3.529   4.452  13.315 -0.2186 -0.7517  0.0952
 5734SOL    HW128664   3.573   4.537  13.313 -2.0641  0.2034  0.1280
 5734SOL    HW228665   3.604   4.399  13.291  1.5708  1.2020  1.4183
 5735SOL     OW28666   4.466   1.224  15.003 -0.6955 -0.4758 -0.0079
 5735SOL    HW128667   4.512   1.140  15.012  0.2326 -0.2302 -2.5246
 5735SOL    HW228668   4.425   1.232  15.089  0.9714 -0.5637  0.7974
 5736SOL     OW28669   4.211   2.803  12.853 -0.5682 -0.3126  0.3486
 5736SOL    HW128670   4.196   2.720  12.807 -0.4863  1.0672 -2.1735
 5736SOL    HW228671   4.297   2.825  12.815 -0.9322 -1.0878 -0.9414
 5737SOL     OW28672   2.178   2.214   6.715 -0.3307  0.2556  0.0827
 5737SOL    HW128673   2.160   2.141   6.655  1.2104 -0.6153  0.6822
 5737SOL    HW228674   2.249   2.173   6.764 -0.3562 -1.7649 -1.5724
 5738SOL     OW28675   1.896   4.499  14.874  0.0072 -0.2751  0.0601
 5738SOL    HW128676   1.922   4.417  14.915 -1.2895 -0.9400 -0.4246
 5738SOL    HW228677   1.919   4.559  14.945 -0.0307 -0.4687  0.2331
 5739SOL     OW28678   4.437   0.597   5.582 -0.2321 -0.4048 -0.5064
 5739SOL    HW128679   4.467   0.515   5.541  0.9349 -0.0608 -0.3385
 5739SOL    HW228680   4.473   0.648   5.510 -2.7706 -0.9543 -2.1789
 5740SOL     OW28681   0.163   1.784   5.043  0.0380 -0.8195 -0.1225
 5740SOL    HW128682   0.180   1.843   5.116 -0.5801  1.5666 -1.8987
 5740SOL    HW228683   0.067   1.777   5.043  0.0711 -1.2488 -0.6109
 5741SOL     OW28684   3.761   4.504  17.301 -0.1702 -0.0340 -0.3087
 5741SOL    HW128685   3.739   4.459  17.220  0.1708 -1.5787  0.4754
 5741SOL    HW228686   3.846   4.543  17.282 -0.5698  1.2323  0.4509
 5742SOL     OW28687   2.722   3.884   3.413 -0.2127 -0.0248 -0.0348
 5742SOL    HW128688   2.658   3.955   3.423  1.4978  1.1671  2.2393
 5742SOL    HW228689   2.662   3.819   3.374 -0.7531  1.6186 -1.9670
 5743SOL     OW28690   4.047   0.453   0.941  0.3914  0.3519 -0.4926
 5743SOL    HW128691   3.972   0.511   0.954 -0.5954 -0.6379 -1.8275
 5743SOL    HW228692   4.097   0.507   0.880  1.5672 -0.9411 -0.6637
 5744SOL     OW28693   3.831   0.142   3.816 -0.3867  0.2247 -0.0037
 5744SOL    HW128694   3.834   0.236   3.832  1.2649  0.1124  0.3017
 5744SOL    HW228695   3.752   0.146   3.762  1.1555 -0.0557 -2.2797
 5745SOL     OW28696   4.007   2.486  10.358  0.0075  0.7431 -0.4349
 5745SOL    HW128697   3.958   2.418  10.405  0.1595  0.5265 -0.5855
 5745SOL    HW228698   3.988   2.473  10.265  1.7574 -1.6745 -0.4628
 5746SOL     OW28699   0.384   1.913   7.170  0.4020 -0.1557 -0.5772
 5746SOL    HW128700   0.308   1.934   7.116 -0.6388  1.0729  1.3491
 5746SOL    HW228701   0.330   1.879   7.241 -0.2991  0.1452 -0.9685
 5747SOL     OW28702   0.723   2.596  10.373  0.0174  0.8378  0.2255
 5747SOL    HW128703   0.641   2.546  10.371  0.4625  0.0916  0.6366
 5747SOL    HW228704   0.772   2.518  10.346 -0.9427  0.5137 -0.5628
 5748SOL     OW28705   0.454   1.439   3.938  0.4107  0.4824 -0.2851
 5748SOL    HW128706   0.433   1.529   3.913  1.1020  1.0201  1.0858
 5748SOL    HW228707   0.500   1.394   3.867 -0.5740  0.3225 -0.8223
 5749SOL     OW28708   0.624   0.982   1.750  0.0202 -0.3244  0.6594
 5749SOL    HW128709   0.630   1.072   1.717  0.5372 -1.3546 -2.0532
 5749SOL    HW228710   0.639   1.001   1.842  0.7176  1.1706  0.2408
 5750SOL     OW28711   1.555   4.629   5.113  0.2021 -0.5009 -0.6542
 5750SOL    HW128712   1.509   4.561   5.162 -0.4033 -0.3943 -1.0598
 5750SOL    HW228713   1.532   4.696   5.177 -2.0056  0.4733 -2.4578
 5751SOL     OW28714   2.765   0.624   5.712  0.3860  0.1513  0.3131
 5751SOL    HW128715   2.727   0.674   5.639 -0.0977 -1.2457 -0.3984
 5751SOL    HW228716   2.857   0.609   5.691 -0.1041 -2.0098 -0.2968
 5752SOL     OW28717   0.729   1.646  11.770 -0.4564 -0.0489  0.1322
 5752SOL    HW128718   0.649   1.615  11.727 -0.6076  1.4887 -0.6962
 5752SOL    HW228719   0.794   1.576  11.765  0.0442  0.4378 -0.1309
 5753SOL     OW28720   2.911   0.560   7.425  0.2250 -0.3928 -0.8993
 5753SOL    HW128721   2.915   0.533   7.333  0.5093 -0.0100 -0.9978
 5753SOL    HW228722   2.899   0.653   7.412 -0.8090 -0.3931  0.0776
 5754SOL     OW28723   0.966   0.277   5.533 -0.6577 -0.3729  0.3174
 5754SOL    HW128724   0.961   0.341   5.603 -0.0839 -0.1333  0.1362
 5754SOL    HW228725   1.059   0.278   5.512 -0.2664  1.4837  2.2382
 5755SOL     OW28726   1.999   1.901   4.372  0.0704 -0.0494 -0.2911
 5755SOL    HW128727   1.925   1.842   4.357 -0.6575  0.3204  1.9284
 5755SOL    HW228728   1.954   1.967   4.424  1.9597  1.5747 -0.7375
 5756SOL     OW28729   2.111   1.480   9.794  0.7499 -0.0522 -0.2502
 5756SOL    HW128730   2.034   1.527   9.827 -0.3525 -1.1955 -1.1739
 5756SOL    HW228731   2.158   1.475   9.877 -0.3950 -1.1660  0.3387
 5757SOL     OW28732   3.647   1.438  12.198 -0.2952 -0.0746  0.2848
 5757SOL    HW128733   3.682   1.490  12.271 -1.0031  0.7032  0.0759
 5757SOL    HW228734   3.645   1.352  12.239 -2.0293  0.1404  0.6661
 5758SOL     OW28735   1.658   3.020  15.334 -0.2479  0.1715 -0.0643
 5758SOL    HW128736   1.608   3.011  15.252  0.0474  0.1391 -0.2401
 5758SOL    HW228737   1.671   3.114  15.342 -0.7041  0.3628 -1.4136
 5759SOL     OW28738   2.020   1.828   7.392 -0.0147 -0.4051 -0.1716
 5759SOL    HW128739   2.021   1.750   7.336  1.7463 -1.0253  0.7183
 5759SOL    HW228740   2.035   1.905   7.336 -0.1871  0.2678  0.7075
 5760SOL     OW28741   1.174   0.998  11.241  0.2036  0.3844  0.1191
 5760SOL    HW128742   1.083   1.018  11.220  1.2638  2.6050 -2.3076
 5760SOL    HW228743   1.182   0.904  11.225 -0.6714 -0.0816  2.3779
 5761SOL     OW28744   0.678   3.025  16.186 -0.6553 -0.2423 -0.5490
 5761SOL    HW128745   0.739   3.032  16.113  1.5333 -1.8278  1.1046
 5761SOL    HW228746   0.684   3.108  16.234  3.5158 -0.4194 -0.7488
 5762SOL     OW28747   2.548   2.676  10.292 -0.0208  0.0894 -0.1155
 5762SOL    HW128748   2.499   2.636  10.363  0.6263 -0.7972 -0.1658
 5762SOL    HW228749   2.488   2.690  10.218 -0.6578 -1.1728  0.1710
 5763SOL     OW28750   3.902   3.100   4.520 -0.0670  0.0270 -0.1633
 5763SOL    HW128751   3.815   3.112   4.557 -0.5535  2.1365 -1.9867
 5763SOL    HW228752   3.945   3.182   4.495 -0.6090  0.4126  0.1742
 5764SOL     OW28753   4.523   3.786   6.796 -0.0807  0.4019 -0.4362
 5764SOL    HW128754   4.492   3.875   6.779 -0.7088  0.1506 -0.5823
 5764SOL    HW228755   4.544   3.780   6.889  2.7830 -1.2097 -1.1626
 5765SOL     OW28756   0.664   3.723   5.341 -0.2199 -0.3704 -0.4989
 5765SOL    HW128757   0.619   3.674   5.410  0.0675 -1.1389 -0.8552
 5765SOL    HW228758   0.744   3.671   5.342 -0.6411 -0.9551  1.3342
 5766SOL     OW28759   1.395   2.885   5.602  0.0475  0.4026  0.3821
 5766SOL    HW128760   1.404   2.960   5.662 -2.2426  0.3867  0.7261
 5766SOL    HW228761   1.439   2.821   5.657 -0.7519  0.0343  0.5866
 5767SOL     OW28762   4.428   2.752   3.340 -0.8386 -0.6958 -0.8077
 5767SOL    HW128763   4.397   2.838   3.311  2.5328  0.0188 -2.3624
 5767SOL    HW228764   4.499   2.739   3.276 -1.0456  1.0608 -1.4069
 5768SOL     OW28765   2.364   0.940   4.379  0.1654 -0.2683  0.5341
 5768SOL    HW128766   2.445   0.922   4.427  0.9008 -1.6387 -1.2233
 5768SOL    HW228767   2.362   1.035   4.390  1.5877 -0.1355 -0.3526
 5769SOL     OW28768   3.639   1.308   5.822  0.0387  0.2194  0.5991
 5769SOL    HW128769   3.643   1.392   5.868 -0.1533 -1.2103  3.2121
 5769SOL    HW228770   3.725   1.311   5.781  0.1207 -0.7336  0.6969
 5770SOL     OW28771   0.167   1.474  14.228 -0.1232 -0.3736 -0.0408
 5770SOL    HW128772   0.192   1.524  14.306  2.5456  0.0208 -1.1327
 5770SOL    HW228773   0.240   1.493  14.170 -1.1315  0.9146 -0.8776
 5771SOL     OW28774   2.734   2.017   7.057  0.7260 -0.3731  0.2464
 5771SOL    HW128775   2.735   2.086   6.990 -0.8332 -0.8554 -0.2888
 5771SOL    HW228776   2.662   1.960   7.030  1.0899 -1.0682  0.7528
 5772SOL     OW28777   2.075   0.755   0.857 -0.4212  0.0165 -0.0333
 5772SOL    HW128778   2.133   0.712   0.920 -0.4895 -0.0767 -0.0337
 5772SOL    HW228779   2.048   0.682   0.801 -2.0660  1.7977 -1.5450
 5773SOL     OW28780   1.759   3.553   1.977 -0.2343  0.2333 -0.7102
 5773SOL    HW128781   1.743   3.644   2.002  2.4534  0.6354 -0.4299
 5773SOL    HW228782   1.839   3.572   1.928  0.2304 -1.6521 -0.6927
 5774SOL     OW28783   2.261   0.584   5.648 -0.0769 -0.8563 -0.6245
 5774SOL    HW128784   2.252   0.655   5.712 -0.6399 -2.3255  0.9402
 5774SOL    HW228785   2.170   0.569   5.621  0.1337 -1.2947 -1.0886
 5775SOL     OW28786   1.509   2.153   9.841  0.3286  0.4864 -0.4531
 5775SOL    HW128787   1.531   2.168   9.749  0.6990 -2.2201 -0.8116
 5775SOL    HW228788   1.479   2.240   9.868  0.8700  0.9413 -1.3167
 5776SOL     OW28789   0.854   1.712   5.157 -0.3576  0.2633  0.3215
 5776SOL    HW128790   0.843   1.689   5.249  1.8631  0.6717  0.7012
 5776SOL    HW228791   0.885   1.802   5.158  1.4633 -0.3506 -1.1827
 5777SOL     OW28792   2.503   0.270   9.770  0.3081 -0.7980 -0.2676
 5777SOL    HW128793   2.592   0.249   9.743  1.1048  1.4194  0.6173
 5777SOL    HW228794   2.492   0.357   9.731  2.5902 -0.8746 -1.0693
 5778SOL     OW28795   0.621   1.824   7.274 -0.2959  0.4271  0.6910
 5778SOL    HW128796   0.544   1.840   7.221 -0.4563 -0.4084  0.6817
 5778SOL    HW228797   0.643   1.914   7.301 -0.4988  1.3894 -2.3712
 5779SOL     OW28798   4.038   1.783   8.378  0.5765  0.4387  0.1803
 5779SOL    HW128799   4.124   1.762   8.340  0.4174  2.1334 -1.0922
 5779SOL    HW228800   4.060   1.853   8.440 -0.6608  0.2575  0.8184
 5780SOL     OW28801   0.463   3.603   9.051 -0.4021 -0.1535 -0.1277
 5780SOL    HW128802   0.550   3.642   9.062 -0.6088 -0.6356  3.0230
 5780SOL    HW228803   0.427   3.589   9.138  0.5434 -1.0227  0.1048
 5781SOL     OW28804   2.966   3.854   2.615  0.0950 -0.0802 -0.1372
 5781SOL    HW128805   2.924   3.849   2.700  1.6688 -2.7254  0.4696
 5781SOL    HW228806   2.920   3.778   2.579 -0.5630  0.0229  0.4813
 5782SOL     OW28807   4.618   3.415  10.597 -0.5340  0.4867  0.1144
 5782SOL    HW128808   4.613   3.325  10.630 -3.4633  0.4397 -0.4653
 5782SOL    HW228809   4.525   3.439  10.591 -1.0355 -1.2474  1.0804
 5783SOL     OW28810   3.959   3.559   2.861  0.1641  0.5634  0.0350
 5783SOL    HW128811   4.018   3.503   2.810 -1.0459 -0.3423 -0.3641
 5783SOL    HW228812   3.953   3.525   2.951  2.2542 -0.1959 -0.1107
 5784SOL     OW28813   2.247   4.151   6.020  0.5593 -0.0760  0.1423
 5784SOL    HW128814   2.260   4.085   5.952 -0.6420  0.3489 -0.5102
 5784SOL    HW228815   2.181   4.210   5.983  0.1426 -0.1744  0.7318
 5785SOL     OW28816   3.157   3.908  11.266  0.4784  0.6384 -0.2073
 5785SOL    HW128817   3.179   3.920  11.358 -0.7312  2.4426 -0.1455
 5785SOL    HW228818   3.103   3.830  11.255  0.6449  0.4123  0.5425
 5786SOL     OW28819   1.469   3.295   2.666  0.3669  0.2965  0.0053
 5786SOL    HW128820   1.414   3.265   2.593 -2.1533 -0.3793  2.1717
 5786SOL    HW228821   1.507   3.212   2.693  1.1559  0.8336  0.5545
 5787SOL     OW28822   2.672   1.902   7.436  0.0732 -0.2876 -0.3151
 5787SOL    HW128823   2.757   1.930   7.400 -0.7608 -0.1802 -2.1979
 5787SOL    HW228824   2.682   1.808   7.425  1.0854 -0.4239  1.7824
 5788SOL     OW28825   3.762   4.245  12.497 -0.0439  0.5787  0.6214
 5788SOL    HW128826   3.845   4.229  12.543  0.8288  0.6671 -0.9129
 5788SOL    HW228827   3.722   4.159  12.492  1.2377  0.0971 -1.2135
 5789SOL     OW28828   2.480   3.861   0.623  0.4156 -1.1285 -0.2524
 5789SOL    HW128829   2.403   3.833   0.672  0.2208 -0.7838 -0.3645
 5789SOL    HW228830   2.452   3.850   0.532  1.9161  1.3738 -1.0223
 5790SOL     OW28831   2.648   2.474   0.597  0.3149 -0.8007  0.0140
 5790SOL    HW128832   2.686   2.440   0.678 -0.0796 -1.5869 -0.1357
 5790SOL    HW228833   2.688   2.420   0.529 -1.9417 -1.0702 -1.1266
 5791SOL     OW28834   1.898   3.441   8.471 -0.1833 -0.4392  0.2419
 5791SOL    HW128835   1.825   3.402   8.424  1.0529 -3.0409  0.5299
 5791SOL    HW228836   1.956   3.366   8.476  2.0337  1.2637  0.1295
 5792SOL     OW28837   1.698   3.456   5.290 -0.5220  0.3058 -0.2339
 5792SOL    HW128838   1.627   3.393   5.303  0.7857 -1.0349  0.4304
 5792SOL    HW228839   1.760   3.394   5.251 -0.2335  1.2173 -1.2063
 5793SOL     OW28840   1.519   0.807  13.091 -0.5760 -0.3243  0.7250
 5793SOL    HW128841   1.546   0.787  13.002 -0.1475 -0.7102  0.9422
 5793SOL    HW228842   1.435   0.762  13.098 -0.8884 -0.0643 -1.3393
 5794SOL     OW28843   2.668   3.189  14.358  0.0827  0.1701 -0.1310
 5794SOL    HW128844   2.692   3.243  14.283 -0.1216  0.4672  0.0137
 5794SOL    HW228845   2.746   3.136  14.376  1.0034  1.6891  0.3525
 5795SOL     OW28846   2.339   1.415  13.694  0.1241  0.9589  0.5960
 5795SOL    HW128847   2.365   1.497  13.652 -1.6645  1.3374  0.1907
 5795SOL    HW228848   2.258   1.398  13.646  1.7024 -3.0226 -0.6076
 5796SOL     OW28849   0.102   4.005   8.289  0.5718 -0.3524  0.3795
 5796SOL    HW128850   0.077   4.055   8.211  2.1202  0.8371  0.6427
 5796SOL    HW228851   0.188   3.977   8.258 -1.3693 -3.2359 -2.4182
 5797SOL     OW28852   1.522   0.008   0.769 -0.4483  0.6275  0.0034
 5797SOL    HW128853   1.520   4.669   0.695  1.3729 -0.4101  0.8151
 5797SOL    HW228854   1.608   0.047   0.756 -1.1954  1.2829 -2.9254
 5798SOL     OW28855   1.224   0.342   4.964  0.1237  0.4921 -0.1653
 5798SOL    HW128856   1.257   0.411   5.021 -0.2193  1.1450 -0.7559
 5798SOL    HW228857   1.215   0.263   5.017 -0.0840  0.7299  0.1531
 5799SOL     OW28858   2.798   0.571   9.575  0.5843 -0.3483 -0.3320
 5799SOL    HW128859   2.811   0.488   9.621  0.2414 -0.9514 -1.3129
 5799SOL    HW228860   2.838   0.558   9.489  2.4212 -0.3310  0.5196
 5800SOL     OW28861   2.339   1.699   3.546  0.0869 -0.1766  0.2233
 5800SOL    HW128862   2.384   1.774   3.585  2.7288 -0.9664 -1.3095
 5800SOL    HW228863   2.313   1.649   3.624 -1.3134  0.5568  0.2224
 5801SOL     OW28864   4.549   4.654  12.000  0.2907  0.0013 -0.1229
 5801SOL    HW128865   4.514   0.002  11.945  0.4194  2.7045  3.2928
 5801SOL    HW228866   4.510   4.576  11.960 -0.5099  0.0852  0.4865
 5802SOL     OW28867   3.834   3.942   3.505 -0.8620  0.0372  0.6739
 5802SOL    HW128868   3.767   3.992   3.553 -0.4147 -0.7358  2.1101
 5802SOL    HW228869   3.839   3.865   3.562 -3.9008 -2.2636 -2.1268
 5803SOL     OW28870   4.580   2.172   4.663 -0.6317 -0.1042 -0.2104
 5803SOL    HW128871   4.560   2.252   4.711  0.4644 -0.1001  0.2285
 5803SOL    HW228872   4.574   2.207   4.574 -1.1964  0.5457  0.0863
 5804SOL     OW28873   2.289   3.856  14.271  0.1913  0.6222  0.0525
 5804SOL    HW128874   2.294   3.951  14.262 -0.3740  0.7406  1.0587
 5804SOL    HW228875   2.381   3.832  14.257 -0.2813 -1.5460  0.6860
 5805SOL     OW28876   2.251   2.160   5.247 -0.0460 -0.7313  0.5602
 5805SOL    HW128877   2.293   2.244   5.227  1.9933 -1.9068 -0.1112
 5805SOL    HW228878   2.215   2.144   5.160  1.2180  1.9128 -0.4552
 5806SOL     OW28879   0.728   4.058   9.111  0.3196 -0.6225 -0.8968
 5806SOL    HW128880   0.675   4.138   9.114 -0.3370 -1.1667  1.3383
 5806SOL    HW228881   0.762   4.054   9.200  1.4334  0.8490 -1.2495
 5807SOL     OW28882   4.678   1.470   7.499 -0.2523  0.5243  0.1435
 5807SOL    HW128883   4.591   1.499   7.475 -0.5555 -0.1556  0.4330
 5807SOL    HW228884   4.720   1.536   7.555  2.0415  0.0983 -1.0674
 5808SOL     OW28885   0.829   4.387   8.884 -0.1490  0.2389 -0.6640
 5808SOL    HW128886   0.752   4.420   8.838 -1.0657 -1.2392 -0.1986
 5808SOL    HW228887   0.887   4.463   8.884 -0.8298  0.7677  0.7247
 5809SOL     OW28888   1.830   1.716   8.954  0.0412 -0.5772  0.0448
 5809SOL    HW128889   1.747   1.670   8.950  1.7902 -3.8211  0.5562
 5809SOL    HW228890   1.846   1.704   9.048 -0.3673  3.1097  0.5641
 5810SOL     OW28891   2.323   1.107   6.017  0.8787  0.6797 -0.1993
 5810SOL    HW128892   2.390   1.044   6.043  0.8711  0.8290  0.1968
 5810SOL    HW228893   2.245   1.081   6.065  0.4833  1.5519 -0.3624
 5811SOL     OW28894   1.841   1.368   9.059  0.1516 -0.1339  0.2258
 5811SOL    HW128895   1.775   1.437   9.069 -2.2598 -2.4309  0.0125
 5811SOL    HW228896   1.784   1.313   9.005  0.4980  1.3953 -1.6905
 5812SOL     OW28897   2.453   1.555   8.247 -0.7151  0.0957  0.1888
 5812SOL    HW128898   2.397   1.626   8.216 -1.9274 -0.1334  1.8323
 5812SOL    HW228899   2.398   1.535   8.323  0.3354  1.6523  1.3494
 5813SOL     OW28900   3.056   2.248   5.136  0.1830 -0.3877  1.1268
 5813SOL    HW128901   3.116   2.318   5.163 -1.4001  1.8399 -1.1333
 5813SOL    HW228902   3.021   2.222   5.221  0.8880 -3.3897  0.4855
 5814SOL     OW28903   0.181   1.713   8.903 -0.1031 -0.0250  0.3943
 5814SOL    HW128904   0.242   1.646   8.870 -0.6629 -0.5721  0.4749
 5814SOL    HW228905   0.174   1.688   8.995 -1.5795  4.2067  1.3981
 5815SOL     OW28906   4.277   1.494   3.846  0.4035  0.3927  0.3634
 5815SOL    HW128907   4.308   1.455   3.764  0.4448 -0.4123  0.7669
 5815SOL    HW228908   4.192   1.451   3.852 -0.1251  1.0042 -2.4100
 5816SOL     OW28909   1.905   4.644  17.236  0.3732 -0.6708 -0.3156
 5816SOL    HW128910   1.882   0.005  17.194  2.8713  0.4619  0.5205
 5816SOL    HW228911   1.820   4.604  17.219  0.2916 -1.3787  1.7140
 5817SOL     OW28912   1.881   1.430   3.388 -0.1903 -0.5380  0.2936
 5817SOL    HW128913   1.973   1.406   3.379 -0.1163 -1.6889  3.9521
 5817SOL    HW228914   1.892   1.525   3.387  0.2486 -0.6313 -2.8557
 5818SOL     OW28915   2.452   0.947   2.636 -0.1364 -0.0379  0.9615
 5818SOL    HW128916   2.491   0.866   2.666  1.7298  1.4974  2.6799
 5818SOL    HW228917   2.390   0.924   2.567  0.2379 -0.6146  0.8242
 5819SOL     OW28918   2.237   2.542   0.739  0.2461  0.1362  0.2474
 5819SOL    HW128919   2.316   2.576   0.781 -0.7694  2.1637  0.4985
 5819SOL    HW228920   2.279   2.471   0.690 -1.1001 -0.0848 -0.5920
 5820SOL     OW28921   1.864   3.041   8.401  0.1692 -0.5015  0.0499
 5820SOL    HW128922   1.795   3.054   8.465  1.2287  2.0605  0.6853
 5820SOL    HW228923   1.939   3.092   8.433  1.8130 -2.0977 -1.2318
 5821SOL     OW28924   0.960   1.305   3.578  0.3325 -0.0121 -0.0357
 5821SOL    HW128925   0.892   1.252   3.619  1.9763  0.2220  2.9838
 5821SOL    HW228926   1.016   1.339   3.648 -0.8516 -0.2187  0.9899
 5822SOL     OW28927   3.931   0.420   2.118  0.9186  0.5191  0.1341
 5822SOL    HW128928   3.889   0.376   2.044 -0.7125  4.3610 -1.2244
 5822SOL    HW228929   3.905   0.364   2.191 -1.0260  0.9765 -0.1930
 5823SOL     OW28930   4.005   3.023  11.277 -0.1429  0.2514  0.0524
 5823SOL    HW128931   4.002   3.004  11.183  1.9199  0.1798 -0.0102
 5823SOL    HW228932   4.079   3.083  11.284 -0.2189  0.3350  0.1347
 5824SOL     OW28933   2.818   1.230  14.590  0.1194 -0.1411  0.0012
 5824SOL    HW128934   2.810   1.308  14.534 -4.1020 -0.7675 -0.2831
 5824SOL    HW228935   2.816   1.267  14.678  1.3134  1.5945 -0.6976
 5825SOL     OW28936   2.399   2.011   7.199  0.0594  0.8825 -0.1089
 5825SOL    HW128937   2.399   1.918   7.178  1.5768  0.7658  0.3528
 5825SOL    HW228938   2.413   2.004   7.293  2.3369  2.4951 -0.2993
 5826SOL     OW28939   1.969   0.989   4.984  0.1640 -0.9063 -0.7992
 5826SOL    HW128940   1.990   1.068   4.934  0.2885 -0.6647 -0.3596
 5826SOL    HW228941   1.891   0.963   4.936 -0.3299  1.0982 -1.0943
 5827SOL     OW28942   1.723   3.619   3.333 -1.3588  0.2200 -0.3493
 5827SOL    HW128943   1.736   3.706   3.370  2.7030  0.2626 -1.8545
 5827SOL    HW228944   1.765   3.624   3.248 -0.2939  1.0796  0.2269
 5828SOL     OW28945   0.993   3.107   8.718  0.2808 -0.0997 -0.5130
 5828SOL    HW128946   1.000   3.076   8.808 -0.7657 -0.1642 -0.4629
 5828SOL    HW228947   0.905   3.142   8.704  0.4917  0.2630 -0.9410
 5829SOL     OW28948   0.360   1.030   3.992 -0.0927  0.1345  0.0553
 5829SOL    HW128949   0.284   1.085   3.971  1.2572  1.3498 -1.6402
 5829SOL    HW228950   0.324   0.972   4.059  0.4647  0.0642  0.2943
 5830SOL     OW28951   3.879   2.528   4.963 -0.3756  0.4430 -0.5450
 5830SOL    HW128952   3.905   2.552   5.052  1.4723  1.5338 -1.3882
 5830SOL    HW228953   3.815   2.460   4.984 -0.9036  0.6865 -1.3732
 5831SOL     OW28954   1.135   2.103   2.102  0.3849 -0.0172 -0.1049
 5831SOL    HW128955   1.077   2.030   2.081 -0.2271 -0.0345  1.6492
 5831SOL    HW228956   1.150   2.144   2.018  1.7027 -1.8774 -0.7924
 5832SOL     OW28957   1.063   4.063   4.208  0.1842  0.0893 -0.0698
 5832SOL    HW128958   1.039   4.018   4.127 -1.9687  0.4385  0.3879
 5832SOL    HW228959   1.134   4.125   4.190 -1.0886  1.2912 -0.9877
 5833SOL     OW28960   1.554   1.906   8.761 -0.2743  0.0769 -0.3302
 5833SOL    HW128961   1.522   1.834   8.816  2.5752 -1.7835 -1.0777
 5833SOL    HW228962   1.557   1.867   8.673  0.8134  0.4266 -0.4566
 5834SOL     OW28963   4.647   2.492   2.606 -0.2186 -0.3116  0.3806
 5834SOL    HW128964   4.612   2.441   2.533  1.4804 -1.1784  0.1813
 5834SOL    HW228965   4.600   2.454   2.680 -3.7239 -0.7182 -2.0666
 5835SOL     OW28966   1.143   4.003   2.150 -0.1366 -0.1742 -0.1450
 5835SOL    HW128967   1.084   3.930   2.134 -0.7845  0.4955 -0.8237
 5835SOL    HW228968   1.119   4.021   2.241  2.6469  4.2740 -0.2340
 5836SOL     OW28969   3.179   2.775   4.306  0.5169  0.2476 -0.2964
 5836SOL    HW128970   3.246   2.743   4.246  1.5284  0.6964  0.6053
 5836SOL    HW228971   3.192   2.870   4.298 -1.4494  0.5880  0.5322
 5837SOL     OW28972   4.451   2.540   0.180 -1.0572 -0.1391  0.4410
 5837SOL    HW128973   4.489   2.473   0.237 -0.7174 -0.4084 -0.1101
 5837SOL    HW228974   4.366   2.503   0.157 -1.1732  0.5532 -0.2545
 5838SOL     OW28975   0.322   0.279   7.353  0.6504  0.6493  0.3746
 5838SOL    HW128976   0.391   0.345   7.365  0.1480  0.8097  2.3094
 5838SOL    HW228977   0.267   0.295   7.429 -0.2473  2.7632 -0.7174
 5839SOL     OW28978   1.031   3.237   5.694  0.1581  0.0109  0.1861
 5839SOL    HW128979   1.115   3.214   5.732  0.7385 -1.2814 -1.8487
 5839SOL    HW228980   0.986   3.274   5.770  0.7793  2.9539 -0.8831
 5840SOL     OW28981   2.436   2.758  10.026  0.9983 -0.1396 -0.1225
 5840SOL    HW128982   2.407   2.668  10.014  1.4333 -0.1683 -0.9376
 5840SOL    HW228983   2.397   2.804   9.952 -1.0807 -1.4623  0.1540
 5841SOL     OW28984   2.617   4.536   4.871 -0.0020 -0.2898 -0.0543
 5841SOL    HW128985   2.659   4.601   4.815 -0.3651  0.9764  1.1552
 5841SOL    HW228986   2.535   4.574   4.903 -0.3501  0.7682 -2.1952
 5842SOL     OW28987   1.740   1.708   5.063  0.1576  0.1600 -0.0311
 5842SOL    HW128988   1.728   1.741   4.974 -0.1511 -0.2911 -0.1607
 5842SOL    HW228989   1.728   1.790   5.111  2.9864  0.8627 -0.5581
 5843SOL     OW28990   3.513   0.883   1.582  0.1270 -0.7422 -0.4426
 5843SOL    HW128991   3.540   0.797   1.549  0.9931 -0.9374  0.7791
 5843SOL    HW228992   3.565   0.889   1.662  0.0516 -0.1387 -0.4369
 5844SOL     OW28993   3.493   2.613   6.848  0.2686 -0.3860  0.1664
 5844SOL    HW128994   3.575   2.644   6.884  0.6165 -1.8627  0.6603
 5844SOL    HW228995   3.428   2.680   6.868 -0.4982 -1.4931  1.3573
 5845SOL     OW28996   3.005   2.489   1.768 -0.0462  0.1364  0.0378
 5845SOL    HW128997   3.053   2.430   1.826  0.5392  0.4703 -0.1063
 5845SOL    HW228998   3.000   2.445   1.683  0.6396  0.9307 -0.4083
 5846SOL     OW28999   4.271   1.635   1.952 -0.0089  0.4512 -0.1639
 5846SOL    HW129000   4.240   1.610   1.865 -1.1871  2.4998 -0.3211
 5846SOL    HW229001   4.260   1.553   2.000  0.5088 -0.9617 -2.4294
 5847SOL     OW29002   3.742   2.701  12.313  0.5785  0.3092 -0.2248
 5847SOL    HW129003   3.649   2.683  12.329  0.6791  1.6170  1.7972
 5847SOL    HW229004   3.767   2.617  12.275 -1.4968 -0.7507  0.6993
 5848SOL     OW29005   0.618   4.267  10.439  0.7929  0.0083  0.8245
 5848SOL    HW129006   0.575   4.352  10.430 -0.1835 -0.6164 -0.2837
 5848SOL    HW229007   0.684   4.271  10.370  0.0242 -0.5121  0.0651
 5849SOL     OW29008   0.878   0.988   2.230  0.3622 -0.6667  0.6595
 5849SOL    HW129009   0.880   1.062   2.289 -0.3579  1.1999 -1.6468
 5849SOL    HW229010   0.953   1.010   2.173  0.0798 -0.0487  0.5257
 5850SOL     OW29011   1.870   2.901   1.600 -0.5146 -0.0949 -0.8007
 5850SOL    HW129012   1.853   2.888   1.693  0.6173  0.8374 -0.4722
 5850SOL    HW229013   1.793   2.858   1.561 -1.3649 -0.3209  1.1656
 5851SOL     OW29014   0.983   3.978   8.648  0.1823 -0.2395 -0.0349
 5851SOL    HW129015   0.951   3.970   8.738 -0.5335  4.9109  0.1844
 5851SOL    HW229016   0.978   3.885   8.625 -1.0016  0.7063 -3.6852
 5852SOL     OW29017   0.874   3.785   7.663 -0.8350 -0.5827  0.1683
 5852SOL    HW129018   0.871   3.879   7.651 -4.3174 -0.8039 -0.7060
 5852SOL    HW229019   0.934   3.788   7.738  0.4060 -3.1819 -0.7147
 5853SOL     OW29020   2.832   2.745   7.924  0.0769 -0.0667 -0.2270
 5853SOL    HW129021   2.910   2.801   7.929 -0.8988  1.4349 -1.6021
 5853SOL    HW229022   2.845   2.696   7.843  2.3487  1.7463 -0.9595
 5854SOL     OW29023   4.706   0.744  16.762  0.3257 -0.7505  0.3885
 5854SOL    HW129024   4.703   0.807  16.690  2.5604  0.2414  1.1444
 5854SOL    HW229025   0.079   0.743  16.772  0.3196 -4.0607 -0.1823
 5855SOL     OW29026   2.322   1.219  15.982  0.3351  0.4692 -0.0202
 5855SOL    HW129027   2.240   1.170  15.983  0.3973  0.3754  0.3268
 5855SOL    HW229028   2.349   1.224  16.073  1.6559 -2.5985 -0.2401
 5856SOL     OW29029   2.549   2.968  10.131 -0.0351 -0.2396 -0.4416
 5856SOL    HW129030   2.560   3.016  10.049  0.8405 -1.3553 -0.9849
 5856SOL    HW229031   2.490   2.898  10.101  0.0384 -0.5878  0.2269
 5857SOL     OW29032   3.518   2.030   5.087 -0.5993 -0.6021  0.1581
 5857SOL    HW129033   3.509   1.938   5.063  0.4723 -0.6766  0.0773
 5857SOL    HW229034   3.475   2.086   5.022 -2.3848 -0.2601  1.5992
 5858SOL     OW29035   2.125   1.037  16.453 -0.3193  0.1251 -0.1134
 5858SOL    HW129036   2.156   0.992  16.374 -0.5589  1.0958 -0.7643
 5858SOL    HW229037   2.069   1.106  16.418  1.4261  0.7794 -1.5771
 5859SOL     OW29038   2.389   1.270   3.477 -0.2890 -0.4094 -0.1905
 5859SOL    HW129039   2.447   1.208   3.521 -2.6720 -2.0418  0.6860
 5859SOL    HW229040   2.328   1.208   3.437 -1.8636  1.0845 -0.1269
 5860SOL     OW29041   0.616   2.918   4.529 -0.3169  0.1232 -0.1985
 5860SOL    HW129042   0.704   2.912   4.494  0.6807  0.6646  2.1586
 5860SOL    HW229043   0.631   2.871   4.612  0.6896  2.5921  1.0329
 5861SOL     OW29044   0.368   1.162   4.983 -0.2489  0.4734 -0.3866
 5861SOL    HW129045   0.363   1.225   5.055 -0.2859 -1.1663  1.0385
 5861SOL    HW229046   0.426   1.091   5.009  0.2569  1.9041  2.3057
 5862SOL     OW29047   4.670   4.336   3.467  0.1880  0.0945  0.3439
 5862SOL    HW129048   4.575   4.338   3.462  0.2351  1.5787  0.1753
 5862SOL    HW229049   4.678   4.250   3.424  3.1091  0.0194  1.0444
 5863SOL     OW29050   2.845   1.109   4.619 -0.1778 -0.2024 -0.2355
 5863SOL    HW129051   2.921   1.143   4.572 -2.3269  2.0256 -2.1171
 5863SOL    HW229052   2.823   1.046   4.550  0.3305 -0.2359 -0.3704
 5864SOL     OW29053   1.014   2.221   7.150 -0.1394 -0.0107 -0.0349
 5864SOL    HW129054   0.960   2.146   7.126  0.0001 -0.6831  1.7432
 5864SOL    HW229055   1.100   2.180   7.141 -0.0851  0.1626 -0.3188
 5865SOL     OW29056   4.042   0.018   1.398 -0.0287 -0.2890  0.6539
 5865SOL    HW129057   4.005   4.652   1.401  1.5291 -0.9320  1.4995
 5865SOL    HW229058   4.012   0.037   1.310  1.3317  0.9565  0.4657
 5866SOL     OW29059   1.465   0.895  14.506  0.3887 -1.2153 -0.1568
 5866SOL    HW129060   1.508   0.973  14.542 -0.9459 -0.4627 -0.2004
 5866SOL    HW229061   1.531   0.826  14.520  2.0051  0.2595 -0.4563
 5867SOL     OW29062   2.639   2.334   2.629  0.1709  0.5556  0.4465
 5867SOL    HW129063   2.616   2.427   2.622  0.1321  0.5432  0.4127
 5867SOL    HW229064   2.636   2.316   2.723 -1.0915  0.7786  0.4425
 5868SOL     OW29065   0.839   0.754   0.178 -0.5718  0.0482  0.1251
 5868SOL    HW129066   0.749   0.722   0.173 -0.0720 -1.2652 -0.3914
 5868SOL    HW229067   0.830   0.825   0.115  1.4118  1.3472  1.3033
 5869SOL     OW29068   2.125   2.779   9.091  0.2687 -0.1534 -0.0492
 5869SOL    HW129069   2.047   2.805   9.041 -0.2127  0.8931  1.2417
 5869SOL    HW229070   2.084   2.736   9.166 -1.6231 -0.2108 -1.1097
 5870SOL     OW29071   3.291   3.181   3.138 -0.2218 -0.3047 -0.6162
 5870SOL    HW129072   3.230   3.161   3.210  1.3955 -1.4828  0.4252
 5870SOL    HW229073   3.353   3.109   3.143  1.6464  1.1424 -3.1784
 5871SOL     OW29074   3.339   0.933   5.693  0.2914  0.3348 -0.1106
 5871SOL    HW129075   3.340   0.839   5.711 -1.0031  0.2377 -0.5605
 5871SOL    HW229076   3.401   0.933   5.620  2.7302  2.1398  1.9622
 5872SOL     OW29077   1.223   0.738  16.157  0.0330  0.0522  0.3707
 5872SOL    HW129078   1.315   0.738  16.183  0.3109 -1.6058 -0.5906
 5872SOL    HW229079   1.174   0.718  16.236 -0.1727 -0.1066  0.2057
 5873SOL     OW29080   3.941   1.405  16.210 -0.4105  0.1539 -0.0571
 5873SOL    HW129081   4.012   1.469  16.212 -1.3117  1.1946 -1.2363
 5873SOL    HW229082   3.974   1.358  16.287 -0.8661 -1.2731 -0.7325
 5874SOL     OW29083   0.802   0.886   5.367  0.3312 -0.2739  0.0706
 5874SOL    HW129084   0.877   0.826   5.370  0.2279 -0.4661 -1.3029
 5874SOL    HW229085   0.734   0.834   5.325 -0.6922  0.0467  1.3372
 5875SOL     OW29086   1.242   4.246   7.206 -0.0575  0.2043  0.3159
 5875SOL    HW129087   1.212   4.236   7.296 -0.2003  1.4773  0.4134
 5875SOL    HW229088   1.204   4.332   7.184 -1.1946 -0.6263 -1.0057
 5876SOL     OW29089   1.894   3.252   7.894  0.2851 -0.3364  0.9030
 5876SOL    HW129090   1.878   3.318   7.962  1.3206  0.5985  0.2209
 5876SOL    HW229091   1.804   3.222   7.896  0.5268 -1.0319  1.5881
 5877SOL     OW29092   0.071   1.070   0.284  0.2631  0.4329 -0.3095
 5877SOL    HW129093   0.094   1.064   0.191 -1.1753 -1.0887 -0.5679
 5877SOL    HW229094   4.700   1.046   0.282  0.3844 -0.0506 -0.0092
 5878SOL     OW29095   1.205   3.665   7.742  0.2248  0.6928 -0.6058
 5878SOL    HW129096   1.127   3.674   7.797 -1.4304  0.0232 -2.8714
 5878SOL    HW229097   1.264   3.719   7.795 -0.2968  2.2569 -1.6099
 5879SOL     OW29098   1.691   4.138   8.706  0.5259 -0.7972 -0.1606
 5879SOL    HW129099   1.779   4.167   8.683 -0.9845  1.5367 -2.9795
 5879SOL    HW229100   1.711   4.044   8.709  0.7102 -0.7921 -1.0952
 5880SOL     OW29101   1.475   3.558  11.994  0.4596 -0.1917  0.0397
 5880SOL    HW129102   1.388   3.521  11.976  1.4024 -1.5475 -1.7607
 5880SOL    HW229103   1.491   3.617  11.921 -1.8027  0.8272  0.3693
 5881SOL     OW29104   2.725   4.112   3.719  0.4177  0.1993  0.4394
 5881SOL    HW129105   2.668   4.081   3.648  2.3493  0.4128 -1.2053
 5881SOL    HW229106   2.664   4.157   3.777 -0.5762 -2.3312  1.3542
 5882SOL     OW29107   0.247   3.423   2.399 -0.1273 -0.3324  0.6235
 5882SOL    HW129108   0.235   3.343   2.347 -1.2343  0.4581 -0.3412
 5882SOL    HW229109   0.157   3.455   2.406  1.2294  3.1656  1.8912
 5883SOL     OW29110   2.018   3.326  16.950 -0.6475  0.5253 -0.3410
 5883SOL    HW129111   2.003   3.411  16.991  0.5322  0.3429  0.5006
 5883SOL    HW229112   1.935   3.307  16.907 -1.0931  1.9057 -0.0985
 5884SOL     OW29113   3.029   2.883   8.196 -0.1312 -0.0959 -0.1038
 5884SOL    HW129114   2.985   2.966   8.212 -3.4514 -1.9281  0.2825
 5884SOL    HW229115   3.043   2.879   8.101  1.6978  0.0750  0.1568
 5885SOL     OW29116   2.508   0.247   1.837 -0.4952  0.1006 -0.3799
 5885SOL    HW129117   2.462   0.170   1.870  1.3946 -0.1649  1.5623
 5885SOL    HW229118   2.478   0.256   1.746 -1.1214  1.2922 -0.0545
 5886SOL     OW29119   1.710   2.276   1.966  0.1318  0.7224 -0.0915
 5886SOL    HW129120   1.775   2.344   1.981  0.9231 -0.0189 -0.1754
 5886SOL    HW229121   1.653   2.300   2.040 -1.0543  0.3542 -0.8863
 5887SOL     OW29122   4.656   3.606   5.161 -0.3559 -0.4178 -0.0906
 5887SOL    HW129123   0.003   3.666   5.136 -1.8293  2.1966  2.1244
 5887SOL    HW229124   4.577   3.656   5.144  1.7184  2.4391 -1.1497
 5888SOL     OW29125   2.307   4.536   9.024 -0.2723  0.6572  0.1843
 5888SOL    HW129126   2.231   4.497   8.982  0.7123 -0.9808 -0.0803
 5888SOL    HW229127   2.292   4.631   9.030  0.7528  0.8621 -0.5707
 5889SOL     OW29128   4.342   4.323   7.231  0.1588 -0.4905 -0.1695
 5889SOL    HW129129   4.298   4.248   7.191  0.5732 -0.9098  0.1563
 5889SOL    HW229130   4.359   4.374   7.152 -0.9285 -0.0816 -0.1248
 5890SOL     OW29131   3.024   3.827   8.451 -0.0780  0.0203 -0.4332
 5890SOL    HW129132   3.043   3.879   8.374  0.3622 -2.9944 -2.3426
 5890SOL    HW229133   3.020   3.894   8.519  0.7310  0.1504 -0.5159
 5891SOL     OW29134   2.431   1.711  15.348 -0.3272 -0.1667 -0.0840
 5891SOL    HW129135   2.427   1.760  15.430 -2.5038 -2.4579  1.1916
 5891SOL    HW229136   2.362   1.645  15.358 -0.2427 -0.1930  0.3464
 5892SOL     OW29137   0.344   1.819   3.352 -0.0412  0.1662  0.1204
 5892SOL    HW129138   0.328   1.860   3.437  0.0420 -0.5770  0.5024
 5892SOL    HW229139   0.350   1.888   3.287 -2.0714 -2.6145 -3.0104
 5893SOL     OW29140   1.685   3.579  16.580  0.8220 -0.5855 -0.0721
 5893SOL    HW129141   1.736   3.647  16.537  2.1701 -1.4863  0.0901
 5893SOL    HW229142   1.595   3.598  16.553  1.3551  0.9266 -0.7930
 5894SOL     OW29143   3.550   4.465  14.951 -0.4503  0.4124  0.4577
 5894SOL    HW129144   3.512   4.534  14.896 -1.8590 -1.2465 -0.6546
 5894SOL    HW229145   3.481   4.399  14.947 -0.1495  0.2452 -1.7658
 5895SOL     OW29146   0.062   0.386   9.562 -0.2864 -0.3136  0.1252
 5895SOL    HW129147   4.692   0.365   9.577 -0.7156  2.0373  0.7851
 5895SOL    HW229148   0.089   0.409   9.651  0.7037 -1.5654  0.1415
 5896SOL     OW29149   4.519   4.030   1.882 -0.0333 -0.0796 -0.4963
 5896SOL    HW129150   4.452   3.967   1.911 -0.4822  1.2076  1.2256
 5896SOL    HW229151   4.591   4.005   1.940  0.3029 -0.6468 -1.1478
 5897SOL     OW29152   1.272   2.332   9.690 -0.6996  0.4217  0.2116
 5897SOL    HW129153   1.288   2.342   9.784 -0.9740 -0.3412  0.3382
 5897SOL    HW229154   1.303   2.242   9.680 -0.0791  0.8450 -1.5347
 5898SOL     OW29155   0.568   1.470  12.068 -0.2306  0.3645 -0.3507
 5898SOL    HW129156   0.646   1.485  12.121 -0.3160 -0.7302  0.0851
 5898SOL    HW229157   0.528   1.400  12.119  0.2035  0.0008 -0.5059
 5899SOL     OW29158   0.131   2.030   6.575 -0.1633 -0.3924  0.2052
 5899SOL    HW129159   0.206   2.065   6.527 -0.4190 -0.0571  0.0438
 5899SOL    HW229160   0.165   1.942   6.588  0.8779 -0.0534 -0.2317
 5900SOL     OW29161   1.411   4.090   6.810 -0.5455  0.4537 -0.6456
 5900SOL    HW129162   1.442   4.176   6.782 -0.7759 -0.1499 -2.7215
 5900SOL    HW229163   1.350   4.074   6.738  0.5878 -0.6667 -1.3399
 5901SOL     OW29164   3.629   1.134   6.666  0.7561  0.3328  0.0285
 5901SOL    HW129165   3.699   1.167   6.722  0.6225 -1.9218  1.4945
 5901SOL    HW229166   3.664   1.064   6.611  1.2597 -0.3880  1.2901
 5902SOL     OW29167   0.317   0.098   5.345  0.2296  0.2436  0.4283
 5902SOL    HW129168   0.222   0.107   5.346 -0.0174 -2.4119  0.9000
 5902SOL    HW229169   0.343   0.173   5.398  1.4327  0.8421 -1.0052
 5903SOL     OW29170   0.238   3.828   1.402  0.1933  0.0826 -0.0363
 5903SOL    HW129171   0.228   3.763   1.471  0.2978  0.4724  0.3407
 5903SOL    HW229172   0.171   3.892   1.426  1.7618  2.0733 -0.9583
 5904SOL     OW29173   1.003   2.557   5.604  0.2322  0.1713  0.2086
 5904SOL    HW129174   1.011   2.632   5.546 -2.6966  1.1357  1.0211
 5904SOL    HW229175   0.918   2.567   5.648 -1.1708  0.2634 -2.5267
 5905SOL     OW29176   2.018   2.309   7.865  0.4642  0.3076  0.0553
 5905SOL    HW129177   1.999   2.326   7.772 -0.9124  0.0310  0.2865
 5905SOL    HW229178   2.041   2.394   7.902 -1.0729  0.5661  0.4269
 5906SOL     OW29179   3.056   4.207  12.900 -0.9790 -0.2034 -0.4854
 5906SOL    HW129180   3.147   4.235  12.890 -0.4950 -1.5701  0.1518
 5906SOL    HW229181   3.035   4.234  12.989 -0.7786 -0.3788 -0.3838
 5907SOL     OW29182   2.499   2.549  12.318  0.0071  0.0074  0.0078
 5907SOL    HW129183   2.410   2.569  12.346  0.4326  0.7644  0.8137
 5907SOL    HW229184   2.531   2.632  12.283 -1.2059  0.4425 -0.0689
 5908SOL     OW29185   4.230   2.491  15.647 -0.0176 -0.4474  0.2332
 5908SOL    HW129186   4.322   2.504  15.625  0.4767 -0.8257  2.0302
 5908SOL    HW229187   4.188   2.498  15.562  0.8209  0.2452 -0.1186
 5909SOL     OW29188   1.486   3.925   2.966  0.1451 -0.3722  1.0325
 5909SOL    HW129189   1.470   3.982   2.891 -1.5663 -1.1367  0.8043
 5909SOL    HW229190   1.393   3.913   2.985  0.4274 -0.0921  2.5741
 5910SOL     OW29191   2.802   2.649  11.989  0.0427  0.1730 -0.5360
 5910SOL    HW129192   2.886   2.615  11.959  0.1488 -1.0071  1.0888
 5910SOL    HW229193   2.830   2.740  11.994  1.2089 -0.1537 -1.1865
 5911SOL     OW29194   3.521   4.429  15.264  0.0476 -0.0193  0.4648
 5911SOL    HW129195   3.589   4.361  15.259 -0.8344 -0.7619 -1.4093
 5911SOL    HW229196   3.487   4.422  15.175  0.2540  1.4459  0.2771
 5912SOL     OW29197   3.358   0.888  14.120 -0.0074  0.5123 -0.2578
 5912SOL    HW129198   3.391   0.930  14.041  2.2749 -0.7926  0.0172
 5912SOL    HW229199   3.270   0.869  14.087 -0.0530 -2.7084  1.6805
 5913SOL     OW29200   0.086   3.353   1.078 -0.2626 -0.6696 -0.0103
 5913SOL    HW129201   0.060   3.444   1.091  0.8751 -0.0482 -2.0415
 5913SOL    HW229202   0.161   3.351   1.137  0.4470  0.0877 -0.8932
 5914SOL     OW29203   1.672   3.229  17.124  0.7649  0.0659 -0.7269
 5914SOL    HW129204   1.761   3.196  17.140 -1.0991 -3.3083  2.5461
 5914SOL    HW229205   1.697   3.310  17.080 -1.9841  0.8608 -0.8014
 5915SOL     OW29206   0.186   1.113  16.225  0.1977 -0.0240  0.0797
 5915SOL    HW129207   0.098   1.083  16.202 -0.7250  0.1881  3.3114
 5915SOL    HW229208   0.243   1.050  16.181  1.1710  1.2881 -0.5285
 5916SOL     OW29209   3.973   1.809   5.548 -0.3249  0.8255  0.1785
 5916SOL    HW129210   3.896   1.761   5.577 -0.2703 -1.2113 -3.1216
 5916SOL    HW229211   3.957   1.813   5.454 -0.6480 -2.7703  0.0969
 5917SOL     OW29212   2.590   3.107  10.348 -0.1792 -0.6979  0.3294
 5917SOL    HW129213   2.564   3.187  10.303 -0.4269 -1.7207 -1.3567
 5917SOL    HW229214   2.573   3.060  10.266  1.8290 -1.2719  0.2366
 5918SOL     OW29215   4.707   3.519   1.401  0.2074  0.0922 -0.0134
 5918SOL    HW129216   4.705   3.610   1.431 -0.3888 -0.4590  1.6524
 5918SOL    HW229217   0.079   3.504   1.388  0.4442  0.8382  0.8318
 5919SOL     OW29218   1.685   2.439   8.292 -0.6506 -0.3154 -0.1758
 5919SOL    HW129219   1.777   2.439   8.319 -1.1169  3.3003  1.4092
 5919SOL    HW229220   1.688   2.517   8.236  0.1955  1.3649  2.2177
 5920SOL     OW29221   1.685   0.266   7.654  0.4312 -0.0005  0.3119
 5920SOL    HW129222   1.716   0.355   7.668  0.0037  0.5234 -2.1819
 5920SOL    HW229223   1.759   0.215   7.688  2.0672  0.2738 -2.8676
 5921SOL     OW29224   2.137   0.236   8.940  0.4079 -0.2687 -0.0817
 5921SOL    HW129225   2.102   0.302   9.001 -0.6901 -0.1899 -0.8049
 5921SOL    HW229226   2.084   0.243   8.861  1.4269  0.6266 -0.6930
 5922SOL     OW29227   1.201   4.493   4.157  0.3358  0.4057 -0.4649
 5922SOL    HW129228   1.111   4.476   4.184 -0.1489  1.6665 -1.3047
 5922SOL    HW229229   1.242   4.408   4.178  0.1780  0.2399 -0.8316
 5923SOL     OW29230   1.489   3.718   1.292  0.2933  0.2208 -0.0704
 5923SOL    HW129231   1.429   3.739   1.220  1.0009  1.3472 -0.3340
 5923SOL    HW229232   1.503   3.806   1.327  0.8017  1.0868 -2.4235
 5924SOL     OW29233   0.755   2.702   6.331  0.1001  0.4919 -0.3936
 5924SOL    HW129234   0.670   2.740   6.352  1.0471  1.0429  2.3687
 5924SOL    HW229235   0.760   2.636   6.400  0.1816 -0.7407 -1.5614
 5925SOL     OW29236   2.726   1.102   0.545  0.1060 -0.5376  0.3536
 5925SOL    HW129237   2.651   1.159   0.558  3.0776  3.9595 -1.9990
 5925SOL    HW229238   2.797   1.166   0.537 -0.5111  0.1402  0.3032
 5926SOL     OW29239   4.289   1.443   5.599  0.7530  0.6651 -0.2135
 5926SOL    HW129240   4.213   1.479   5.554 -0.8809  1.3965  3.1442
 5926SOL    HW229241   4.355   1.461   5.532  1.6704 -0.6216  0.3512
 5927SOL     OW29242   3.008   2.475   0.566 -0.3755 -0.0098  0.0326
 5927SOL    HW129243   3.084   2.438   0.521 -1.6176  0.6777 -2.6428
 5927SOL    HW229244   2.998   2.406   0.632 -0.7402  0.2935  0.2935
 5928SOL     OW29245   2.629   3.009   2.338 -0.3382  0.1371 -1.0436
 5928SOL    HW129246   2.617   2.924   2.294  1.6093 -1.8435  2.2279
 5928SOL    HW229247   2.721   3.035   2.338  0.3144 -2.1342  1.6795
 5929SOL     OW29248   1.790   4.277  17.349  0.1167 -0.0655  0.0784
 5929SOL    HW129249   1.760   4.186  17.344  1.0240 -0.3541 -0.1571
 5929SOL    HW229250   1.876   4.281  17.307 -0.8509  2.3594 -1.6295
 5930SOL     OW29251   3.914   3.405   3.100 -0.2820 -0.3417  0.1111
 5930SOL    HW129252   3.825   3.399   3.064 -0.4767  3.4055 -0.0771
 5930SOL    HW229253   3.956   3.326   3.065 -0.5058 -0.7162  0.6946
 5931SOL     OW29254   2.304   0.884  17.251 -0.4578  0.0768  0.0537
 5931SOL    HW129255   2.358   0.806  17.265  1.4025  1.2116 -0.7078
 5931SOL    HW229256   2.340   0.935  17.324  3.2911  1.4414 -2.7366
 5932SOL     OW29257   1.228   1.112  12.127 -0.4547 -0.1185  0.1095
 5932SOL    HW129258   1.204   1.141  12.039 -1.2078 -2.1567 -0.3417
 5932SOL    HW229259   1.150   1.117  12.181  0.2969 -2.3824  1.4013
 5933SOL     OW29260   4.026   1.329   6.970  0.0871 -0.3889 -0.0809
 5933SOL    HW129261   4.083   1.267   6.925  1.0188 -0.2768  0.9634
 5933SOL    HW229262   3.959   1.265   6.996 -2.6874  2.5270 -0.0389
 5934SOL     OW29263   2.052   1.195   0.618 -0.1056 -0.4001 -0.1312
 5934SOL    HW129264   2.105   1.164   0.545  1.4061  1.3623  0.2112
 5934SOL    HW229265   2.065   1.123   0.680  1.5864 -1.5451 -1.8537
 5935SOL     OW29266   3.434   4.324   6.938  0.8137  0.6928  0.5569
 5935SOL    HW129267   3.346   4.360   6.928  0.7236 -0.1950 -1.9799
 5935SOL    HW229268   3.465   4.293   6.852  0.8414 -0.2108  0.8967
 5936SOL     OW29269   0.270   1.012   6.078  0.5601 -0.0002 -0.2194
 5936SOL    HW129270   0.258   1.083   6.014  1.3693 -1.5790 -2.0986
 5936SOL    HW229271   0.336   0.960   6.034 -1.2278 -1.3390 -1.3236
 5937SOL     OW29272   1.958   4.062  10.455  0.3655 -0.0415  0.3360
 5937SOL    HW129273   1.867   4.053  10.428  0.6544 -0.2734 -0.5777
 5937SOL    HW229274   1.982   3.977  10.492 -1.5635 -1.0397 -0.7329
 5938SOL     OW29275   2.503   3.710   6.163 -0.0136 -0.6742 -0.1473
 5938SOL    HW129276   2.553   3.791   6.174 -1.7983  0.3652  0.2478
 5938SOL    HW229277   2.417   3.749   6.177  0.3425  0.0300  0.1118
 5939SOL     OW29278   0.358   2.561   2.288 -0.8513  0.0846 -0.2984
 5939SOL    HW129279   0.381   2.509   2.211  0.2196  1.7014 -1.0787
 5939SOL    HW229280   0.376   2.506   2.364  0.6970  0.4064 -0.4424
 5940SOL     OW29281   1.219   1.841   6.140  0.0968  0.4346  0.0632
 5940SOL    HW129282   1.124   1.838   6.147  0.0218  2.1648 -0.1576
 5940SOL    HW229283   1.251   1.808   6.224 -0.2561  0.7508  0.3224
 5941SOL     OW29284   3.395   3.964   7.805 -0.3765 -0.6469  0.8501
 5941SOL    HW129285   3.468   3.948   7.864 -0.6607  1.9722  1.8930
 5941SOL    HW229286   3.421   3.940   7.716  2.5056 -0.7209  1.7018
 5942SOL     OW29287   0.287   2.150   5.917 -0.4888  0.6319 -0.1753
 5942SOL    HW129288   0.264   2.064   5.882  0.4728 -0.1661  1.1749
 5942SOL    HW229289   0.260   2.204   5.842  1.2541  1.0666 -0.4725
 5943SOL     OW29290   0.035   2.447   8.586  0.0164 -0.6364  0.5464
 5943SOL    HW129291   4.713   2.480   8.509  0.1260  1.8156  1.5307
 5943SOL    HW229292   0.042   2.529   8.635 -0.0185 -1.3556  1.7504
 5944SOL     OW29293   3.527   4.282  16.784 -0.1538  0.0422 -0.3238
 5944SOL    HW129294   3.503   4.227  16.710  1.9306  1.0272 -1.7158
 5944SOL    HW229295   3.622   4.291  16.778 -0.0538 -0.6372  0.2901
 5945SOL     OW29296   2.926   3.768   9.611 -0.4938  0.1509 -0.1540
 5945SOL    HW129297   2.859   3.701   9.625  0.7943 -1.2851 -0.8838
 5945SOL    HW229298   3.002   3.715   9.586  0.6082  0.8755  1.6492
 5946SOL     OW29299   0.054   3.785   8.751 -0.4442  0.5060  0.0892
 5946SOL    HW129300   4.691   3.825   8.733 -1.2062 -0.8699  0.6433
 5946SOL    HW229301   0.039   3.744   8.836 -0.1831 -0.4036 -0.3018
 5947SOL     OW29302   3.651   1.394  14.967 -0.3247 -0.2338 -0.2500
 5947SOL    HW129303   3.676   1.323  14.908 -1.0982 -0.9553  0.3039
 5947SOL    HW229304   3.696   1.470  14.928 -0.5407 -0.7218 -1.4504
 5948SOL     OW29305   2.377   0.499  15.616 -0.2785  0.1361  0.1204
 5948SOL    HW129306   2.465   0.498  15.578 -0.9704 -0.9191 -1.4187
 5948SOL    HW229307   2.383   0.426  15.677 -1.6622  0.9014  1.1914
 5949SOL     OW29308   0.071   3.512   2.130 -0.3363  0.3593 -0.3363
 5949SOL    HW129309   0.057   3.587   2.072 -1.6965  1.2867  1.1862
 5949SOL    HW229310   4.715   3.462   2.106 -1.0208 -0.4852  3.7492
 5950SOL     OW29311   1.455   0.910   2.368  0.0887  0.0640 -0.1427
 5950SOL    HW129312   1.445   0.815   2.369 -2.4942  0.3370 -0.8975
 5950SOL    HW229313   1.473   0.920   2.274  1.0386  1.1037  0.1432
 5951SOL     OW29314   0.166   3.233  12.279  0.2988  0.4623  0.5297
 5951SOL    HW129315   0.183   3.203  12.190  0.9774 -1.1199  1.1862
 5951SOL    HW229316   0.208   3.318  12.278  1.7911 -0.3092 -0.6456
 5952SOL     OW29317   0.211   3.950   7.110  0.2383  0.1175  0.4035
 5952SOL    HW129318   0.206   4.015   7.040  1.8762  0.1903  0.3627
 5952SOL    HW229319   0.204   3.870   7.057 -1.5549 -1.0081  2.3242
 5953SOL     OW29320   0.140   0.460   5.562  0.3102  0.6536 -0.3342
 5953SOL    HW129321   0.046   0.443   5.557  0.2244  0.8620  0.5738
 5953SOL    HW229322   0.146   0.550   5.592 -0.5990  0.4351  0.4755
 5954SOL     OW29323   4.595   0.561   3.131  0.3609  0.1484 -0.3730
 5954SOL    HW129324   4.649   0.515   3.196 -2.1173 -0.5494  1.1813
 5954SOL    HW229325   4.578   0.646   3.172 -0.3585  1.1562 -2.7704
 5955SOL     OW29326   0.423   4.394   4.267 -0.0234 -0.3988  0.0528
 5955SOL    HW129327   0.359   4.344   4.216  0.4728  0.6631 -1.6288
 5955SOL    HW229328   0.480   4.319   4.287 -2.6618 -2.4269 -0.0184
 5956SOL     OW29329   1.321   0.440   2.934  0.0280  0.2501  0.1800
 5956SOL    HW129330   1.319   0.349   2.902 -1.2220  0.4343 -0.2554
 5956SOL    HW229331   1.375   0.424   3.011  0.0146 -1.2328 -0.1067
 5957SOL     OW29332   4.584   0.348   5.571  0.7625 -0.8706 -0.2576
 5957SOL    HW129333   4.517   0.355   5.639 -2.0285 -0.4876 -3.0945
 5957SOL    HW229334   4.548   0.274   5.523  0.1922 -1.6706  1.3956
 5958SOL     OW29335   2.591   1.140   1.493 -0.4543 -0.8224 -0.4814
 5958SOL    HW129336   2.614   1.215   1.439 -0.8390 -1.1226 -1.0475
 5958SOL    HW229337   2.538   1.170   1.567  0.2818  2.1771 -1.1774
 5959SOL     OW29338   2.083   1.817  16.956 -0.0875 -0.4158  0.1771
 5959SOL    HW129339   2.108   1.878  16.887 -0.7541 -2.0030 -1.4659
 5959SOL    HW229340   2.166   1.784  16.990 -1.0978 -0.8525  2.2343
 5960SOL     OW29341   4.041   4.052   4.150  0.3676  0.4110 -1.0235
 5960SOL    HW129342   4.018   4.143   4.131  1.0587  0.8709  0.3324
 5960SOL    HW229343   3.979   4.011   4.091 -1.0954  1.6934 -0.3679
 5961SOL     OW29344   0.261   0.267   3.910 -0.0408 -0.3809 -0.3065
 5961SOL    HW129345   0.348   0.243   3.942  0.1535 -1.1259 -1.4308
 5961SOL    HW229346   0.229   0.307   3.991  1.0816  0.3116 -0.2104
 5962SOL     OW29347   0.235   4.669   1.394  0.0630  0.4094  0.1222
 5962SOL    HW129348   0.287   4.591   1.412 -0.7221 -0.3592 -0.8864
 5962SOL    HW229349   0.284   0.022   1.427  1.4609 -0.3579 -0.2006
 5963SOL     OW29350   3.696   3.488  17.057  0.6517 -0.9914  0.0147
 5963SOL    HW129351   3.612   3.481  17.012 -0.2318 -1.8304  1.7969
 5963SOL    HW229352   3.742   3.503  16.974  1.0581 -1.3399  0.1744
 5964SOL     OW29353   3.617   4.218   7.702 -0.4671  0.4020  0.4320
 5964SOL    HW129354   3.675   4.155   7.658 -1.3727 -0.5956  0.6684
 5964SOL    HW229355   3.623   4.288   7.637  1.2343 -0.0001  0.1566
 5965SOL     OW29356   1.876   0.698   9.199 -0.1824 -0.3557 -0.4038
 5965SOL    HW129357   1.932   0.770   9.229  3.9554 -3.4956 -0.6249
 5965SOL    HW229358   1.837   0.666   9.280  1.0554 -0.2366  0.2214
 5966SOL     OW29359   4.192   0.105  11.943 -0.3934 -0.0373 -0.1223
 5966SOL    HW129360   4.281   0.113  11.910 -0.2069  0.6040  0.5157
 5966SOL    HW229361   4.146   0.174  11.895 -1.0236  1.4684  2.6493
 5967SOL     OW29362   2.197   0.645  16.367 -0.0720  0.1523 -0.3050
 5967SOL    HW129363   2.228   0.734  16.349 -0.2107  0.6314  1.8703
 5967SOL    HW229364   2.180   0.650  16.461 -0.1758  0.4331 -0.3369
 5968SOL     OW29365   1.835   3.119  12.269 -0.2965  0.0631 -0.4893
 5968SOL    HW129366   1.898   3.092  12.335  0.5942 -1.2227 -1.8577
 5968SOL    HW229367   1.873   3.204  12.247  0.3847 -0.2701 -0.5828
 5969SOL     OW29368   3.144   2.666   8.593 -0.1702 -0.0735  1.0723
 5969SOL    HW129369   3.234   2.636   8.604 -1.1200 -2.2678  2.7483
 5969SOL    HW229370   3.125   2.698   8.681 -2.6703  0.1326  0.4637
 5970SOL     OW29371   3.312   3.024   9.465 -0.1374  0.2084  0.0290
 5970SOL    HW129372   3.225   2.987   9.480 -0.5505  0.4977 -1.6419
 5970SOL    HW229373   3.341   2.983   9.383 -0.1438  1.8032 -0.7578
 5971SOL     OW29374   1.710   1.292  15.489  0.5300 -0.4283  0.0690
 5971SOL    HW129375   1.692   1.250  15.405  0.8048  1.3541 -0.8844
 5971SOL    HW229376   1.699   1.226  15.557  0.8936 -0.7134 -0.1438
 5972SOL     OW29377   1.984   0.978  14.211 -0.0651  0.3840  0.2092
 5972SOL    HW129378   1.950   0.950  14.296 -0.2800  0.9486  0.3081
 5972SOL    HW229379   2.042   1.046  14.245 -0.9351  0.9277  0.5959
 5973SOL     OW29380   2.105   1.892   6.286 -0.0527  0.0726  0.3944
 5973SOL    HW129381   2.188   1.928   6.255 -0.5977 -0.2218 -1.3967
 5973SOL    HW229382   2.121   1.798   6.277 -1.9841 -0.1377 -0.7664
 5974SOL     OW29383   0.056   4.582   9.534  0.3690 -0.0503  0.6181
 5974SOL    HW129384   0.071   4.569   9.628  2.2810 -2.5804 -0.0438
 5974SOL    HW229385   0.096   4.667   9.512 -0.0909  0.2357  0.8960
 5975SOL     OW29386   4.225   3.994   6.986 -0.0617  0.1700 -0.3418
 5975SOL    HW129387   4.132   4.005   6.965  0.2639 -0.7454 -2.2855
 5975SOL    HW229388   4.227   4.014   7.080  1.6027  0.1849 -0.3760
 5976SOL     OW29389   3.269   3.197  17.545  0.3189  0.6432 -0.3409
 5976SOL    HW129390   3.298   3.143  17.471 -3.1575 -1.2139 -0.3209
 5976SOL    HW229391   3.184   3.227  17.514  0.8945  0.8149 -1.7976
 5977SOL     OW29392   2.954   1.795   6.814  0.4156 -0.1747 -0.0212
 5977SOL    HW129393   2.863   1.817   6.793  0.6154 -0.2965 -1.0152
 5977SOL    HW229394   2.998   1.877   6.791  3.5978 -1.6863  0.7989
 5978SOL     OW29395   1.497   2.084   4.331 -0.6954  0.3262  0.4345
 5978SOL    HW129396   1.425   2.140   4.302  1.0624  1.6184 -1.4999
 5978SOL    HW229397   1.475   1.997   4.299 -0.9483  0.3343  0.5828
 5979SOL     OW29398   3.593   2.373   4.452 -0.6006  0.4732  0.3427
 5979SOL    HW129399   3.631   2.452   4.414 -1.5138  2.1132  2.8298
 5979SOL    HW229400   3.504   2.406   4.464  0.2142  3.4976 -1.9037
 5980SOL     OW29401   4.119   1.809  15.663 -0.1328 -0.4398  0.4468
 5980SOL    HW129402   4.159   1.801  15.750  0.2437 -0.1410  0.2990
 5980SOL    HW229403   4.049   1.744  15.658 -0.4326 -0.1727  1.1147
 5981SOL     OW29404   1.128   1.322   5.144  0.4056  0.2880 -0.1235
 5981SOL    HW129405   1.036   1.337   5.166  0.2440 -2.1429  0.8030
 5981SOL    HW229406   1.151   1.414   5.129 -1.3076  0.7385  0.0598
 5982SOL     OW29407   0.167   4.009  16.655  0.2887  0.3502  0.0959
 5982SOL    HW129408   0.106   3.936  16.665  0.4807  0.2924  0.9013
 5982SOL    HW229409   0.145   4.045  16.570 -0.9242 -0.3708  0.0967
 5983SOL     OW29410   1.889   2.425   0.322  0.1618 -0.1324 -0.1327
 5983SOL    HW129411   1.962   2.460   0.374  0.3811 -0.2470 -0.3646
 5983SOL    HW229412   1.863   2.350   0.375 -1.4027 -0.2666 -1.1269
 5984SOL     OW29413   4.548   4.116   8.676  0.4102  0.4864  0.4032
 5984SOL    HW129414   4.565   4.171   8.599  1.0414  2.2002  1.7720
 5984SOL    HW229415   4.635   4.095   8.709  0.8560  0.8504 -0.5448
 5985SOL     OW29416   3.725   1.877  10.063 -0.0742 -0.1136  0.1883
 5985SOL    HW129417   3.740   1.819  10.138 -1.1691 -1.1985 -0.4393
 5985SOL    HW229418   3.664   1.824  10.012  0.2190 -0.1798 -0.0932
 5986SOL     OW29419   1.782   3.821  16.459  0.3132  0.3110 -0.0509
 5986SOL    HW129420   1.814   3.875  16.531  2.5609 -1.8424  0.5968
 5986SOL    HW229421   1.801   3.878  16.385 -0.4141  1.2092  0.4639
 5987SOL     OW29422   1.242   3.477   5.879  0.0932  0.1566  0.5007
 5987SOL    HW129423   1.266   3.386   5.861  0.8645  0.3682  0.4780
 5987SOL    HW229424   1.205   3.468   5.967 -1.4544 -2.7338 -0.4567
 5988SOL     OW29425   4.104   0.175   0.181  0.3199  0.0697  0.4556
 5988SOL    HW129426   4.144   0.226   0.251  0.3981  0.1828  0.3275
 5988SOL    HW229427   4.176   0.159   0.120  1.7871  0.6536  2.0686
 5989SOL     OW29428   3.735   0.529   5.938 -0.7043 -0.6725 -0.4505
 5989SOL    HW129429   3.690   0.579   5.870 -1.9939 -0.8506  0.2694
 5989SOL    HW229430   3.766   0.600   5.993 -1.1156 -0.5768 -0.3431
 5990SOL     OW29431   4.156   3.626  12.538  0.2255  0.0001  0.4145
 5990SOL    HW129432   4.235   3.620  12.484  1.2241  0.6083  1.7929
 5990SOL    HW229433   4.150   3.721  12.550 -0.3422 -0.0042  0.1517
 5991SOL     OW29434   4.413   3.721   2.990  0.1803  0.2903  0.1034
 5991SOL    HW129435   4.366   3.797   2.956  1.9300  0.2354 -2.4232
 5991SOL    HW229436   4.478   3.772   3.037  0.0791  1.1678 -0.7209
 5992SOL     OW29437   2.070   2.852   8.242 -0.3704  0.3858  0.9442
 5992SOL    HW129438   2.118   2.785   8.194 -0.7647 -0.5691  1.8787
 5992SOL    HW229439   2.065   2.818   8.332 -2.6587  1.0184  1.0437
 5993SOL     OW29440   3.022   2.280   4.521  0.0502 -0.0629  0.8455
 5993SOL    HW129441   2.959   2.334   4.568 -0.4654  0.4451 -0.4465
 5993SOL    HW229442   3.049   2.330   4.444 -1.0125  2.7486  2.3294
 5994SOL     OW29443   3.799   1.171  17.598  0.2203 -0.8346 -0.3575
 5994SOL    HW129444   3.725   1.134  17.645  3.0296 -3.4376  2.0516
 5994SOL    HW229445   3.834   1.091  17.559  1.2401 -0.0812 -1.0069
 5995SOL     OW29446   3.870   4.637   2.213 -0.9459 -0.0858 -0.2000
 5995SOL    HW129447   3.840   4.610   2.299  0.0839  2.6421  1.0170
 5995SOL    HW229448   3.865   4.554   2.166 -2.3599 -0.7502  1.1546
 5996SOL     OW29449   4.550   2.390  10.286  0.4358 -0.2556 -0.2158
 5996SOL    HW129450   4.467   2.397  10.334  1.3361  0.3722  1.2484
 5996SOL    HW229451   4.619   2.381  10.351  0.9762  0.6693 -0.6484
 5997SOL     OW29452   0.027   3.714   5.570 -0.5006  0.0791 -0.0802
 5997SOL    HW129453   4.693   3.649   5.528 -0.0069 -1.8340  2.2222
 5997SOL    HW229454   4.694   3.792   5.576 -0.6103 -0.1724  2.1433
 5998SOL     OW29455   2.040   0.123   8.221 -0.3781  0.8615 -0.2183
 5998SOL    HW129456   1.997   0.206   8.200 -0.3119  1.1161  0.6297
 5998SOL    HW229457   2.125   0.150   8.255  0.0609 -1.7722  0.8120
 5999SOL     OW29458   1.424   2.291   5.732 -0.6715  0.4107 -0.4024
 5999SOL    HW129459   1.405   2.210   5.781 -0.0218 -0.5535 -1.7317
 5999SOL    HW229460   1.400   2.259   5.645 -0.4329 -1.1528  0.1010
 6000SOL     OW29461   2.537   0.262   4.963 -0.3917 -0.0384  0.2231
 6000SOL    HW129462   2.466   0.323   4.946  0.1368  0.6677  0.5762
 6000SOL    HW229463   2.609   0.306   4.918  0.2496 -0.2948  0.9955
 6001SOL     OW29464   2.347   2.646   6.831 -0.0031  0.2411 -0.5273
 6001SOL    HW129465   2.262   2.618   6.864 -0.3310 -0.5291 -2.0172
 6001SOL    HW229466   2.394   2.563   6.821 -0.7272 -0.1481 -0.6683
 6002SOL     OW29467   1.302   3.784   6.787 -0.1037 -0.2559 -0.5433
 6002SOL    HW129468   1.336   3.791   6.876  0.9076 -2.3316 -0.7784
 6002SOL    HW229469   1.229   3.847   6.789 -1.3930 -1.8071  1.4200
 6003SOL     OW29470   4.563   0.710   5.345 -0.1016 -0.1967  0.4018
 6003SOL    HW129471   4.565   0.664   5.261  0.4757  0.7487 -0.0955
 6003SOL    HW229472   4.636   0.772   5.343  2.2372 -2.9985 -1.1497
 6004SOL     OW29473   2.241   3.285   3.048  0.0949  0.0675 -0.2438
 6004SOL    HW129474   2.298   3.249   3.116  0.0290  1.4524  0.5438
 6004SOL    HW229475   2.203   3.359   3.095  2.2521  0.5343  0.7573
 6005SOL     OW29476   1.898   3.624   9.858  0.4864  0.4226  0.2348
 6005SOL    HW129477   1.986   3.655   9.838  1.3684 -2.1090  0.2114
 6005SOL    HW229478   1.886   3.641   9.952 -0.3906  1.9403 -0.1446
 6006SOL     OW29479   2.069   2.879   4.628  0.1473 -0.5181 -0.4420
 6006SOL    HW129480   2.067   2.880   4.532  0.2968  1.4943 -0.4327
 6006SOL    HW229481   2.158   2.846   4.638 -0.0678 -0.9469  0.0717
 6007SOL     OW29482   2.893   1.872   4.850  0.1121  0.1585 -0.0164
 6007SOL    HW129483   2.895   1.964   4.874  0.7133  0.7515 -2.3679
 6007SOL    HW229484   2.965   1.847   4.909 -0.3471 -0.0994  0.4394
 6008SOL     OW29485   1.810   2.803   2.406  0.4817 -0.0015  0.2146
 6008SOL    HW129486   1.786   2.794   2.499 -0.5310 -1.7500 -0.2339
 6008SOL    HW229487   1.854   2.888   2.413  1.5835 -0.4115 -1.8334
 6009SOL     OW29488   4.548   3.246   4.666 -0.2350  0.1463 -0.9089
 6009SOL    HW129489   4.609   3.176   4.641  0.0089  0.1217 -0.2376
 6009SOL    HW229490   4.568   3.313   4.601 -3.1448 -0.8888 -2.8928
 6010SOL     OW29491   0.266   4.029   7.603  0.1874 -0.4248 -0.5968
 6010SOL    HW129492   0.280   3.983   7.520 -1.3583  0.0593 -1.1273
 6010SOL    HW229493   0.324   4.103   7.587 -0.1441  0.6532  3.2460
 6011SOL     OW29494   2.355   2.392   2.446 -0.4615 -0.2879  0.1313
 6011SOL    HW129495   2.380   2.482   2.424 -1.1662 -0.0783  0.1892
 6011SOL    HW229496   2.330   2.398   2.538  0.4106 -1.1899  0.4335
 6012SOL     OW29497   3.548   3.105   2.807  0.1411 -0.3216 -0.3555
 6012SOL    HW129498   3.630   3.109   2.757 -0.2131  1.1017 -0.8211
 6012SOL    HW229499   3.523   3.024   2.763 -0.5143 -0.0129 -0.5628
 6013SOL     OW29500   2.401   0.597  13.661 -0.3212 -0.5013 -0.3286
 6013SOL    HW129501   2.306   0.605  13.668 -0.5221 -3.0649  0.2229
 6013SOL    HW229502   2.425   0.552  13.742 -0.1814 -2.3664 -1.3835
 6014SOL     OW29503   1.301   2.493   7.784 -0.2974 -0.2051 -0.1400
 6014SOL    HW129504   1.387   2.528   7.761 -1.3362  1.6448 -1.2388
 6014SOL    HW229505   1.329   2.432   7.853 -2.1073  1.7654  2.3324
 6015SOL     OW29506   2.900   0.068   6.030  0.5132  0.1539  0.0067
 6015SOL    HW129507   2.843   0.134   5.991 -0.7429 -0.1728  1.2831
 6015SOL    HW229508   2.919   0.106   6.116  1.0632  1.4755 -0.7150
 6016SOL     OW29509   1.610   2.345   7.324 -0.4321 -0.1400 -0.0889
 6016SOL    HW129510   1.528   2.309   7.358 -0.4149  1.0390  1.2070
 6016SOL    HW229511   1.598   2.355   7.230  3.5141  0.3599 -0.5374
 6017SOL     OW29512   1.119   1.157  13.908 -0.5088 -0.1179 -0.1420
 6017SOL    HW129513   1.078   1.071  13.918 -1.1160  0.1346 -0.4123
 6017SOL    HW229514   1.196   1.134  13.855  0.1318  3.1518 -0.6046
 6018SOL     OW29515   3.520   1.527   6.128  0.2270 -0.3166  0.6819
 6018SOL    HW129516   3.586   1.467   6.094 -0.4545 -1.0338  0.6275
 6018SOL    HW229517   3.503   1.477   6.208 -0.9033 -2.7221 -1.0613
 6019SOL     OW29518   3.203   2.560   3.021  0.1970  0.3092  0.6505
 6019SOL    HW129519   3.155   2.624   2.968 -1.0828 -1.0835  0.1525
 6019SOL    HW229520   3.135   2.508   3.063 -0.7924  1.2425  0.2237
 6020SOL     OW29521   3.291   3.324   2.479 -0.1660  0.2738  0.4789
 6020SOL    HW129522   3.252   3.279   2.554  0.7220  1.6355  1.7731
 6020SOL    HW229523   3.374   3.276   2.485 -0.1513  0.4224  1.4576
 6021SOL     OW29524   3.485   0.744  13.051  0.2217 -0.1068  0.2863
 6021SOL    HW129525   3.481   0.834  13.085 -0.0410 -0.3834  0.9875
 6021SOL    HW229526   3.564   0.736  12.997  0.5858  0.3204  0.7568
 6022SOL     OW29527   4.136   2.373   5.545 -0.2231 -0.0372 -0.2744
 6022SOL    HW129528   4.054   2.388   5.497  0.9570  2.9001 -1.3203
 6022SOL    HW229529   4.154   2.460   5.581  1.6716  0.6429 -2.8884
 6023SOL     OW29530   3.418   3.246   5.504  0.5678 -0.1898  0.3719
 6023SOL    HW129531   3.481   3.184   5.540  0.1398 -1.6721 -1.4613
 6023SOL    HW229532   3.478   3.313   5.472  0.3155 -0.2314 -0.2007
 6024SOL     OW29533   3.513   1.258   2.393 -0.1539 -0.1537 -0.3423
 6024SOL    HW129534   3.451   1.284   2.325 -0.3676 -0.7886 -0.3899
 6024SOL    HW229535   3.599   1.280   2.358  0.9011 -1.9852  1.1078
 6025SOL     OW29536   0.367   0.249   4.302 -0.4881 -0.4678 -0.3478
 6025SOL    HW129537   0.272   0.243   4.305 -0.3272 -3.2411 -0.6232
 6025SOL    HW229538   0.383   0.342   4.289  0.0590 -0.4438  0.4590
 6026SOL     OW29539   4.236   4.341   8.591  0.6605 -0.0591  0.2528
 6026SOL    HW129540   4.272   4.407   8.532  0.9145 -0.9797 -0.6144
 6026SOL    HW229541   4.229   4.389   8.674 -1.4029 -1.2406  0.7641
 6027SOL     OW29542   3.362   0.360   6.599 -0.4581  0.4359 -1.0364
 6027SOL    HW129543   3.375   0.292   6.665 -0.4355  1.5627  0.1271
 6027SOL    HW229544   3.267   0.367   6.607 -0.5206  1.5235 -2.6142
 6028SOL     OW29545   2.914   3.951  10.668 -0.0107  0.2192 -0.0117
 6028SOL    HW129546   2.880   3.971  10.755  0.8795 -2.5328  0.9783
 6028SOL    HW229547   3.006   3.976  10.681  0.0648 -0.0123 -0.0860
 6029SOL     OW29548   3.153   4.674   1.610  0.5653  0.4047 -0.1448
 6029SOL    HW129549   3.247   4.676   1.588  0.4470 -1.5707 -0.7683
 6029SOL    HW229550   3.156   4.639   1.699 -0.7896  1.4889  0.3221
 6030SOL     OW29551   4.464   2.003   5.706 -0.1119  0.4213  0.0011
 6030SOL    HW129552   4.374   1.973   5.724  0.1861 -0.5575 -0.1529
 6030SOL    HW229553   4.456   2.095   5.681  0.2922  0.6055  0.5504
 6031SOL     OW29554   1.506   0.705   2.703 -0.0800  0.2466  0.0321
 6031SOL    HW129555   1.507   0.801   2.709 -0.7179  0.2614 -0.1092
 6031SOL    HW229556   1.598   0.696   2.676 -0.7503 -0.1216 -2.1329
 6032SOL     OW29557   4.598   2.842   2.865 -0.0501 -0.3500  0.8490
 6032SOL    HW129558   4.583   2.815   2.956  4.8852  1.7074  2.2911
 6032SOL    HW229559   4.684   2.882   2.874 -0.0011 -0.5270  1.1778
 6033SOL     OW29560   0.879   2.902   2.892 -0.3101  0.1988 -0.2315
 6033SOL    HW129561   0.970   2.918   2.918 -1.1605  2.6539  1.2583
 6033SOL    HW229562   0.891   2.822   2.841  0.9527  1.1105 -1.3553
 6034SOL     OW29563   3.617   0.350   2.864 -0.0338  0.0519  0.3509
 6034SOL    HW129564   3.612   0.365   2.769 -2.7349  0.5597  0.5583
 6034SOL    HW229565   3.710   0.363   2.878 -0.6919  0.8908  3.9219
 6035SOL     OW29566   0.608   2.164   4.271  0.4953  0.5932  0.5982
 6035SOL    HW129567   0.630   2.159   4.364 -3.4609 -0.8439  1.4789
 6035SOL    HW229568   0.663   2.092   4.238 -0.0860 -0.0266  0.9784
 6036SOL     OW29569   0.716   3.234   3.853 -0.0064  0.5782 -0.3827
 6036SOL    HW129570   0.788   3.202   3.907 -0.9165 -0.3327  0.2714
 6036SOL    HW229571   0.679   3.151   3.824 -0.7470  0.7356  0.1158
 6037SOL     OW29572   4.554   4.393   6.518 -0.4327  0.5344  0.7812
 6037SOL    HW129573   4.479   4.375   6.575 -1.0580  0.0087 -0.2034
 6037SOL    HW229574   4.539   4.323   6.455 -1.0014  0.6449  0.7900
 6038SOL     OW29575   2.887   3.245   4.076 -0.0155  0.1241  0.4911
 6038SOL    HW129576   2.930   3.160   4.090 -0.0403  0.0332  0.0189
 6038SOL    HW229577   2.850   3.240   3.988  1.7186  0.0268 -0.2340
 6039SOL     OW29578   0.429   2.140   8.516 -0.3684  0.0584  0.2469
 6039SOL    HW129579   0.401   2.078   8.448 -1.9001  2.2594 -1.1323
 6039SOL    HW229580   0.360   2.206   8.521  0.9678  1.4378  0.6162
 6040SOL     OW29581   4.378   0.432  11.554 -0.1156 -0.7142 -0.1495
 6040SOL    HW129582   4.399   0.435  11.460  1.0333 -0.1823  0.1215
 6040SOL    HW229583   4.292   0.473  11.556 -0.5793 -1.6488 -0.9211
 6041SOL     OW29584   0.097   4.244   6.624 -0.2892 -0.5263 -0.5374
 6041SOL    HW129585   0.091   4.152   6.597  0.4715 -0.2724 -1.5415
 6041SOL    HW229586   0.023   4.271   6.570 -1.5830  0.2003  1.5887
 6042SOL     OW29587   3.018   3.304   7.490 -0.5656  0.7117 -0.0777
 6042SOL    HW129588   2.974   3.277   7.410 -1.1106 -1.5199  0.9758
 6042SOL    HW229589   2.936   3.337   7.527 -1.5223 -1.9168  0.1300
 6043SOL     OW29590   0.722   2.675  11.724  0.4630  0.2657 -0.4637
 6043SOL    HW129591   0.778   2.606  11.759 -0.1388  0.9333  1.8172
 6043SOL    HW229592   0.784   2.746  11.740 -0.4770  1.0177 -0.1721
 6044SOL     OW29593   0.708   0.199   5.549 -0.2603  0.3829  0.4408
 6044SOL    HW129594   0.675   0.266   5.609  1.7035  0.3056  1.6268
 6044SOL    HW229595   0.803   0.211   5.555 -0.3240  1.0814  0.0892
 6045SOL     OW29596   2.498   0.208   4.011  0.0555 -0.4854 -0.2687
 6045SOL    HW129597   2.565   0.235   3.948 -1.3245  1.5868 -0.8326
 6045SOL    HW229598   2.450   0.139   3.965  1.2961 -0.8893 -0.9856
 6046SOL     OW29599   3.059   2.656   5.724 -0.4562  0.0512  0.0069
 6046SOL    HW129600   3.070   2.615   5.810  1.1777  0.8224  0.1640
 6046SOL    HW229601   2.966   2.677   5.726 -0.8030 -1.3559 -1.2811
 6047SOL     OW29602   3.408   1.907   4.030 -0.2794 -0.0774 -1.0338
 6047SOL    HW129603   3.490   1.898   3.982  0.0992  1.5070 -0.6854
 6047SOL    HW229604   3.359   1.958   3.965  1.8778  1.9150 -1.0581
 6048SOL     OW29605   1.276   0.951  14.726  0.5767  0.2496  0.2379
 6048SOL    HW129606   1.346   0.927  14.665  0.5036  1.1918 -0.2181
 6048SOL    HW229607   1.315   0.976  14.810  1.6300  1.8490 -0.7243
 6049SOL     OW29608   0.694   4.267   3.768  0.0298  0.7870 -0.1403
 6049SOL    HW129609   0.712   4.351   3.726 -1.3943  0.3132 -1.6969
 6049SOL    HW229610   0.700   4.295   3.859 -1.1123  1.1993 -0.1929
 6050SOL     OW29611   0.638   4.259  10.717  0.4875  0.4311  0.1871
 6050SOL    HW129612   0.636   4.259  10.621 -2.9371 -0.1314  0.2565
 6050SOL    HW229613   0.630   4.353  10.729  0.8092  0.6301 -1.1370
 6051SOL     OW29614   1.153   0.285  17.351  0.1000 -0.0475 -0.1608
 6051SOL    HW129615   1.058   0.286  17.362 -0.0953  0.2173 -2.0027
 6051SOL    HW229616   1.184   0.374  17.337  1.2490 -1.0706 -3.9653
 6052SOL     OW29617   1.525   0.448   7.813  0.3054 -0.8588 -0.5866
 6052SOL    HW129618   1.461   0.510   7.778  1.5149  1.5417  1.4391
 6052SOL    HW229619   1.572   0.425   7.733  2.4421  3.3987 -0.5536
 6053SOL     OW29620   0.093   4.159   2.341  0.0232  0.3485  0.6403
 6053SOL    HW129621   0.111   4.066   2.329 -0.0952  0.2718  1.0580
 6053SOL    HW229622   0.100   4.171   2.435 -2.9860 -1.6951  1.1062
 6054SOL     OW29623   3.139   4.360   9.277 -0.7740  0.6806  0.1849
 6054SOL    HW129624   3.231   4.338   9.260 -0.7230  0.8034  0.2948
 6054SOL    HW229625   3.141   4.455   9.283  1.1557  0.4574  3.6893
 6055SOL     OW29626   3.988   1.321   2.258  0.1895  0.0131  0.1459
 6055SOL    HW129627   3.991   1.228   2.236  2.5448 -0.3689  2.0772
 6055SOL    HW229628   4.007   1.349   2.169  1.3946 -1.0142  0.0764
 6056SOL     OW29629   0.274   3.155   4.730  0.3005  0.3335 -0.2067
 6056SOL    HW129630   0.277   3.071   4.685  0.7153 -0.8050  1.9596
 6056SOL    HW229631   0.184   3.187   4.724  0.2183  0.1900  0.2491
 6057SOL     OW29632   4.688   4.573   7.204 -0.2462 -0.5715 -0.1279
 6057SOL    HW129633   4.714   4.581   7.296 -1.3184  0.4650  0.0788
 6057SOL    HW229634   4.611   4.517   7.207  0.1083 -1.1989 -2.5584
 6058SOL     OW29635   0.215   2.880   4.601 -0.2665 -0.0543  0.1085
 6058SOL    HW129636   0.267   2.839   4.669  1.5754  2.2786  0.1358
 6058SOL    HW229637   0.248   2.829   4.526  0.0195 -0.2973  0.3997
 6059SOL     OW29638   4.529   3.435  12.606 -0.1888 -0.2777  0.2552
 6059SOL    HW129639   4.612   3.390  12.591 -0.0462  0.5525 -1.3900
 6059SOL    HW229640   4.465   3.366  12.584  0.0612  0.0315 -1.3706
 6060SOL     OW29641   3.441   2.284  15.577  0.3205  0.2657 -0.0731
 6060SOL    HW129642   3.397   2.214  15.529 -1.4475  1.4162 -0.1306
 6060SOL    HW229643   3.386   2.361  15.560  1.7521  0.9906 -1.3908
 6061SOL     OW29644   3.704   1.365   8.556 -0.2144 -0.8688  0.5989
 6061SOL    HW129645   3.731   1.453   8.583  0.5007 -0.4780 -1.3850
 6061SOL    HW229646   3.740   1.358   8.467  2.1914  2.0644  1.3322
 6062SOL     OW29647   0.180   0.907   2.600  0.7746 -0.0517 -0.4655
 6062SOL    HW129648   0.195   0.963   2.676  0.8907 -0.0612 -0.4813
 6062SOL    HW229649   0.119   0.964   2.552 -0.0944 -0.4765  0.1326
 6063SOL     OW29650   3.444   4.699  16.923  0.1028 -0.1130 -0.1014
 6063SOL    HW129651   3.528   4.673  16.885  0.4194  1.2092 -0.3155
 6063SOL    HW229652   3.469   4.695  17.015 -2.4605  3.4676  0.7867
 6064SOL     OW29653   4.604   1.547   9.244 -0.1023 -0.1866  0.2386
 6064SOL    HW129654   4.632   1.638   9.250 -1.4365  0.2972 -0.5923
 6064SOL    HW229655   4.649   1.502   9.315  0.3666  0.5926  0.4334
 6065SOL     OW29656   3.537   4.589  17.176  0.1559 -0.3653 -0.0001
 6065SOL    HW129657   3.507   4.527  17.110  1.9554 -0.5839 -0.6245
 6065SOL    HW229658   3.542   4.544  17.260 -0.0354  1.4683  0.9905
 6066SOL     OW29659   4.198   0.023   8.617 -0.1899  0.2492 -0.0097
 6066SOL    HW129660   4.174   0.115   8.607 -0.0924  0.4583  1.6653
 6066SOL    HW229661   4.274   0.025   8.558 -1.8825 -1.5031 -2.2755
 6067SOL     OW29662   0.619   1.162   5.819 -0.2718  0.5847  0.0352
 6067SOL    HW129663   0.671   1.186   5.743 -0.8091  1.3028 -0.1107
 6067SOL    HW229664   0.574   1.083   5.788 -0.1975  0.2090  0.8771
 6068SOL     OW29665   2.191   2.841  17.399 -0.8081  0.0364  0.1334
 6068SOL    HW129666   2.221   2.931  17.413  2.1725 -0.9916  0.4028
 6068SOL    HW229667   2.112   2.844  17.346 -0.6694 -0.7246 -0.1137
 6069SOL     OW29668   3.559   3.587   5.580 -0.6964  0.3193  0.2638
 6069SOL    HW129669   3.583   3.542   5.661 -2.3734 -0.5783  0.2605
 6069SOL    HW229670   3.646   3.620   5.557 -0.2639 -1.0077 -0.0574
 6070SOL     OW29671   2.845   3.691   4.016 -0.1207 -0.3536 -0.0433
 6070SOL    HW129672   2.920   3.716   4.070 -0.2560 -0.8574  0.3881
 6070SOL    HW229673   2.880   3.693   3.927 -1.5121 -0.2231 -0.5845
 6071SOL     OW29674   1.285   3.261   7.640  0.0542 -0.3140 -0.1229
 6071SOL    HW129675   1.303   3.210   7.560 -0.6516  1.6604 -1.5474
 6071SOL    HW229676   1.192   3.240   7.648  0.7509 -3.1552  0.4998
 6072SOL     OW29677   0.472   4.059   8.740  0.6403 -0.0958  0.3463
 6072SOL    HW129678   0.502   4.014   8.662 -0.7259  1.2102 -0.9359
 6072SOL    HW229679   0.493   4.000   8.812  0.5734 -1.8974 -1.1206
 6073SOL     OW29680   3.831   4.476  14.873 -0.1796  0.1613 -0.1513
 6073SOL    HW129681   3.762   4.427  14.917 -0.5332  1.6877  0.9724
 6073SOL    HW229682   3.833   4.558  14.922  0.5204  0.1696 -0.1934
 6074SOL     OW29683   4.630   1.151   9.424  0.7100  0.3334  0.0449
 6074SOL    HW129684   4.709   1.188   9.462  0.1163 -0.0901  1.6794
 6074SOL    HW229685   4.576   1.142   9.502 -0.8023 -0.4106 -1.0764
 6075SOL     OW29686   2.285   0.245   8.209 -0.1876 -0.0601  0.1512
 6075SOL    HW129687   2.377   0.260   8.185  0.7115 -2.5643  2.0163
 6075SOL    HW229688   2.274   0.306   8.283 -1.4711 -1.9971  1.5533
 6076SOL     OW29689   1.794   0.309   8.544  0.0074  0.3453  0.0541
 6076SOL    HW129690   1.701   0.320   8.527  0.1495  1.0132 -0.3083
 6076SOL    HW229691   1.811   0.239   8.481  1.7337  0.2022  0.6670
 6077SOL     OW29692   1.801   2.660   0.082 -0.0875 -0.1085 -0.3637
 6077SOL    HW129693   1.745   2.704   0.146 -1.1654  0.2393 -1.5337
 6077SOL    HW229694   1.792   2.706  17.689 -0.4454  0.6996  0.1208
 6078SOL     OW29695   3.882   4.714   6.843 -0.1589  0.2171  0.5074
 6078SOL    HW129696   3.926   0.024   6.764 -3.4009  1.4968 -0.7969
 6078SOL    HW229697   3.961   4.686   6.887 -0.6261 -1.5768  0.2014
 6079SOL     OW29698   3.109   3.793  17.557 -0.6773 -0.5268  0.6001
 6079SOL    HW129699   3.025   3.768  17.595 -1.6985  1.9714  0.0014
 6079SOL    HW229700   3.114   3.762  17.467 -1.5597 -0.0565  0.3839
 6080SOL     OW29701   1.880   1.457  12.940  0.4569  0.0775  0.1071
 6080SOL    HW129702   1.812   1.450  12.874 -0.4522  1.8672  0.8268
 6080SOL    HW229703   1.945   1.516  12.903  0.1270  0.3372 -0.0600
 6081SOL     OW29704   1.471   3.906  13.859  0.1128  0.2845  0.2190
 6081SOL    HW129705   1.493   3.974  13.923 -0.9058  2.1285 -1.3975
 6081SOL    HW229706   1.476   3.824  13.909 -2.1409 -1.7160 -2.8360
 6082SOL     OW29707   4.097   0.084  17.058 -0.4401 -0.6936  0.2249
 6082SOL    HW129708   4.055   0.167  17.036  0.7299 -0.1864 -0.0853
 6082SOL    HW229709   4.184   0.118  17.080 -1.0159  0.0847  1.3169
 6083SOL     OW29710   0.736   1.541   8.219 -0.3717  0.6048  0.0783
 6083SOL    HW129711   0.808   1.546   8.156 -0.5478  1.5237 -0.0443
 6083SOL    HW229712   0.696   1.623   8.191  0.4770  0.7393 -0.7572
 6084SOL     OW29713   2.711   3.781  16.945  1.0833  0.2964 -0.5713
 6084SOL    HW129714   2.682   3.829  16.867  1.2495 -1.6834 -1.8550
 6084SOL    HW229715   2.636   3.727  16.971  1.8725 -1.2557 -1.5414
 6085SOL     OW29716   1.023   3.823   3.303 -0.5586 -0.0430  0.2257
 6085SOL    HW129717   1.102   3.833   3.357 -0.1010 -1.3822 -0.2062
 6085SOL    HW229718   1.049   3.756   3.240  0.9766 -1.6450  2.5804
 6086SOL     OW29719   0.100   0.897   5.841 -0.4098 -0.4128 -0.3851
 6086SOL    HW129720   0.057   0.954   5.905 -1.0576  0.1941 -1.3561
 6086SOL    HW229721   0.189   0.892   5.876 -0.1070  0.8164 -0.9443
 6087SOL     OW29722   2.531   0.313   8.123  0.5657 -0.5917 -0.1091
 6087SOL    HW129723   2.567   0.271   8.201  0.4111 -0.0578  0.2500
 6087SOL    HW229724   2.610   0.360   8.097  0.3080 -1.9202 -3.3014
 6088SOL     OW29725   0.457   1.342  15.314  0.4562  0.3252 -0.4163
 6088SOL    HW129726   0.499   1.425  15.289  0.9548  0.6457  1.4796
 6088SOL    HW229727   0.499   1.312  15.395 -0.0437 -4.2297 -1.9053
 6089SOL     OW29728   2.713   0.876   0.426 -0.0945  0.1994 -0.0161
 6089SOL    HW129729   2.757   0.816   0.487 -0.3030  2.6081  2.4948
 6089SOL    HW229730   2.734   0.962   0.463 -0.2009  0.0364  0.4224
 6090SOL     OW29731   0.414   1.346  12.250 -0.7154  0.7319 -0.8177
 6090SOL    HW129732   0.346   1.410  12.270 -0.4761  0.9323 -0.6469
 6090SOL    HW229733   0.420   1.307  12.338  3.2208 -0.7887 -1.7602
 6091SOL     OW29734   0.035   1.753   7.887  0.3801 -0.0390  0.1186
 6091SOL    HW129735   0.033   1.735   7.793 -1.2703 -1.2634  0.3841
 6091SOL    HW229736   4.677   1.805   7.890  0.2974 -0.2693  2.0919
 6092SOL     OW29737   2.577   1.871   7.772  0.5309 -0.0253  0.6237
 6092SOL    HW129738   2.631   1.938   7.815 -0.6212  1.1518  0.2512
 6092SOL    HW229739   2.607   1.872   7.682  0.3444  0.1329  0.5636
 6093SOL     OW29740   1.946   2.236  11.293 -0.2335 -0.3232 -0.4549
 6093SOL    HW129741   2.002   2.312  11.307 -1.6267  0.0663  3.1080
 6093SOL    HW229742   1.863   2.281  11.312 -0.6881 -1.6081  0.6428
 6094SOL     OW29743   1.705   4.041   4.908 -0.0725  0.0115 -0.5343
 6094SOL    HW129744   1.778   3.993   4.948 -0.3164 -0.9857 -1.2617
 6094SOL    HW229745   1.628   4.019   4.960 -1.3345  0.8306 -2.0719
 6095SOL     OW29746   1.162   2.015   4.546 -0.4500 -0.3097  0.2399
 6095SOL    HW129747   1.104   2.004   4.621 -0.9486 -0.6622 -0.2030
 6095SOL    HW229748   1.209   2.097   4.566  1.0821 -1.1354  0.0227
 6096SOL     OW29749   4.452   3.121   2.949  0.6188 -0.3428 -0.1129
 6096SOL    HW129750   4.535   3.072   2.955 -0.5286 -2.4455 -1.3666
 6096SOL    HW229751   4.464   3.194   3.010  1.0403 -2.4440  2.3196
 6097SOL     OW29752   4.634   2.607   7.231 -0.2383 -0.1907  0.0618
 6097SOL    HW129753   4.708   2.664   7.208 -0.6442 -1.3023 -3.9411
 6097SOL    HW229754   4.620   2.550   7.155 -0.0187  0.0315 -0.1445
 6098SOL     OW29755   2.039   1.908   1.399  0.1403  0.4342 -0.3476
 6098SOL    HW129756   1.945   1.916   1.383 -0.0650 -1.1122  0.1112
 6098SOL    HW229757   2.051   1.946   1.486  1.3701 -0.2592 -0.2062
 6099SOL     OW29758   0.781   4.392   6.319 -0.5377  0.5108  0.7412
 6099SOL    HW129759   0.834   4.462   6.358 -0.5813  1.3911 -0.7501
 6099SOL    HW229760   0.812   4.313   6.363 -2.3005 -0.0242  1.0264
 6100SOL     OW29761   4.084   2.995  10.259  0.1197 -0.4230  0.7226
 6100SOL    HW129762   4.077   2.934  10.333 -0.3359 -2.9565 -1.4128
 6100SOL    HW229763   4.074   2.931  10.189  1.3333 -1.4672  1.5118
 6101SOL     OW29764   4.582   1.458   2.695 -0.1127 -0.2449 -0.0288
 6101SOL    HW129765   4.592   1.435   2.788  0.9377 -0.8487 -0.3015
 6101SOL    HW229766   4.634   1.394   2.648 -1.6703 -0.6456 -1.1749
 6102SOL     OW29767   0.611   1.473   3.540 -0.2130  0.0357 -0.0157
 6102SOL    HW129768   0.642   1.411   3.606  1.7988  1.0344 -0.0082
 6102SOL    HW229769   0.624   1.428   3.457 -0.8458  1.2582 -0.7779
 6103SOL     OW29770   0.241   2.793   3.460 -0.0362 -0.3057 -0.3074
 6103SOL    HW129771   0.214   2.747   3.539 -1.5243  0.0512 -0.6106
 6103SOL    HW229772   0.203   2.879   3.479 -0.3115 -0.5043  0.0288
 6104SOL     OW29773   0.053   1.087   3.115  0.3899  0.0537  0.2090
 6104SOL    HW129774   0.130   1.036   3.138 -1.0019 -1.7159  0.9557
 6104SOL    HW229775   0.011   1.114   3.196  1.3772 -2.4676  1.5464
 6105SOL     OW29776   3.250   4.426  14.596 -0.1955  0.1934 -0.1310
 6105SOL    HW129777   3.206   4.360  14.650  0.3355  0.8223  1.0830
 6105SOL    HW229778   3.205   4.409  14.513  0.1380 -2.2301  0.1754
 6106SOL     OW29779   2.892   0.820   9.385 -0.4661  0.2411  0.2627
 6106SOL    HW129780   2.834   0.894   9.400 -0.5219  0.7551 -2.4100
 6106SOL    HW229781   2.835   0.760   9.337 -1.6087  0.8381  0.8839
 6107SOL     OW29782   4.355   0.517  12.968  0.5437 -0.7801  0.3927
 6107SOL    HW129783   4.323   0.607  12.963  0.9983 -0.5789  1.0757
 6107SOL    HW229784   4.388   0.516  12.878  2.6799 -1.0691  1.1741
 6108SOL     OW29785   1.410   1.694   0.884 -0.4734  0.5243  0.0389
 6108SOL    HW129786   1.484   1.661   0.936 -0.4424 -0.5976 -0.7093
 6108SOL    HW229787   1.346   1.696   0.955  0.5725 -0.2830  1.0083
 6109SOL     OW29788   2.469   0.562  12.379 -0.4869  0.4720  0.6322
 6109SOL    HW129789   2.529   0.516  12.438 -0.4882 -1.4307 -0.8647
 6109SOL    HW229790   2.409   0.492  12.351  0.0710  1.0981 -2.1590
 6110SOL     OW29791   3.650   4.606   6.950  0.5427  0.0708  0.0892
 6110SOL    HW129792   3.676   4.594   7.041 -0.5147 -1.2924  0.1940
 6110SOL    HW229793   3.731   4.641   6.911  0.2513  1.4925  0.7525
 6111SOL     OW29794   4.673   2.989   7.246 -0.3849 -0.0991 -0.6084
 6111SOL    HW129795   4.705   2.996   7.336 -0.9103 -1.1470 -0.3378
 6111SOL    HW229796   4.653   3.081   7.232  1.2858  0.7611  2.6157
 6112SOL     OW29797   3.910   3.644   9.862 -0.1947 -0.0364 -0.7974
 6112SOL    HW129798   3.841   3.624   9.925  0.2787 -1.1040 -0.6243
 6112SOL    HW229799   3.940   3.559   9.830 -2.1775 -0.2259 -2.1059
 6113SOL     OW29800   2.331   2.070  16.321  0.2379  0.1721  0.6479
 6113SOL    HW129801   2.411   2.036  16.363  0.0856  0.4627  1.1707
 6113SOL    HW229802   2.330   2.018  16.241  0.3413 -0.0383  0.7817
 6114SOL     OW29803   0.729   3.647   1.182 -0.6541  0.5459  0.0730
 6114SOL    HW129804   0.664   3.714   1.203  0.2658  1.1656  0.9824
 6114SOL    HW229805   0.786   3.657   1.259  0.7365 -1.3971 -0.7040
 6115SOL     OW29806   0.929   2.824   0.386  0.6916  0.2907  0.6961
 6115SOL    HW129807   0.917   2.740   0.342  2.4225  1.1396 -1.3864
 6115SOL    HW229808   1.021   2.814   0.412  0.9119  0.1708 -0.1169
 6116SOL     OW29809   1.981   1.443   7.591 -0.5669 -0.4405 -0.2135
 6116SOL    HW129810   1.971   1.348   7.586 -1.0587 -0.4106  0.1570
 6116SOL    HW229811   1.901   1.467   7.638 -0.2486  0.4078 -0.1115
 6117SOL     OW29812   3.799   0.240   2.273 -0.2570 -0.4760  0.7504
 6117SOL    HW129813   3.750   0.174   2.223 -0.1283 -0.6513  0.8548
 6117SOL    HW229814   3.822   0.187   2.349 -0.6800  0.5516  1.5876
 6118SOL     OW29815   3.169   4.355   6.827 -0.5225  0.1352 -0.3712
 6118SOL    HW129816   3.087   4.327   6.869  0.0246  0.1657  0.7366
 6118SOL    HW229817   3.135   4.426   6.773 -0.9769  0.6262  0.5551
 6119SOL     OW29818   1.256   1.511   8.724 -0.2039  0.0239  0.3139
 6119SOL    HW129819   1.268   1.586   8.667 -1.8630 -0.3365 -0.5008
 6119SOL    HW229820   1.163   1.516   8.749 -0.0352  0.2282  0.9073
 6120SOL     OW29821   2.191   3.388   5.066 -0.0060 -0.2372  0.5983
 6120SOL    HW129822   2.213   3.350   4.981  1.8655  1.6419  0.2536
 6120SOL    HW229823   2.273   3.364   5.109  0.0357 -0.1720  0.5544
 6121SOL     OW29824   3.519   0.196   4.969  0.4340  0.3978  0.8127
 6121SOL    HW129825   3.581   0.246   4.917 -0.9413  0.9517 -0.2979
 6121SOL    HW229826   3.483   0.138   4.902 -0.0640  0.2616  1.1895
 6122SOL     OW29827   0.111   0.150  14.087 -0.6927  0.1407  0.2604
 6122SOL    HW129828   0.048   0.221  14.097 -2.5089 -1.2201 -1.5991
 6122SOL    HW229829   0.186   0.209  14.081 -1.7120  1.2105 -1.9007
 6123SOL     OW29830   3.566   1.567   4.411 -0.0122  0.5449  0.0823
 6123SOL    HW129831   3.558   1.658   4.383  0.8181  0.8267  0.7495
 6123SOL    HW229832   3.624   1.529   4.345 -0.7703 -0.9319  0.2555
 6124SOL     OW29833   2.517   0.543   4.342  0.1376 -0.3335 -0.0986
 6124SOL    HW129834   2.483   0.457   4.317 -0.3981  0.1057 -0.9107
 6124SOL    HW229835   2.567   0.564   4.262  1.0974  1.1061  0.8772
 6125SOL     OW29836   4.564   3.930  10.515  0.1344  0.0995 -0.3645
 6125SOL    HW129837   4.577   3.867  10.444 -1.4369 -2.3256  1.5050
 6125SOL    HW229838   4.478   3.960  10.484  0.4597  0.9486 -0.4480
 6126SOL     OW29839   3.081   2.402   4.783  0.1104  0.1084 -0.0909
 6126SOL    HW129840   3.175   2.404   4.765  0.2771  0.9268  0.8477
 6126SOL    HW229841   3.063   2.465   4.853 -0.0408  0.4873 -0.4696
 6127SOL     OW29842   2.343   1.575   8.498  0.4190 -0.3940  0.3068
 6127SOL    HW129843   2.285   1.499   8.506 -0.1856 -0.2635 -3.1063
 6127SOL    HW229844   2.289   1.635   8.549  0.3836  2.0628 -2.6553
 6128SOL     OW29845   2.511   3.309   4.046 -0.0921  0.2002  0.5872
 6128SOL    HW129846   2.561   3.390   4.039 -0.4435  0.3790  0.1359
 6128SOL    HW229847   2.424   3.338   4.019  1.3250  3.3698 -0.5332
 6129SOL     OW29848   0.809   1.474  11.143  0.5432 -0.0654  0.0099
 6129SOL    HW129849   0.884   1.430  11.103  1.7881 -0.6644  3.0160
 6129SOL    HW229850   0.816   1.449  11.235 -1.1653 -0.1857  0.1000
 6130SOL     OW29851   1.091   2.589   6.979 -0.0750  0.0987 -0.0872
 6130SOL    HW129852   1.183   2.579   7.003  0.2630 -0.1677 -1.4904
 6130SOL    HW229853   1.053   2.560   7.062 -1.8133  2.0799 -0.1990
 6131SOL     OW29854   2.898   0.994   4.997 -0.5331 -0.7829  0.1078
 6131SOL    HW129855   2.831   1.014   5.063 -0.0900 -0.5007  0.4714
 6131SOL    HW229856   2.919   0.907   5.032 -2.1097 -1.2462 -0.1181
 6132SOL     OW29857   2.362   3.215  10.603 -0.4274  0.7148 -0.0802
 6132SOL    HW129858   2.268   3.218  10.586 -0.1261  2.6567 -1.3724
 6132SOL    HW229859   2.365   3.250  10.692  1.6524 -1.2466  0.6090
 6133SOL     OW29860   3.446   0.275   2.000 -0.1628 -0.4504  0.3816
 6133SOL    HW129861   3.510   0.248   2.065 -0.2121  0.6727  0.8992
 6133SOL    HW229862   3.368   0.275   2.055 -0.0225 -0.5319  0.5774
 6134SOL     OW29863   1.449   2.449  10.221  0.0077  0.1911  0.1017
 6134SOL    HW129864   1.406   2.393  10.285 -0.5613  1.4132  0.7864
 6134SOL    HW229865   1.463   2.534  10.262 -1.4705  0.3338  0.3151
 6135SOL     OW29866   4.606   0.435  13.274  0.1930 -0.0554  0.5393
 6135SOL    HW129867   4.646   0.357  13.312  0.3931 -0.3214 -0.2314
 6135SOL    HW229868   4.639   0.437  13.185  2.7048  0.4594  1.4883
 6136SOL     OW29869   2.824   1.884   3.204  0.0483  0.6787  0.0786
 6136SOL    HW129870   2.894   1.947   3.188 -0.2738  0.5993 -1.5993
 6136SOL    HW229871   2.755   1.947   3.181  1.0315  1.3566 -0.9963
 6137SOL     OW29872   2.754   3.617   8.932  0.2891  0.3198  0.0113
 6137SOL    HW129873   2.765   3.675   8.857 -1.7928  1.6162  0.7082
 6137SOL    HW229874   2.699   3.550   8.892 -1.5920  3.1097 -2.0118
 6138SOL     OW29875   2.994   1.800   2.219  0.3176  0.6174  0.4305
 6138SOL    HW129876   2.977   1.706   2.223 -0.4443  0.8330  2.5576
 6138SOL    HW229877   3.067   1.803   2.281  1.1166 -3.5893 -0.3017
 6139SOL     OW29878   2.646   0.374   4.739  0.1524 -0.2145 -0.2969
 6139SOL    HW129879   2.632   0.456   4.690  0.4534 -0.6983 -1.1950
 6139SOL    HW229880   2.738   0.360   4.721  0.7760  1.8469  1.2487
 6140SOL     OW29881   3.395   1.379  17.082 -0.2365 -0.2584 -0.1549
 6140SOL    HW129882   3.382   1.357  17.174  0.6938  1.8439  0.4975
 6140SOL    HW229883   3.308   1.417  17.070  0.3740  1.6641  1.5536
 6141SOL     OW29884   1.476   1.340   3.335  0.5130  0.5847  0.2677
 6141SOL    HW129885   1.544   1.330   3.402  0.5012 -0.3106  0.1450
 6141SOL    HW229886   1.473   1.251   3.301  0.6376  0.7789 -0.2541
 6142SOL     OW29887   0.472   2.527   7.953 -0.0076  0.5048  0.5720
 6142SOL    HW129888   0.503   2.493   7.870 -0.3849  2.5445 -0.4153
 6142SOL    HW229889   0.525   2.607   7.958 -0.5195  0.9637 -1.3933
 6143SOL     OW29890   4.062   1.021  10.492  0.1486 -0.3605  0.2939
 6143SOL    HW129891   4.147   0.977  10.488  1.0214  1.4409 -0.7725
 6143SOL    HW229892   4.052   1.033  10.398 -1.0003 -0.5141  0.3917
 6144SOL     OW29893   3.259   3.297  14.260 -0.0147 -0.8314 -0.3298
 6144SOL    HW129894   3.266   3.389  14.288  2.8099 -1.1178 -0.0707
 6144SOL    HW229895   3.218   3.258  14.336  1.1597  1.2392  1.3620
 6145SOL     OW29896   0.750   2.099   8.017  0.2446 -0.5475 -0.0540
 6145SOL    HW129897   0.698   2.178   8.008 -0.5859 -1.0329  0.4043
 6145SOL    HW229898   0.840   2.132   8.020  0.0174  0.1910 -2.0569
 6146SOL     OW29899   3.211   4.137  17.323  0.2163 -0.3707  0.3644
 6146SOL    HW129900   3.252   4.224  17.328 -0.1049 -0.1637 -0.6329
 6146SOL    HW229901   3.134   4.147  17.380 -1.2283 -2.6929 -1.1982
 6147SOL     OW29902   0.658   1.435   4.219 -0.4901 -0.1751 -0.4660
 6147SOL    HW129903   0.609   1.353   4.232  0.6313 -0.7419  0.1611
 6147SOL    HW229904   0.594   1.472   4.159  0.0178 -1.1541 -1.6098
 6148SOL     OW29905   4.515   3.153  10.655  0.2595 -0.2282 -0.2734
 6148SOL    HW129906   4.422   3.172  10.670  0.6744  0.3788  1.4643
 6148SOL    HW229907   4.510   3.111  10.569 -0.9072  0.3778 -0.5000
 6149SOL     OW29908   3.006   2.383   7.649  0.4137  0.1511  0.2412
 6149SOL    HW129909   3.012   2.304   7.703 -0.9352 -1.2138 -1.6238
 6149SOL    HW229910   3.099   2.407   7.653  0.4319  0.1035  0.1198
 6150SOL     OW29911   4.416   2.327   0.758  0.1052 -0.1417  0.1395
 6150SOL    HW129912   4.431   2.233   0.743 -0.0135 -0.0433 -0.5753
 6150SOL    HW229913   4.504   2.365   0.760 -1.4381  3.3790 -0.9179
 6151SOL     OW29914   2.315   3.320   2.290  0.6246  0.2562  0.2806
 6151SOL    HW129915   2.324   3.403   2.338 -0.8589  0.3744  0.3324
 6151SOL    HW229916   2.350   3.264   2.359  1.2278 -0.1003 -0.3164
 6152SOL     OW29917   3.356   3.632   4.818  0.0626  0.2094 -0.3268
 6152SOL    HW129918   3.447   3.643   4.845  0.4060 -1.5915 -0.7486
 6152SOL    HW229919   3.319   3.716   4.844 -0.1633 -0.1758  0.6363
 6153SOL     OW29920   1.988   2.551   1.602 -0.1273  0.2596  0.3185
 6153SOL    HW129921   1.977   2.590   1.515  0.8442 -0.9184 -0.3274
 6153SOL    HW229922   1.902   2.510   1.604  0.3925 -0.8804 -0.9733
 6154SOL     OW29923   3.636   2.313   4.836  0.2272 -0.0557 -0.1511
 6154SOL    HW129924   3.663   2.305   4.927 -0.7800 -0.1883  0.1306
 6154SOL    HW229925   3.540   2.316   4.835  0.2828  1.3152 -1.2006
 6155SOL     OW29926   2.324   0.188   3.784 -0.6073 -0.1138 -0.5660
 6155SOL    HW129927   2.291   0.277   3.797  2.9854  0.9746  1.2182
 6155SOL    HW229928   2.243   0.138   3.790  0.1512 -1.2527  0.3689
 6156SOL     OW29929   0.723   0.378   9.814 -0.0042  0.0157 -0.4005
 6156SOL    HW129930   0.671   0.327   9.753  0.5653 -0.6707 -0.3177
 6156SOL    HW229931   0.664   0.394   9.888 -1.4214  0.2295 -1.5773
 6157SOL     OW29932   3.299   0.505   3.445 -0.0039  0.5843  0.1453
 6157SOL    HW129933   3.360   0.486   3.516  0.3026  1.1534  0.0394
 6157SOL    HW229934   3.262   0.585   3.484 -1.6479  1.6214 -3.4471
 6158SOL     OW29935   1.425   2.693  11.617 -0.4695 -0.0707 -0.0920
 6158SOL    HW129936   1.335   2.712  11.592 -0.8873  0.3621  1.7264
 6158SOL    HW229937   1.418   2.674  11.711  0.0963  0.0030 -0.0349
 6159SOL     OW29938   3.049   2.902  12.527  0.2013 -0.0198  0.1047
 6159SOL    HW129939   3.142   2.903  12.550 -0.3628 -1.6147  2.4094
 6159SOL    HW229940   3.018   2.845  12.597 -0.8693  0.3635 -0.0671
 6160SOL     OW29941   2.089   3.237   6.106 -0.3498  0.5999  0.1722
 6160SOL    HW129942   2.000   3.207   6.126  0.5059 -0.9333  1.6686
 6160SOL    HW229943   2.068   3.326   6.075 -0.2336  0.3643 -0.5660
 6161SOL     OW29944   1.491   3.287   5.374 -0.9592  0.4400  0.6011
 6161SOL    HW129945   1.461   3.316   5.460  1.8210  0.1758  1.6617
 6161SOL    HW229946   1.544   3.213   5.403 -0.7328  0.6891  0.8257
 6162SOL     OW29947   1.929   2.617   0.613 -0.2826 -0.1519 -0.0101
 6162SOL    HW129948   1.874   2.673   0.558  1.5393  1.9375  0.2742
 6162SOL    HW229949   2.001   2.599   0.552 -0.5765  0.7096 -0.6142
 6163SOL     OW29950   0.698   2.475   3.496 -0.4956  0.0337  0.7326
 6163SOL    HW129951   0.715   2.406   3.560  1.4510 -0.3153 -0.1552
 6163SOL    HW229952   0.603   2.476   3.503 -0.4474 -0.7037  1.5231
 6164SOL     OW29953   3.670   2.850  12.903  0.6619  0.3443 -0.2870
 6164SOL    HW129954   3.663   2.763  12.862 -1.5182  0.1444  0.4798
 6164SOL    HW229955   3.691   2.902  12.826  1.5309 -0.2650 -0.4585
 6165SOL     OW29956   0.213   2.950   2.596 -0.4859 -0.0135  0.3683
 6165SOL    HW129957   0.274   2.892   2.548 -0.8228  0.4727 -0.6561
 6165SOL    HW229958   0.129   2.914   2.568 -0.2986  0.7770 -1.2061
 6166SOL     OW29959   3.778   1.042  15.994 -0.1422 -0.0339  0.1513
 6166SOL    HW129960   3.802   1.134  16.012 -1.2868  0.1552  0.7077
 6166SOL    HW229961   3.716   1.020  16.063 -1.0442  1.1166 -0.2791
 6167SOL     OW29962   1.137   4.283  11.349 -0.0600 -0.4411  0.4242
 6167SOL    HW129963   1.133   4.290  11.444 -1.6910 -1.0841  0.3937
 6167SOL    HW229964   1.232   4.271  11.342 -0.0599 -1.5589  2.3623
 6168SOL     OW29965   1.742   2.203  13.860  0.2934  0.0283 -0.2370
 6168SOL    HW129966   1.702   2.120  13.884  0.4848  0.3232  1.0756
 6168SOL    HW229967   1.696   2.212  13.776 -3.4035  0.5557  1.8560
 6169SOL     OW29968   4.592   3.634   9.863 -0.5466  0.2584  0.0679
 6169SOL    HW129969   4.643   3.600   9.789 -3.6097 -1.4135 -1.2928
 6169SOL    HW229970   4.635   3.716   9.885  0.8737 -0.3991 -0.2143
 6170SOL     OW29971   0.769   4.621   2.745  0.2480  0.3494 -0.3640
 6170SOL    HW129972   0.806   4.708   2.759  0.7028  0.3768 -1.7552
 6170SOL    HW229973   0.739   4.599   2.833 -3.1360  3.6726 -0.7036
 6171SOL     OW29974   4.454   4.436   2.773 -0.0300  0.8799 -0.0307
 6171SOL    HW129975   4.528   4.466   2.825  0.7911 -0.4898 -0.3902
 6171SOL    HW229976   4.483   4.470   2.688  0.9205  0.4168  0.1025
 6172SOL     OW29977   1.080   1.195   1.026  0.7528 -0.0308 -0.1199
 6172SOL    HW129978   0.997   1.150   1.039  0.4232  0.6878  0.2703
 6172SOL    HW229979   1.143   1.123   1.028  0.5554 -0.2074 -0.3218
 6173SOL     OW29980   2.136   2.953   1.535  0.0086 -0.2379  0.1053
 6173SOL    HW129981   2.144   2.926   1.443 -0.4353  2.1002 -0.6150
 6173SOL    HW229982   2.045   2.928   1.553 -0.2757  1.1163  0.5005
 6174SOL     OW29983   3.673   0.397   6.326 -0.5279 -0.0056  0.5183
 6174SOL    HW129984   3.584   0.376   6.354 -0.4868  2.4306  2.4201
 6174SOL    HW229985   3.660   0.483   6.286  1.1453  0.9360  1.9981
 6175SOL     OW29986   1.632   3.964   5.841  0.3449  0.3470  0.4702
 6175SOL    HW129987   1.618   3.883   5.792 -0.2606  1.6836 -1.6026
 6175SOL    HW229988   1.717   3.946   5.881  0.4566 -1.8121 -0.7445
 6176SOL     OW29989   3.037   1.328   8.735 -0.4044  0.6972  0.7648
 6176SOL    HW129990   3.042   1.233   8.745  0.9140  0.5646 -1.0991
 6176SOL    HW229991   2.975   1.328   8.662 -1.5432  0.5072  1.7229
 6177SOL     OW29992   0.458   1.641   5.375  0.1843  0.0934 -0.3885
 6177SOL    HW129993   0.492   1.594   5.298  0.0990 -0.6579  0.0332
 6177SOL    HW229994   0.427   1.712   5.318  0.6408  1.4439  1.0528
 6178SOL     OW29995   3.364   0.361   4.475 -0.4193  0.5010  0.2889
 6178SOL    HW129996   3.401   0.419   4.408  1.1907  0.8786  1.5197
 6178SOL    HW229997   3.278   0.359   4.433 -0.9662 -0.3292  1.4601
 6179SOL     OW29998   1.464   1.069  13.155 -0.0701  0.2695  0.1467
 6179SOL    HW129999   1.516   0.990  13.164 -1.5635 -0.5815  1.1939
 6179SOL    HW230000   1.466   1.078  13.059  1.8215  2.3105  0.3543
 6180SOL     OW30001   0.950   3.727   9.637  0.3969 -0.3086  0.5056
 6180SOL    HW130002   1.010   3.788   9.592  1.8762 -1.5418  0.8227
 6180SOL    HW230003   0.958   3.648   9.584  0.2386  1.4104 -2.0987
 6181SOL     OW30004   4.127   4.029   6.330 -0.2322 -0.5373 -0.0130
 6181SOL    HW130005   4.112   4.090   6.257 -1.3280  0.8137  1.3549
 6181SOL    HW230006   4.043   3.985   6.318  0.3797 -1.1198 -2.3313
 6182SOL     OW30007   2.624   1.061   4.750  0.0877  0.2621  0.1616
 6182SOL    HW130008   2.710   1.082   4.712 -0.4543 -1.4606 -1.9853
 6182SOL    HW230009   2.634   1.096   4.839 -0.6318 -0.7406  0.6327
 6183SOL     OW30010   0.326   0.228   9.819  0.0591  0.4014  0.6998
 6183SOL    HW130011   0.337   0.318   9.789  1.1225 -0.5426 -1.7832
 6183SOL    HW230012   0.237   0.217   9.784 -0.0384 -1.9834  1.7200
 6184SOL     OW30013   3.080   4.429   7.429  0.7636  0.3928 -0.2849
 6184SOL    HW130014   3.125   4.453   7.347  0.8667  2.1787  0.3004
 6184SOL    HW230015   3.016   4.365   7.398 -0.6642  2.7873 -2.2364
 6185SOL     OW30016   1.583   1.563  15.527 -0.4059  0.1904  0.3313
 6185SOL    HW130017   1.651   1.608  15.476  1.4145  1.9251  4.3560
 6185SOL    HW230018   1.608   1.472  15.515 -0.5295 -0.0241  1.7743
 6186SOL     OW30019   4.510   3.389   1.276  0.9519  0.1835  0.4865
 6186SOL    HW130020   4.585   3.432   1.316 -0.1535  3.1556 -0.6720
 6186SOL    HW230021   4.477   3.460   1.222 -3.1394 -1.0273  1.3550
 6187SOL     OW30022   3.442   2.731  13.532  0.5783 -0.5785  0.5276
 6187SOL    HW130023   3.415   2.823  13.540 -2.4610 -1.1762 -2.7277
 6187SOL    HW230024   3.512   2.746  13.468  0.5560 -0.5248  0.5153
 6188SOL     OW30025   2.009   4.314   9.539 -0.3359 -0.7296 -0.3375
 6188SOL    HW130026   1.991   4.388   9.481  1.4649 -0.4401 -0.5183
 6188SOL    HW230027   1.949   4.241   9.522  0.1296 -1.3847  0.8251
 6189SOL     OW30028   1.476   0.104   8.712 -0.3650 -0.1578  0.4964
 6189SOL    HW130029   1.428   0.177   8.672 -1.0558 -1.2616 -0.6676
 6189SOL    HW230030   1.442   0.109   8.802 -0.2302  1.5052  0.4582
 6190SOL     OW30031   2.612   3.976   8.791  0.4041 -0.2868  0.2193
 6190SOL    HW130032   2.546   3.925   8.839  0.8412 -1.2467 -0.2022
 6190SOL    HW230033   2.564   3.987   8.709  0.9797  0.6774  0.0055
 6191SOL     OW30034   4.305   1.147  11.389 -0.9256  0.2128 -0.2291
 6191SOL    HW130035   4.353   1.175  11.311  1.1043 -1.6635  0.3581
 6191SOL    HW230036   4.223   1.192  11.366 -0.6185  0.2902 -1.1491
 6192SOL     OW30037   0.681   0.866   6.439  0.2108 -0.4202  0.0605
 6192SOL    HW130038   0.587   0.852   6.452  0.7808 -2.9895  1.3554
 6192SOL    HW230039   0.699   0.946   6.489  1.7084 -0.6518 -0.0977
 6193SOL     OW30040   1.827   0.210  11.477  0.4472  0.1764  0.2789
 6193SOL    HW130041   1.799   0.298  11.503 -1.7769 -0.3701 -0.3408
 6193SOL    HW230042   1.901   0.204  11.538  1.3883  1.7859 -0.7099
 6194SOL     OW30043   2.612   2.424  12.871 -0.3185  0.5575  0.0556
 6194SOL    HW130044   2.686   2.451  12.817  0.8928 -1.5695  0.6582
 6194SOL    HW230045   2.590   2.345  12.822 -0.7010  1.8512 -1.8596
 6195SOL     OW30046   0.349   4.026   4.694 -0.3796 -0.7131 -0.1946
 6195SOL    HW130047   0.439   3.992   4.691  0.2791  1.1505 -1.3899
 6195SOL    HW230048   0.313   3.976   4.621 -0.8279 -2.4771  1.2489
 6196SOL     OW30049   3.176   1.139   5.624 -0.7736  1.2261  0.1483
 6196SOL    HW130050   3.205   1.050   5.645  0.2645  1.3933 -0.6146
 6196SOL    HW230051   3.257   1.187   5.636  0.3652 -0.3579 -1.2150
 6197SOL     OW30052   2.101   4.571  13.323  0.1784  0.4853 -0.1953
 6197SOL    HW130053   2.183   4.617  13.339 -0.1524 -0.0361  2.9929
 6197SOL    HW230054   2.062   4.625  13.254 -1.2641 -2.6835 -1.8411
 6198SOL     OW30055   0.667   3.134   7.628 -0.2308 -0.0873 -0.3898
 6198SOL    HW130056   0.602   3.077   7.587 -0.9747  1.5301 -1.4398
 6198SOL    HW230057   0.711   3.074   7.688 -1.1331 -2.1356 -1.7859
 6199SOL     OW30058   4.370   4.048   6.758 -0.4450 -0.1415 -0.2705
 6199SOL    HW130059   4.298   4.022   6.816  0.4768  0.9336  1.3536
 6199SOL    HW230060   4.317   4.058   6.679 -0.2522  0.2940 -0.3418
 6200SOL     OW30061   3.014   1.966   0.795  0.0722  0.3326  0.6654
 6200SOL    HW130062   3.070   1.932   0.724 -0.1983  1.6551 -0.1797
 6200SOL    HW230063   2.961   1.889   0.817  1.2891 -0.8505 -0.5227
 6201SOL     OW30064   2.645   2.693   2.989 -0.0580  0.1397 -0.1254
 6201SOL    HW130065   2.727   2.689   2.941  0.1173 -1.5718  0.2974
 6201SOL    HW230066   2.651   2.606   3.030 -1.0486  0.4649  0.7269
 6202SOL     OW30067   2.797   0.926   2.021 -0.3170  0.1883  0.2651
 6202SOL    HW130068   2.865   0.969   2.073 -1.1034 -0.4648  1.8251
 6202SOL    HW230069   2.841   0.918   1.937  1.0401  1.1912  0.8811
 6203SOL     OW30070   0.511   4.553   1.211  0.1913 -0.1592  0.5940
 6203SOL    HW130071   0.563   4.558   1.130 -0.6287 -2.2338 -0.0535
 6203SOL    HW230072   0.452   4.625   1.188  1.4976  1.6419  2.9496
 6204SOL     OW30073   4.603   3.933  10.781  0.8172  0.0752 -0.5003
 6204SOL    HW130074   4.597   3.956  10.688  1.5501  0.8045 -0.3561
 6204SOL    HW230075   4.584   3.840  10.766  0.4205  0.6062 -3.4531
 6205SOL     OW30076   3.506   0.845   1.889 -0.0314  0.2718  0.3222
 6205SOL    HW130077   3.537   0.765   1.931  0.0859 -1.0538 -2.3313
 6205SOL    HW230078   3.587   0.894   1.874 -0.2060 -0.3661 -2.6197
 6206SOL     OW30079   3.501   0.814  12.199  0.3792  0.2400 -0.0442
 6206SOL    HW130080   3.409   0.812  12.173 -0.3569 -0.3871  2.5938
 6206SOL    HW230081   3.502   0.823  12.294 -2.2205 -0.1530  0.0179
 6207SOL     OW30082   2.104   3.461   6.998  0.3456 -0.1374  0.0428
 6207SOL    HW130083   2.147   3.494   7.077 -0.8910  0.4090  0.4956
 6207SOL    HW230084   2.063   3.545   6.976  0.0871 -0.5194 -0.9039
 6208SOL     OW30085   2.574   0.453   5.538  0.5237  0.2975  0.4681
 6208SOL    HW130086   2.490   0.412   5.557  0.6034  0.2504  0.7077
 6208SOL    HW230087   2.561   0.544   5.564 -0.3826  0.8340 -1.8516
 6209SOL     OW30088   0.037   0.583   7.432  0.4585 -0.5070 -0.1566
 6209SOL    HW130089   4.715   0.617   7.354 -0.0535  2.2596  1.3399
 6209SOL    HW230090   4.700   0.620   7.497  0.5702  0.0870 -0.3902
 6210SOL     OW30091   2.035   3.883  10.020  0.0627 -0.4904  0.0070
 6210SOL    HW130092   2.000   3.972  10.025 -0.5724 -0.7254 -0.2789
 6210SOL    HW230093   2.126   3.893  10.050 -0.5402  1.0840  1.3117
 6211SOL     OW30094   1.125   1.145   5.378 -0.0014 -0.3945 -0.1845
 6211SOL    HW130095   1.127   1.202   5.301 -0.1474  0.3054  0.3360
 6211SOL    HW230096   1.212   1.159   5.413 -1.1783 -1.3501  3.1016
 6212SOL     OW30097   0.224   1.271   3.974 -0.2223 -0.1857  0.1289
 6212SOL    HW130098   0.185   1.352   3.940  1.0811 -0.2281 -1.4359
 6212SOL    HW230099   0.313   1.302   3.990  0.1371 -1.5904  0.8122
 6213SOL     OW30100   3.896   1.504   6.376  0.4892  0.5616  0.3639
 6213SOL    HW130101   3.976   1.454   6.395  0.1008 -0.0135  0.4915
 6213SOL    HW230102   3.845   1.430   6.343 -0.6993  2.0942 -1.1584
 6214SOL     OW30103   2.032   2.271  15.849 -0.6615 -0.6279 -0.0168
 6214SOL    HW130104   2.086   2.348  15.867 -0.7451 -0.6364  0.2597
 6214SOL    HW230105   1.959   2.309  15.799 -0.7403 -0.3317  0.3195
 6215SOL     OW30106   0.452   4.070  12.745 -0.2190 -0.4789  0.3536
 6215SOL    HW130107   0.479   4.161  12.754 -0.4180 -0.2755 -1.1592
 6215SOL    HW230108   0.520   4.033  12.802  0.4207  1.9219  1.1295
 6216SOL     OW30109   0.253   1.645  14.439  0.0638 -0.2641 -0.1179
 6216SOL    HW130110   0.325   1.596  14.480 -0.7472 -1.9562 -0.7358
 6216SOL    HW230111   0.183   1.643  14.504 -1.5325  2.6193 -1.7684
 6217SOL     OW30112   3.640   1.925   0.403  0.8700 -0.1341 -0.6276
 6217SOL    HW130113   3.699   1.996   0.427  1.8416 -0.5162 -1.8890
 6217SOL    HW230114   3.703   1.856   0.381  3.6262  1.6410  1.7221
 6218SOL     OW30115   1.640   2.933   7.465 -0.2713  0.3776  0.8363
 6218SOL    HW130116   1.601   3.017   7.441 -1.9005 -0.0537  1.9651
 6218SOL    HW230117   1.556   2.888   7.478 -0.9981  1.2278 -0.9719
 6219SOL     OW30118   2.654   0.138   8.337  0.5161  0.2199 -0.2700
 6219SOL    HW130119   2.724   0.074   8.351 -0.2696 -0.6547 -0.3701
 6219SOL    HW230120   2.688   0.210   8.391  0.0205  2.1668 -2.5861
 6220SOL     OW30121   2.250   3.730  10.781  0.2969 -0.1855 -0.0938
 6220SOL    HW130122   2.302   3.803  10.747 -0.0998 -0.1155 -0.5576
 6220SOL    HW230123   2.288   3.733  10.869 -0.6108  1.8040  0.2399
 6221SOL     OW30124   2.842   1.346   6.341  0.2213 -0.3966 -0.0202
 6221SOL    HW130125   2.775   1.288   6.303 -0.3667 -1.7055  2.9792
 6221SOL    HW230126   2.844   1.401   6.263 -2.7184 -0.9039 -0.4564
 6222SOL     OW30127   4.666   2.780   6.929  0.7580 -0.0430  0.6124
 6222SOL    HW130128   4.576   2.780   6.896  1.0195  0.6277 -0.1117
 6222SOL    HW230129   4.704   2.703   6.887  2.5181  0.7193  0.8273
 6223SOL     OW30130   2.443   4.558  15.490 -0.3102  0.3407  0.3294
 6223SOL    HW130131   2.490   4.631  15.449 -0.2290  1.0385  1.6666
 6223SOL    HW230132   2.350   4.570  15.470 -0.3740  2.5003  1.9698
 6224SOL     OW30133   0.084   1.995   2.947  0.2992  0.0580 -0.4159
 6224SOL    HW130134   0.154   1.931   2.930  2.0248  1.5974  0.9524
 6224SOL    HW230135   0.056   2.020   2.859  1.8243 -0.0128 -0.9339
 6225SOL     OW30136   3.006   4.063   7.613 -0.1052 -0.9102  0.1460
 6225SOL    HW130137   2.950   3.998   7.655 -1.4350  1.2837  1.7725
 6225SOL    HW230138   2.936   4.119   7.579  0.9525 -0.0861 -0.6885
 6226SOL     OW30139   3.894   3.991  11.396  0.2767 -0.3984  0.4314
 6226SOL    HW130140   3.869   4.081  11.416  2.1955 -0.2424  2.1493
 6226SOL    HW230141   3.812   3.944  11.383 -0.1052  0.1345  0.9317
 6227SOL     OW30142   4.322   3.983  10.384  0.3537 -0.0507  0.0827
 6227SOL    HW130143   4.312   3.968  10.290  0.9766  0.0528  0.0010
 6227SOL    HW230144   4.291   4.073  10.392  1.0094  0.0899  1.0616
 6228SOL     OW30145   2.428   2.239  17.598 -0.3789 -0.0805  0.2118
 6228SOL    HW130146   2.437   2.288  17.516 -1.8458  0.1757  0.2028
 6228SOL    HW230147   2.509   2.248  17.649  0.8504  0.2721 -1.8079
 6229SOL     OW30148   0.266   2.016   3.593 -0.1154  0.2015 -0.6306
 6229SOL    HW130149   0.180   1.985   3.565  0.7884 -1.0808 -1.9682
 6229SOL    HW230150   0.235   2.102   3.623  2.8869  0.3477  2.0555
 6230SOL     OW30151   1.936   3.344   5.163 -0.2365 -0.1289 -0.1714
 6230SOL    HW130152   1.961   3.392   5.242 -0.5716 -0.4634  0.1354
 6230SOL    HW230153   1.995   3.389   5.103 -0.9975  1.5605  0.3491
 6231SOL     OW30154   3.924   0.328   9.227  0.2809  0.2201 -0.0674
 6231SOL    HW130155   3.839   0.285   9.220 -0.4245  1.3577  1.4902
 6231SOL    HW230156   3.910   0.418   9.199 -0.2773  0.3588  0.6666
 6232SOL     OW30157   1.320   0.314   8.601  0.2532 -0.0657 -0.1271
 6232SOL    HW130158   1.271   0.233   8.608  0.1800 -0.1007 -1.0578
 6232SOL    HW230159   1.249   0.364   8.560  0.1457  1.0314  1.3820
 6233SOL     OW30160   1.630   2.732   5.482 -0.1760 -0.1308  1.0401
 6233SOL    HW130161   1.587   2.722   5.567 -1.0153 -1.6018  0.4436
 6233SOL    HW230162   1.724   2.720   5.496 -0.5889 -2.6265  1.7605
 6234SOL     OW30163   2.815   1.767   4.619 -0.1021  0.3103  0.1021
 6234SOL    HW130164   2.817   1.822   4.697 -0.7258 -0.6944  0.8347
 6234SOL    HW230165   2.822   1.677   4.650  0.7017  0.6807  0.9980
 6235SOL     OW30166   2.329   4.584   4.526  0.0970 -0.3708 -0.0556
 6235SOL    HW130167   2.406   4.617   4.480 -0.3430  0.9388  0.1443
 6235SOL    HW230168   2.268   4.656   4.508 -0.6417 -1.1128 -0.4655
 6236SOL     OW30169   4.052   4.178  11.981  0.2868 -0.4192 -0.1406
 6236SOL    HW130170   3.988   4.242  12.012 -0.8820 -2.8823  2.5987
 6236SOL    HW230171   4.023   4.098  12.026 -1.0918 -1.7564 -3.3681
 6237SOL     OW30172   3.147   1.800   4.988  0.3463  0.0615  0.8766
 6237SOL    HW130173   3.200   1.725   5.015  1.9747  1.6989  2.1807
 6237SOL    HW230174   3.203   1.826   4.915  0.1796 -0.7005  0.4799
 6238SOL     OW30175   3.327   1.898   4.759  0.4542  0.4510  0.1891
 6238SOL    HW130176   3.302   1.830   4.696  0.9906  1.0545 -0.6744
 6238SOL    HW230177   3.286   1.981   4.734 -2.3072 -0.6154  1.1133
 6239SOL     OW30178   1.924   0.457  12.383 -0.0648 -0.1026  0.0114
 6239SOL    HW130179   1.937   0.393  12.312  1.7264 -0.2691  0.5016
 6239SOL    HW230180   1.829   0.445  12.389 -0.1811  0.7468 -0.2279
 6240SOL     OW30181   2.070   1.860   8.846 -0.2316  0.0974  0.1279
 6240SOL    HW130182   2.155   1.862   8.889  0.2643  1.3855 -0.9030
 6240SOL    HW230183   2.019   1.789   8.885  0.1505 -0.2134  0.0507
 6241SOL     OW30184   1.190   0.711   2.068  0.1892  0.1710 -0.9726
 6241SOL    HW130185   1.259   0.775   2.079 -0.9272  0.9808  1.3343
 6241SOL    HW230186   1.226   0.635   2.114  0.2663 -0.1566 -1.5732
 6242SOL     OW30187   2.804   3.101   3.525  0.1747 -0.5543 -0.9338
 6242SOL    HW130188   2.795   3.012   3.560 -1.2038  0.0662  0.2757
 6242SOL    HW230189   2.897   3.111   3.544  0.4804  1.1614 -3.3187
 6243SOL     OW30190   0.385   4.014   3.403  0.0846 -0.8127 -0.1807
 6243SOL    HW130191   0.343   4.075   3.343  0.4368 -0.1166  0.2744
 6243SOL    HW230192   0.339   3.933   3.383 -0.2597 -0.0855 -2.3973
 6244SOL     OW30193   2.481   3.535   4.993  0.2271  0.3302  0.2365
 6244SOL    HW130194   2.537   3.599   5.036  1.8523 -1.3294  0.6011
 6244SOL    HW230195   2.457   3.492   5.075  1.5634 -1.7586 -0.4762
 6245SOL     OW30196   4.060   1.270  11.279 -0.1723  0.3295  0.1544
 6245SOL    HW130197   3.993   1.235  11.220  0.3124  0.8650 -0.6996
 6245SOL    HW230198   4.077   1.348  11.227  1.5836 -0.0376  0.2035
 6246SOL     OW30199   3.908   1.959   5.268  0.1829 -0.1206  0.0193
 6246SOL    HW130200   4.001   1.976   5.254 -0.2287  1.7427 -0.4142
 6246SOL    HW230201   3.886   2.049   5.245 -0.8374 -0.6174 -0.9927
 6247SOL     OW30202   2.285   0.373  14.579  0.2121 -0.0115  0.1036
 6247SOL    HW130203   2.377   0.371  14.552  0.8561  0.3146  2.3073
 6247SOL    HW230204   2.261   0.436  14.511 -1.3936  0.3421  1.0048
 6248SOL     OW30205   1.974   3.245  17.435 -0.2733  0.1371 -0.3843
 6248SOL    HW130206   1.956   3.309  17.366  2.6916  2.8389  1.3801
 6248SOL    HW230207   2.055   3.280  17.471 -0.0708 -0.3712 -0.3406
 6249SOL     OW30208   4.180   2.486   4.272 -0.7285  0.0254  0.1205
 6249SOL    HW130209   4.117   2.426   4.232  2.1558 -1.7275 -1.8115
 6249SOL    HW230210   4.123   2.532   4.333 -1.0565 -0.6301  0.2985
 6250SOL     OW30211   0.090   4.354   1.808  0.6835 -0.0180  0.0252
 6250SOL    HW130212   0.175   4.400   1.807  0.7186 -0.1491 -2.3402
 6250SOL    HW230213   0.110   4.277   1.861 -2.6644 -0.9452 -0.0637
 6251SOL     OW30214   1.076   1.031   8.674  0.1690  0.1242 -0.0597
 6251SOL    HW130215   1.093   1.105   8.616  1.3882  0.1054  0.2726
 6251SOL    HW230216   1.025   1.077   8.740  0.2903 -0.7256  0.6343
 6252SOL     OW30217   0.376   0.051   1.078 -0.0083  0.4573  0.1591
 6252SOL    HW130218   0.298   0.068   1.131 -0.8830 -2.7693 -0.0586
 6252SOL    HW230219   0.335   0.046   0.992  1.0133  0.5174 -0.3225
 6253SOL     OW30220   2.114   1.069   7.709  0.0783  0.2007  0.0531
 6253SOL    HW130221   2.186   1.069   7.771 -1.0378 -1.2214  1.3594
 6253SOL    HW230222   2.081   0.985   7.743 -1.2609  0.9579  0.6231
 6254SOL     OW30223   1.065   1.026   7.940 -0.8259  0.4199  0.1965
 6254SOL    HW130224   1.011   1.101   7.965 -0.2634  0.2037  2.1340
 6254SOL    HW230225   1.094   1.049   7.852  0.1075  0.1311  0.4278
 6255SOL     OW30226   1.051   3.728   2.790  0.2471 -0.1559  0.0474
 6255SOL    HW130227   1.027   3.802   2.733 -0.2324 -0.9083 -0.7164
 6255SOL    HW230228   1.117   3.692   2.732  0.0525  1.6028 -1.3032
 6256SOL     OW30229   3.089   4.123  16.072 -0.0522 -0.0238  0.3865
 6256SOL    HW130230   3.053   4.132  15.983  0.1243 -0.3835  0.2836
 6256SOL    HW230231   3.181   4.147  16.065 -0.0814 -0.4782 -1.5333
 6257SOL     OW30232   3.891   4.392   5.519  0.3449 -0.0307 -0.0419
 6257SOL    HW130233   3.851   4.479   5.515  3.8365  1.5999  0.6080
 6257SOL    HW230234   3.855   4.364   5.434 -1.0107  0.7379  0.2826
 6258SOL     OW30235   2.128   3.710   3.028  0.1318 -0.2160 -0.3612
 6258SOL    HW130236   2.170   3.772   3.088 -1.0357 -0.2146  0.4435
 6258SOL    HW230237   2.144   3.634   3.085 -0.5158 -0.1704 -0.1189
 6259SOL     OW30238   4.025   3.309   2.101  0.3046 -0.5077 -0.0788
 6259SOL    HW130239   4.063   3.397   2.103  0.0098 -0.3760 -0.3221
 6259SOL    HW230240   3.991   3.295   2.190  0.4545  0.7266  0.1719
 6260SOL     OW30241   1.848   3.542   0.665  0.2371 -0.2102 -0.2129
 6260SOL    HW130242   1.834   3.569   0.574  1.5744  2.4140  0.3811
 6260SOL    HW230243   1.929   3.492   0.655  0.1768 -0.0098 -1.6361
 6261SOL     OW30244   1.455   0.841   6.731 -0.3800  0.5019  0.9008
 6261SOL    HW130245   1.444   0.841   6.636 -3.2130 -0.2425  1.2418
 6261SOL    HW230246   1.366   0.851   6.764 -0.8585 -2.6638  0.5344
 6262SOL     OW30247   2.923   3.224   7.249  0.0941  0.4540 -0.2214
 6262SOL    HW130248   2.916   3.275   7.169  3.1458 -1.6911 -1.8477
 6262SOL    HW230249   2.991   3.164   7.216 -1.1164 -1.3797  0.5836
 6263SOL     OW30250   2.805   4.046  13.442  0.5392 -0.2649  0.2591
 6263SOL    HW130251   2.715   4.080  13.441  0.6935  0.1228 -0.2677
 6263SOL    HW230252   2.843   4.057  13.355  0.4791  3.1797  0.6654
 6264SOL     OW30253   0.918   3.901  15.950  0.1319  0.3952 -0.1321
 6264SOL    HW130254   0.934   3.922  16.042 -1.8454  1.2410  0.0358
 6264SOL    HW230255   0.952   3.812  15.961 -0.2012  0.6358  2.7571
 6265SOL     OW30256   1.331   3.249   3.699 -0.2330  0.2779 -0.0959
 6265SOL    HW130257   1.375   3.292   3.772  1.0197 -0.8669 -0.1836
 6265SOL    HW230258   1.302   3.325   3.649 -0.4263  1.1417  1.3385
 6266SOL     OW30259   4.276   0.577   3.294 -0.2683  0.0309 -0.3531
 6266SOL    HW130260   4.202   0.631   3.264 -0.8703 -0.7345 -0.2423
 6266SOL    HW230261   4.242   0.488   3.284  1.7805 -0.8439  0.4607
 6267SOL     OW30262   2.384   4.154   9.940  0.1676 -0.1826 -0.0514
 6267SOL    HW130263   2.473   4.181   9.918  0.5148 -1.5972 -0.3676
 6267SOL    HW230264   2.342   4.194   9.864 -1.1214 -0.9192  0.2782
 6268SOL     OW30265   0.327   3.727   1.636 -0.2189 -0.5843  0.3575
 6268SOL    HW130266   0.393   3.791   1.609  0.8251 -0.3795  3.4216
 6268SOL    HW230267   0.342   3.728   1.731 -1.1301 -0.7073  0.5016
 6269SOL     OW30268   3.746   2.265   7.134 -0.2602 -0.4848 -0.6226
 6269SOL    HW130269   3.723   2.358   7.140 -1.6381 -0.9185  0.8924
 6269SOL    HW230270   3.657   2.232   7.123 -0.6755  0.0926  0.9098
 6270SOL     OW30271   2.944   1.025  17.456  0.5093 -0.4665 -0.3606
 6270SOL    HW130272   2.856   1.061  17.461  0.1720 -1.1345 -1.3839
 6270SOL    HW230273   2.998   1.102  17.473  1.0690 -0.8183 -0.5447
 6271SOL     OW30274   3.068   3.488   2.369 -0.0525  0.3444 -0.3719
 6271SOL    HW130275   2.997   3.447   2.320 -0.1330  1.0013 -0.8046
 6271SOL    HW230276   3.121   3.409   2.376 -0.5886 -0.0292 -0.4943
 6272SOL     OW30277   3.674   4.457   5.783  0.0061  0.2893 -0.7297
 6272SOL    HW130278   3.620   4.462   5.704 -0.1220 -0.4645 -0.6890
 6272SOL    HW230279   3.605   4.461   5.849  1.5154  1.3835  0.7751
 6273SOL     OW30280   3.598   2.643  11.171 -0.1041  0.3555 -0.3598
 6273SOL    HW130281   3.670   2.704  11.153 -0.8067  0.9245 -1.2534
 6273SOL    HW230282   3.557   2.640  11.084 -0.1408  2.7931 -0.4206
 6274SOL     OW30283   2.962   3.137   5.363 -0.5762  0.2828  0.0535
 6274SOL    HW130284   2.995   3.224   5.345 -0.5223  0.4643  1.0080
 6274SOL    HW230285   2.895   3.138   5.294  2.5466 -0.7848 -2.9397
 6275SOL     OW30286   0.365   0.532  14.526  0.0992  0.5957 -0.1969
 6275SOL    HW130287   0.306   0.463  14.497 -1.6208  2.0276 -0.1218
 6275SOL    HW230288   0.341   0.532  14.619  0.5083  0.4001 -0.0881
 6276SOL     OW30289   0.833   3.856  16.805  0.3951  0.5793 -0.0090
 6276SOL    HW130290   0.907   3.905  16.842  0.0634  0.6419  0.5754
 6276SOL    HW230291   0.767   3.924  16.790 -0.0290  0.2712  0.4543
 6277SOL     OW30292   2.509   3.326  15.937  0.4615  0.0190 -0.1620
 6277SOL    HW130293   2.439   3.370  15.890  0.7264 -1.0749 -1.5794
 6277SOL    HW230294   2.471   3.293  16.019 -0.3892  0.7252 -0.2749
 6278SOL     OW30295   3.413   4.715   6.883  0.0379 -0.2610  0.2657
 6278SOL    HW130296   3.395   4.672   6.800  0.0814  0.8871 -0.3406
 6278SOL    HW230297   3.491   4.671   6.916  0.4837 -1.7149 -2.7972
 6279SOL     OW30298   4.448   2.711  10.506  0.1569  0.0153 -0.1575
 6279SOL    HW130299   4.391   2.667  10.569 -0.9022  0.2836 -0.9240
 6279SOL    HW230300   4.388   2.715  10.431 -0.6609 -0.6027  0.4721
 6280SOL     OW30301   0.778   2.871   7.473 -0.3003 -0.1929  0.4885
 6280SOL    HW130302   0.694   2.914   7.486  1.3417  2.4473  2.2220
 6280SOL    HW230303   0.766   2.813   7.549  1.2318 -0.4764  0.5121
 6281SOL     OW30304   2.402   0.563  16.978 -0.1497 -1.0343  0.7920
 6281SOL    HW130305   2.334   0.568  17.046  1.0189 -0.5739  1.9111
 6281SOL    HW230306   2.379   0.492  16.918 -1.8371 -0.1388  0.3799
 6282SOL     OW30307   3.431   2.853   5.402  0.3957  0.4933  0.6080
 6282SOL    HW130308   3.342   2.839   5.434  0.0360  1.7082  0.1530
 6282SOL    HW230309   3.467   2.780   5.452 -1.8015 -0.9816  0.0165
 6283SOL     OW30310   1.244   3.762  11.860  0.1666  0.3759 -0.0135
 6283SOL    HW130311   1.157   3.778  11.822  0.6375 -1.3223 -1.7923
 6283SOL    HW230312   1.275   3.729  11.776 -0.2637  0.5080 -0.2222
 6284SOL     OW30313   1.651   1.127   5.167  0.1799 -0.2772  0.2057
 6284SOL    HW130314   1.673   1.060   5.232  0.8556 -0.3678 -0.1199
 6284SOL    HW230315   1.632   1.204   5.221 -3.2041 -1.9483  1.4057
 6285SOL     OW30316   0.204   4.411   3.549 -0.0919  0.0071 -0.1571
 6285SOL    HW130317   0.216   4.505   3.532  0.4830 -0.0238  0.0868
 6285SOL    HW230318   0.120   4.384   3.511  0.0492 -0.2027 -0.3203
 6286SOL     OW30319   1.112   2.582   6.697 -0.2144 -0.0487  0.0141
 6286SOL    HW130320   1.103   2.488   6.679  1.0187 -0.1734  0.0659
 6286SOL    HW230321   1.094   2.594   6.790 -2.3662 -0.8850 -0.2775
 6287SOL     OW30322   1.476   3.599   3.549  0.2347 -0.1465  0.0507
 6287SOL    HW130323   1.534   3.525   3.570 -1.6273 -1.4893  0.4103
 6287SOL    HW230324   1.530   3.642   3.482  1.7070  1.0441  1.9932
 6288SOL     OW30325   1.396   3.396   7.359  0.1192  0.3631 -0.1554
 6288SOL    HW130326   1.444   3.478   7.359  0.4279  0.1805  0.1398
 6288SOL    HW230327   1.316   3.398   7.412 -1.4323  0.3472 -2.4736
 6289SOL     OW30328   3.118   2.947   5.081 -0.0093 -0.6702  0.4557
 6289SOL    HW130329   3.140   3.040   5.070  0.6480 -1.2183 -2.9214
 6289SOL    HW230330   3.112   2.941   5.176  2.6904 -1.0522  0.5973
 6290SOL     OW30331   3.476   3.080   8.708 -0.2643 -0.0976  0.2501
 6290SOL    HW130332   3.442   3.050   8.624 -1.4208 -0.7784  0.9566
 6290SOL    HW230333   3.419   3.030   8.767  0.5288 -1.0485  0.2216
 6291SOL     OW30334   1.660   3.182  15.724 -0.0079  0.0407 -0.4650
 6291SOL    HW130335   1.650   3.171  15.819  3.9793  3.1350  0.2945
 6291SOL    HW230336   1.653   3.274  15.699  0.2340  0.3278  0.5052
 6292SOL     OW30337   4.583   0.457   1.957 -0.0618  0.0973  0.2840
 6292SOL    HW130338   4.673   0.425   1.954 -0.8702 -1.9227 -1.7181
 6292SOL    HW230339   4.539   0.375   1.978 -1.2391  0.3386 -1.3070
 6293SOL     OW30340   3.141   4.550   3.603 -0.0986 -0.6167  0.1344
 6293SOL    HW130341   3.111   4.471   3.558  0.2903 -1.3012  1.0832
 6293SOL    HW230342   3.179   4.589   3.524 -1.2615  0.9668  0.3619
 6294SOL     OW30343   4.306   4.413   2.052 -0.0096 -0.2693 -0.3929
 6294SOL    HW130344   4.311   4.445   1.962  0.4739  0.4764 -0.1023
 6294SOL    HW230345   4.400   4.403   2.060  0.1299  1.7543  0.4578
 6295SOL     OW30346   2.703   0.822   3.781  0.0662 -0.1924 -0.3343
 6295SOL    HW130347   2.635   0.821   3.714 -1.1750 -0.1836  0.9228
 6295SOL    HW230348   2.780   0.783   3.739  0.4537 -0.9743  1.1060
 6296SOL     OW30349   4.120   3.300   6.689  0.8592 -0.1601  0.2890
 6296SOL    HW130350   4.166   3.377   6.656  1.3511 -1.0501 -1.1050
 6296SOL    HW230351   4.195   3.248   6.717  1.5382  0.3167 -0.6361
 6297SOL     OW30352   1.904   4.028   7.849  0.3500  0.2609 -0.6614
 6297SOL    HW130353   1.993   4.060   7.836  0.6619  0.7913  2.7746
 6297SOL    HW230354   1.931   3.943   7.885 -1.6145  0.4935  1.3892
 6298SOL     OW30355   3.833   1.426   3.255 -0.2930 -0.0918 -0.4779
 6298SOL    HW130356   3.759   1.439   3.196 -0.6083 -1.2346 -0.3505
 6298SOL    HW230357   3.848   1.331   3.251 -0.6307 -0.1606 -0.1663
 6299SOL     OW30358   0.245   1.607   1.824  0.0720 -0.4274 -1.2202
 6299SOL    HW130359   0.302   1.569   1.758  1.6403  0.9495 -0.6625
 6299SOL    HW230360   0.304   1.604   1.899  0.4044  1.0811 -1.4196
 6300SOL     OW30361   4.582   3.562  10.990 -0.0294 -0.4497  0.5012
 6300SOL    HW130362   4.582   3.601  11.078 -0.3813 -0.6502  0.5902
 6300SOL    HW230363   4.662   3.509  10.985 -0.0585 -0.3039 -1.3265
 6301SOL     OW30364   1.097   1.619   4.779 -0.5797 -0.6285 -0.4393
 6301SOL    HW130365   1.021   1.563   4.789 -0.4799 -0.5101  1.0131
 6301SOL    HW230366   1.155   1.546   4.758 -0.9429 -1.0673  0.0863
 6302SOL     OW30367   3.164   3.907   5.343  0.4472 -0.2763 -0.5012
 6302SOL    HW130368   3.222   3.855   5.288  0.1797 -3.0782  1.8770
 6302SOL    HW230369   3.205   3.991   5.324  0.1178  0.3613  1.5166
 6303SOL     OW30370   0.742   0.071   6.102  0.0013 -0.6202  0.1972
 6303SOL    HW130371   0.766   4.701   6.110 -0.0568 -0.5505  1.1498
 6303SOL    HW230372   0.802   0.119   6.158 -0.1949 -0.8316  0.5910
 6304SOL     OW30373   0.827   4.659  13.208  0.4545  0.2643  0.0505
 6304SOL    HW130374   0.880   4.672  13.130 -0.6528  0.5931 -0.6415
 6304SOL    HW230375   0.798   0.025  13.231 -2.8435 -1.2205  1.6533
 6305SOL     OW30376   1.921   4.038   8.261 -0.7384  0.4326  0.6815
 6305SOL    HW130377   1.989   3.971   8.256 -0.6179  0.6711 -0.8099
 6305SOL    HW230378   1.948   4.083   8.181 -2.6500  0.9298  0.2979
 6306SOL     OW30379   4.674   2.833   6.164  0.4069  0.6737  0.2002
 6306SOL    HW130380   4.579   2.841   6.163  0.4333  0.9163 -0.4493
 6306SOL    HW230381   4.690   2.832   6.070 -0.2820 -0.3351  0.0966
 6307SOL     OW30382   2.596   0.737   9.258 -0.1856  0.1694  0.0667
 6307SOL    HW130383   2.631   0.737   9.169 -1.5642  0.8877 -0.4942
 6307SOL    HW230384   2.514   0.785   9.242 -0.1260  0.8204  1.7270
 6308SOL     OW30385   1.988   1.229   2.708  0.0364  0.1881  0.0745
 6308SOL    HW130386   1.938   1.302   2.672 -0.3651 -0.3590 -0.4565
 6308SOL    HW230387   2.002   1.258   2.798 -1.0497  0.2846  0.2099
 6309SOL     OW30388   3.269   0.680   6.009 -0.2052 -0.1803 -0.1674
 6309SOL    HW130389   3.242   0.634   5.930  0.4657 -0.4048 -0.2709
 6309SOL    HW230390   3.210   0.755   6.010 -0.3308 -0.2702 -0.9032
 6310SOL     OW30391   4.395   1.574   4.781  0.5632  0.0639  0.1129
 6310SOL    HW130392   4.481   1.616   4.784  1.3630 -1.5904  0.1692
 6310SOL    HW230393   4.354   1.616   4.857  1.1973  0.0310  0.4691
 6311SOL     OW30394   0.307   1.468   5.808  0.0645  0.4686 -0.0815
 6311SOL    HW130395   0.277   1.377   5.803  0.0999  0.4159  0.7075
 6311SOL    HW230396   0.311   1.486   5.714  1.1483  0.9820  0.0586
 6312SOL     OW30397   2.606   4.300   5.520 -0.0183  0.1347 -0.0336
 6312SOL    HW130398   2.672   4.240   5.485 -1.0638 -2.0135  1.7019
 6312SOL    HW230399   2.564   4.328   5.439  1.8904  0.0570 -1.0400
 6313SOL     OW30400   2.743   2.850   6.351 -0.3174  0.0422  0.6589
 6313SOL    HW130401   2.649   2.863   6.338 -0.1701  0.1678 -0.2872
 6313SOL    HW230402   2.769   2.941   6.340  1.3366 -0.3061  1.6731
 6314SOL     OW30403   3.734   4.487   0.643  0.3482 -0.1801 -0.3214
 6314SOL    HW130404   3.808   4.519   0.695  1.7838 -2.2554 -1.0993
 6314SOL    HW230405   3.720   4.548   0.570  0.2537  2.4892  1.9395
 6315SOL     OW30406   4.371   0.979  16.244 -0.3650 -0.9840  0.2265
 6315SOL    HW130407   4.352   0.891  16.213 -1.0234 -0.5382 -0.6484
 6315SOL    HW230408   4.298   1.028  16.204  0.9539 -1.5478 -2.8590
 6316SOL     OW30409   0.018   0.919  16.544  0.6677  0.1919 -0.1092
 6316SOL    HW130410   0.089   0.981  16.561  1.8484 -1.7357  1.9673
 6316SOL    HW230411   4.715   0.960  16.461  3.7568 -2.0435 -2.1289
 6317SOL     OW30412   3.728   2.906   0.252  0.3957 -0.2052  0.1702
 6317SOL    HW130413   3.782   2.887   0.329 -1.7505  0.2482  1.7778
 6317SOL    HW230414   3.648   2.865   0.286  0.0105 -1.9962 -2.8858
 6318SOL     OW30415   4.375   1.946  10.447  0.1295  0.3551 -0.5761
 6318SOL    HW130416   4.406   2.033  10.470  1.4724  0.3992 -2.6077
 6318SOL    HW230417   4.437   1.922  10.379 -1.0179 -1.6758 -0.9100
 6319SOL     OW30418   3.264   4.644  13.372 -0.7426 -0.3329 -0.3061
 6319SOL    HW130419   3.176   4.678  13.387 -1.9526 -3.4233 -0.3352
 6319SOL    HW230420   3.302   4.720  13.328 -0.0361  0.1524  1.1470
 6320SOL     OW30421   3.008   3.814   6.473  0.3669  0.0109  0.5226
 6320SOL    HW130422   2.935   3.814   6.535 -0.3232 -1.8843 -0.2687
 6320SOL    HW230423   3.046   3.726   6.473  0.8912  0.2409  0.0631
 6321SOL     OW30424   1.473   3.902   7.452  0.0283 -0.0333 -0.1080
 6321SOL    HW130425   1.398   3.856   7.416  0.5423 -1.1869  0.2796
 6321SOL    HW230426   1.458   3.985   7.407  0.8367  0.3078  0.2506
 6322SOL     OW30427   0.699   3.832   9.585 -0.3666 -0.6516  0.3603
 6322SOL    HW130428   0.791   3.811   9.601 -0.1088  0.5915  0.5160
 6322SOL    HW230429   0.699   3.923   9.615 -3.2971 -0.7182  0.6148
 6323SOL     OW30430   1.168   1.907   8.337  0.3410 -1.0736 -0.3864
 6323SOL    HW130431   1.092   1.965   8.331  1.4489  0.4874  0.8463
 6323SOL    HW230432   1.231   1.950   8.280 -1.1689  1.4852 -0.1029
 6324SOL     OW30433   2.689   2.730  13.428 -0.0966  0.4959 -0.0649
 6324SOL    HW130434   2.767   2.680  13.450 -0.5588 -1.2732 -2.4064
 6324SOL    HW230435   2.617   2.670  13.445  0.1810 -0.4143 -2.0787
 6325SOL     OW30436   3.842   4.313   3.455 -0.1363 -0.2028 -0.1749
 6325SOL    HW130437   3.813   4.404   3.456 -0.5272 -0.3308  0.1696
 6325SOL    HW230438   3.794   4.273   3.528 -0.6308  0.7933  0.0429
 6326SOL     OW30439   4.003   1.654  10.082  0.2826 -0.1998 -0.5830
 6326SOL    HW130440   3.953   1.715  10.135  3.0859 -0.0823  1.9201
 6326SOL    HW230441   3.945   1.617  10.015 -0.4763 -0.0821  0.0126
 6327SOL     OW30442   1.834   0.525   2.329  0.4156 -0.0183  0.9112
 6327SOL    HW130443   1.910   0.583   2.329  0.7243 -0.4108  2.5341
 6327SOL    HW230444   1.826   0.500   2.237  2.6964  1.9417  0.1884
 6328SOL     OW30445   0.113   0.720   5.620 -0.2046  0.6856  0.0535
 6328SOL    HW130446   0.124   0.782   5.548  1.1533 -0.2536 -0.5335
 6328SOL    HW230447   0.150   0.772   5.692  0.6998 -0.0813  0.1482
 6329SOL     OW30448   1.733   1.060  13.598 -0.0144 -0.0858  0.0721
 6329SOL    HW130449   1.727   1.081  13.505 -1.6195  0.7664  0.3734
 6329SOL    HW230450   1.797   0.989  13.591  2.3669  2.1106 -0.3788
 6330SOL     OW30451   3.571   0.243   8.459  0.5783  0.5883  0.3734
 6330SOL    HW130452   3.562   0.166   8.403  0.2885  2.4300 -2.1137
 6330SOL    HW230453   3.485   0.250   8.501  0.0645 -0.9552 -0.4069
 6331SOL     OW30454   1.651   1.034   8.859  0.4669  0.0781 -0.1576
 6331SOL    HW130455   1.618   0.945   8.851  2.0592 -0.4793 -0.4905
 6331SOL    HW230456   1.639   1.056   8.951  1.2543  1.5248 -0.3988
 6332SOL     OW30457   3.779   4.492   4.340  0.5674 -0.0633  0.5360
 6332SOL    HW130458   3.727   4.482   4.420 -0.1282  3.2037  0.4850
 6332SOL    HW230459   3.768   4.586   4.327  1.9881  0.3889  2.7378
 6333SOL     OW30460   0.021   0.983   1.955 -0.1149  0.0711 -0.0900
 6333SOL    HW130461   4.718   0.891   1.946 -1.2659  0.5593 -1.9082
 6333SOL    HW230462   0.111   0.986   1.989  0.5126 -1.6156 -1.5994
 6334SOL     OW30463   2.229   0.686   4.266 -0.0025 -0.0364  0.6806
 6334SOL    HW130464   2.189   0.732   4.339  0.0652  1.4402 -0.2126
 6334SOL    HW230465   2.322   0.706   4.274 -0.0761 -0.0535  1.5197
 6335SOL     OW30466   4.318   4.079   0.562  0.7978  0.2665  0.0370
 6335SOL    HW130467   4.225   4.087   0.540  0.6867 -3.6366 -0.8858
 6335SOL    HW230468   4.302   3.995   0.604  0.7173  0.9363  1.3407
 6336SOL     OW30469   0.888   4.604   8.430  0.0105  0.0300  0.2756
 6336SOL    HW130470   0.891   4.699   8.417  1.4195 -0.2840 -1.6914
 6336SOL    HW230471   0.949   4.578   8.499 -0.1524 -0.9526  0.0385
 6337SOL     OW30472   4.122   2.946   6.830  0.0698  0.5504  0.4442
 6337SOL    HW130473   4.031   2.961   6.856 -0.1520 -2.1792  1.2798
 6337SOL    HW230474   4.164   2.952   6.916  0.5542 -0.7323  0.2998
 6338SOL     OW30475   3.946   3.480  14.294 -0.0600 -0.1816 -0.2703
 6338SOL    HW130476   4.006   3.547  14.261 -0.5100  0.8573  1.0055
 6338SOL    HW230477   3.866   3.532  14.286 -1.9175 -2.7193  1.6956
 6339SOL     OW30478   1.973   2.535   7.480 -0.1411 -0.9346  0.1065
 6339SOL    HW130479   1.878   2.531   7.491 -0.0560  0.4241  1.2827
 6339SOL    HW230480   2.000   2.445   7.493  1.8993 -0.4974 -1.0836
 6340SOL     OW30481   1.246   3.474  16.043  0.3324 -0.1480 -0.3661
 6340SOL    HW130482   1.181   3.419  16.087  2.3979 -2.2397  0.0577
 6340SOL    HW230483   1.241   3.442  15.953 -2.3572  3.3367 -1.4643
 6341SOL     OW30484   2.823   0.102   9.667 -0.3875  0.3577  0.3505
 6341SOL    HW130485   2.904   0.051   9.672 -2.4817 -3.0397 -0.0688
 6341SOL    HW230486   2.760   0.030   9.658  0.5745 -0.4505  0.0346
 6342SOL     OW30487   4.121   1.324   4.747 -0.0747  0.1488 -0.5154
 6342SOL    HW130488   4.114   1.248   4.806  0.5549  1.0882  0.7670
 6342SOL    HW230489   4.035   1.333   4.706 -0.3673 -0.9671 -0.1723
 6343SOL     OW30490   0.772   1.141   8.318 -0.4924  0.1192  0.2974
 6343SOL    HW130491   0.706   1.211   8.312  2.7934  3.1702 -0.2892
 6343SOL    HW230492   0.738   1.074   8.258 -1.5271  0.3933  0.5718
 6344SOL     OW30493   1.184   0.735  11.117  0.0944  0.7358 -0.6521
 6344SOL    HW130494   1.113   0.673  11.104  0.3852 -0.2818  2.5549
 6344SOL    HW230495   1.236   0.723  11.037 -0.4440 -0.4897 -0.8245
 6345SOL     OW30496   3.110   4.699  11.367 -0.3771  0.6616  0.5209
 6345SOL    HW130497   3.166   0.042  11.325 -2.2632  1.1271 -1.2616
 6345SOL    HW230498   3.130   4.711  11.460  1.9172 -1.0690  0.2563
 6346SOL     OW30499   3.954   4.618   8.629  0.1998 -0.3114 -0.2803
 6346SOL    HW130500   4.032   4.671   8.644  0.1452 -0.4099  0.3607
 6346SOL    HW230501   3.920   4.611   8.718  1.2333 -3.3773 -0.1181
 6347SOL     OW30502   0.298   4.546   6.492  0.4606  0.1220 -0.6111
 6347SOL    HW130503   0.220   4.596   6.514 -1.9624 -3.6715 -0.6336
 6347SOL    HW230504   0.352   4.542   6.571  0.9731 -2.2226 -1.0699
 6348SOL     OW30505   4.572   0.919  13.601 -0.0554 -0.2606  0.3739
 6348SOL    HW130506   4.553   1.012  13.602 -1.3727 -0.5193 -2.1326
 6348SOL    HW230507   4.624   0.916  13.521 -2.1728  0.4419 -1.0066
 6349SOL     OW30508   0.371   1.580   7.985 -0.3705 -0.5153 -0.3109
 6349SOL    HW130509   0.364   1.662   8.035 -1.2714 -0.6859 -0.1688
 6349SOL    HW230510   0.335   1.609   7.902 -0.5600  2.4344  0.7820
 6350SOL     OW30511   3.005   2.825  10.198  0.0058 -0.1283  0.3584
 6350SOL    HW130512   3.014   2.827  10.294 -1.6930  1.0434  0.4933
 6350SOL    HW230513   3.052   2.745  10.172 -1.1953 -0.3142 -1.2208
 6351SOL     OW30514   2.531   2.260   3.706 -0.3382 -0.1302  0.1928
 6351SOL    HW130515   2.506   2.189   3.765 -1.6634  1.1417  1.1653
 6351SOL    HW230516   2.479   2.236   3.629 -0.0287  0.9880 -0.3668
 6352SOL     OW30517   0.444   4.709   3.182 -0.1837 -0.2371  0.4824
 6352SOL    HW130518   0.454   0.037   3.262  0.2342  1.9280 -0.9276
 6352SOL    HW230519   0.433   0.060   3.121 -1.4503 -1.0018 -0.2314
 6353SOL     OW30520   3.131   4.534  14.897 -0.2549 -0.3318 -0.4152
 6353SOL    HW130521   3.164   4.530  14.986 -0.6702 -1.8971 -0.3287
 6353SOL    HW230522   3.062   4.599  14.910  0.2953 -0.1413  1.4856
 6354SOL     OW30523   4.192   0.702   8.218  0.3869  0.3607 -0.7049
 6354SOL    HW130524   4.174   0.619   8.262 -0.6928  1.0410  0.1526
 6354SOL    HW230525   4.287   0.700   8.219  0.3184 -1.9877  0.3346
 6355SOL     OW30526   0.825   3.801  13.176  0.5185  0.5583  0.0460
 6355SOL    HW130527   0.805   3.894  13.165  0.5890  0.1778 -3.2531
 6355SOL    HW230528   0.788   3.784  13.263 -1.3849  0.6835 -0.7331
 6356SOL     OW30529   1.791   1.498   8.238 -0.1827 -0.7678  0.1733
 6356SOL    HW130530   1.878   1.513   8.274 -0.3320  0.4635  0.0192
 6356SOL    HW230531   1.741   1.501   8.319  0.4479 -0.0930  0.5358
 6357SOL     OW30532   0.627   0.426   1.709  0.4289  0.0055  0.7822
 6357SOL    HW130533   0.551   0.371   1.688  1.2668 -0.9756  0.3754
 6357SOL    HW230534   0.690   0.400   1.642 -0.4177 -2.4960  0.9492
 6358SOL     OW30535   3.430   3.513   4.338 -0.2473 -0.0783  0.0901
 6358SOL    HW130536   3.395   3.543   4.254  1.3209 -0.6734 -0.7683
 6358SOL    HW230537   3.480   3.432   4.326 -0.8230 -0.5938  1.1370
 6359SOL     OW30538   4.465   1.401   4.505  0.1909 -0.2336 -0.7070
 6359SOL    HW130539   4.379   1.443   4.505  0.7460  0.9169  1.2035
 6359SOL    HW230540   4.453   1.312   4.472 -0.7355  0.5430 -2.4097
 6360SOL     OW30541   1.077   3.626   3.587 -0.3153 -0.5408  0.4727
 6360SOL    HW130542   1.137   3.690   3.549 -0.2519 -0.2573  1.0507
 6360SOL    HW230543   1.119   3.574   3.656 -0.2888  0.3093  1.0909
 6361SOL     OW30544   0.945   2.897  12.588 -0.2582 -0.0787  0.0267
 6361SOL    HW130545   0.850   2.903  12.602 -0.2607 -0.1527  0.0427
 6361SOL    HW230546   0.958   2.806  12.616 -0.2917  0.0492  0.4610
 6362SOL     OW30547   4.380   0.272   6.890  0.3248  0.4057 -0.0013
 6362SOL    HW130548   4.312   0.313   6.837 -0.8938  0.6885  1.7593
 6362SOL    HW230549   4.440   0.244   6.821  1.4676 -1.5788  1.7733
 6363SOL     OW30550   0.405   4.399  10.812  0.2666 -0.3386 -0.1554
 6363SOL    HW130551   0.412   4.339  10.886  1.4788 -1.0981 -0.9016
 6363SOL    HW230552   0.491   4.441  10.805  2.0134 -3.3397  3.5146
 6364SOL     OW30553   2.397   0.655   3.156 -0.0193  0.0326 -0.5570
 6364SOL    HW130554   2.303   0.674   3.152 -0.0435 -0.3008 -1.5419
 6364SOL    HW230555   2.405   0.561   3.139 -1.7646 -0.2661  0.2005
 6365SOL     OW30556   1.594   1.358   5.283 -0.0883  0.1536 -0.3305
 6365SOL    HW130557   1.633   1.416   5.348 -0.7531  0.3599 -0.1151
 6365SOL    HW230558   1.557   1.429   5.230  1.5186 -0.1005 -1.8025
 6366SOL     OW30559   0.186   4.638  10.050  0.1275  0.2804  0.0003
 6366SOL    HW130560   0.117   4.681  10.102  1.4575  0.4844  1.5921
 6366SOL    HW230561   0.263   4.692  10.069  0.3599 -0.3572  0.9150
 6367SOL     OW30562   2.175   1.362   3.064  0.6110 -0.0573 -0.8527
 6367SOL    HW130563   2.231   1.337   2.990 -1.0096  0.7884 -2.3936
 6367SOL    HW230564   2.225   1.435   3.100  3.6938 -1.6170 -1.9456
 6368SOL     OW30565   3.259   0.224   7.418 -0.2187  0.0640  0.4836
 6368SOL    HW130566   3.195   0.236   7.348  1.4194  1.5479 -0.7689
 6368SOL    HW230567   3.289   0.313   7.438 -0.6568 -0.2233  2.4092
 6369SOL     OW30568   4.639   2.998   0.852  0.4967  0.2554 -0.0802
 6369SOL    HW130569   4.546   2.991   0.832  0.0238 -0.3897  2.3399
 6369SOL    HW230570   4.658   2.905   0.865  2.1751  0.1809 -3.0785
 6370SOL     OW30571   3.830   3.163   2.331 -0.1326  0.5475 -0.2794
 6370SOL    HW130572   3.834   3.076   2.371  0.7545  0.8112  0.1823
 6370SOL    HW230573   3.879   3.213   2.396  0.5734  0.9611 -1.1248
 6371SOL     OW30574   0.426   0.827   1.875  0.1908  0.1796  0.3344
 6371SOL    HW130575   0.463   0.740   1.893  1.1261  0.6469  0.6579
 6371SOL    HW230576   0.504   0.875   1.848 -0.5532  1.0895 -0.1799
 6372SOL     OW30577   3.683   3.805   6.607  0.2366  0.6985 -0.4258
 6372SOL    HW130578   3.656   3.872   6.544 -1.9571 -3.8282 -4.3043
 6372SOL    HW230579   3.692   3.860   6.685 -2.6699  0.0929  0.3288
 6373SOL     OW30580   0.966   4.129  11.819 -0.4908 -0.7338  0.4780
 6373SOL    HW130581   0.874   4.149  11.798 -0.4069  0.2654  1.0431
 6373SOL    HW230582   0.981   4.044  11.777 -0.1234 -0.1857 -0.5125
 6374SOL     OW30583   0.395   2.948   9.122 -0.3310 -0.3349  0.1642
 6374SOL    HW130584   0.394   3.039   9.151 -0.2079  0.2713 -1.7180
 6374SOL    HW230585   0.453   2.953   9.045  0.7754 -0.4539  0.9937
 6375SOL     OW30586   0.933   1.004  17.181  0.2946 -0.7657  0.5747
 6375SOL    HW130587   0.842   0.990  17.156 -0.3061  1.1956  1.7257
 6375SOL    HW230588   0.912   1.047  17.264 -0.5049  0.3159 -0.1897
 6376SOL     OW30589   2.792   3.802   4.910  0.0367 -0.5623 -0.0827
 6376SOL    HW130590   2.700   3.812   4.889  0.1682  1.6016  0.3720
 6376SOL    HW230591   2.822   3.892   4.897  1.0773 -0.8134  0.5327
 6377SOL     OW30592   0.946   1.788   6.104  0.4386  0.2952 -0.6375
 6377SOL    HW130593   0.880   1.834   6.053  1.4901  2.0017 -0.4709
 6377SOL    HW230594   0.908   1.701   6.098  0.7543  0.1258 -0.2048
 6378SOL     OW30595   1.691   0.397   4.911  0.1048 -0.7840  0.3007
 6378SOL    HW130596   1.690   0.355   4.824 -2.5958 -0.1419  0.0374
 6378SOL    HW230597   1.756   0.465   4.894  0.9155 -1.9585 -1.4204
 6379SOL     OW30598   3.545   2.609  10.869 -0.2028 -0.0864  0.4973
 6379SOL    HW130599   3.510   2.573  10.788 -0.5628 -1.6712  1.3553
 6379SOL    HW230600   3.596   2.531  10.891 -0.2410 -0.2787 -0.1142
 6380SOL     OW30601   3.562   2.692   2.000  0.1493  0.0412  0.6311
 6380SOL    HW130602   3.595   2.759   2.060  1.1041  0.3398 -0.2383
 6380SOL    HW230603   3.641   2.648   1.968 -0.0184 -1.0432  1.6643
 6381SOL     OW30604   0.734   3.331  10.680  0.2835 -0.5669 -0.0705
 6381SOL    HW130605   0.818   3.344  10.724 -0.0825  0.2127  0.4011
 6381SOL    HW230606   0.755   3.260  10.619  2.1407 -2.1851  2.4649
 6382SOL     OW30607   2.948   2.255   0.718 -0.5532  0.7542 -0.6111
 6382SOL    HW130608   2.951   2.161   0.701  0.1415  0.9060 -1.2930
 6382SOL    HW230609   2.894   2.259   0.797 -1.0647 -1.4182 -0.8297
 6383SOL     OW30610   4.656   2.555   3.540  0.4370  0.4344 -0.3075
 6383SOL    HW130611   4.614   2.485   3.590  1.4233 -0.8568 -1.3052
 6383SOL    HW230612   4.712   2.498   3.487  0.5565  1.5877 -1.4091
 6384SOL     OW30613   4.634   2.564  14.361  0.2312 -0.9793  0.6835
 6384SOL    HW130614   4.693   2.491  14.346  1.2232  0.4684 -2.5017
 6384SOL    HW230615   4.680   2.603  14.435  0.7837 -0.6853  0.1805
 6385SOL     OW30616   4.321   0.181   3.079 -0.1760 -0.3288 -0.0557
 6385SOL    HW130617   4.234   0.211   3.108  0.2756  0.3427  0.5947
 6385SOL    HW230618   4.363   0.186   3.164 -0.8733  0.7186  0.2283
 6386SOL     OW30619   4.333   1.317   5.133 -0.3279 -0.3765  0.0108
 6386SOL    HW130620   4.268   1.378   5.097 -0.9705 -0.7432  0.5352
 6386SOL    HW230621   4.383   1.313   5.052 -1.0844  0.1841 -0.4746
 6387SOL     OW30622   1.889   0.238   2.905 -0.4294 -0.0278 -0.4316
 6387SOL    HW130623   1.875   0.326   2.870  0.8306  0.9045  1.4565
 6387SOL    HW230624   1.934   0.195   2.832  0.9343  1.7533 -0.6384
 6388SOL     OW30625   4.502   2.344   7.789 -0.0472 -0.4830 -0.8275
 6388SOL    HW130626   4.483   2.260   7.832 -1.6616  1.6222  2.6257
 6388SOL    HW230627   4.524   2.316   7.701  1.3438 -0.8356 -0.3621
 6389SOL     OW30628   0.721   1.760   1.575 -0.7627  0.4952  0.1221
 6389SOL    HW130629   0.721   1.817   1.497 -1.2424  1.0396  0.5238
 6389SOL    HW230630   0.811   1.727   1.568 -1.0693  0.0538 -1.7696
 6390SOL     OW30631   4.084   2.097   4.878 -0.7178  0.3426  0.3262
 6390SOL    HW130632   3.992   2.090   4.852 -0.5741 -1.2673  0.2306
 6390SOL    HW230633   4.094   2.183   4.919  2.1747  0.8799 -1.4759
 6391SOL     OW30634   4.529   0.327   9.628  0.1097 -0.3572 -0.4956
 6391SOL    HW130635   4.551   0.237   9.603  0.3698 -0.4104 -0.0674
 6391SOL    HW230636   4.551   0.305   9.719  0.9074 -0.6656 -0.7645
 6392SOL     OW30637   4.007   2.764  14.065  0.4271 -0.2807  0.0668
 6392SOL    HW130638   4.006   2.859  14.053 -1.5967 -0.6956 -2.9689
 6392SOL    HW230639   4.026   2.763  14.159  1.1947  3.6687 -0.0567
 6393SOL     OW30640   4.231   1.774   7.976 -0.3101  0.0607 -0.3942
 6393SOL    HW130641   4.210   1.717   8.050 -0.8255 -0.6878 -1.1338
 6393SOL    HW230642   4.324   1.753   7.970  0.0420  1.7839 -0.9323
 6394SOL     OW30643   1.414   4.271   4.576 -0.2367  0.2249  0.2587
 6394SOL    HW130644   1.374   4.265   4.663 -0.9643  1.6889  0.0274
 6394SOL    HW230645   1.342   4.288   4.516 -0.4882 -0.9412  0.2307
 6395SOL     OW30646   3.932   0.421   5.028  0.7415 -0.4606 -0.4806
 6395SOL    HW130647   3.957   0.495   5.083  0.1147 -1.1267  0.7019
 6395SOL    HW230648   3.959   0.453   4.942  0.4177  1.4145  0.1230
 6396SOL     OW30649   0.818   3.375   6.677  0.0195 -0.5725  0.2727
 6396SOL    HW130650   0.800   3.303   6.737 -1.1060  1.5338  2.5061
 6396SOL    HW230651   0.745   3.436   6.691 -1.2435 -2.1044  0.2627
 6397SOL     OW30652   1.883   1.868  15.851 -0.0155 -0.1161 -0.1304
 6397SOL    HW130653   1.809   1.905  15.802 -1.3614 -0.3004  1.7370
 6397SOL    HW230654   1.954   1.931  15.839  0.4740 -1.0170 -1.9502
 6398SOL     OW30655   0.759   2.183   4.563 -0.2071 -0.3310 -0.3614
 6398SOL    HW130656   0.753   2.093   4.595 -1.0677  0.5186  1.8404
 6398SOL    HW230657   0.676   2.212   4.599 -0.3181 -3.1056  1.6198
 6399SOL     OW30658   0.433   3.478   1.110 -0.0493 -0.1609  0.2973
 6399SOL    HW130659   0.398   3.515   1.029  1.3701  4.1185  1.6244
 6399SOL    HW230660   0.519   3.520   1.108 -1.3845  2.4494 -0.8144
 6400SOL     OW30661   4.101   1.677  14.538 -0.8081 -0.1723 -0.0879
 6400SOL    HW130662   4.060   1.700  14.622  2.5246 -1.0314  1.7931
 6400SOL    HW230663   4.141   1.762  14.519 -0.0572 -1.1675 -2.8364
 6401SOL     OW30664   1.937   2.230   6.831  0.0654  0.5740 -0.4627
 6401SOL    HW130665   2.015   2.232   6.777 -0.0260 -0.1780 -0.6238
 6401SOL    HW230666   1.876   2.228   6.758 -1.5886  0.5370  0.9098
 6402SOL     OW30667   2.374   2.426  11.629  0.0053  0.6796  0.3139
 6402SOL    HW130668   2.291   2.401  11.587  1.8100 -2.3746 -1.4546
 6402SOL    HW230669   2.352   2.434  11.721  0.7855  1.0620  0.4653
 6403SOL     OW30670   4.375   2.091   8.540  0.2304 -0.2136  0.5844
 6403SOL    HW130671   4.415   2.152   8.478  1.3291 -0.0617  1.4387
 6403SOL    HW230672   4.459   2.068   8.578 -0.9534 -3.1432  1.4085
 6404SOL     OW30673   2.618   1.441  13.239 -0.7085 -0.5177 -0.1351
 6404SOL    HW130674   2.523   1.450  13.231 -0.3309  2.6624 -1.1142
 6404SOL    HW230675   2.643   1.481  13.322 -0.7126  0.5154 -0.6318
 6405SOL     OW30676   1.105   0.862   3.206  0.1629  0.3960  0.8990
 6405SOL    HW130677   1.011   0.877   3.190 -0.4270 -0.4959  3.4400
 6405SOL    HW230678   1.118   0.782   3.155 -0.8036  0.1632  1.0093
 6406SOL     OW30679   0.746   2.417   7.367 -0.1601 -0.0172  0.1063
 6406SOL    HW130680   0.675   2.468   7.405 -1.9760 -2.8052  0.5303
 6406SOL    HW230681   0.701   2.376   7.293 -0.2606  1.8068 -0.8197
 6407SOL     OW30682   3.409   3.249  12.629 -0.4855 -0.1823  0.7226
 6407SOL    HW130683   3.331   3.284  12.670 -1.0269 -1.4934  0.8005
 6407SOL    HW230684   3.427   3.169  12.678  0.2559 -2.2663 -2.9173
 6408SOL     OW30685   0.230   0.468   2.023  0.2386  0.1823  0.0040
 6408SOL    HW130686   0.305   0.408   2.033  0.4444  0.2647 -1.0700
 6408SOL    HW230687   0.246   0.489   1.931 -1.4151 -1.1706 -0.5906
 6409SOL     OW30688   0.789   0.918   2.529  0.1188 -0.4968  0.1117
 6409SOL    HW130689   0.868   0.877   2.494  0.4836 -0.3510  0.7619
 6409SOL    HW230690   0.789   1.003   2.485  0.8312 -0.9800 -0.8212
 6410SOL     OW30691   2.132   2.880   6.467 -0.5128  0.0132  0.4773
 6410SOL    HW130692   2.111   2.931   6.545 -1.0783 -0.0006  0.3323
 6410SOL    HW230693   2.198   2.818   6.498 -2.0023 -1.1237  1.3696
 6411SOL     OW30694   4.141   2.921  13.655  0.1307  0.0522  0.3484
 6411SOL    HW130695   4.116   2.992  13.714  1.0312  1.2742 -0.7266
 6411SOL    HW230696   4.231   2.906  13.682 -0.7322  0.5359  3.4094
 6412SOL     OW30697   0.680   0.242   3.136 -0.0189 -0.0312 -0.3803
 6412SOL    HW130698   0.773   0.245   3.156 -0.0503  1.2589 -0.4313
 6412SOL    HW230699   0.647   0.282   3.216 -1.4992 -1.1588 -0.4263
 6413SOL     OW30700   2.181   1.580   2.780 -0.4040  0.2333  0.1487
 6413SOL    HW130701   2.100   1.554   2.824  0.6381  0.1307  2.0067
 6413SOL    HW230702   2.232   1.502   2.759  0.3274  0.3694  1.4287
 6414SOL     OW30703   3.486   4.255   8.132 -0.2778 -0.0761 -0.1020
 6414SOL    HW130704   3.441   4.194   8.190  0.7299  0.0853  0.8398
 6414SOL    HW230705   3.416   4.292   8.078  2.2677  0.2355 -3.1960
 6415SOL     OW30706   0.798   3.982   1.048  0.3434  0.0845 -0.1151
 6415SOL    HW130707   0.802   4.071   1.083  0.8010  0.2725 -0.6459
 6415SOL    HW230708   0.891   3.972   1.032  0.5186  0.8186  0.4204
 6416SOL     OW30709   2.807   1.401  11.251 -0.7769  0.8394  0.5587
 6416SOL    HW130710   2.872   1.387  11.182  0.1201 -0.5737  1.7034
 6416SOL    HW230711   2.812   1.311  11.282 -0.9237  0.1149 -1.5238
 6417SOL     OW30712   2.438   2.971  12.103 -0.0866 -0.0412 -0.0892
 6417SOL    HW130713   2.449   2.970  12.008 -2.5382  0.1064 -0.3754
 6417SOL    HW230714   2.354   2.924  12.104  1.2285 -2.4163 -1.3079
 6418SOL     OW30715   0.846   3.620  16.642  0.1254  0.7722  0.3471
 6418SOL    HW130716   0.791   3.561  16.692 -0.8833  1.3971 -0.0261
 6418SOL    HW230717   0.833   3.698  16.695  2.6095  0.8164  0.8993
 6419SOL     OW30718   2.210   0.855   2.077 -0.3936 -0.3371 -0.3296
 6419SOL    HW130719   2.191   0.945   2.103 -0.0785 -0.3093 -0.1897
 6419SOL    HW230720   2.280   0.865   2.012  0.6420  1.8452  1.1297
 6420SOL     OW30721   1.105   3.489  11.413 -0.4309  0.4732  0.4121
 6420SOL    HW130722   1.162   3.412  11.408  0.5966  1.3129 -0.7583
 6420SOL    HW230723   1.059   3.473  11.495 -1.0369  0.4997  0.0806
 6421SOL     OW30724   0.836   2.216   9.104  0.7437 -0.4478  0.1655
 6421SOL    HW130725   0.799   2.304   9.109  2.8292  0.5528 -1.9894
 6421SOL    HW230726   0.797   2.166   9.176 -3.0458  0.9885 -0.9041
 6422SOL     OW30727   3.778   2.056   3.073  0.1918 -0.3479 -0.2661
 6422SOL    HW130728   3.699   2.061   3.019 -1.2333 -2.0097  1.6647
 6422SOL    HW230729   3.832   2.128   3.041  0.1138 -1.0051 -1.8866
 6423SOL     OW30730   0.352   1.824  14.716  0.0328  0.6487  0.1410
 6423SOL    HW130731   0.407   1.770  14.771  2.0012  1.0354 -1.4560
 6423SOL    HW230732   0.351   1.908  14.761 -0.9931 -0.0522  1.4233
 6424SOL     OW30733   3.596   4.660   3.910  0.5941 -0.1780 -0.4273
 6424SOL    HW130734   3.530   4.616   3.855  1.2993 -0.5953 -0.9291
 6424SOL    HW230735   3.590   0.028   3.877  0.2609 -0.1186 -0.2088
 6425SOL     OW30736   3.198   2.892   3.215 -0.2822 -0.6549  0.6250
 6425SOL    HW130737   3.192   2.904   3.121  0.1181  0.7653  0.7747
 6425SOL    HW230738   3.292   2.875   3.224  0.1801  2.0447  1.0676
 6426SOL     OW30739   4.132   1.644   4.675  0.3194 -0.1210 -0.0274
 6426SOL    HW130740   4.152   1.734   4.699  1.4424 -0.2677 -0.4039
 6426SOL    HW230741   4.214   1.599   4.695  0.4824 -0.5195 -1.5647
 6427SOL     OW30742   2.403   1.467   6.623 -0.3095 -0.5355  0.2928
 6427SOL    HW130743   2.463   1.395   6.640 -0.4641 -0.5384  0.8268
 6427SOL    HW230744   2.461   1.536   6.592 -1.7242  0.1523 -0.8491
 6428SOL     OW30745   0.216   2.758   6.327  0.1520 -0.0568  0.1461
 6428SOL    HW130746   0.142   2.782   6.270  0.5013 -0.2119 -0.3700
 6428SOL    HW230747   0.179   2.769   6.415  1.8335 -0.0656  0.8586
 6429SOL     OW30748   1.955   3.058   6.368  0.3330  0.3761 -0.3878
 6429SOL    HW130749   2.002   2.976   6.382 -0.1091 -0.1073 -1.7136
 6429SOL    HW230750   1.996   3.120   6.428  0.6226  0.4157 -0.6265
 6430SOL     OW30751   2.113   3.091   7.824 -0.1544  0.2102 -0.3844
 6430SOL    HW130752   2.133   3.137   7.743  1.9963  0.1888  0.1328
 6430SOL    HW230753   2.044   3.144   7.863  0.1908 -0.2792  0.9060
 6431SOL     OW30754   0.210   3.126   2.379  0.0733 -0.2675 -0.7235
 6431SOL    HW130755   0.221   3.095   2.469 -0.3133  1.9537  0.0737
 6431SOL    HW230756   0.293   3.094   2.343  0.6400 -0.0129  0.3702
 6432SOL     OW30757   1.750   4.218   2.704 -0.1196 -0.3408 -0.2357
 6432SOL    HW130758   1.814   4.189   2.639 -0.7604  1.0164 -1.4485
 6432SOL    HW230759   1.806   4.275   2.756 -2.7347  1.7968  0.2307
 6433SOL     OW30760   1.158   0.800  14.213  0.3634  0.6037  0.0590
 6433SOL    HW130761   1.188   0.863  14.279  1.5126  1.0179 -0.8552
 6433SOL    HW230762   1.246   0.791  14.178  0.6319  0.5679  0.7353
 6434SOL     OW30763   3.361   1.760   3.489 -0.0905  0.4847 -0.1033
 6434SOL    HW130764   3.422   1.702   3.535 -1.4487 -1.2811 -0.5766
 6434SOL    HW230765   3.387   1.845   3.525 -2.0753  1.6183 -1.3844
 6435SOL     OW30766   2.863   4.338   7.249  0.2098  0.4081  0.2857
 6435SOL    HW130767   2.821   4.424   7.242  1.8979  1.3346  1.6302
 6435SOL    HW230768   2.839   4.305   7.162 -2.3801 -1.9661  1.9166
 6436SOL     OW30769   0.222   1.849   8.053  0.4023 -0.3653 -0.2938
 6436SOL    HW130770   0.150   1.791   8.027 -1.9464  1.4560  2.1353
 6436SOL    HW230771   0.166   1.926   8.048 -0.5832 -0.9346  1.6416
 6437SOL     OW30772   2.947   0.252   4.186 -0.2540 -0.3632 -0.0323
 6437SOL    HW130773   2.893   0.253   4.108  0.5148 -1.2896 -0.5824
 6437SOL    HW230774   2.960   0.157   4.194  3.0844  0.0353 -0.4510
 6438SOL     OW30775   1.581   3.949   7.683  0.1682  0.1044  0.3322
 6438SOL    HW130776   1.648   4.012   7.657  0.2292  0.3707  1.1137
 6438SOL    HW230777   1.546   3.917   7.600 -0.2713 -1.3068  1.0713
 6439SOL     OW30778   1.637   3.050   5.455  0.1424 -0.4100 -0.3775
 6439SOL    HW130779   1.602   2.961   5.458 -0.3256 -0.1848  0.7134
 6439SOL    HW230780   1.716   3.035   5.403 -0.3498  0.6469 -1.4469
 6440SOL     OW30781   3.209   1.245  11.304 -0.8520 -0.2556 -0.7436
 6440SOL    HW130782   3.206   1.263  11.398 -0.4972  2.1852 -1.2064
 6440SOL    HW230783   3.277   1.179  11.294  0.4879  0.6279  2.6287
 6441SOL     OW30784   3.356   0.419   0.430 -0.1290  0.1842  0.2791
 6441SOL    HW130785   3.324   0.453   0.514  2.3847  2.0588  0.4985
 6441SOL    HW230786   3.371   0.326   0.447 -1.3553 -0.1342 -0.4137
 6442SOL     OW30787   3.412   1.063  13.915  0.1187 -0.5888 -0.0234
 6442SOL    HW130788   3.473   1.109  13.857 -0.0448  0.3424  0.5452
 6442SOL    HW230789   3.351   1.134  13.936 -0.9582 -1.0156 -1.6376
 6443SOL     OW30790   4.521   2.761   8.933  0.1720  0.4304  0.1665
 6443SOL    HW130791   4.560   2.683   8.974 -1.2047 -0.0078  0.6188
 6443SOL    HW230792   4.500   2.728   8.846 -0.1573  0.4406  0.2445
 6444SOL     OW30793   3.624   3.030   5.297 -0.3930 -0.1644 -0.0484
 6444SOL    HW130794   3.640   3.071   5.382  1.5770 -1.9213  0.4309
 6444SOL    HW230795   3.559   2.964   5.319 -1.4012  1.0881  0.6787
 6445SOL     OW30796   1.376   2.234   4.655  0.5887 -0.0480  0.2403
 6445SOL    HW130797   1.455   2.256   4.704 -0.4785 -0.6697  2.2546
 6445SOL    HW230798   1.319   2.303   4.689 -1.5114 -0.0813 -3.1632
 6446SOL     OW30799   4.507   1.015   2.053  0.0261  0.0359 -0.1209
 6446SOL    HW130800   4.577   0.990   1.992  0.4346 -2.3347  1.3217
 6446SOL    HW230801   4.431   0.974   2.012 -0.8054  2.2301 -0.7825
 6447SOL     OW30802   3.813   3.907   3.236  0.0870 -0.1948  0.0817
 6447SOL    HW130803   3.830   3.904   3.330 -1.2808 -1.3918  0.2803
 6447SOL    HW230804   3.819   4.001   3.218 -1.2520 -0.1563 -0.1287
 6448SOL     OW30805   4.214   1.176   0.820 -0.0970  0.4935 -0.0581
 6448SOL    HW130806   4.181   1.129   0.896  0.5278 -0.8645 -0.6338
 6448SOL    HW230807   4.133   1.225   0.811 -0.3778  0.0881  0.2557
 6449SOL     OW30808   2.803   4.030   5.372  0.1477 -0.0998 -0.3810
 6449SOL    HW130809   2.859   4.068   5.305  1.3158 -0.8068  0.1855
 6449SOL    HW230810   2.868   3.970   5.408 -0.5495 -1.2313 -1.0086
 6450SOL     OW30811   1.576   1.093   4.746  0.3165  0.4999 -0.1883
 6450SOL    HW130812   1.645   1.102   4.680 -1.2980 -0.1650 -1.9856
 6450SOL    HW230813   1.605   1.150   4.817  0.2613  2.7102 -1.9130
 6451SOL     OW30814   3.841   3.624   5.566  0.0248 -0.1480 -0.0814
 6451SOL    HW130815   3.867   3.700   5.618 -2.3766 -0.0949  1.0281
 6451SOL    HW230816   3.905   3.630   5.495  0.3625  2.6368  0.4771
 6452SOL     OW30817   4.707   0.806  12.008  0.1327  0.6355  0.3508
 6452SOL    HW130818   0.065   0.843  12.047  0.2396  0.1842  0.5551
 6452SOL    HW230819   0.020   0.741  11.948 -0.3124  1.9358 -1.3076
 6453SOL     OW30820   2.494   3.856   3.028  0.2924 -0.0457 -0.4683
 6453SOL    HW130821   2.496   3.809   3.111  3.1422  0.5251 -0.1905
 6453SOL    HW230822   2.562   3.921   3.044  0.5809 -0.9329  1.8759
 6454SOL     OW30823   2.768   3.764   6.588 -0.0058  0.0852 -0.4959
 6454SOL    HW130824   2.780   3.671   6.607  0.4177  0.3107  0.3459
 6454SOL    HW230825   2.698   3.753   6.524  0.6348 -2.4577 -0.7383
 6455SOL     OW30826   2.558   0.368   3.007 -0.2753 -0.8495 -0.4362
 6455SOL    HW130827   2.496   0.357   3.079  0.6943  0.5578  0.6085
 6455SOL    HW230828   2.529   0.300   2.947 -0.9683 -2.0702  1.3032
 6456SOL     OW30829   3.824   2.548   1.975  0.0733  0.1861  0.3896
 6456SOL    HW130830   3.913   2.535   2.010  1.1608 -0.8576 -2.8313
 6456SOL    HW230831   3.852   2.564   1.885  1.9318 -2.9645  0.4171
 6457SOL     OW30832   3.841   4.519   2.491  0.0214  0.0705  0.0853
 6457SOL    HW130833   3.775   4.458   2.523 -1.1466  1.6110  0.5892
 6457SOL    HW230834   3.888   4.550   2.568  1.5922  0.2011 -0.9149
 6458SOL     OW30835   0.958   3.960   7.110  0.2831  0.1154  0.6405
 6458SOL    HW130836   0.983   3.989   7.198  1.1155  0.2067  0.3742
 6458SOL    HW230837   0.863   3.948   7.114  0.5467 -2.6580 -1.2357
 6459SOL     OW30838   1.707   1.373   6.288  0.5674 -0.6138  0.0287
 6459SOL    HW130839   1.676   1.326   6.366  0.4101  0.9532  0.9233
 6459SOL    HW230840   1.712   1.301   6.226  1.9771  0.2636 -0.8520
 6460SOL     OW30841   4.718   2.133   0.355 -0.1623 -0.1658  1.1162
 6460SOL    HW130842   0.045   2.200   0.402  0.2326  0.4580 -0.1912
 6460SOL    HW230843   0.049   2.119   0.277 -1.1202 -2.2230  0.8457
 6461SOL     OW30844   4.107   2.469  16.983 -0.0978  0.0898 -0.9828
 6461SOL    HW130845   4.046   2.442  16.914  0.6003  1.6623 -2.2179
 6461SOL    HW230846   4.056   2.540  17.022  0.0213 -0.9736  1.0931
 6462SOL     OW30847   0.972   4.461   3.633  0.4085  0.0942  0.0713
 6462SOL    HW130848   0.885   4.450   3.594  0.0641 -0.6706  1.0455
 6462SOL    HW230849   1.015   4.520   3.571  1.2202  1.4948  1.9685
 6463SOL     OW30850   2.533   2.523   3.859 -0.0457  0.2552  0.2223
 6463SOL    HW130851   2.620   2.521   3.818  0.0199 -0.7920  0.4082
 6463SOL    HW230852   2.533   2.439   3.904 -2.9248  0.6385  0.8879
 6464SOL     OW30853   3.474   3.639   3.985  0.1497 -0.2859  0.2599
 6464SOL    HW130854   3.422   3.604   4.058 -1.2014  0.2533 -0.4550
 6464SOL    HW230855   3.492   3.724   4.026 -1.3558  0.5104 -0.7355
 6465SOL     OW30856   1.384   2.440  11.250 -0.0958  0.3023  0.0529
 6465SOL    HW130857   1.395   2.346  11.263 -0.5660  0.0902 -1.0503
 6465SOL    HW230858   1.389   2.449  11.155  0.0229  1.1017  0.1386
 6466SOL     OW30859   4.501   4.687   9.077  0.6455  0.3322  0.2473
 6466SOL    HW130860   4.505   4.593   9.063 -0.1382  0.5327 -1.3661
 6466SOL    HW230861   4.529   0.002   8.993  1.3626  1.1080  0.8120
 6467SOL     OW30862   3.172   2.335  14.044 -0.1860 -0.4786 -0.8380
 6467SOL    HW130863   3.156   2.338  13.949 -0.3781  0.1124 -0.7885
 6467SOL    HW230864   3.084   2.362  14.070 -1.1894 -3.5542 -1.0522
 6468SOL     OW30865   0.036   2.460   1.324 -0.9004 -0.0444 -0.0872
 6468SOL    HW130866   0.111   2.507   1.361 -1.5144 -0.7087  1.9931
 6468SOL    HW230867   0.076   2.438   1.240  2.2075  0.9486  1.1189
 6469SOL     OW30868   3.200   0.728   3.587  0.5937  0.5599  0.0083
 6469SOL    HW130869   3.227   0.737   3.678 -0.8803  0.7298  0.4343
 6469SOL    HW230870   3.110   0.761   3.596  0.6861  0.5440  0.9096
 6470SOL     OW30871   4.469   0.734   3.710 -0.4296 -0.5675  0.0165
 6470SOL    HW130872   4.506   0.794   3.645 -1.8633 -0.7643 -0.9830
 6470SOL    HW230873   4.507   0.654   3.675  0.0413  0.4855 -1.9190
 6471SOL     OW30874   0.582   0.590   8.817  0.3914 -0.1972 -0.4303
 6471SOL    HW130875   0.568   0.533   8.741  3.0500 -1.6502  0.1875
 6471SOL    HW230876   0.599   0.525   8.885  2.0566 -0.6912 -1.3147
 6472SOL     OW30877   0.288   3.653   0.932  0.1301 -0.4181  0.4737
 6472SOL    HW130878   0.322   3.688   1.015 -0.0964 -0.3991  0.5585
 6472SOL    HW230879   0.195   3.640   0.948 -0.2138  0.0356 -1.1764
 6473SOL     OW30880   0.227   2.674   7.965  0.0126  0.0714 -0.4536
 6473SOL    HW130881   0.191   2.609   7.905  0.1730 -0.4128 -0.0284
 6473SOL    HW230882   0.316   2.638   7.972 -0.5494 -1.3820 -0.7847
 6474SOL     OW30883   4.080   0.832   4.512 -0.1531 -0.0581 -0.3524
 6474SOL    HW130884   4.167   0.864   4.532 -0.2486 -0.0310  0.0133
 6474SOL    HW230885   4.056   0.872   4.428 -2.0961  0.1369  0.2816
 6475SOL     OW30886   3.476   0.176   7.172 -0.2048 -0.6174  0.3028
 6475SOL    HW130887   3.485   0.259   7.218  1.3388 -1.6303  1.8167
 6475SOL    HW230888   3.384   0.172   7.143 -0.3068 -0.7016  0.6442
 6476SOL     OW30889   2.946   1.038   2.334  0.1839 -0.0610  0.4433
 6476SOL    HW130890   3.017   1.035   2.270  0.4177 -1.3004  0.7625
 6476SOL    HW230891   2.917   0.948   2.349 -0.3259 -0.1004 -0.7510
 6477SOL     OW30892   0.858   2.839  14.072 -0.8513 -0.2816 -0.3187
 6477SOL    HW130893   0.917   2.915  14.077 -0.0439 -0.8233 -1.7825
 6477SOL    HW230894   0.906   2.775  14.124  0.2557  0.5769 -0.2825
 6478SOL     OW30895   3.093   3.995  15.004 -0.1566  0.3475 -0.3995
 6478SOL    HW130896   3.166   4.002  14.942 -0.4626 -1.6464 -1.0153
 6478SOL    HW230897   3.073   4.084  15.032 -1.4861  0.6328 -2.2861
 6479SOL     OW30898   4.263   1.912  14.500 -0.0125  0.6994  0.0218
 6479SOL    HW130899   4.231   1.907  14.410  0.1153  0.6745 -0.0222
 6479SOL    HW230900   4.352   1.943  14.486  0.4760 -0.3119  0.8092
 6480SOL     OW30901   0.897   0.498   6.099 -0.3772 -0.4823 -0.5664
 6480SOL    HW130902   0.924   0.454   6.180  2.9346  2.0227 -0.2770
 6480SOL    HW230903   0.856   0.578   6.133 -0.2989 -0.4487 -0.5495
 6481SOL     OW30904   2.538   3.372   2.149 -0.5113  0.2591 -0.0643
 6481SOL    HW130905   2.474   3.341   2.214  0.6797 -1.5568  0.2273
 6481SOL    HW230906   2.487   3.379   2.069 -3.0197 -1.9062  1.3277
 6482SOL     OW30907   2.919   1.319  16.708 -0.6172  0.4344 -0.5166
 6482SOL    HW130908   2.890   1.386  16.647  0.2979  0.9413 -0.3966
 6482SOL    HW230909   2.982   1.380  16.747 -1.6523  1.9044 -1.1646
 6483SOL     OW30910   2.985   0.203   0.125 -0.3368  0.2603  0.1087
 6483SOL    HW130911   2.895   0.238   0.120  0.0873  1.3524  0.0998
 6483SOL    HW230912   3.028   0.289   0.120 -0.2951 -0.0416 -4.5322
 6484SOL     OW30913   2.388   2.865  13.370  0.3058  0.1318 -0.2025
 6484SOL    HW130914   2.391   2.869  13.275 -0.3162 -0.3426 -0.2405
 6484SOL    HW230915   2.301   2.827  13.385  1.0457 -0.4239  2.7086
 6485SOL     OW30916   3.650   2.918  17.668  0.1807  0.4545 -0.6551
 6485SOL    HW130917   3.618   2.829  17.654  0.1691  0.2102  0.9813
 6485SOL    HW230918   3.684   2.914   0.067  0.7029 -1.4381 -0.9437
 6486SOL     OW30919   3.314   1.155   8.934  0.6724 -0.0273  0.2307
 6486SOL    HW130920   3.302   1.171   9.027 -1.0090 -0.7954  0.1414
 6486SOL    HW230921   3.405   1.186   8.928  0.7026  0.0637  1.1831
 6487SOL     OW30922   3.919   0.488   1.572  0.3339 -0.0792 -0.5392
 6487SOL    HW130923   3.992   0.547   1.594 -0.7914  1.7835 -1.8160
 6487SOL    HW230924   3.965   0.419   1.524  2.2884  0.4393  0.5787
 6488SOL     OW30925   4.246   0.706  10.760  0.0327  0.6268  0.3023
 6488SOL    HW130926   4.279   0.755  10.685 -0.4479  2.3087  1.1945
 6488SOL    HW230927   4.153   0.726  10.752  0.0933  0.9965  0.5341
 6489SOL     OW30928   3.457   2.125   8.992 -0.1721 -0.0094  0.4265
 6489SOL    HW130929   3.506   2.196   8.951 -0.7717 -0.1242 -0.5028
 6489SOL    HW230930   3.496   2.053   8.943  0.1277  0.1733  0.4000
 6490SOL     OW30931   1.065   1.999  12.115 -0.1712 -0.2561  0.2025
 6490SOL    HW130932   1.077   2.066  12.048  0.4288  1.2838  1.8468
 6490SOL    HW230933   1.148   2.012  12.162  0.8414 -0.2526 -1.5669
 6491SOL     OW30934   4.508   0.663   8.233 -0.4870  0.0043 -0.4596
 6491SOL    HW130935   4.521   0.754   8.205 -0.7576 -0.3516 -1.7424
 6491SOL    HW230936   4.507   0.680   8.327  0.7782  0.6179 -0.5584
 6492SOL     OW30937   3.397   4.138   9.882  0.3683  0.3289 -0.1974
 6492SOL    HW130938   3.452   4.083   9.827  1.3330  0.6233  0.4872
 6492SOL    HW230939   3.398   4.077   9.956  1.9429  1.1425  0.4477
 6493SOL     OW30940   1.459   2.722  14.393 -0.4959  0.3187  0.9074
 6493SOL    HW130941   1.378   2.716  14.342  0.1411  1.4037 -0.2415
 6493SOL    HW230942   1.527   2.753  14.333 -2.4964  1.5755 -0.7000
 6494SOL     OW30943   0.761   4.673   4.346 -0.2510 -0.0430 -0.0793
 6494SOL    HW130944   0.854   4.693   4.361  0.8888 -2.6362 -3.7175
 6494SOL    HW230945   0.716   0.028   4.381 -2.5163 -1.2501 -0.3674
 6495SOL     OW30946   0.295   4.624  13.180  0.0420  0.8244 -0.0288
 6495SOL    HW130947   0.364   4.678  13.218  2.5798 -1.9897 -0.6785
 6495SOL    HW230948   0.249   4.593  13.258  0.3719 -1.2023 -0.6449
 6496SOL     OW30949   3.343   0.417   0.166 -0.2904 -0.1484  0.2843
 6496SOL    HW130950   3.354   0.385   0.256 -1.0468 -0.2441  0.3485
 6496SOL    HW230951   3.402   0.358   0.120 -0.0278  2.1778 -2.3228
 6497SOL     OW30952   2.998   2.124   6.463  0.3922  0.0027 -0.1435
 6497SOL    HW130953   2.981   2.215   6.487 -1.0070 -0.4693  0.6273
 6497SOL    HW230954   2.916   2.090   6.428  0.2834 -0.6932  0.8268
 6498SOL     OW30955   4.242   0.548   5.778 -0.0251  0.6608  0.3751
 6498SOL    HW130956   4.318   0.563   5.722  0.9300  0.6986  1.6924
 6498SOL    HW230957   4.207   0.633   5.804 -2.5906 -0.6486  1.1791
 6499SOL     OW30958   0.636   3.882   7.059 -0.0234  0.2236 -0.7265
 6499SOL    HW130959   0.603   3.847   7.142 -0.0995  0.1885 -0.7712
 6499SOL    HW230960   0.587   3.832   6.994  1.5117 -1.2992 -0.7197
 6500SOL     OW30961   1.387   3.685   3.801 -0.1094  0.3302 -0.6522
 6500SOL    HW130962   1.391   3.781   3.800 -2.0121  0.4172 -0.1959
 6500SOL    HW230963   1.394   3.657   3.710  1.4555  1.2816 -0.8230
 6501SOL     OW30964   1.609   3.654  15.813 -0.0574  0.0231  0.3740
 6501SOL    HW130965   1.519   3.684  15.825 -0.2626 -0.1102 -0.8792
 6501SOL    HW230966   1.657   3.735  15.828  2.0289 -1.1141 -0.1854
 6502SOL     OW30967   0.320   0.811   8.081 -0.3148 -0.2823 -0.5552
 6502SOL    HW130968   0.386   0.760   8.128  0.5186 -0.5506 -1.9997
 6502SOL    HW230969   0.238   0.784   8.121 -0.4219  2.1969  0.8987
 6503SOL     OW30970   2.850   0.018   1.993  0.3328 -0.2068 -0.1301
 6503SOL    HW130971   2.767   0.064   1.996  0.0014 -0.7797 -0.6218
 6503SOL    HW230972   2.848   0.008   1.898 -0.8892 -0.0268 -0.1203
 6504SOL     OW30973   0.841   0.571   7.716  0.1718 -0.5811 -0.1673
 6504SOL    HW130974   0.799   0.485   7.713  0.8651 -0.9046 -0.5269
 6504SOL    HW230975   0.770   0.620   7.757  0.1354  0.8916 -2.0216
 6505SOL     OW30976   1.561   2.775   1.488 -0.3386  0.2229 -0.0590
 6505SOL    HW130977   1.588   2.717   1.559 -1.9155 -1.3513 -0.7569
 6505SOL    HW230978   1.511   2.711   1.437 -0.7695  0.0311  0.6034
 6506SOL     OW30979   0.328   4.427   1.487 -0.3964 -0.3984  0.3501
 6506SOL    HW130980   0.394   4.399   1.549  2.6307  1.9384 -1.7920
 6506SOL    HW230981   0.286   4.345   1.459  0.4072 -1.4774  2.3791
 6507SOL     OW30982   2.025   0.473   9.094  0.2996 -0.3037 -0.3047
 6507SOL    HW130983   1.966   0.520   9.153  0.3366 -0.7669  0.1056
 6507SOL    HW230984   1.990   0.501   9.009 -1.7578 -0.1725  0.5970
 6508SOL     OW30985   0.116   4.079   0.632  0.0818  0.1104 -0.0022
 6508SOL    HW130986   0.169   4.101   0.709 -0.7738 -0.5946  0.7888
 6508SOL    HW230987   0.151   3.992   0.612 -1.7298 -0.9331  1.2699
 6509SOL     OW30988   4.624   0.042  15.749 -0.6567 -0.9658 -0.5397
 6509SOL    HW130989   4.547   0.007  15.792  0.7636 -0.0233  2.7730
 6509SOL    HW230990   4.582   0.041  15.663  1.1859  0.8676 -1.4849
 6510SOL     OW30991   2.618   0.424   2.213  0.5933  0.7960 -0.2708
 6510SOL    HW130992   2.594   0.472   2.133  0.5489  3.7302  1.5048
 6510SOL    HW230993   2.561   0.463   2.279  0.4078 -2.3857  1.4319
 6511SOL     OW30994   4.444   2.219   4.998  0.3966  0.7713  0.6695
 6511SOL    HW130995   4.358   2.258   4.986  0.2083 -0.4552 -1.9424
 6511SOL    HW230996   4.487   2.304   4.991 -0.6372  1.4220  2.1493
 6512SOL     OW30997   2.987   1.047   8.452  0.5432 -0.1601 -0.0115
 6512SOL    HW130998   3.045   0.983   8.410  0.1361 -2.0633  2.3140
 6512SOL    HW230999   3.030   1.044   8.538  0.2103 -0.8207  0.1325
 6513SOL     OW31000   0.367   3.938   7.351 -0.1146 -0.0822 -0.0545
 6513SOL    HW131001   0.322   3.960   7.270  0.4610 -0.2305 -0.4142
 6513SOL    HW231002   0.395   3.848   7.333  4.3421  1.6797 -1.9965
 6514SOL     OW31003   0.021   4.619  14.059 -0.6916 -0.5344  0.1719
 6514SOL    HW131004   4.649   4.637  14.051 -0.1266  2.0272 -0.8650
 6514SOL    HW231005   0.066   4.704  14.056 -2.0528  0.2146  0.9428
 6515SOL     OW31006   3.171   1.413   3.519  0.9051 -0.3745 -0.2970
 6515SOL    HW131007   3.197   1.461   3.598 -0.3737  0.0659 -0.1381
 6515SOL    HW231008   3.241   1.444   3.461 -0.5848 -0.1308 -1.9629
 6516SOL     OW31009   3.621   3.451   6.981  0.4645 -0.2302  0.2272
 6516SOL    HW131010   3.711   3.452   6.947 -0.9600 -0.9553 -3.5167
 6516SOL    HW231011   3.607   3.358   7.001 -1.2563  0.1042  0.5732
 6517SOL     OW31012   3.788   3.747   2.234  0.1047 -0.0328 -0.2598
 6517SOL    HW131013   3.818   3.802   2.162  2.6892 -0.8025  0.2545
 6517SOL    HW231014   3.714   3.800   2.264  0.3452 -0.7487  1.5910
 6518SOL     OW31015   0.756   2.115  14.506 -0.2095  0.2360 -0.2681
 6518SOL    HW131016   0.791   2.115  14.417  1.9621  1.7526  0.6015
 6518SOL    HW231017   0.663   2.134  14.487 -0.2470  0.0023 -0.3150
 6519SOL     OW31018   1.118   3.141   3.824 -0.0609  0.0663  0.3052
 6519SOL    HW131019   1.088   3.231   3.835 -1.9356 -0.7497  1.9441
 6519SOL    HW231020   1.181   3.157   3.753  1.1979 -2.3301  0.8745
 6520SOL     OW31021   2.739   0.263   5.922 -0.1050  0.3058 -0.1005
 6520SOL    HW131022   2.718   0.284   5.831 -1.8280  1.2117  0.4956
 6520SOL    HW231023   2.736   0.349   5.964  2.5128  0.5779 -0.4760
 6521SOL     OW31024   1.399   1.934  16.372  0.1078 -0.3647  0.6414
 6521SOL    HW131025   1.318   1.984  16.381  1.1549  1.6870 -1.1731
 6521SOL    HW231026   1.394   1.912  16.279 -1.4383  1.3807  0.3042
 6522SOL     OW31027   0.488   4.646   7.387 -0.1489  0.5380 -0.6174
 6522SOL    HW131028   0.478   4.571   7.446 -1.3388 -0.4749 -2.0853
 6522SOL    HW231029   0.489   4.713   7.455  0.0776 -0.1558  0.0563
 6523SOL     OW31030   3.986   1.465   3.937 -0.8025 -0.0400 -0.2822
 6523SOL    HW131031   3.934   1.432   3.864 -1.3635  1.1286 -0.4156
 6523SOL    HW231032   3.955   1.412   4.011  2.0154 -0.7208  0.4008
 6524SOL     OW31033   3.035   0.962   0.623 -0.3068  0.1238  0.4402
 6524SOL    HW131034   3.118   0.925   0.650 -0.8674 -0.9439  0.6899
 6524SOL    HW231035   2.989   0.879   0.615  0.2911 -0.0462 -1.3587
 6525SOL     OW31036   0.199   1.213  12.132 -0.6605 -0.4235  0.2868
 6525SOL    HW131037   0.274   1.182  12.183 -0.4003 -1.1115 -0.4990
 6525SOL    HW231038   0.196   1.302  12.165  1.3758 -0.4382  0.4665
 6526SOL     OW31039   4.307   3.633   0.336  0.3043 -0.2102  0.0260
 6526SOL    HW131040   4.239   3.617   0.402  0.6882 -0.4146  0.3771
 6526SOL    HW231041   4.376   3.579   0.375  0.4538  0.7800  1.1212
 6527SOL     OW31042   2.065   1.368   5.834  0.0173  0.5713  0.0412
 6527SOL    HW131043   2.043   1.393   5.744  0.0250 -0.6447 -0.2887
 6527SOL    HW231044   2.049   1.274   5.825  1.0729  0.5444 -1.4544
 6528SOL     OW31045   3.750   1.528  15.846 -0.2146  0.5384  0.5432
 6528SOL    HW131046   3.665   1.486  15.827 -0.0529 -0.1678  1.3911
 6528SOL    HW231047   3.803   1.451  15.865 -0.2240 -0.0351 -1.7184
 6529SOL     OW31048   2.643   2.296   5.666 -0.1203 -0.4093 -0.1307
 6529SOL    HW131049   2.608   2.288   5.577 -0.8267  0.6867  0.0480
 6529SOL    HW231050   2.727   2.330   5.636 -0.6462  0.8509 -0.1596
 6530SOL     OW31051   3.243   1.108   9.220  0.5699 -0.4817  0.8380
 6530SOL    HW131052   3.251   1.016   9.245  0.1872 -0.7399  0.0271
 6530SOL    HW231053   3.271   1.148   9.302 -0.1283  2.0173 -0.1296
 6531SOL     OW31054   1.737   1.799   4.807  0.2041 -0.0249  0.0326
 6531SOL    HW131055   1.770   1.724   4.758  0.2161 -0.4598  0.7084
 6531SOL    HW231056   1.711   1.854   4.733 -0.9452  0.4388  0.7739
 6532SOL     OW31057   0.202   2.263  15.909  0.0597 -0.1129 -0.7543
 6532SOL    HW131058   0.246   2.318  15.844  3.1406  0.1021  1.5394
 6532SOL    HW231059   0.157   2.324  15.967  0.1495 -0.4975 -0.2794
 6533SOL     OW31060   3.013   1.294  11.084  0.4357 -0.3249 -0.3817
 6533SOL    HW131061   3.084   1.299  11.020  0.0107 -3.4067 -1.1000
 6533SOL    HW231062   3.067   1.281  11.162 -2.4661  1.4497  1.9166
 6534SOL     OW31063   4.573   2.682   1.888  0.0583  0.1344 -0.2114
 6534SOL    HW131064   4.606   2.674   1.977 -1.5434 -0.6137  0.3190
 6534SOL    HW231065   4.528   2.597   1.883 -0.8743  0.5662  0.7529
 6535SOL     OW31066   0.160   1.636   3.343  0.1299  0.2521 -0.3561
 6535SOL    HW131067   0.108   1.659   3.420 -0.9980  1.0226 -1.3403
 6535SOL    HW231068   0.233   1.697   3.340 -1.5094  2.2492  0.6445
 6536SOL     OW31069   3.445   3.317   4.113  0.0401 -0.1523  0.0077
 6536SOL    HW131070   3.385   3.253   4.074  1.6854 -1.5466 -0.2473
 6536SOL    HW231071   3.520   3.324   4.054 -0.4834  0.5515 -0.5836
 6537SOL     OW31072   2.293   0.399  14.836  0.1474  0.2094 -0.7224
 6537SOL    HW131073   2.351   0.475  14.837  0.7952 -0.2951  0.1632
 6537SOL    HW231074   2.281   0.375  14.744 -0.2367  1.7177 -1.0698
 6538SOL     OW31075   0.454   3.416  10.478 -0.1713  0.2103  0.1878
 6538SOL    HW131076   0.506   3.355  10.426 -1.7901  2.6330 -4.3312
 6538SOL    HW231077   0.403   3.359  10.535 -1.1988  0.3541 -0.5986
 6539SOL     OW31078   1.545   3.665   1.753  0.1675 -0.1401 -0.0967
 6539SOL    HW131079   1.510   3.584   1.716 -1.6197  0.4166  0.4037
 6539SOL    HW231080   1.551   3.630   1.842 -0.1787 -0.7484 -0.3123
 6540SOL     OW31081   3.175   3.123   9.736 -0.0089 -0.4763  0.0152
 6540SOL    HW131082   3.144   3.136   9.646  0.3039 -2.6777 -0.4096
 6540SOL    HW231083   3.132   3.040   9.758  0.1200 -0.4597  0.3317
 6541SOL     OW31084   0.486   1.171   4.230  0.1329 -0.0493 -0.1132
 6541SOL    HW131085   0.478   1.124   4.312  0.7177 -0.7078 -0.4351
 6541SOL    HW231086   0.429   1.122   4.169 -0.2987 -0.5073  0.6632
 6542SOL     OW31087   4.171   1.263   6.145  0.3644 -0.2153 -0.0655
 6542SOL    HW131088   4.132   1.199   6.086 -0.6282  0.8066 -0.5058
 6542SOL    HW231089   4.139   1.344   6.108 -0.4562  0.6435  2.4874
 6543SOL     OW31090   0.031   4.233   1.323 -0.2429  0.1481 -0.2568
 6543SOL    HW131091   0.116   4.190   1.336  0.1466  0.8304 -0.5409
 6543SOL    HW231092   0.005   4.195   1.239 -0.7161 -0.0099 -0.0377
 6544SOL     OW31093   1.699   4.704   6.205  0.0914  0.5497  0.3571
 6544SOL    HW131094   1.681   4.611   6.221 -2.5726  0.3778 -3.5605
 6544SOL    HW231095   1.609   0.008   6.185  0.2705  0.6173 -0.3742
 6545SOL     OW31096   3.229   2.519  11.083  0.5927  0.1850  0.1298
 6545SOL    HW131097   3.282   2.479  11.152  0.9173  1.2736  0.4995
 6545SOL    HW231098   3.251   2.463  11.009  1.6186 -2.6074  2.5503
 6546SOL     OW31099   0.775   3.452   0.687  0.5230 -0.1948  0.3757
 6546SOL    HW131100   0.831   3.508   0.634  1.2590  0.2796  1.6326
 6546SOL    HW231101   0.766   3.491   0.774  1.7120  0.9335 -0.0192
 6547SOL     OW31102   3.093   4.043   6.358 -0.6431  0.0834  0.4058
 6547SOL    HW131103   3.074   3.962   6.406 -1.5204  0.3435  0.5036
 6547SOL    HW231104   3.189   4.041   6.358 -0.6608 -1.0092 -0.6921
 6548SOL     OW31105   1.087   0.425   8.493 -0.2107  0.0613 -0.7031
 6548SOL    HW131106   1.035   0.371   8.552 -0.5596  0.2756 -0.8140
 6548SOL    HW231107   1.016   0.489   8.490 -0.0538  0.3006  0.6900
 6549SOL     OW31108   3.481   2.170   7.097  0.7608  0.3410  0.3441
 6549SOL    HW131109   3.447   2.091   7.055 -2.0280  0.0895  3.1306
 6549SOL    HW231110   3.412   2.199   7.157  0.0561  0.9299 -0.7561
 6550SOL     OW31111   4.057   0.017   5.680 -0.5027 -0.7594  0.6350
 6550SOL    HW131112   4.022   4.693   5.757  0.1873 -0.2668  1.2491
 6550SOL    HW231113   4.125   4.675   5.659 -0.0669  0.3386 -1.3037
 6551SOL     OW31114   4.669   1.454   5.144 -0.4956 -0.1543  0.2490
 6551SOL    HW131115   4.666   1.482   5.052  0.0396  0.1198  0.3186
 6551SOL    HW231116   4.714   1.526   5.188 -0.9985  0.3669 -0.0853
 6552SOL     OW31117   2.545   2.166   5.175  0.2960  0.0465 -0.3156
 6552SOL    HW131118   2.566   2.074   5.191 -1.1177  0.1441  2.1811
 6552SOL    HW231119   2.609   2.192   5.109 -0.1755  2.0920  0.0154
 6553SOL     OW31120   2.909   1.863   8.841  0.4137 -0.1772  0.2165
 6553SOL    HW131121   2.869   1.846   8.926 -1.1312  0.3167 -0.4097
 6553SOL    HW231122   2.900   1.957   8.855 -0.5780 -0.3612  0.8109
 6554SOL     OW31123   4.195   2.160   6.899 -0.1052  0.4637  0.2430
 6554SOL    HW131124   4.123   2.200   6.949 -0.3962 -0.1039  0.2695
 6554SOL    HW231125   4.157   2.148   6.812  0.5134 -1.7987  0.2900
 6555SOL     OW31126   3.857   2.687   3.861 -0.3858  0.3319 -0.4692
 6555SOL    HW131127   3.933   2.710   3.808 -0.3275 -1.2469 -1.0644
 6555SOL    HW231128   3.879   2.720   3.948  1.1082 -0.0766 -0.7022
 6556SOL     OW31129   3.639   1.553   8.956 -0.0585  0.7577  0.6600
 6556SOL    HW131130   3.731   1.580   8.955  0.3216 -0.6018 -0.5735
 6556SOL    HW231131   3.634   1.496   8.880  0.7285  2.0479 -0.3525
 6557SOL     OW31132   3.397   2.806   0.821 -0.6774 -0.4000 -0.0677
 6557SOL    HW131133   3.373   2.848   0.738  1.0025  2.0265  0.6698
 6557SOL    HW231134   3.377   2.877   0.881 -1.3539  0.6458 -1.5297
 6558SOL     OW31135   2.028   0.518  14.615  0.2621  0.0471  0.0663
 6558SOL    HW131136   2.013   0.454  14.544 -0.6273  1.3646 -0.9417
 6558SOL    HW231137   2.097   0.558  14.562  1.6813 -1.9399  0.4265
 6559SOL     OW31138   4.612   1.954   1.487 -0.5616  0.8089 -0.1237
 6559SOL    HW131139   4.635   1.925   1.575  4.8828 -0.0916 -1.8831
 6559SOL    HW231140   4.603   2.049   1.498  0.7495  0.9959 -0.7104
 6560SOL     OW31141   4.054   3.163  13.504  0.5740 -0.0387  0.5277
 6560SOL    HW131142   4.050   3.221  13.580 -1.6636 -0.1198  0.4691
 6560SOL    HW231143   4.132   3.111  13.525 -0.2786 -0.6646  2.1413
 6561SOL     OW31144   2.145   2.898   6.904  0.2376 -0.0255 -0.1980
 6561SOL    HW131145   2.097   2.830   6.858 -2.6850  1.9063  0.0540
 6561SOL    HW231146   2.072   2.923   6.961  0.2631  0.4007 -0.3474
 6562SOL     OW31147   4.680   2.944   8.362  0.0011  0.0466 -0.5506
 6562SOL    HW131148   4.714   2.995   8.436  0.2957 -1.1903  0.1712
 6562SOL    HW231149   4.593   2.933   8.401  0.1481 -1.9367 -0.7874
 6563SOL     OW31150   2.164   1.165   6.774 -0.3625 -0.0763  0.0652
 6563SOL    HW131151   2.160   1.244   6.829 -1.2991  1.4675 -2.2457
 6563SOL    HW231152   2.074   1.135   6.781 -0.6761  1.1227  1.3552
 6564SOL     OW31153   2.123   2.579   5.648 -0.1434  0.0143  1.2848
 6564SOL    HW131154   2.032   2.603   5.664 -0.6830 -0.6307 -0.8375
 6564SOL    HW231155   2.141   2.627   5.567 -0.9477 -1.7656  0.0428
 6565SOL     OW31156   3.370   4.617  14.793 -0.1675 -0.0664 -0.6364
 6565SOL    HW131157   3.378   4.676  14.717  1.4989 -0.0319 -0.4368
 6565SOL    HW231158   3.276   4.623  14.810  0.1432  2.1536  0.2674
 6566SOL     OW31159   3.272   0.716  14.515  0.2747  0.6816 -0.1130
 6566SOL    HW131160   3.194   0.761  14.546 -1.4348 -1.6002 -1.1382
 6566SOL    HW231161   3.243   0.686  14.429 -0.3896  2.4317 -0.5076
 6567SOL     OW31162   2.274   1.659   1.800 -0.2071 -0.0157 -0.0377
 6567SOL    HW131163   2.268   1.656   1.705 -0.4372 -1.1526  0.0159
 6567SOL    HW231164   2.266   1.752   1.821 -2.6266  0.0144 -1.1675
 6568SOL     OW31165   0.797   0.028   5.805 -0.3769  0.5919 -0.6219
 6568SOL    HW131166   0.716   0.057   5.763 -1.3589  0.2815  1.0509
 6568SOL    HW231167   0.770   0.026   5.897  3.3525  0.4561  0.4541
 6569SOL     OW31168   3.218   0.407   8.362  0.6593  0.1569 -0.2439
 6569SOL    HW131169   3.150   0.370   8.306  0.8969  2.3401 -1.9485
 6569SOL    HW231170   3.290   0.389   8.303 -0.5635 -1.9865 -1.0861
 6570SOL     OW31171   1.739   0.531   7.514  0.0598 -0.4458  0.0209
 6570SOL    HW131172   1.676   0.527   7.442  1.1500 -1.3343 -0.8797
 6570SOL    HW231173   1.722   0.623   7.537  1.0490 -0.5567  1.2447
 6571SOL     OW31174   1.681   1.277   6.690 -0.4873  0.6962  0.1726
 6571SOL    HW131175   1.773   1.288   6.666 -0.4478  0.3137  0.1558
 6571SOL    HW231176   1.674   1.355   6.745 -1.6185  0.6992  0.0218
 6572SOL     OW31177   0.236   1.351   3.637 -0.1732 -0.0185  0.5661
 6572SOL    HW131178   0.203   1.341   3.547 -1.8571 -1.7425  1.3743
 6572SOL    HW231179   0.258   1.442   3.655 -0.0717  0.0434  0.1377
 6573SOL     OW31180   1.499   3.023   5.859  0.0141  0.6894  0.1963
 6573SOL    HW131181   1.593   3.035   5.863 -0.1352  2.8086 -2.6652
 6573SOL    HW231182   1.485   2.969   5.937  0.4335 -1.7816 -1.4422
 6574SOL     OW31183   1.565   2.386   0.191  0.0808 -0.6405 -0.1559
 6574SOL    HW131184   1.627   2.323   0.154 -1.4223 -0.3596 -3.1291
 6574SOL    HW231185   1.508   2.326   0.239 -0.6808 -0.4129 -0.7676
 6575SOL     OW31186   2.259   0.467   9.219 -0.2009 -0.1045 -0.3942
 6575SOL    HW131187   2.249   0.511   9.304  1.9207  1.0845 -0.7395
 6575SOL    HW231188   2.170   0.463   9.185  0.3002  0.5167 -1.8087
 6576SOL     OW31189   1.984   0.793  13.991  0.0169 -0.1745  0.6487
 6576SOL    HW131190   2.074   0.788  13.958  0.1934  0.8511  0.9656
 6576SOL    HW231191   1.991   0.832  14.078  0.8004  0.4710  0.2931
 6577SOL     OW31192   2.116   2.241   3.211  0.1232 -0.1210 -0.4294
 6577SOL    HW131193   2.037   2.188   3.200 -0.8834  1.2876  0.0226
 6577SOL    HW231194   2.170   2.172   3.249 -0.5908 -0.7323 -0.5418
 6578SOL     OW31195   4.380   2.688   9.352  0.2004  0.6722  0.4232
 6578SOL    HW131196   4.395   2.782   9.349  0.0508  0.6924  0.2951
 6578SOL    HW231197   4.444   2.658   9.287  0.2294 -0.0945  0.7987
 6579SOL     OW31198   1.529   4.231   5.247  0.2171  0.1394  0.5049
 6579SOL    HW131199   1.624   4.242   5.239  0.2139 -0.1171  0.1395
 6579SOL    HW231200   1.519   4.168   5.318  2.4580 -0.3477  0.3961
 6580SOL     OW31201   3.975   0.253   8.810  0.1527 -0.0225  0.2065
 6580SOL    HW131202   3.996   0.346   8.801  1.1651 -0.3693 -1.0254
 6580SOL    HW231203   3.883   0.263   8.788  0.1357 -2.9894 -1.0079
 6581SOL     OW31204   0.109   0.639   2.991 -0.1887 -0.6247  0.0110
 6581SOL    HW131205   0.018   0.619   3.015  0.4020 -2.4295  0.6814
 6581SOL    HW231206   0.108   0.586   2.911 -0.8738  1.3600 -1.3185
 6582SOL     OW31207   4.003   1.684   4.971 -0.4544  0.4362 -0.2590
 6582SOL    HW131208   3.997   1.717   4.881  3.5469 -1.3524 -1.1929
 6582SOL    HW231209   3.912   1.683   4.999  0.7502  1.2788  3.6869
 6583SOL     OW31210   0.093   3.086   9.834  0.2389  0.4644 -0.1741
 6583SOL    HW131211   0.165   3.040   9.791 -0.5047 -0.1541 -0.7510
 6583SOL    HW231212   0.090   3.162   9.775 -0.0181 -0.2747 -1.1090
 6584SOL     OW31213   1.971   1.708   3.945 -0.3441 -0.2163 -0.1392
 6584SOL    HW131214   1.940   1.705   3.855  1.1363 -0.6733 -0.6369
 6584SOL    HW231215   1.950   1.796   3.976  0.6769  0.3593 -1.0597
 6585SOL     OW31216   4.213   2.197  12.481 -0.1197 -0.1720  0.4036
 6585SOL    HW131217   4.219   2.256  12.406 -0.7248  0.6434  1.0060
 6585SOL    HW231218   4.129   2.221  12.519 -0.3099 -1.6430  0.9079
 6586SOL     OW31219   1.184   4.289  11.661 -0.0459  0.1615 -0.2291
 6586SOL    HW131220   1.182   4.385  11.664 -2.9440  0.0627  0.3303
 6586SOL    HW231221   1.147   4.269  11.747  1.2424 -0.0394  0.2762
 6587SOL     OW31222   1.618   2.038   3.304 -0.3602  0.1717 -0.3419
 6587SOL    HW131223   1.695   2.088   3.276 -0.3237 -0.0696 -0.6675
 6587SOL    HW231224   1.554   2.109   3.303  0.7712  1.1846 -0.4552
 6588SOL     OW31225   2.290   1.325   9.217  0.2396 -0.3896 -0.2038
 6588SOL    HW131226   2.266   1.336   9.309  0.4318  0.9989 -0.3195
 6588SOL    HW231227   2.231   1.384   9.171 -1.1468 -1.1063  0.6555
 6589SOL     OW31228   1.023   0.174   9.242  0.0399  0.0920 -0.8457
 6589SOL    HW131229   1.043   0.086   9.211  2.8868  0.5480 -0.2721
 6589SOL    HW231230   0.931   0.157   9.261 -0.5097  2.2486 -1.5419
 6590SOL     OW31231   1.336   4.184   5.061  0.0510  0.7588  0.4493
 6590SOL    HW131232   1.413   4.200   5.114  1.4146 -1.7312 -0.7730
 6590SOL    HW231233   1.278   4.261   5.064 -0.4018  0.4445 -0.1052
 6591SOL     OW31234   2.292   0.650   6.613 -0.0040  0.1018  0.8689
 6591SOL    HW131235   2.255   0.564   6.594  1.2317  0.3960 -2.7688
 6591SOL    HW231236   2.232   0.695   6.554 -0.1108 -0.4806  0.5393
 6592SOL     OW31237   3.347   1.097  17.571  0.1124 -0.0637 -0.6827
 6592SOL    HW131238   3.291   1.148  17.511 -2.3528 -0.4416  1.2898
 6592SOL    HW231239   3.277   1.052  17.619  1.8223 -1.1185  0.8069
 6593SOL     OW31240   3.479   2.926   3.133 -0.3278  0.0208 -0.4647
 6593SOL    HW131241   3.560   2.891   3.096  0.6377  2.3497 -0.5241
 6593SOL    HW231242   3.419   2.922   3.059 -1.5726  2.2027  0.4060
 6594SOL     OW31243   0.802   0.479   8.023 -0.1369  0.6784 -1.0807
 6594SOL    HW131244   0.815   0.558   8.076  2.3970  0.3442 -1.2055
 6594SOL    HW231245   0.713   0.489   7.990 -1.1927  0.8959  1.8645
 6595SOL     OW31246   3.951   3.886   1.742  0.5207  0.4330  0.3690
 6595SOL    HW131247   3.862   3.876   1.709  1.4074  0.1301 -1.8850
 6595SOL    HW231248   3.950   3.829   1.819 -1.5183  0.7703  0.5887
 6596SOL     OW31249   0.847   4.634   6.462  0.0929  0.1952 -0.1078
 6596SOL    HW131250   0.858   4.592   6.547  0.9303 -0.6106 -0.6055
 6596SOL    HW231251   0.782   4.703   6.475  1.8110  1.6610  0.7673
 6597SOL     OW31252   0.699   3.815   7.871  0.0049  0.1179 -0.8965
 6597SOL    HW131253   0.755   3.796   7.795 -0.9402  2.2511 -2.1230
 6597SOL    HW231254   0.731   3.891   7.920  0.1356 -0.8336  0.4977
 6598SOL     OW31255   0.691   0.336   4.188 -0.0128 -0.3323  0.2309
 6598SOL    HW131256   0.762   0.360   4.247  0.4951 -0.8465 -0.1658
 6598SOL    HW231257   0.658   0.423   4.164  1.0690  0.2944  1.0177
 6599SOL     OW31258   4.339   1.556   2.619 -0.5020  0.1004 -0.2597
 6599SOL    HW131259   4.426   1.543   2.656 -0.7693 -0.3211  0.2304
 6599SOL    HW231260   4.326   1.469   2.582 -1.4149 -1.1418  2.9088
 6600SOL     OW31261   1.321   3.447   2.815 -0.2357 -0.1794 -0.0911
 6600SOL    HW131262   1.249   3.466   2.756 -0.6945 -1.7100 -0.0404
 6600SOL    HW231263   1.381   3.388   2.768 -2.0090 -2.9865  1.1698
 6601SOL     OW31264   1.632   2.943   8.226  0.0843 -0.3285  0.4648
 6601SOL    HW131265   1.576   2.963   8.302 -1.8729 -0.1291 -1.0352
 6601SOL    HW231266   1.564   2.930   8.160  0.3526  1.4844 -0.1802
 6602SOL     OW31267   4.308   3.424   2.301  0.2678  0.1103 -0.1687
 6602SOL    HW131268   4.395   3.387   2.318 -0.5898 -1.3799  0.9934
 6602SOL    HW231269   4.252   3.362   2.348 -1.0667 -0.7386 -2.8375
 6603SOL     OW31270   3.762   4.504   6.085  0.3777 -0.0756 -0.3401
 6603SOL    HW131271   3.686   4.467   6.040 -0.6578 -0.3045  1.5948
 6603SOL    HW231272   3.721   4.511   6.172 -2.9644 -0.5913 -1.8875
 6604SOL     OW31273   2.359   1.628   3.303 -0.0881 -0.2767  0.5791
 6604SOL    HW131274   2.375   1.703   3.245  0.0261  1.2380  2.5830
 6604SOL    HW231275   2.344   1.678   3.383  1.2982  1.0829 -0.0035
 6605SOL     OW31276   2.568   1.460   3.746 -0.2989 -0.3701  0.1638
 6605SOL    HW131277   2.478   1.490   3.755 -0.9864 -2.5577  0.6576
 6605SOL    HW231278   2.621   1.539   3.738  0.4119 -0.9055 -0.3549
 6606SOL     OW31279   2.146   0.778   0.274 -0.3620 -0.5089 -0.1425
 6606SOL    HW131280   2.171   0.689   0.298  0.9669 -0.3403 -0.8896
 6606SOL    HW231281   2.124   0.776   0.181 -1.3662 -0.5841  0.0954
 6607SOL     OW31282   0.088   1.396   7.160 -0.2134  0.2935  0.0163
 6607SOL    HW131283   0.010   1.421   7.111  0.5674  1.9363 -0.4266
 6607SOL    HW231284   0.141   1.349   7.096 -1.3142 -0.5275 -0.2870
 6608SOL     OW31285   1.586   3.458   2.354 -0.2979 -0.7950  0.3822
 6608SOL    HW131286   1.564   3.453   2.261  0.5732  0.9237  0.0890
 6608SOL    HW231287   1.536   3.382   2.385  1.8236 -2.2141  0.2879
 6609SOL     OW31288   1.143   4.506   2.889 -0.1603 -0.2819  0.3820
 6609SOL    HW131289   1.089   4.527   2.813  0.0267 -0.6709  0.1404
 6609SOL    HW231290   1.138   4.591   2.932 -3.0489  0.2176 -0.9594
 6610SOL     OW31291   2.709   1.591   4.147 -0.3752  0.1625  0.5209
 6610SOL    HW131292   2.650   1.660   4.118  1.1274  1.2667  0.0357
 6610SOL    HW231293   2.757   1.576   4.066 -0.2016 -1.4704  0.9338
 6611SOL     OW31294   1.268   1.578   2.867 -0.0126 -1.0951  0.0279
 6611SOL    HW131295   1.206   1.560   2.938  0.4402  1.3128  1.0242
 6611SOL    HW231296   1.234   1.534   2.789 -0.1148  0.5189 -0.8260
 6612SOL     OW31297   4.165   3.551   7.775  0.0700 -0.1698  0.6487
 6612SOL    HW131298   4.191   3.489   7.842  0.4851  0.8696  1.4451
 6612SOL    HW231299   4.123   3.625   7.819  1.6362  0.7376  0.6082
 6613SOL     OW31300   0.937   0.586   4.096  0.4075 -0.2846  0.1894
 6613SOL    HW131301   0.974   0.568   4.010 -0.4607  0.5705 -0.3585
 6613SOL    HW231302   0.989   0.665   4.115  0.5462  0.6419 -4.0198
 6614SOL     OW31303   0.490   0.455   2.266 -0.3820  0.7435  0.3374
 6614SOL    HW131304   0.396   0.470   2.282 -0.5722 -0.4611  0.3209
 6614SOL    HW231305   0.499   0.365   2.297  0.6827 -0.1146 -2.4185
 6615SOL     OW31306   1.114   3.849  17.638 -0.0041  0.9989  0.1986
 6615SOL    HW131307   1.177   3.879   0.014 -0.1645  2.4800 -0.3326
 6615SOL    HW231308   1.119   3.754  17.642 -0.0258  0.9958  0.1439
 6616SOL     OW31309   3.222   1.244   1.936  0.0925 -0.2720 -0.1634
 6616SOL    HW131310   3.221   1.248   1.840 -2.8646  1.3742 -0.0290
 6616SOL    HW231311   3.142   1.295   1.941  0.4687  0.1705  1.1400
 6617SOL     OW31312   0.473   1.222  10.619 -0.0296 -0.1662 -0.5757
 6617SOL    HW131313   0.486   1.127  10.613  0.9797 -0.0029 -1.0124
 6617SOL    HW231314   0.551   1.249  10.668  0.2106 -0.5887 -0.7194
 6618SOL     OW31315   2.109   3.312   8.129 -0.1133  0.1254  0.4625
 6618SOL    HW131316   2.150   3.226   8.135  1.0914  0.6284 -0.5720
 6618SOL    HW231317   2.139   3.349   8.047  1.5188  0.3047  1.1472
 6619SOL     OW31318   0.020   1.220   5.007 -0.1579 -0.2358 -0.4378
 6619SOL    HW131319   0.043   1.257   4.922  1.2366 -0.4460 -0.1539
 6619SOL    HW231320   4.698   1.290   5.057 -1.2853 -1.5460  0.4116
 6620SOL     OW31321   2.427   1.866  15.613 -0.7232 -0.1011 -0.7060
 6620SOL    HW131322   2.364   1.859  15.685  2.7678  0.4998  2.4348
 6620SOL    HW231323   2.438   1.961  15.606  1.1165 -0.2748 -0.1621
 6621SOL     OW31324   0.658   3.200   5.622 -0.0330  0.4317  1.0245
 6621SOL    HW131325   0.625   3.167   5.538  3.4742 -0.8250  0.1334
 6621SOL    HW231326   0.672   3.117   5.667  1.3833  1.9059  3.2506
 6622SOL     OW31327   3.681   0.108   3.181 -0.1340 -1.2693 -0.6374
 6622SOL    HW131328   3.652   0.197   3.162  0.1497 -0.9848  0.2423
 6622SOL    HW231329   3.684   0.118   3.276 -0.1834 -1.5942 -0.6004
 6623SOL     OW31330   3.364   3.739   5.196 -1.0680 -0.1242 -0.1643
 6623SOL    HW131331   3.344   3.774   5.109  1.1669 -2.0177 -1.4383
 6623SOL    HW231332   3.454   3.770   5.203 -1.4065  0.8684 -0.2818
 6624SOL     OW31333   0.965   3.119  13.002 -0.1927  0.1947 -0.1146
 6624SOL    HW131334   0.986   3.032  12.969  0.8232  0.4592 -0.1724
 6624SOL    HW231335   0.884   3.136  12.954  0.6574 -3.1082 -2.6319
 6625SOL     OW31336   2.596   0.703   2.705 -0.4043  0.5904 -0.0170
 6625SOL    HW131337   2.616   0.666   2.790 -0.8929  2.9601  1.1467
 6625SOL    HW231338   2.607   0.623   2.654  1.2831  0.6710  0.2515
 6626SOL     OW31339   0.351   3.676   8.318 -0.0686 -0.0260  0.0162
 6626SOL    HW131340   0.301   3.605   8.358  2.8789 -1.7311  0.6979
 6626SOL    HW231341   0.425   3.681   8.379 -1.3962  0.7998  1.5632
 6627SOL     OW31342   1.837   2.750  17.511 -0.0662 -0.0186 -0.1051
 6627SOL    HW131343   1.841   2.782  17.421  0.3814  0.5468  0.1171
 6627SOL    HW231344   1.928   2.754  17.542 -0.3501  0.9410  0.5985
 6628SOL     OW31345   4.128   0.535   8.786  0.2181  0.5941 -0.3172
 6628SOL    HW131346   4.178   0.522   8.867  1.7861  2.9026 -0.8936
 6628SOL    HW231347   4.139   0.630   8.775  1.0418  0.4441 -0.8434
 6629SOL     OW31348   1.596   3.516  17.387 -0.0079 -0.1089 -0.0056
 6629SOL    HW131349   1.616   3.424  17.400  1.4266 -0.0940 -2.1663
 6629SOL    HW231350   1.596   3.522  17.292  0.8002 -0.1000 -0.0013
 6630SOL     OW31351   2.159   0.790   6.316 -0.0052  0.5387 -0.4236
 6630SOL    HW131352   2.075   0.760   6.351 -0.5839 -1.8285 -3.9095
 6630SOL    HW231353   2.133   0.870   6.270  0.3781  0.0212 -1.5391
 6631SOL     OW31354   2.666   0.973  15.187 -0.4561  0.0847 -0.1850
 6631SOL    HW131355   2.726   0.971  15.113  0.0516  3.7757  0.1375
 6631SOL    HW231356   2.721   1.024  15.246  0.3419  0.3356 -1.1491
 6632SOL     OW31357   2.917   1.371   0.003 -0.3709  0.4584 -0.7916
 6632SOL    HW131358   2.928   1.455   0.049 -1.9265 -0.8438  1.9482
 6632SOL    HW231359   2.905   1.324   0.086  3.1231 -2.6819 -2.0815
 6633SOL     OW31360   3.389   2.970   1.698  0.0395  0.4480  0.1662
 6633SOL    HW131361   3.338   3.007   1.626  0.3581  1.2947  0.3818
 6633SOL    HW231362   3.477   2.963   1.662 -0.5093 -1.3220 -0.8240
 6634SOL     OW31363   4.267   1.991   6.031 -0.4216  0.7451  0.5892
 6634SOL    HW131364   4.300   1.955   6.114 -0.0371 -1.4514 -0.4952
 6634SOL    HW231365   4.210   2.057   6.070 -2.6115  0.7540 -2.5478
 6635SOL     OW31366   0.901   2.754   8.552  0.2407  0.6619  0.2789
 6635SOL    HW131367   0.865   2.781   8.637  0.6388  1.7015  0.1118
 6635SOL    HW231368   0.994   2.759   8.575 -0.9095  2.7607  4.4681
 6636SOL     OW31369   4.442   4.619   4.497 -0.1583  0.4834 -0.0742
 6636SOL    HW131370   4.442   4.560   4.572  2.0537  1.1257  0.4118
 6636SOL    HW231371   4.506   4.689   4.508  0.9021 -0.7077  1.2217
 6637SOL     OW31372   1.604   1.177  10.630 -0.3044 -0.2730  0.1684
 6637SOL    HW131373   1.581   1.270  10.628 -0.7349 -0.3436  2.0512
 6637SOL    HW231374   1.517   1.141  10.649 -0.0321 -1.3193 -0.5675
 6638SOL     OW31375   0.917   1.069   1.791  0.3331  0.7089 -0.1331
 6638SOL    HW131376   0.937   1.130   1.861  1.0733 -1.1879  1.3122
 6638SOL    HW231377   0.827   1.096   1.772  0.3208 -0.0240 -1.1138
 6639SOL     OW31378   2.595   1.206   8.482  0.1834  0.1002 -0.1158
 6639SOL    HW131379   2.583   1.243   8.395 -0.4311  0.4978  0.1358
 6639SOL    HW231380   2.517   1.154   8.499  0.4563  0.0840  1.0963
 6640SOL     OW31381   1.235   1.688   7.087  0.2021 -0.3432  0.5835
 6640SOL    HW131382   1.311   1.630   7.086  1.0529  0.7549  1.4093
 6640SOL    HW231383   1.259   1.749   7.017  0.7223 -1.6535 -0.3727
 6641SOL     OW31384   3.621   3.558  15.498  0.2878  0.1377 -0.2714
 6641SOL    HW131385   3.545   3.520  15.541  0.3252  1.3682  0.8760
 6641SOL    HW231386   3.687   3.542  15.565 -1.6758 -0.7591  1.4651
 6642SOL     OW31387   2.597   0.648   8.972  0.0578 -0.3339  0.0273
 6642SOL    HW131388   2.576   0.609   8.887 -2.2944 -1.5591  1.1674
 6642SOL    HW231389   2.507   0.667   8.998  0.3297  1.8027 -0.5725
 6643SOL     OW31390   1.454   2.861   0.634 -0.2039 -0.0615  0.1266
 6643SOL    HW131391   1.389   2.926   0.659 -1.1987 -0.3894 -1.6169
 6643SOL    HW231392   1.476   2.892   0.546  0.6102 -3.1544 -0.7532
 6644SOL     OW31393   3.983   3.598   3.349 -0.4105 -0.3692  0.2764
 6644SOL    HW131394   4.025   3.639   3.274 -1.4301  0.4068  0.1300
 6644SOL    HW231395   4.028   3.514   3.355 -0.0362 -0.1792  0.1278
 6645SOL     OW31396   1.412   0.385   0.649  0.3538  0.5283  0.3537
 6645SOL    HW131397   1.501   0.378   0.684 -0.8642 -2.0444  3.0111
 6645SOL    HW231398   1.368   0.426   0.724 -2.3861  0.1195 -1.0396
 6646SOL     OW31399   0.544   0.642  11.088 -0.0977  0.0837  0.0444
 6646SOL    HW131400   0.476   0.664  11.152  0.8908  2.4120  0.3184
 6646SOL    HW231401   0.620   0.621  11.143  0.6767 -0.9076 -1.4115
 6647SOL     OW31402   3.674   1.166  12.034 -0.2282  0.0535  0.5897
 6647SOL    HW131403   3.705   1.246  12.077 -0.7975 -0.6140  2.2306
 6647SOL    HW231404   3.645   1.198  11.949  1.5831  2.5670  0.8969
 6648SOL     OW31405   0.204   3.789   6.477 -0.0196  0.3972  0.6484
 6648SOL    HW131406   0.233   3.809   6.565  1.0241  1.2083  0.1197
 6648SOL    HW231407   0.129   3.730   6.485  1.9220 -2.1039  0.3340
 6649SOL     OW31408   3.081   2.257   3.787  0.6437  0.0829  0.0463
 6649SOL    HW131409   3.021   2.320   3.827  1.1103  0.1966  0.5681
 6649SOL    HW231410   3.038   2.231   3.705  0.9244  1.4629 -0.5456
 6650SOL     OW31411   4.614   0.773   8.497  0.1376  0.3812  0.4097
 6650SOL    HW131412   4.578   0.791   8.584  2.0376  2.1884  0.7964
 6650SOL    HW231413   4.672   0.698   8.511 -0.3856 -0.3255 -1.1008
 6651SOL     OW31414   3.480   0.515  16.585  0.0380  0.1374  0.2548
 6651SOL    HW131415   3.403   0.569  16.603 -0.2165  0.8242 -2.8727
 6651SOL    HW231416   3.485   0.516  16.490  1.8508 -0.7681  0.3357
 6652SOL     OW31417   0.330   2.057  14.838 -0.2275  0.4214 -0.1937
 6652SOL    HW131418   0.367   2.054  14.926 -0.4836  0.3516 -0.0870
 6652SOL    HW231419   0.380   2.128  14.797  0.4874  0.0774  0.0962
 6653SOL     OW31420   3.776   4.054   7.549  0.0974 -0.4648  0.3788
 6653SOL    HW131421   3.824   4.078   7.470  2.6788 -2.1873  1.4307
 6653SOL    HW231422   3.837   3.998   7.596 -0.7984 -1.7385  0.0353
 6654SOL     OW31423   3.453   3.174   1.324 -0.2914 -0.4091 -0.4472
 6654SOL    HW131424   3.389   3.146   1.389 -0.0843 -0.4045 -0.2420
 6654SOL    HW231425   3.509   3.231   1.377 -0.9942 -0.4449  0.3166
 6655SOL     OW31426   3.761   2.668   3.509  0.0800  0.0577 -0.2940
 6655SOL    HW131427   3.838   2.621   3.540 -0.9513 -2.0286 -0.9065
 6655SOL    HW231428   3.690   2.609   3.533  1.1399 -0.2628  2.0377
 6656SOL     OW31429   2.400   0.480  15.250  0.8193 -0.4928 -0.1563
 6656SOL    HW131430   2.306   0.498  15.250  0.6662 -1.3044  2.7276
 6656SOL    HW231431   2.423   0.573  15.258 -0.6605 -0.1090 -0.2521
 6657SOL     OW31432   2.223   3.659   5.840 -0.2396  0.2212  0.2223
 6657SOL    HW131433   2.299   3.609   5.809 -0.9428 -1.8819  1.8988
 6657SOL    HW231434   2.177   3.654   5.757  1.5815  0.6813 -0.8211
 6658SOL     OW31435   4.520   1.095   8.689 -0.2809  0.5599  0.6520
 6658SOL    HW131436   4.499   1.066   8.601 -1.4698 -0.6690  1.3375
 6658SOL    HW231437   4.594   1.155   8.681 -1.1109  1.8654  2.7249
 6659SOL     OW31438   0.959   3.979   5.559 -0.4048 -0.3337 -0.5301
 6659SOL    HW131439   0.943   4.047   5.494  0.2890  0.5880  0.2567
 6659SOL    HW231440   0.993   4.017   5.640  0.9066  0.2624 -1.3551
 6660SOL     OW31441   0.144   4.290   6.142 -0.5994 -0.2511  0.0658
 6660SOL    HW131442   0.160   4.383   6.158  0.9868 -0.6468  0.7376
 6660SOL    HW231443   0.180   4.250   6.221 -2.2377 -1.0385  0.4089
 6661SOL     OW31444   1.946   1.388   2.286 -0.0147 -0.1097 -0.1519
 6661SOL    HW131445   1.951   1.481   2.265 -3.0989 -0.2204 -1.3428
 6661SOL    HW231446   2.038   1.376   2.310 -0.2996 -0.9822  0.5018
 6662SOL     OW31447   1.280   1.996   0.996  0.7178 -0.3063  0.0349
 6662SOL    HW131448   1.259   1.910   1.033 -0.5189  0.2542  0.6262
 6662SOL    HW231449   1.250   2.058   1.063 -0.7210 -0.4002 -0.5093
 6663SOL     OW31450   0.996   1.198  10.050  0.0300 -0.1056  0.5432
 6663SOL    HW131451   0.919   1.179  10.105  0.7535  0.7606  1.8487
 6663SOL    HW231452   0.991   1.137   9.976  1.4537  0.0604  0.3263
 6664SOL     OW31453   0.860   4.363   6.956 -0.2774 -0.3851  0.0455
 6664SOL    HW131454   0.951   4.332   6.950 -0.8438 -2.1153  0.4416
 6664SOL    HW231455   0.807   4.285   6.941  1.1926 -0.7758 -2.9334
 6665SOL     OW31456   4.403   0.028   8.438 -0.3913  0.8772 -0.2456
 6665SOL    HW131457   4.419   0.049   8.346  1.0064  0.9819  0.0211
 6665SOL    HW231458   4.491   4.716   8.452 -0.0769  1.7227 -0.1549
 6666SOL     OW31459   2.437   3.170   3.519 -0.2942  0.5064  0.0199
 6666SOL    HW131460   2.477   3.258   3.520 -1.2461  0.9085  2.6482
 6666SOL    HW231461   2.458   3.145   3.609 -1.6761 -1.0451 -0.1045
 6667SOL     OW31462   0.636   3.937  11.720  0.1140  0.2206  0.0123
 6667SOL    HW131463   0.565   3.874  11.709 -1.6048  2.3520 -1.1412
 6667SOL    HW231464   0.658   3.924  11.812  0.5399 -0.4343 -0.1768
 6668SOL     OW31465   3.744   4.473  10.305 -0.1228 -0.2143  0.5052
 6668SOL    HW131466   3.773   4.564  10.306 -1.5360  0.2619 -1.0414
 6668SOL    HW231467   3.692   4.470  10.225  1.1650  0.8537 -0.3540
 6669SOL     OW31468   2.378   2.324   0.608  0.3793  0.0408 -0.2001
 6669SOL    HW131469   2.342   2.320   0.519 -2.4341  1.1909  0.8676
 6669SOL    HW231470   2.469   2.341   0.587  0.6331 -2.3394 -0.9985
 6670SOL     OW31471   0.135   3.640   4.814  0.4515  0.0619  0.3340
 6670SOL    HW131472   0.210   3.640   4.873 -0.7402  2.3932  1.8448
 6670SOL    HW231473   0.109   3.549   4.828  0.2287  0.0408 -0.2060
 6671SOL     OW31474   4.376   0.162  11.416  0.3596  0.0868 -0.0512
 6671SOL    HW131475   4.362   0.246  11.459  1.9908  0.0911  0.4625
 6671SOL    HW231476   4.461   0.139  11.453 -0.5151  1.0922  2.6097
 6672SOL     OW31477   1.007   0.193   5.242 -0.6491 -0.3135 -0.6482
 6672SOL    HW131478   0.934   0.183   5.303 -0.2569  1.8264  0.1594
 6672SOL    HW231479   0.964   0.244   5.173  2.4006  2.1051 -0.7663
 6673SOL     OW31480   2.962   0.684   7.975 -0.0587 -1.1015 -0.1735
 6673SOL    HW131481   2.983   0.595   7.947  1.5627 -2.0535  4.1208
 6673SOL    HW231482   3.000   0.680   8.062 -0.7424 -0.7136  0.1426
 6674SOL     OW31483   0.023   1.616  14.616 -0.6360 -0.4081 -0.1724
 6674SOL    HW131484   0.013   1.560  14.693 -1.9531  2.1598  1.5594
 6674SOL    HW231485   4.690   1.573  14.551 -1.0473 -1.2990  0.7656
 6675SOL     OW31486   1.426   1.379  14.087  0.2839 -0.2348 -0.7435
 6675SOL    HW131487   1.337   1.392  14.054  0.9528  1.1763 -1.9724
 6675SOL    HW231488   1.452   1.291  14.063  0.5482 -0.1664 -0.7015
 6676SOL     OW31489   3.319   3.955  17.605 -0.1087  0.1785  0.2141
 6676SOL    HW131490   3.364   3.938  17.523  0.3527 -0.2867  0.5643
 6676SOL    HW231491   3.239   3.908  17.583  0.3115  0.1697 -1.2484
 6677SOL     OW31492   1.617   0.351   1.470 -0.2516 -0.1253 -0.4885
 6677SOL    HW131493   1.644   0.279   1.527 -3.1602  0.2767  1.3924
 6677SOL    HW231494   1.625   0.298   1.391  0.3890 -0.3941 -0.2448
 6678SOL     OW31495   0.111   0.587  11.513  0.0915  0.2611 -0.7875
 6678SOL    HW131496   0.206   0.579  11.517  0.1977  1.0849 -1.6597
 6678SOL    HW231497   0.106   0.664  11.569  1.5710 -0.7607  0.7501
 6679SOL     OW31498   0.986   0.501   1.685  0.6506 -0.2448  1.0195
 6679SOL    HW131499   1.058   0.553   1.719  0.6211  0.4772 -0.0358
 6679SOL    HW231500   0.911   0.560   1.693 -0.2021 -1.1462 -0.2465
 6680SOL     OW31501   4.634   1.595   9.731 -0.3935 -0.6229  0.2039
 6680SOL    HW131502   4.613   1.645   9.651  1.1764 -1.2152 -0.5704
 6680SOL    HW231503   4.700   1.656   9.764 -1.5291  0.2156  0.9384
 6681SOL     OW31504   0.587   0.301   8.157 -0.1755 -0.2720  0.1219
 6681SOL    HW131505   0.591   0.349   8.240  0.8843 -1.5126  0.7916
 6681SOL    HW231506   0.654   0.345   8.105  0.6804  0.8934  2.2083
 6682SOL     OW31507   3.068   3.177   3.583 -0.1690  0.7526  0.0011
 6682SOL    HW131508   3.118   3.220   3.652  1.7671  0.0675 -0.9748
 6682SOL    HW231509   3.126   3.178   3.507  0.2412 -2.0096  0.3056
 6683SOL     OW31510   0.095   3.517  13.202  0.0116 -0.0685  0.2143
 6683SOL    HW131511   0.018   3.500  13.257  0.3562 -0.8523  0.4502
 6683SOL    HW231512   0.057   3.515  13.114  0.6652  0.7464 -0.0766
 6684SOL     OW31513   1.792   4.534   7.693 -0.7621  0.1922  0.4198
 6684SOL    HW131514   1.779   4.476   7.619 -0.1481 -0.5355  0.8838
 6684SOL    HW231515   1.798   4.466   7.760 -0.4900  1.5526  1.7908
 6685SOL     OW31516   2.311   2.336  16.229 -0.2470 -0.5872  0.0640
 6685SOL    HW131517   2.237   2.308  16.175 -0.9786  0.0476  0.7377
 6685SOL    HW231518   2.341   2.255  16.270 -0.1120 -0.2872  0.5628
 6686SOL     OW31519   2.169   3.955   6.223 -0.6625 -0.5874 -0.4453
 6686SOL    HW131520   2.133   3.890   6.162 -0.1318 -1.9266  0.6601
 6686SOL    HW231521   2.203   4.023   6.165  1.7700 -0.6956  0.8484
 6687SOL     OW31522   3.441   0.636  11.648  0.7302 -0.3688 -0.1659
 6687SOL    HW131523   3.396   0.689  11.582  0.4173 -0.0122  0.3292
 6687SOL    HW231524   3.523   0.623  11.602 -0.5613 -0.8406 -2.3152
 6688SOL     OW31525   2.548   4.272   8.489 -0.0882  0.1094 -0.1957
 6688SOL    HW131526   2.475   4.334   8.486 -0.7271 -0.6946 -1.1359
 6688SOL    HW231527   2.629   4.323   8.497 -0.8115  1.1043  0.8420
 6689SOL     OW31528   4.066   1.410  14.132  0.5496 -0.3755 -0.1654
 6689SOL    HW131529   4.047   1.411  14.226  0.3252  0.0136 -0.2175
 6689SOL    HW231530   4.050   1.498  14.098 -0.6948 -0.3739  0.4275
 6690SOL     OW31531   2.742   1.149   5.896  0.6782  0.2763  0.6995
 6690SOL    HW131532   2.740   1.166   5.802  0.1084  0.0583  0.6701
 6690SOL    HW231533   2.805   1.214   5.927 -0.1996  2.2038 -1.5840
 6691SOL     OW31534   4.370   0.294   4.701 -0.4836  0.1256  0.1346
 6691SOL    HW131535   4.433   0.228   4.729  1.1172  0.7656 -1.9453
 6691SOL    HW231536   4.281   0.262   4.714 -1.7561  3.7230  0.3154
 6692SOL     OW31537   3.919   1.931   0.621 -0.3590 -0.6238  0.1794
 6692SOL    HW131538   3.859   2.004   0.610  1.4053  0.8788  0.3867
 6692SOL    HW231539   3.945   1.903   0.533 -2.1118 -1.6181 -0.0183
 6693SOL     OW31540   3.738   0.392   1.743  0.4667 -0.5768  0.5536
 6693SOL    HW131541   3.749   0.297   1.734  0.6320 -0.5754  0.7259
 6693SOL    HW231542   3.785   0.428   1.668 -0.1692 -0.7167  0.0841
 6694SOL     OW31543   0.190   2.503  17.476  0.9390  0.3429 -0.0870
 6694SOL    HW131544   0.219   2.594  17.483 -1.4007  0.8090  2.9804
 6694SOL    HW231545   0.223   2.503  17.386 -0.3431  1.9597 -0.5515
 6695SOL     OW31546   3.225   2.788   2.149 -0.0671  0.2038 -0.0465
 6695SOL    HW131547   3.258   2.845   2.081 -0.1404 -0.4254 -0.6107
 6695SOL    HW231548   3.130   2.802   2.148 -0.4450 -1.9452  2.7242
 6696SOL     OW31549   3.515   1.215  13.722 -0.1405  0.5075  0.3419
 6696SOL    HW131550   3.595   1.262  13.747  0.5462 -1.4005  1.6744
 6696SOL    HW231551   3.461   1.292  13.742  0.7336  1.9205 -2.7767
 6697SOL     OW31552   1.306   3.857   5.863 -0.6021  0.6301 -0.2610
 6697SOL    HW131553   1.353   3.866   5.780 -2.8411 -2.5949 -1.8818
 6697SOL    HW231554   1.360   3.793   5.909  1.0524  0.5379 -2.3408
 6698SOL     OW31555   1.577   3.207  11.818  0.1209 -0.2574  0.0906
 6698SOL    HW131556   1.549   3.255  11.897  1.7206 -0.4059  0.7346
 6698SOL    HW231557   1.525   3.264  11.761 -0.3265 -0.2372  0.5102
 6699SOL     OW31558   2.254   3.633  15.480  0.4111 -0.3199  0.0222
 6699SOL    HW131559   2.296   3.564  15.532  1.6660 -0.1684 -0.8053
 6699SOL    HW231560   2.309   3.636  15.402  0.9318  0.2345  0.4064
 6700SOL     OW31561   1.414   3.342  11.660 -0.4018  1.0109  0.1601
 6700SOL    HW131562   1.473   3.379  11.594  0.8928 -2.4527 -0.5976
 6700SOL    HW231563   1.346   3.322  11.595  0.7761  1.1163 -1.0901
 6701SOL     OW31564   1.308   2.021   6.383  0.8219  0.0306  0.0747
 6701SOL    HW131565   1.303   2.036   6.288  0.2111  2.1960  0.4545
 6701SOL    HW231566   1.354   1.938   6.376 -1.4609 -1.0508 -2.0565
 6702SOL     OW31567   3.602   1.588   2.460 -0.4362 -0.2352  0.6160
 6702SOL    HW131568   3.687   1.571   2.421 -0.7790  0.5239 -0.4568
 6702SOL    HW231569   3.541   1.563   2.390  0.2465  1.6813 -0.6402
 6703SOL     OW31570   4.232   1.444   8.740  0.2265 -0.3089  0.2693
 6703SOL    HW131571   4.301   1.452   8.806 -1.3330 -0.9816  1.9843
 6703SOL    HW231572   4.210   1.535   8.718  1.1850  0.1342  1.1470
 6704SOL     OW31573   0.259   4.474   9.267 -0.1561  1.0303 -0.3738
 6704SOL    HW131574   0.271   4.456   9.361 -1.8698 -0.6734 -0.4630
 6704SOL    HW231575   0.176   4.520   9.265 -0.7787 -0.0179  0.8387
 6705SOL     OW31576   4.302   2.577   6.101 -0.5285 -0.0283 -0.4175
 6705SOL    HW131577   4.239   2.505   6.101  1.0906 -1.4445 -1.2994
 6705SOL    HW231578   4.323   2.588   6.008  0.5066  2.3495  0.0891
 6706SOL     OW31579   4.454   2.301  14.616  0.2493  0.3228  0.0217
 6706SOL    HW131580   4.365   2.337  14.615  0.2425  0.3560  1.6026
 6706SOL    HW231581   4.447   2.236  14.546  0.9580  1.4389 -1.0947
 6707SOL     OW31582   2.441   0.296   4.258  0.1532 -0.0082  0.4448
 6707SOL    HW131583   2.442   0.210   4.300 -1.3212 -1.1005 -1.7768
 6707SOL    HW231584   2.468   0.278   4.168 -0.5087 -2.5837  0.7441
 6708SOL     OW31585   0.342   3.452   8.851 -0.3368 -0.6041  0.0219
 6708SOL    HW131586   0.256   3.447   8.892 -0.9283 -0.8048 -1.2202
 6708SOL    HW231587   0.392   3.487   8.925  0.1292  0.2600 -0.7004
 6709SOL     OW31588   2.991   3.936  14.348 -0.4498  0.3557 -0.0359
 6709SOL    HW131589   2.965   3.999  14.415 -2.0761 -0.1535 -0.1855
 6709SOL    HW231590   2.984   3.856  14.399 -2.4137 -1.2485 -2.8538
 6710SOL     OW31591   1.684   1.005   6.751  0.3590 -0.5365  0.3869
 6710SOL    HW131592   1.662   1.094   6.723  1.4218  0.0987  1.5722
 6710SOL    HW231593   1.600   0.959   6.752 -0.2530  0.5345 -0.3577
 6711SOL     OW31594   1.947   3.138   3.895 -0.2518  0.3337  0.0007
 6711SOL    HW131595   1.929   3.153   3.802 -1.7365  0.3390  0.3039
 6711SOL    HW231596   1.859   3.108   3.916 -0.1942  1.3265  1.6155
 6712SOL     OW31597   2.114   1.108   8.547  0.4430  0.7652 -0.5222
 6712SOL    HW131598   2.025   1.098   8.514  0.6430 -0.9449 -0.5394
 6712SOL    HW231599   2.110   1.061   8.631 -0.0369  0.4053 -0.7459
 6713SOL     OW31600   4.566   4.537   5.717 -0.9643 -0.6514  0.0265
 6713SOL    HW131601   4.486   4.484   5.715 -0.9751 -0.6260 -0.2011
 6713SOL    HW231602   4.532   4.625   5.736 -0.2145 -0.3017 -0.2712
 6714SOL     OW31603   0.717   4.594   4.844 -0.5974  0.0980 -0.2653
 6714SOL    HW131604   0.656   4.663   4.870  0.8800  1.2304  0.2127
 6714SOL    HW231605   0.708   4.601   4.749 -2.4434 -2.3880 -0.2593
 6715SOL     OW31606   1.178   2.960   5.028 -0.4954  0.1925  0.3521
 6715SOL    HW131607   1.116   2.940   4.958 -1.7480 -1.4906  1.9296
 6715SOL    HW231608   1.190   2.873   5.067  2.2507  0.4712  0.1744
 6716SOL     OW31609   3.616   1.194  15.169  0.5927  0.0391 -0.1358
 6716SOL    HW131610   3.671   1.240  15.232 -0.5639  0.3222  0.6748
 6716SOL    HW231611   3.598   1.262  15.104  0.7414 -0.7668 -1.0161
 6717SOL     OW31612   4.202   1.396   2.031 -0.1647  0.0196 -0.5149
 6717SOL    HW131613   4.115   1.358   2.020 -0.5584  0.8894 -0.4001
 6717SOL    HW231614   4.256   1.324   1.999  0.8261 -0.7630  2.8709
 6718SOL     OW31615   1.411   2.041  13.733  0.1675  0.2723  0.1902
 6718SOL    HW131616   1.363   1.962  13.760  0.4602 -0.6278 -1.8746
 6718SOL    HW231617   1.461   2.057  13.813  0.2850 -1.5190  0.4848
 6719SOL     OW31618   3.133   1.663   4.695 -0.2072 -0.0633 -0.3182
 6719SOL    HW131619   3.076   1.718   4.642  0.4463 -0.5084 -1.4719
 6719SOL    HW231620   3.067   1.605   4.734  0.6167 -1.0106 -0.3170
 6720SOL     OW31621   3.513   2.511  12.385 -0.1867  0.5062  0.2334
 6720SOL    HW131622   3.429   2.545  12.416 -0.5112  1.0089 -1.2378
 6720SOL    HW231623   3.504   2.424  12.425 -1.0105  0.1483 -0.7347
 6721SOL     OW31624   1.079   4.130   3.682 -0.0343 -0.5773  0.4711
 6721SOL    HW131625   1.015   4.074   3.638  1.3417 -0.6718 -1.3882
 6721SOL    HW231626   1.103   4.207   3.630  1.7298 -1.1644  0.4334
 6722SOL     OW31627   3.268   1.691   4.398  0.5249 -0.1412  0.1909
 6722SOL    HW131628   3.242   1.778   4.426 -0.8203 -1.2181  2.2652
 6722SOL    HW231629   3.363   1.694   4.411  0.3262  2.6498  0.9605
 6723SOL     OW31630   3.887   4.146   9.419  0.4883  0.0126 -0.1993
 6723SOL    HW131631   3.874   4.139   9.324 -1.7356  1.2977  0.0115
 6723SOL    HW231632   3.965   4.202   9.420  0.4104  0.1148  0.3354
 6724SOL     OW31633   4.251   1.477  10.166  0.1865 -0.7807  1.1477
 6724SOL    HW131634   4.227   1.569  10.175  0.6930 -0.4477 -0.9418
 6724SOL    HW231635   4.169   1.447  10.126  0.7427 -1.3786  0.4616
 6725SOL     OW31636   4.042   1.050   6.611  0.4500 -0.9032  0.0096
 6725SOL    HW131637   3.962   1.034   6.560  0.7098 -1.2773 -0.2843
 6725SOL    HW231638   4.011   1.005   6.689 -0.4249  2.4721  1.6052
 6726SOL     OW31639   2.837   2.866  14.629 -0.3706  0.0256  0.3062
 6726SOL    HW131640   2.825   2.942  14.685 -1.6383  0.2730 -0.2873
 6726SOL    HW231641   2.783   2.877  14.550  1.7620  0.3344 -1.0915
 6727SOL     OW31642   0.037   3.198  11.378  0.4627 -0.1421 -0.0167
 6727SOL    HW131643   4.712   3.199  11.295  2.6511 -1.0056 -1.2693
 6727SOL    HW231644   0.099   3.271  11.380  0.5873 -0.2175 -1.3227
 6728SOL     OW31645   2.761   1.371   8.081 -0.4799  0.1852  0.4625
 6728SOL    HW131646   2.756   1.460   8.115 -0.5219 -0.9424  3.3792
 6728SOL    HW231647   2.688   1.326   8.123  0.5346 -0.0979  1.9286
 6729SOL     OW31648   1.353   0.230   2.247  0.5381  0.4070 -0.0824
 6729SOL    HW131649   1.422   0.179   2.289 -1.1680 -0.3231  1.7965
 6729SOL    HW231650   1.313   0.169   2.186  1.9419  0.7697 -1.3617
 6730SOL     OW31651   1.427   1.509   1.495 -0.3268  0.3282 -0.1174
 6730SOL    HW131652   1.424   1.420   1.530  1.6491 -0.6505 -2.4106
 6730SOL    HW231653   1.437   1.566   1.571  0.9604  2.4955 -1.9218
 6731SOL     OW31654   1.145   0.664  12.778 -0.2425 -0.3038  0.1150
 6731SOL    HW131655   1.059   0.660  12.819  0.0034  0.8509  0.7541
 6731SOL    HW231656   1.144   0.577  12.737  1.1182  0.2839 -1.1719
 6732SOL     OW31657   3.498   0.906  12.457 -0.1307  0.1619 -0.9873
 6732SOL    HW131658   3.406   0.926  12.472  0.1262  0.0846  0.8011
 6732SOL    HW231659   3.548   0.980  12.493  0.2707 -1.6212  2.1384
 6733SOL     OW31660   3.774   0.735   2.784  0.3087  0.3794 -0.1190
 6733SOL    HW131661   3.799   0.653   2.827  1.2803  1.3845  1.2282
 6733SOL    HW231662   3.683   0.724   2.756  1.1294 -0.8748 -2.3226
 6734SOL     OW31663   0.608   3.172   1.294  0.5161 -0.1398 -0.4024
 6734SOL    HW131664   0.550   3.184   1.369  0.9956  0.3268 -0.1115
 6734SOL    HW231665   0.567   3.093   1.259 -1.3454  0.0803  1.2706
 6735SOL     OW31666   2.018   2.503  13.617  0.1024 -0.3254 -0.0965
 6735SOL    HW131667   1.925   2.478  13.615 -0.3565  1.5506 -1.4712
 6735SOL    HW231668   2.053   2.446  13.549  2.2611  0.0601  0.7072
 6736SOL     OW31669   1.803   1.730   6.111  0.5960 -0.5337  0.0140
 6736SOL    HW131670   1.890   1.761   6.087  0.0610  0.0038 -1.2380
 6736SOL    HW231671   1.805   1.649   6.061  0.3391 -0.1952 -0.5460
 6737SOL     OW31672   3.857   2.899   3.648  0.2741  0.3069 -0.5504
 6737SOL    HW131673   3.826   2.830   3.589 -2.2901  1.5389 -0.6339
 6737SOL    HW231674   3.774   2.936   3.677 -0.1825  0.7120 -2.4021
 6738SOL     OW31675   2.250   1.749  13.727 -0.7241 -0.4733 -0.3136
 6738SOL    HW131676   2.302   1.784  13.799 -0.0606  0.2732 -1.1504
 6738SOL    HW231677   2.288   1.802  13.657  0.7461 -2.3657 -0.9476
 6739SOL     OW31678   0.148   3.526   6.236  0.1774  0.1658 -0.1605
 6739SOL    HW131679   0.081   3.461   6.216  0.7476 -0.5040  0.1240
 6739SOL    HW231680   0.085   3.593   6.264  0.8561  1.0294 -0.7305
 6740SOL     OW31681   1.835   1.125   5.551  0.4528 -0.6394 -0.1838
 6740SOL    HW131682   1.878   1.176   5.482 -2.0829 -0.0144 -1.3351
 6740SOL    HW231683   1.859   1.179   5.627 -0.4079 -0.7149  0.1467
 6741SOL     OW31684   2.794   3.557  12.332  0.2865  0.1013 -0.6304
 6741SOL    HW131685   2.822   3.469  12.355  1.0170  1.0357  2.0812
 6741SOL    HW231686   2.712   3.553  12.382 -0.0835 -0.4370 -1.2880
 6742SOL     OW31687   3.689   1.492   2.141  0.0560  0.5238  0.1897
 6742SOL    HW131688   3.716   1.503   2.050  0.1612 -1.4289 -0.0075
 6742SOL    HW231689   3.661   1.582   2.160  0.1581  0.7438 -0.6899
 6743SOL     OW31690   0.486   0.719   3.876 -0.0449 -0.3995 -0.2453
 6743SOL    HW131691   0.578   0.694   3.886  0.2188  1.0488  0.9722
 6743SOL    HW231692   0.470   0.780   3.948 -2.9043 -0.6356 -0.7080
 6744SOL     OW31693   3.071   0.377   2.480 -0.4306 -0.0145 -0.7436
 6744SOL    HW131694   2.995   0.385   2.423  0.3232  1.2275 -1.5621
 6744SOL    HW231695   3.071   0.282   2.495 -0.1892  0.3113  1.3825
 6745SOL     OW31696   2.527   3.578   3.862 -0.6581 -0.2077 -0.0270
 6745SOL    HW131697   2.530   3.640   3.789  3.0511 -2.5009 -1.8099
 6745SOL    HW231698   2.617   3.568   3.892 -0.7987  0.2039  0.5265
 6746SOL     OW31699   3.580   3.876   2.344 -0.4345 -0.2713  0.2785
 6746SOL    HW131700   3.623   3.923   2.415  0.5078  0.5140 -0.8061
 6746SOL    HW231701   3.517   3.942   2.315 -0.1177 -0.1986 -0.2576
 6747SOL     OW31702   1.797   3.115   4.544 -0.5421 -0.2054 -0.1832
 6747SOL    HW131703   1.742   3.036   4.542 -0.4071 -0.2554 -1.7209
 6747SOL    HW231704   1.790   3.141   4.636  0.5421  0.9841 -0.4417
 6748SOL     OW31705   1.966   2.977   7.100  0.4140  0.1762  0.5262
 6748SOL    HW131706   1.887   2.965   7.154  0.0327  1.1267  0.1741
 6748SOL    HW231707   2.035   2.950   7.161 -0.0252 -0.7626  0.6157
 6749SOL     OW31708   0.684   2.345   8.328  0.5007  0.0459  0.4034
 6749SOL    HW131709   0.610   2.355   8.389  0.8610  0.9406  0.6993
 6749SOL    HW231710   0.718   2.434   8.336 -0.0823  0.2919  0.1087
 6750SOL     OW31711   2.750   3.264   0.299 -0.5511  0.4153  0.0098
 6750SOL    HW131712   2.777   3.350   0.267  2.6890 -0.5533  0.1361
 6750SOL    HW231713   2.808   3.255   0.375  0.2843 -3.0130 -1.0307
 6751SOL     OW31714   3.655   4.630  15.420 -0.5667 -0.1104  0.4706
 6751SOL    HW131715   3.564   4.658  15.426 -0.7083 -0.1666 -1.3363
 6751SOL    HW231716   3.647   4.537  15.397 -0.5609  0.0361 -0.1107
 6752SOL     OW31717   2.041   1.466   0.648  0.2597  0.1040 -0.4433
 6752SOL    HW131718   2.057   1.373   0.660 -2.8603 -0.2243  1.3194
 6752SOL    HW231719   1.999   1.468   0.561  3.0803 -1.8875 -1.8440
 6753SOL     OW31720   3.027   0.240   8.526 -0.7833 -0.4320 -0.2284
 6753SOL    HW131721   3.107   0.218   8.479  0.6740  0.2435  1.9589
 6753SOL    HW231722   3.047   0.223   8.618  0.3006  1.7186 -0.0612
 6754SOL     OW31723   4.504   2.765   0.732 -0.9016  0.5167 -0.0362
 6754SOL    HW131724   4.436   2.698   0.740 -0.0278 -0.1275  1.9722
 6754SOL    HW231725   4.545   2.751   0.818  0.2521  0.3747 -0.6040
 6755SOL     OW31726   4.142   0.998  12.492  0.2932 -0.2015 -0.0385
 6755SOL    HW131727   4.120   1.080  12.446  0.5904  0.6384  1.3083
 6755SOL    HW231728   4.095   1.024  12.571  0.6628 -1.2545  0.5282
 6756SOL     OW31729   2.737   3.603   4.545  0.2226 -0.5928  0.0989
 6756SOL    HW131730   2.784   3.678   4.582 -0.2273 -0.4010  0.2882
 6756SOL    HW231731   2.814   3.550   4.530 -1.7670 -3.7089  0.9245
 6757SOL     OW31732   0.774   2.015   2.079 -0.6177 -0.0132 -0.2015
 6757SOL    HW131733   0.818   2.040   2.161  1.4094 -2.9242 -0.4146
 6757SOL    HW231734   0.813   2.075   2.015 -1.1379 -1.8732 -2.2299
 6758SOL     OW31735   0.196   3.499   3.237  0.8272 -0.7185 -0.5473
 6758SOL    HW131736   0.180   3.474   3.146  1.6465  1.0924 -1.1985
 6758SOL    HW231737   0.211   3.593   3.225 -1.9161 -0.0630  1.1299
 6759SOL     OW31738   2.194   2.537   7.163  0.3326 -0.4161  0.0736
 6759SOL    HW131739   2.131   2.468   7.142 -0.7997 -0.1542  2.6470
 6759SOL    HW231740   2.267   2.517   7.104  0.1508 -0.9076  0.0161
 6760SOL     OW31741   2.619   3.856   4.358 -0.2234  0.2754  0.4069
 6760SOL    HW131742   2.567   3.933   4.335 -1.2732 -0.3912  0.5867
 6760SOL    HW231743   2.603   3.797   4.284 -0.0914  0.5388  0.1664
 6761SOL     OW31744   3.135   3.896  11.536 -0.3800 -0.1062  0.3586
 6761SOL    HW131745   3.127   3.819  11.593 -0.6101 -0.5880 -0.3124
 6761SOL    HW231746   3.057   3.946  11.560 -0.1238 -0.3601  1.7016
 6762SOL     OW31747   0.601   0.221   6.988 -0.3105  0.0482 -0.0966
 6762SOL    HW131748   0.516   0.266   6.980 -0.0904  0.3274 -0.8553
 6762SOL    HW231749   0.622   0.222   7.081  0.9563 -2.0082 -0.3459
 6763SOL     OW31750   4.164   0.533   3.822 -0.5112 -0.6799  0.5318
 6763SOL    HW131751   4.185   0.512   3.731  0.0100  1.3249  0.1898
 6763SOL    HW231752   4.242   0.497   3.865  0.6423  1.9560  0.6713
 6764SOL     OW31753   4.019   1.377  11.537 -0.2432 -0.0915 -0.2533
 6764SOL    HW131754   4.034   1.338  11.450 -0.9083  0.8588 -0.7871
 6764SOL    HW231755   4.081   1.450  11.537 -0.8181  0.3613  3.2253
 6765SOL     OW31756   1.934   0.943   8.830 -0.0718  0.3829  0.1232
 6765SOL    HW131757   1.868   0.995   8.782  2.2011  1.2476 -2.0609
 6765SOL    HW231758   1.874   0.886   8.878  1.3675 -1.6690 -0.5485
 6766SOL     OW31759   3.959   4.305   6.186  0.3207  0.2975 -0.4699
 6766SOL    HW131760   4.048   4.340   6.188  1.0368 -1.5548 -0.3487
 6766SOL    HW231761   3.909   4.367   6.131 -0.0644  0.7498  0.3927
 6767SOL     OW31762   0.712   0.922   7.448  0.5896  0.0193 -0.3207
 6767SOL    HW131763   0.623   0.899   7.476  1.1911 -1.0660  0.6654
 6767SOL    HW231764   0.762   0.843   7.466 -0.6877 -0.1909  2.2318
 6768SOL     OW31765   4.719   0.297   2.817 -0.3176  0.7188 -0.2330
 6768SOL    HW131766   0.034   0.246   2.746 -0.5504  0.3732 -0.1085
 6768SOL    HW231767   0.079   0.320   2.860 -0.3204 -0.0143  0.1663
 6769SOL     OW31768   2.324   4.151   3.926  0.1033 -0.4682 -0.2533
 6769SOL    HW131769   2.248   4.095   3.940  0.2523 -0.9344 -1.3216
 6769SOL    HW231770   2.394   4.090   3.949 -1.1469 -1.6955  0.2531
 6770SOL     OW31771   1.644   1.518  11.226  0.5405  0.1174 -0.0736
 6770SOL    HW131772   1.593   1.501  11.305  1.0738  0.3071  0.3113
 6770SOL    HW231773   1.736   1.503  11.247  0.1654 -1.1272  0.6968
 6771SOL     OW31774   4.552   2.024   1.058 -0.6345 -0.1504 -0.2420
 6771SOL    HW131775   4.533   2.039   0.965 -0.8119  0.7724 -0.0553
 6771SOL    HW231776   4.647   2.020   1.050 -0.6117 -2.2097  1.0896
 6772SOL     OW31777   4.486   4.234  14.417 -0.0124  0.2243 -0.8725
 6772SOL    HW131778   4.527   4.149  14.432 -0.9282  0.3514  2.3024
 6772SOL    HW231779   4.511   4.278  14.498  0.0788 -0.4739 -0.5268
 6773SOL     OW31780   0.034   3.770   9.058  0.2031  0.0260  0.3773
 6773SOL    HW131781   0.063   3.809   9.140 -0.0365  0.8138  0.0892
 6773SOL    HW231782   4.697   3.833   9.016  1.1361  0.6280 -0.0155
 6774SOL     OW31783   2.075   4.172   8.905  0.7505 -0.3890 -0.3229
 6774SOL    HW131784   2.062   4.267   8.911 -0.2603 -0.7297  2.4573
 6774SOL    HW231785   2.115   4.160   8.991  0.2427  2.8516  0.3613
 6775SOL     OW31786   2.735   2.513  12.455  0.3721 -0.5929  0.2438
 6775SOL    HW131787   2.646   2.532  12.428  0.4876 -0.5166 -0.0796
 6775SOL    HW231788   2.732   2.417  12.460 -1.1259 -0.6061 -1.0033
 6776SOL     OW31789   2.346   0.395  16.749  0.1955 -0.3854  0.2660
 6776SOL    HW131790   2.278   0.327  16.749 -0.6829  0.5044 -0.9304
 6776SOL    HW231791   2.332   0.423  16.659 -1.8604 -3.8088 -0.4723
 6777SOL     OW31792   1.043   0.983  14.607  0.6106 -0.1521 -1.0610
 6777SOL    HW131793   1.025   1.075  14.628  2.3446 -0.0024 -0.1923
 6777SOL    HW231794   1.128   0.969  14.649 -0.0030  0.5426  0.4390
 6778SOL     OW31795   3.405   2.221   5.262 -0.3907 -0.0625  0.4974
 6778SOL    HW131796   3.428   2.156   5.196 -0.9098  0.3969 -0.1425
 6778SOL    HW231797   3.340   2.175   5.316 -0.0223 -0.4527  0.6061
 6779SOL     OW31798   1.618   3.382   6.312  0.3006  0.1646  0.2983
 6779SOL    HW131799   1.650   3.428   6.390 -0.9621  0.9261  0.3707
 6779SOL    HW231800   1.618   3.296   6.355  1.4485 -0.3378 -0.7040
 6780SOL     OW31801   0.139   1.683   7.626 -0.2046 -0.0979  0.1145
 6780SOL    HW131802   0.210   1.690   7.690 -0.1645  1.0343 -0.0517
 6780SOL    HW231803   0.191   1.642   7.558  0.3608 -1.9476  1.6743
 6781SOL     OW31804   0.402   2.945  12.598 -0.1921  0.2567  0.5281
 6781SOL    HW131805   0.344   2.978  12.666 -0.3639 -1.4710  1.2256
 6781SOL    HW231806   0.357   2.867  12.564  0.6990  0.0550 -0.2026
 6782SOL     OW31807   1.368   3.192  12.069  0.6985  0.0748 -0.4234
 6782SOL    HW131808   1.314   3.152  12.001  0.7776 -0.5511 -0.1158
 6782SOL    HW231809   1.433   3.122  12.077  0.0284 -0.3434  1.2553
 6783SOL     OW31810   3.065   4.368   2.569  0.4617  0.0840  0.2466
 6783SOL    HW131811   3.050   4.292   2.513 -1.1097  0.3595  0.2894
 6783SOL    HW231812   2.978   4.409   2.560  0.3364 -0.0483  0.8732
 6784SOL     OW31813   4.500   4.643  15.544  0.2705 -0.2183  0.6309
 6784SOL    HW131814   4.515   4.585  15.469 -2.7128  0.3456 -0.3978
 6784SOL    HW231815   4.433   4.591  15.588  1.1332 -0.6988  1.3793
 6785SOL     OW31816   2.996   1.043   4.273 -0.0919 -0.4608  0.1694
 6785SOL    HW131817   3.036   1.094   4.343 -0.0800  1.8850 -1.5449
 6785SOL    HW231818   2.992   1.107   4.203  0.0429 -1.5904 -0.8759
 6786SOL     OW31819   1.503   1.238   5.644 -0.2170 -0.4128 -0.1929
 6786SOL    HW131820   1.459   1.229   5.559 -0.5168 -0.8907  0.0100
 6786SOL    HW231821   1.516   1.332   5.655 -0.8317 -0.3510 -0.0081
 6787SOL     OW31822   2.474   2.604   3.439 -0.7197  0.3454 -0.5744
 6787SOL    HW131823   2.420   2.597   3.361  0.4583  1.8872 -1.5233
 6787SOL    HW231824   2.463   2.518   3.479  2.0057 -0.1078 -0.7665
 6788SOL     OW31825   4.475   0.510   7.024  0.8600 -0.5541  0.2664
 6788SOL    HW131826   4.562   0.524   6.986  0.4152  0.6979 -0.2689
 6788SOL    HW231827   4.456   0.420   6.995  0.7553  0.3964 -2.6196
 6789SOL     OW31828   4.315   4.470   4.846 -0.1886  0.5394  0.5716
 6789SOL    HW131829   4.391   4.449   4.792 -1.5754 -2.0231 -0.3696
 6789SOL    HW231830   4.249   4.433   4.787 -2.3860  1.1665  2.6184
 6790SOL     OW31831   3.720   2.496  11.849  0.0779 -0.0600  0.4689
 6790SOL    HW131832   3.705   2.419  11.904 -0.2309 -2.2815 -2.7620
 6790SOL    HW231833   3.801   2.522  11.894  1.3773  0.2218 -2.0398
 6791SOL     OW31834   0.399   4.091   4.398  0.1282 -0.0268  0.1198
 6791SOL    HW131835   0.356   4.075   4.314 -2.0361  0.3995  1.1611
 6791SOL    HW231836   0.321   4.062   4.444  0.8996 -2.3669 -0.0161
 6792SOL     OW31837   0.836   3.321  17.055 -0.0783  0.3999 -0.3590
 6792SOL    HW131838   0.771   3.391  17.051 -1.3187 -0.7312 -0.0971
 6792SOL    HW231839   0.901   3.346  17.121 -4.0941  3.3167  2.4066
 6793SOL     OW31840   3.090   4.560   6.678  0.0499  0.4378  0.2101
 6793SOL    HW131841   3.181   4.587   6.668 -0.3835  2.4539  1.6828
 6793SOL    HW231842   3.066   4.636   6.731  0.4514  0.4522  0.3667
 6794SOL     OW31843   3.025   0.915  14.213 -0.1595 -0.4333  0.8337
 6794SOL    HW131844   3.076   0.856  14.270 -1.0545  0.0088  2.0981
 6794SOL    HW231845   3.000   0.983  14.275 -2.4228 -0.2714 -0.2479
 6795SOL     OW31846   0.335   3.619  10.324 -0.2944 -0.1480 -1.2061
 6795SOL    HW131847   0.371   3.550  10.380  0.3640  0.5388 -0.7741
 6795SOL    HW231848   0.241   3.609  10.340 -0.3159  1.6746 -0.1426
 6796SOL     OW31849   4.096   3.424  15.951  0.1998  0.0848  0.1884
 6796SOL    HW131850   4.001   3.425  15.953  0.1666 -1.4359 -0.6900
 6796SOL    HW231851   4.120   3.358  16.017  1.1200 -0.3421 -0.5694
 6797SOL     OW31852   1.939   3.295   3.189 -0.1226 -0.0728  0.2560
 6797SOL    HW131853   1.886   3.354   3.135  0.0467 -1.2254 -1.1603
 6797SOL    HW231854   1.877   3.224   3.202 -1.5030  1.0959  0.0900
 6798SOL     OW31855   4.635   4.394   5.971 -0.0225  0.9332 -0.0391
 6798SOL    HW131856   4.650   4.413   5.878  1.3857  2.4972  0.5150
 6798SOL    HW231857   4.671   4.306   5.979 -0.3962  0.9587  2.0241
 6799SOL     OW31858   1.126   3.340   5.396 -0.2584 -0.2408  0.3294
 6799SOL    HW131859   1.140   3.249   5.367 -1.3223 -0.0545 -0.7468
 6799SOL    HW231860   1.055   3.335   5.460 -1.1502 -1.5876 -0.7637
 6800SOL     OW31861   2.958   1.329   5.946  0.1871  0.2717 -0.0365
 6800SOL    HW131862   2.984   1.420   5.937  1.9648  0.0439  3.0660
 6800SOL    HW231863   3.012   1.294   6.016 -0.2241  0.1535  0.2248
 6801SOL     OW31864   0.276   2.182  13.180  0.2068  0.9013  0.5406
 6801SOL    HW131865   0.220   2.106  13.168 -0.3516  1.1716  1.4603
 6801SOL    HW231866   0.256   2.238  13.105 -2.0235 -1.1170 -0.3682
 6802SOL     OW31867   0.524   3.113   8.860 -0.1363  0.6428 -0.0886
 6802SOL    HW131868   0.544   3.176   8.929  0.1796 -0.0108  0.4133
 6802SOL    HW231869   0.598   3.052   8.862 -1.1354 -0.5329  0.7456
 6803SOL     OW31870   1.696   4.015  10.392  0.4978  0.1857  0.4641
 6803SOL    HW131871   1.610   3.986  10.360  0.3738  2.0154 -0.9276
 6803SOL    HW231872   1.681   4.049  10.480  0.7699  1.3460  0.0695
 6804SOL     OW31873   1.435   3.967   2.089 -0.6239  0.5043 -0.2546
 6804SOL    HW131874   1.487   3.967   2.169 -1.0580  2.0998  0.0125
 6804SOL    HW231875   1.344   3.976   2.117 -1.2485  1.2585 -2.5277
 6805SOL     OW31876   4.310   1.692  11.784 -0.0507 -0.4082  0.2677
 6805SOL    HW131877   4.306   1.755  11.856  0.7364  1.0125 -0.9424
 6805SOL    HW231878   4.395   1.706  11.743 -0.3129 -1.5143 -0.6434
 6806SOL     OW31879   1.579   0.474   7.293  0.6758  0.8903  0.0171
 6806SOL    HW131880   1.622   0.478   7.207  1.7906 -1.3127  0.4761
 6806SOL    HW231881   1.560   0.380   7.296  0.3472  0.9409 -0.5118
 6807SOL     OW31882   3.020   1.214   0.529  0.4592  0.2755  0.1395
 6807SOL    HW131883   3.036   1.129   0.569  2.2168  0.1262 -0.8616
 6807SOL    HW231884   3.104   1.227   0.485 -0.8746 -2.1493 -3.1300
 6808SOL     OW31885   4.434   3.064   3.557 -0.0509  0.0353 -0.2762
 6808SOL    HW131886   4.451   2.971   3.571 -0.8679  0.1983  1.8033
 6808SOL    HW231887   4.479   3.076   3.473  1.7264  0.1135  0.6852
 6809SOL     OW31888   1.959   4.465   5.686 -0.1913  0.2491 -0.5649
 6809SOL    HW131889   1.916   4.444   5.769  0.2013 -0.5899 -0.5722
 6809SOL    HW231890   1.888   4.458   5.623  1.2980 -0.8746 -2.1368
 6810SOL     OW31891   4.252   3.310   6.074  0.3085 -0.1080  0.5163
 6810SOL    HW131892   4.283   3.220   6.081  0.0236 -0.0205  2.8098
 6810SOL    HW231893   4.320   3.354   6.023 -0.3204  0.9401  0.5681
 6811SOL     OW31894   1.804   2.107   7.463 -1.0694  0.5410 -0.1028
 6811SOL    HW131895   1.809   2.067   7.376  3.0479 -1.5921  1.0783
 6811SOL    HW231896   1.773   2.037   7.520 -0.4312  0.2901 -0.0658
 6812SOL     OW31897   4.446   3.325   0.982 -0.4168 -0.4173  0.4532
 6812SOL    HW131898   4.526   3.289   1.021  0.2966  1.5554  0.8162
 6812SOL    HW231899   4.458   3.418   0.999 -1.7425 -0.0571 -0.6287
 6813SOL     OW31900   1.269   3.473  12.591  0.3988  0.0999  0.0781
 6813SOL    HW131901   1.257   3.550  12.535  5.1436  1.9123  1.4938
 6813SOL    HW231902   1.352   3.498  12.633  1.5763 -1.8978 -1.0990
 6814SOL     OW31903   0.280   4.484   3.103  0.3261 -0.3424 -0.3823
 6814SOL    HW131904   0.269   4.514   3.013  0.9449  0.7511 -0.0933
 6814SOL    HW231905   0.337   4.551   3.142  1.4145 -0.7909 -1.2084
 6815SOL     OW31906   3.967   1.429   5.770 -0.4860 -0.4307 -0.4067
 6815SOL    HW131907   3.965   1.381   5.687 -2.3064  0.6893 -1.0039
 6815SOL    HW231908   3.887   1.481   5.767  0.8864  1.7538  1.0377
 6816SOL     OW31909   0.058   0.676   7.899  0.2350  0.1766 -0.1151
 6816SOL    HW131910   0.119   0.736   7.856 -0.8115  2.2954  1.3660
 6816SOL    HW231911   0.019   0.633   7.823 -1.5395  1.1074  0.2640
 6817SOL     OW31912   3.634   3.940   8.953 -0.2086 -0.4289 -0.2552
 6817SOL    HW131913   3.599   3.873   9.011  0.3163  0.8781  1.5835
 6817SOL    HW231914   3.702   3.896   8.902 -0.1331  0.3131 -0.8025
 6818SOL     OW31915   4.261   2.366  13.103  0.7118 -0.1447  0.3905
 6818SOL    HW131916   4.196   2.387  13.170 -0.0733 -0.2895 -0.3289
 6818SOL    HW231917   4.329   2.429  13.127 -2.2444  2.7039  1.2623
 6819SOL     OW31918   0.547   3.556  10.757  0.0224  0.3191  0.0730
 6819SOL    HW131919   0.602   3.480  10.738 -2.4220 -1.2489 -0.7283
 6819SOL    HW231920   0.601   3.605  10.819 -0.6533  0.0271  0.8860
 6820SOL     OW31921   4.017   1.116   7.674  0.0752 -0.2030 -0.2890
 6820SOL    HW131922   3.932   1.073   7.685  0.4949 -1.1724 -0.7711
 6820SOL    HW231923   4.075   1.051   7.714  1.0928  0.6963 -0.3098
 6821SOL     OW31924   1.598   3.684   4.224  0.1432 -0.4276 -0.1951
 6821SOL    HW131925   1.681   3.667   4.179 -0.9716 -2.1874 -1.6139
 6821SOL    HW231926   1.563   3.759   4.175  0.2649  0.2021  0.6843
 6822SOL     OW31927   2.952   3.700  15.723 -0.1155 -0.4446  0.6943
 6822SOL    HW131928   3.013   3.653  15.780 -1.6121 -1.1469  1.7196
 6822SOL    HW231929   3.013   3.734  15.657 -2.1990  1.6803 -0.1387
 6823SOL     OW31930   2.213   0.085   4.421 -0.0627 -0.0879  0.1168
 6823SOL    HW131931   2.125   0.112   4.394 -1.0160  0.0872  3.4092
 6823SOL    HW231932   2.245   0.161   4.469  0.4939 -1.1092  1.3444
 6824SOL     OW31933   0.287   3.649  16.168  0.4368 -0.5544 -0.2832
 6824SOL    HW131934   0.377   3.679  16.182  0.4367 -1.4042  1.5905
 6824SOL    HW231935   0.246   3.696  16.241  1.4688 -1.5231  0.9154
 6825SOL     OW31936   3.111   3.938  14.001 -0.4592  0.2841 -0.6933
 6825SOL    HW131937   3.154   3.867  14.048  0.2420  0.3655 -1.2158
 6825SOL    HW231938   3.070   3.886  13.932 -1.3405  0.3830 -0.2433
 6826SOL     OW31939   1.868   3.318  10.409  0.0200  0.5648 -0.1794
 6826SOL    HW131940   1.931   3.289  10.475  0.0761  0.5220 -0.2515
 6826SOL    HW231941   1.825   3.393  10.451 -0.1871 -0.0110  0.6346
 6827SOL     OW31942   0.776   0.917   7.182  0.0780  0.1699  0.2361
 6827SOL    HW131943   0.798   1.009   7.164 -1.2365 -0.0698 -2.5364
 6827SOL    HW231944   0.744   0.921   7.272  1.4914 -0.9452  0.7880
 6828SOL     OW31945   3.410   1.527   6.833  0.4722 -0.2740  0.3392
 6828SOL    HW131946   3.376   1.613   6.807  0.7311 -0.1267  0.4873
 6828SOL    HW231947   3.413   1.540   6.928 -2.7999 -0.7285  0.5019
 6829SOL     OW31948   3.821   0.785   7.868  0.1603  0.1935 -0.8234
 6829SOL    HW131949   3.857   0.865   7.906 -1.3116  1.5273 -2.2672
 6829SOL    HW231950   3.900   0.730   7.873 -0.9656 -1.1158  3.1321
 6830SOL     OW31951   1.121   1.586   7.783 -0.6124 -0.5706  0.4015
 6830SOL    HW131952   1.192   1.563   7.724 -2.3156  0.3692 -1.9988
 6830SOL    HW231953   1.178   1.591   7.860  0.3805  1.3603 -0.4777
 6831SOL     OW31954   1.609   3.550   2.622 -0.8188 -0.0099 -0.3719
 6831SOL    HW131955   1.635   3.540   2.530  3.9330  0.5265  0.8768
 6831SOL    HW231956   1.564   3.467   2.634  0.2738 -0.6425 -0.5898
 6832SOL     OW31957   3.748   1.450   7.223  0.3867  0.0800  0.0060
 6832SOL    HW131958   3.725   1.500   7.302  1.2895  1.0746 -0.3554
 6832SOL    HW231959   3.661   1.420   7.197  0.2800 -1.0057  1.5943
 6833SOL     OW31960   2.563   3.865   2.646  0.0562  0.0622  0.2312
 6833SOL    HW131961   2.594   3.891   2.560  3.7343 -3.0761  0.5573
 6833SOL    HW231962   2.468   3.875   2.641 -0.0140 -0.1260  1.0193
 6834SOL     OW31963   2.403   1.476   7.037 -0.7217  0.0392  0.1456
 6834SOL    HW131964   2.432   1.388   7.060  1.3101  1.2686  2.3112
 6834SOL    HW231965   2.487   1.520   7.048 -0.4490 -0.2907 -0.5870
 6835SOL     OW31966   1.837   3.301   4.358  0.3076 -0.0595 -0.2475
 6835SOL    HW131967   1.837   3.227   4.419 -3.2643  1.6059  1.8104
 6835SOL    HW231968   1.813   3.364   4.427  1.1500 -1.4781  1.3555
 6836SOL     OW31969   1.581   0.167   3.993 -0.6841 -0.0179  0.1178
 6836SOL    HW131970   1.557   0.152   4.084  2.6188  1.8519  1.2993
 6836SOL    HW231971   1.503   0.215   3.965  0.8200  1.6107 -1.3446
 6837SOL     OW31972   4.547   1.908   5.323  0.0564  0.2023  0.0694
 6837SOL    HW131973   4.515   1.997   5.310  0.8899  0.5475  0.3859
 6837SOL    HW231974   4.462   1.869   5.342 -0.4815  1.5131  0.3575
 6838SOL     OW31975   1.963   2.935   5.520  0.1453  0.8576  0.0113
 6838SOL    HW131976   1.995   2.878   5.451  1.9428  0.7902  0.9168
 6838SOL    HW231977   2.016   2.901   5.592 -0.0784  0.8579  0.1773
 6839SOL     OW31978   3.037   3.737  14.908  0.5960  0.1806 -0.1095
 6839SOL    HW131979   3.029   3.811  14.968 -1.2859 -1.7338  2.0244
 6839SOL    HW231980   3.095   3.774  14.842  0.2103 -1.0357 -1.1308
 6840SOL     OW31981   1.496   2.550   3.707 -0.3520 -0.0553 -0.0374
 6840SOL    HW131982   1.532   2.485   3.647 -2.9181 -1.4353 -0.1046
 6840SOL    HW231983   1.519   2.632   3.663 -1.0513  0.5059  0.6302
 6841SOL     OW31984   0.729   3.186   7.105  0.1175  0.1520 -0.2107
 6841SOL    HW131985   0.669   3.256   7.130 -0.4303 -0.9497  1.5137
 6841SOL    HW231986   0.784   3.177   7.183 -0.7373 -2.1007  0.1266
 6842SOL     OW31987   0.764   2.311   3.172 -0.6339  0.2946  0.8687
 6842SOL    HW131988   0.829   2.276   3.233 -2.5664 -2.8974  1.0839
 6842SOL    HW231989   0.692   2.249   3.177 -0.1747 -0.3840 -0.9153
 6843SOL     OW31990   0.323   2.681  15.873 -1.1694  0.2880 -0.1758
 6843SOL    HW131991   0.267   2.737  15.820  0.0370  0.5499 -1.1912
 6843SOL    HW231992   0.307   2.599  15.825  2.2030 -2.2794  3.0546
 6844SOL     OW31993   0.819   3.668   4.023  0.1465 -0.0765  0.0749
 6844SOL    HW131994   0.910   3.659   4.051 -0.1679 -4.0463 -0.2393
 6844SOL    HW231995   0.769   3.649   4.103 -2.1178  0.8944 -1.1260
 6845SOL     OW31996   2.146   2.102   4.996 -0.6665  0.0541  0.1890
 6845SOL    HW131997   2.215   2.053   4.951 -1.2900 -0.6164 -0.0393
 6845SOL    HW231998   2.072   2.042   4.995  0.6833 -1.6216 -0.5940
 6846SOL     OW31999   3.054   0.854  14.579  0.0435  0.0893  0.4515
 6846SOL    HW132000   3.005   0.853  14.662  0.1549 -0.9293  0.5049
 6846SOL    HW232001   3.021   0.933  14.538 -0.3886 -0.2910  0.0690
 6847SOL     OW32002   3.119   0.321  13.759  0.1994 -0.0630  0.8932
 6847SOL    HW132003   3.122   0.236  13.715  0.4327  0.2707  0.2669
 6847SOL    HW232004   3.121   0.384  13.687  0.2312  0.0130  0.9602
 6848SOL     OW32005   0.347   3.551   4.963  0.7051 -0.1969 -0.2777
 6848SOL    HW132006   0.388   3.564   5.049  0.8926 -0.8980 -0.2668
 6848SOL    HW232007   0.363   3.457   4.953 -0.0352 -0.2543 -0.8810
 6849SOL     OW32008   2.086   0.740   2.603 -0.0069 -0.4772 -0.0975
 6849SOL    HW132009   2.104   0.833   2.585  0.5746 -0.3056  1.3813
 6849SOL    HW232010   2.103   0.704   2.516 -0.6900  0.1829 -0.5102
 6850SOL     OW32011   2.078   2.696   3.479 -0.3216  0.1991 -0.3051
 6850SOL    HW132012   2.046   2.611   3.448 -1.2814  0.5438 -0.2850
 6850SOL    HW232013   2.094   2.752   3.403 -0.1431 -0.2904 -0.6258
 6851SOL     OW32014   3.449   3.971   7.231 -0.6384 -0.4230  0.6736
 6851SOL    HW132015   3.416   4.055   7.200 -1.0156  0.2254  2.8073
 6851SOL    HW232016   3.530   3.971   7.180 -1.0131  1.0531  0.0683
 6852SOL     OW32017   1.844   2.749   6.198 -0.0924  0.5110  0.4078
 6852SOL    HW132018   1.793   2.810   6.252  0.6998  0.6619  0.9658
 6852SOL    HW232019   1.842   2.666   6.245  1.2065 -0.4986 -1.3401
 6853SOL     OW32020   2.435   2.846  11.391 -0.2092 -0.1825  0.6792
 6853SOL    HW132021   2.364   2.783  11.398 -0.8956  0.3598 -1.3457
 6853SOL    HW232022   2.455   2.869  11.482 -2.8066 -0.6453  1.3486
 6854SOL     OW32023   0.997   0.520   5.697 -0.2127  0.1013 -0.0084
 6854SOL    HW132024   1.064   0.453   5.703  0.4980  1.1077  2.8279
 6854SOL    HW232025   1.044   0.589   5.651 -0.2381  0.7081  0.8875
 6855SOL     OW32026   2.696   4.591   2.728 -0.1070 -0.5377  0.0399
 6855SOL    HW132027   2.605   4.614   2.713 -0.6136 -1.5026  1.6421
 6855SOL    HW232028   2.733   4.584   2.640 -0.4082 -1.6128  0.0052
 6856SOL     OW32029   3.811   3.200   6.632 -0.4099  0.5148 -0.1432
 6856SOL    HW132030   3.899   3.231   6.614  1.1939 -2.4620  2.5965
 6856SOL    HW232031   3.766   3.282   6.614 -3.1517 -1.8129 -3.8715
 6857SOL     OW32032   1.209   0.800   0.810  0.0185 -0.8350  0.3388
 6857SOL    HW132033   1.219   0.760   0.724 -2.7996 -0.4840 -0.1410
 6857SOL    HW232034   1.115   0.783   0.817  0.2827 -2.6380 -0.3907
 6858SOL     OW32035   0.048   0.095   5.878  0.1772  0.1238 -0.6954
 6858SOL    HW132036   4.709   0.051   5.936  0.4371  0.3197 -0.2748
 6858SOL    HW232037   0.041   0.033   5.805  0.1271 -0.3728 -0.2671
 6859SOL     OW32038   2.271   2.559   8.992  0.0119 -0.4534 -0.9132
 6859SOL    HW132039   2.224   2.642   8.998  0.9082  0.1408 -2.0429
 6859SOL    HW232040   2.238   2.535   8.906 -0.4523  0.4574 -0.9822
 6860SOL     OW32041   0.631   3.392   4.950  0.1149  0.2253  0.0826
 6860SOL    HW132042   0.556   3.337   4.928  1.6610 -2.2443  0.9428
 6860SOL    HW232043   0.643   3.459   4.884 -0.7238  1.9933  1.7239
 6861SOL     OW32044   3.418   3.541   7.867 -0.5679  0.0622 -0.2872
 6861SOL    HW132045   3.341   3.568   7.817 -0.6111  0.7616  0.1526
 6861SOL    HW232046   3.485   3.575   7.808 -0.6850  0.1050 -0.3951
 6862SOL     OW32047   1.702   0.438  14.536  0.5457  0.6544  0.1822
 6862SOL    HW132048   1.732   0.444  14.446 -0.9542 -0.0736 -0.3670
 6862SOL    HW232049   1.764   0.379  14.579 -1.5989  0.9574  3.7522
 6863SOL     OW32050   2.424   0.964   0.590 -0.3317 -0.3928 -0.3424
 6863SOL    HW132051   2.463   0.943   0.675  3.7003  2.4107 -1.5430
 6863SOL    HW232052   2.424   1.059   0.602 -2.4427 -0.7030  2.2158
 6864SOL     OW32053   1.902   2.444  17.558  0.0607 -0.1819  0.2842
 6864SOL    HW132054   1.920   2.525  17.511 -0.9477 -1.8823 -3.0000
 6864SOL    HW232055   1.901   2.386  17.483  1.9348  1.3615 -0.9172
 6865SOL     OW32056   2.678   4.568   4.163 -0.3979 -0.1064 -0.0530
 6865SOL    HW132057   2.766   4.605   4.158 -0.2078 -0.4821  0.5672
 6865SOL    HW232058   2.634   4.609   4.089  0.3080  1.9895  0.6967
 6866SOL     OW32059   2.466   3.867   2.036 -0.2249 -0.1639  0.5022
 6866SOL    HW132060   2.538   3.825   2.083 -0.5431  0.3770  1.4758
 6866SOL    HW232061   2.481   3.959   2.059  2.5330 -0.5778  0.4382
 6867SOL     OW32062   4.446   1.286   6.112  0.4405 -0.0086  0.4230
 6867SOL    HW132063   4.351   1.285   6.127  0.1666 -1.7717 -1.2825
 6867SOL    HW232064   4.473   1.242   6.192  1.1204 -1.4150 -0.5784
 6868SOL     OW32065   3.521   4.060  16.586  0.1708 -0.2430  0.1625
 6868SOL    HW132066   3.570   4.084  16.508  3.5006  2.0393  2.9606
 6868SOL    HW232067   3.435   4.095  16.562 -1.2059 -3.5015  0.3459
 6869SOL     OW32068   2.435   1.845   3.119  0.1725  0.1405  0.3155
 6869SOL    HW132069   2.386   1.818   3.042  0.1796  0.5750  0.1629
 6869SOL    HW232070   2.514   1.804   3.084  0.8105  0.1854  1.6965
 6870SOL     OW32071   3.546   2.717   0.312  0.3177 -0.5405 -0.0788
 6870SOL    HW132072   3.494   2.683   0.385 -0.9040  2.3116  0.4010
 6870SOL    HW232073   3.479   2.728   0.245 -2.1931 -0.3582  2.4722
 6871SOL     OW32074   1.101   0.093   5.772  0.3691  0.8642  0.3739
 6871SOL    HW132075   1.088   0.145   5.851 -0.1260  0.5283  0.5199
 6871SOL    HW232076   1.009   0.088   5.744 -0.6006  1.1910  3.4687
 6872SOL     OW32077   2.216   3.232   7.600  0.3251  0.0121 -0.0208
 6872SOL    HW132078   2.144   3.255   7.541 -0.6555 -1.0028  0.7775
 6872SOL    HW232079   2.289   3.265   7.547  0.8070  1.7330  1.7341
 6873SOL     OW32080   4.611   3.498   8.791  0.4161  0.7484 -0.0722
 6873SOL    HW132081   4.660   3.481   8.711 -0.5570 -0.6357 -0.3814
 6873SOL    HW232082   4.567   3.578   8.762  1.5589  2.0562  1.8149
 6874SOL     OW32083   1.090   0.142   6.045 -0.5425  0.3532 -0.3291
 6874SOL    HW132084   1.034   0.176   6.115  0.3623  0.6253  0.2718
 6874SOL    HW232085   1.115   0.054   6.071  0.5620  1.1514  1.2930
 6875SOL     OW32086   4.691   4.685   6.936 -0.1024  0.3794  0.0674
 6875SOL    HW132087   4.701   4.611   6.876 -0.4041  0.1625  0.2873
 6875SOL    HW232088   4.719   4.643   7.017  0.4632  1.9052  0.6560
 6876SOL     OW32089   0.370   1.847   4.867 -0.0563  0.4461 -0.8870
 6876SOL    HW132090   0.304   1.800   4.919 -0.0478  2.6218  1.0729
 6876SOL    HW232091   0.449   1.839   4.920  0.5402  0.3984 -1.8005
 6877SOL     OW32092   0.706   4.415   8.497  0.1732 -0.1158 -0.1932
 6877SOL    HW132093   0.769   4.482   8.469 -0.8215  1.0853  0.4328
 6877SOL    HW232094   0.754   4.333   8.504  0.0888 -0.0402  1.3766
 6878SOL     OW32095   3.227   1.016   7.087 -0.3401 -0.1065  0.0170
 6878SOL    HW132096   3.216   0.979   7.175 -1.2422  0.5214  0.1645
 6878SOL    HW232097   3.320   1.036   7.084 -0.0179 -1.7382 -0.7152
 6879SOL     OW32098   1.720   3.317   7.346  0.0647  0.0969 -0.0765
 6879SOL    HW132099   1.802   3.268   7.333  0.4602  0.6396  0.3288
 6879SOL    HW232100   1.743   3.395   7.295 -1.9198  0.2738 -0.6737
 6880SOL     OW32101   0.116   3.491   7.272  0.1383 -0.5380 -0.2262
 6880SOL    HW132102   0.046   3.524   7.215  0.2970  0.5531  0.2002
 6880SOL    HW232103   0.160   3.442   7.202  0.8724  1.5360 -1.2210
 6881SOL     OW32104   0.692   1.000  17.062 -0.3163  0.2778 -0.3294
 6881SOL    HW132105   0.671   0.928  17.002 -0.8053 -0.5364  0.8125
 6881SOL    HW232106   0.699   1.072  16.999  3.0222 -0.4111 -0.7755
 6882SOL     OW32107   1.793   0.741   6.884  0.2484 -0.0331 -0.3075
 6882SOL    HW132108   1.806   0.827   6.844 -0.9608  0.1617 -0.2666
 6882SOL    HW232109   1.761   0.764   6.971  0.6441 -0.3488 -0.0812
 6883SOL     OW32110   3.520   3.968   9.710 -0.4209 -0.0354  0.4549
 6883SOL    HW132111   3.474   3.891   9.743  0.7604 -0.1014  1.9738
 6883SOL    HW232112   3.611   3.956   9.740 -0.2246  0.2672 -0.0331
 6884SOL     OW32113   1.916   3.594   6.398  0.2281 -0.1705  0.4006
 6884SOL    HW132114   1.917   3.689   6.381  0.1614 -0.5128 -1.5562
 6884SOL    HW232115   1.836   3.590   6.451  0.0138  4.3043  0.4553
 6885SOL     OW32116   3.062   1.384   4.795 -0.2644  0.5121 -0.1340
 6885SOL    HW132117   3.020   1.338   4.868  0.6451  1.3564  0.9135
 6885SOL    HW232118   3.111   1.316   4.748  0.4943 -0.1620  1.6222
 6886SOL     OW32119   0.407   3.889   9.184  0.4678  0.3682  0.6212
 6886SOL    HW132120   0.440   3.822   9.243  0.9194  0.2459  0.2353
 6886SOL    HW232121   0.321   3.899   9.222 -0.2992 -0.7647 -0.7977
 6887SOL     OW32122   0.328   3.002   6.558  0.4022 -0.2495 -0.1577
 6887SOL    HW132123   0.392   3.064   6.593  0.1508 -0.2795  0.3558
 6887SOL    HW232124   0.316   2.927   6.616 -1.0578  1.4290  1.7380
 6888SOL     OW32125   4.343   0.197   8.910  0.1010 -0.7052 -0.6130
 6888SOL    HW132126   4.301   0.136   8.849  1.2542 -1.1821 -0.9373
 6888SOL    HW232127   4.435   0.168   8.913  0.5989  0.9747  0.4430
 6889SOL     OW32128   4.261   2.839  16.818  0.1069 -0.1794  0.2841
 6889SOL    HW132129   4.233   2.838  16.910  0.3962  0.9692  0.3812
 6889SOL    HW232130   4.350   2.804  16.828 -0.4613 -1.5238  0.5988
 6890SOL     OW32131   4.709   0.059  14.633 -0.6975  0.4312 -0.0858
 6890SOL    HW132132   4.699   0.154  14.624 -1.8218  0.3331  0.0910
 6890SOL    HW232133   0.030   0.048  14.718  1.8809  1.0925 -1.3161
 6891SOL     OW32134   1.629   2.539   0.987 -0.0873  0.1910 -0.5406
 6891SOL    HW132135   1.611   2.554   0.894 -0.6574  0.4108 -0.3956
 6891SOL    HW232136   1.549   2.576   1.024 -0.2655  1.3172 -2.0226
 6892SOL     OW32137   2.852   0.551   8.335  0.1974  0.5461  0.2137
 6892SOL    HW132138   2.837   0.619   8.400  0.6140  0.8225  0.0231
 6892SOL    HW232139   2.943   0.568   8.310  0.5650 -0.0728  1.1371
 6893SOL     OW32140   1.388   1.244   0.314 -0.0896  0.2525  0.2044
 6893SOL    HW132141   1.369   1.310   0.380  0.5881 -0.5324  1.1792
 6893SOL    HW232142   1.441   1.187   0.370  1.2388  1.9050  0.6292
 6894SOL     OW32143   1.361   1.055  10.704 -0.8770  0.6474  0.1450
 6894SOL    HW132144   1.292   1.020  10.648 -0.7782 -0.7239  0.8818
 6894SOL    HW232145   1.319   1.058  10.790  0.7480  2.3117  0.8822
 6895SOL     OW32146   2.277   3.845   2.269  0.4125  0.9659 -0.6889
 6895SOL    HW132147   2.316   3.777   2.325 -2.1661 -0.5523 -0.7703
 6895SOL    HW232148   2.335   3.838   2.193 -1.4958 -2.4340 -1.8344
 6896SOL     OW32149   1.950   2.219   8.287 -0.1644 -0.3032  0.6254
 6896SOL    HW132150   2.043   2.202   8.271 -0.4552  0.8066 -2.2506
 6896SOL    HW232151   1.936   2.300   8.237 -0.7071 -2.1006 -2.1489
 6897SOL     OW32152   3.929   0.256  10.872  0.5901  0.3793 -0.8549
 6897SOL    HW132153   3.917   0.325  10.807 -0.1852  2.3194  1.3368
 6897SOL    HW232154   4.024   0.251  10.867  0.4852 -2.9193  0.4413
 6898SOL     OW32155   1.642   1.807   1.077  0.2384  0.0474 -0.3779
 6898SOL    HW132156   1.565   1.811   1.134  0.5337  0.6136 -0.0241
 6898SOL    HW232157   1.644   1.892   1.034 -0.2937  0.1542 -0.1843
 6899SOL     OW32158   4.491   2.935   5.007 -0.2870 -0.8199  0.4729
 6899SOL    HW132159   4.403   2.906   5.028 -0.2215 -0.0976  1.7342
 6899SOL    HW232160   4.484   2.929   4.911 -1.3458 -2.2742  0.6433
 6900SOL     OW32161   3.802   3.753  16.800 -0.3084 -0.1346  0.2419
 6900SOL    HW132162   3.894   3.777  16.788 -0.5137  1.0446  1.0717
 6900SOL    HW232163   3.800   3.658  16.804 -1.3818 -0.1200  0.0522
 6901SOL     OW32164   2.487   0.384  13.844 -0.1670 -0.0181  0.3927
 6901SOL    HW132165   2.581   0.395  13.853  0.2248 -3.1052 -0.2051
 6901SOL    HW232166   2.458   0.375  13.935  1.5816 -1.6612  0.7777
 6902SOL     OW32167   0.702   2.749   6.054 -0.1138  0.0271 -0.3321
 6902SOL    HW132168   0.783   2.791   6.022  0.0019 -0.2799 -0.4423
 6902SOL    HW232169   0.740   2.689   6.118 -1.0004 -1.4102 -1.1340
 6903SOL     OW32170   0.954   2.609  11.120 -0.0717  0.0831 -0.0106
 6903SOL    HW132171   1.031   2.635  11.170  0.2182 -1.6777  0.4378
 6903SOL    HW232172   0.901   2.602  11.200 -1.3266  0.3398 -0.8120
 6904SOL     OW32173   3.587   0.737   5.698 -0.3717 -0.4227  0.2370
 6904SOL    HW132174   3.637   0.784   5.631 -1.3373  3.6178  2.3148
 6904SOL    HW232175   3.505   0.712   5.655 -0.7605 -1.0740  1.3766
 6905SOL     OW32176   4.550   0.159  12.963  0.2390  0.3873  0.2104
 6905SOL    HW132177   4.641   0.138  12.983  0.4524  2.0754  1.0685
 6905SOL    HW232178   4.539   0.254  12.973 -0.9498  0.1853  0.7987
 6906SOL     OW32179   1.267   2.647   5.490 -0.1477  0.3279 -0.5314
 6906SOL    HW132180   1.326   2.604   5.429  1.5348  1.0502  0.5831
 6906SOL    HW232181   1.310   2.729   5.514 -1.3144  0.3984  1.3892
 6907SOL     OW32182   4.095   4.116   1.715 -0.5668 -0.2220  0.4280
 6907SOL    HW132183   4.020   4.135   1.659 -0.9548  0.1445  1.0795
 6907SOL    HW232184   4.059   4.031   1.740 -0.4293  0.7308  3.8381
 6908SOL     OW32185   1.128   0.135   2.691 -0.3982 -0.2213 -0.0291
 6908SOL    HW132186   1.156   0.079   2.619 -0.1663 -0.0355 -0.0827
 6908SOL    HW232187   1.081   0.194   2.632 -0.9118  0.6721  1.2668
 6909SOL     OW32188   3.202   2.359  16.173  0.9300 -0.3703 -0.1025
 6909SOL    HW132189   3.292   2.346  16.205  0.8678 -1.7445 -0.4839
 6909SOL    HW232190   3.177   2.425  16.237 -0.1359 -1.3450  0.4835
 6910SOL     OW32191   2.829   2.921   3.806 -0.2228  0.3581  0.3356
 6910SOL    HW132192   2.800   2.915   3.898  0.2299 -2.3919  0.3020
 6910SOL    HW232193   2.762   2.862   3.772  2.7512 -1.3241 -2.5589
 6911SOL     OW32194   2.036   3.812   2.796 -0.0643 -0.2095  0.3322
 6911SOL    HW132195   2.047   3.907   2.794 -0.6476 -0.1243  1.2307
 6911SOL    HW232196   2.074   3.781   2.878  2.1930  1.9138  0.0931
 6912SOL     OW32197   1.333   2.229   0.578  0.5251  0.7307  0.4187
 6912SOL    HW132198   1.408   2.240   0.637  1.8475 -0.2549 -1.0512
 6912SOL    HW232199   1.276   2.187   0.642 -0.9771  2.0542 -0.0479
 6913SOL     OW32200   1.153   1.423  11.154 -0.1233 -0.1133 -0.0640
 6913SOL    HW132201   1.101   1.381  11.223  0.8664  0.1722  0.8628
 6913SOL    HW232202   1.225   1.360  11.161 -0.0969 -0.2948 -1.9573
 6914SOL     OW32203   1.522   3.535  12.671 -0.0540 -0.2832  0.0279
 6914SOL    HW132204   1.616   3.513  12.674 -0.3769 -1.7446 -0.7449
 6914SOL    HW232205   1.525   3.606  12.735 -0.0205 -0.5868  0.3626
 6915SOL     OW32206   1.992   4.490   2.058 -0.8232  0.1347 -0.0476
 6915SOL    HW132207   2.013   4.581   2.077  0.8476 -0.5990  1.6750
 6915SOL    HW232208   1.919   4.499   1.997 -0.3272 -1.5365 -0.8937
 6916SOL     OW32209   1.757   2.244   0.076 -0.4280  0.4281 -0.1468
 6916SOL    HW132210   1.773   2.160   0.118  2.0473 -0.0689 -2.1354
 6916SOL    HW232211   1.757   2.214  17.676 -2.3436 -1.8796  0.6293
 6917SOL     OW32212   4.127   2.865   5.437 -0.4874  0.0503 -0.1945
 6917SOL    HW132213   4.112   2.922   5.361 -0.2527  0.1715 -0.1523
 6917SOL    HW232214   4.193   2.804   5.404 -1.0554 -0.5231 -0.2593
 6918SOL     OW32215   3.335   2.451   2.469  0.3054  0.3210  0.5441
 6918SOL    HW132216   3.366   2.414   2.387 -0.1377  0.0392  0.5057
 6918SOL    HW232217   3.362   2.541   2.451  1.9795 -0.4073 -0.6408
 6919SOL     OW32218   2.909   2.204   3.550 -0.0962  0.1501  0.2924
 6919SOL    HW132219   2.833   2.166   3.507  2.0522  0.0032 -3.3180
 6919SOL    HW232220   2.971   2.131   3.548 -2.2517 -1.6551  0.2624
 6920SOL     OW32221   4.202   4.186   7.535  0.2601  0.5950  0.3003
 6920SOL    HW132222   4.233   4.277   7.537  1.0426  0.2533  2.9122
 6920SOL    HW232223   4.201   4.171   7.629 -0.6591  0.5834  0.2892
 6921SOL     OW32224   1.762   2.011   0.719 -0.2157 -0.2608 -0.4321
 6921SOL    HW132225   1.813   2.049   0.789 -1.1137  0.2489 -0.0596
 6921SOL    HW232226   1.829   1.947   0.693 -1.8907 -1.5173 -1.7355
 6922SOL     OW32227   0.041   2.109   4.897  0.6485  0.2083  0.0596
 6922SOL    HW132228   0.036   2.051   4.972  1.1468  0.7846  0.5416
 6922SOL    HW232229   4.697   2.078   4.835  1.7267 -3.5223  0.8290
 6923SOL     OW32230   0.870   1.252  11.587  0.0988 -0.2352 -0.2623
 6923SOL    HW132231   0.805   1.216  11.648 -1.8526  0.5015 -1.9239
 6923SOL    HW232232   0.942   1.189  11.577 -0.3439 -0.4597 -1.9279
 6924SOL     OW32233   3.171   0.243   9.016  0.0451 -0.8959 -0.3097
 6924SOL    HW132234   3.257   0.202   9.025  0.5985  0.9567  2.9525
 6924SOL    HW232235   3.183   0.306   9.088 -0.7095 -0.4304 -0.5893
 6925SOL     OW32236   1.547   3.488  11.468 -0.1616 -0.4736 -0.4982
 6925SOL    HW132237   1.518   3.562  11.416  1.1256  1.7167  1.8803
 6925SOL    HW232238   1.572   3.430  11.397  1.8311  0.1701 -0.3282
 6926SOL     OW32239   4.230   1.721   0.273 -0.2894  0.0399  0.1697
 6926SOL    HW132240   4.312   1.748   0.314  1.6902 -1.4108 -2.7971
 6926SOL    HW232241   4.245   1.748   0.182 -0.0886 -2.3336 -0.5021
 6927SOL     OW32242   3.662   2.423   2.678 -0.3093  0.2196  0.0782
 6927SOL    HW132243   3.716   2.502   2.670  1.1806 -1.0057 -2.1613
 6927SOL    HW232244   3.651   2.419   2.773  0.0669  1.6757  0.1782
 6928SOL     OW32245   0.277   2.504   6.121 -0.2481  0.3862  0.7572
 6928SOL    HW132246   0.301   2.595   6.141 -0.5595  1.1409 -2.1716
 6928SOL    HW232247   0.195   2.529   6.078  0.1719 -1.2690 -0.9617
 6929SOL     OW32248   2.247   0.639   8.012 -0.7737 -0.3867 -0.6595
 6929SOL    HW132249   2.309   0.608   8.078 -2.3104 -1.9336  0.0608
 6929SOL    HW232250   2.243   0.570   7.945  0.6310  0.1866 -1.3358
 6930SOL     OW32251   1.695   3.976   5.266 -0.0110 -0.1077 -0.3306
 6930SOL    HW132252   1.696   3.897   5.319  0.5374 -1.4530 -2.3538
 6930SOL    HW232253   1.639   3.955   5.191 -3.5125  1.0110  2.0057
 6931SOL     OW32254   3.551   1.151   9.183  0.0083  0.0052  0.1612
 6931SOL    HW132255   3.583   1.066   9.213 -1.3254 -0.7363 -0.5004
 6931SOL    HW232256   3.589   1.208   9.249  1.3803  0.5244 -1.0970
 6932SOL     OW32257   3.845   0.519   6.994  0.2675 -0.1539 -0.0180
 6932SOL    HW132258   3.883   0.541   7.079 -3.4562 -0.2418  1.6652
 6932SOL    HW232259   3.874   0.430   6.973 -1.0909 -1.1456  2.2314
 6933SOL     OW32260   3.769   2.859   0.519  0.0570 -0.1959  0.0746
 6933SOL    HW132261   3.746   2.899   0.602 -3.3617 -0.3972 -0.7642
 6933SOL    HW232262   3.720   2.777   0.522  2.0604 -1.4025 -0.0416
 6934SOL     OW32263   3.891   0.758   8.433 -0.5215  0.4454 -0.2660
 6934SOL    HW132264   3.901   0.792   8.521  1.8411 -0.2758 -0.2456
 6934SOL    HW232265   3.873   0.665   8.448  1.3878 -0.1059 -1.3669
 6935SOL     OW32266   4.131   4.652   4.477 -0.2856  0.0688  0.3181
 6935SOL    HW132267   4.225   4.674   4.475 -0.2940 -0.0642 -1.3931
 6935SOL    HW232268   4.133   4.578   4.538 -3.4153 -0.0759  0.2365
 6936SOL     OW32269   3.948   2.594   4.484 -0.0552  0.2476 -0.0707
 6936SOL    HW132270   3.930   2.681   4.448  1.1725  0.4479 -0.1858
 6936SOL    HW232271   3.860   2.560   4.468  0.4306 -0.0590 -2.2042
 6937SOL     OW32272   2.663   4.545   6.760  0.1422 -0.3128 -0.2921
 6937SOL    HW132273   2.655   4.453   6.734 -0.9867 -0.3093  0.0371
 6937SOL    HW232274   2.666   4.588   6.674  0.2247  1.3217  0.5202
 6938SOL     OW32275   3.128   1.388   0.242  0.2533 -0.2115  0.0514
 6938SOL    HW132276   3.189   1.384   0.167 -0.1675 -1.0810 -0.2381
 6938SOL    HW232277   3.132   1.295   0.263 -0.5039 -0.5726 -1.3886
 6939SOL     OW32278   2.169   1.755   8.609  0.3653 -0.4830 -0.3424
 6939SOL    HW132279   2.147   1.778   8.700 -1.3914  0.0899 -0.9183
 6939SOL    HW232280   2.162   1.846   8.582 -3.2449 -0.5138  0.3882
 6940SOL     OW32281   4.212   2.452   8.369 -0.0419 -0.9668  0.1111
 6940SOL    HW132282   4.191   2.379   8.427  0.3534 -0.3046  1.0907
 6940SOL    HW232283   4.122   2.477   8.348 -0.3446  0.2116  2.8728
 6941SOL     OW32284   2.620   0.475   3.870 -0.2950 -0.5029  0.1096
 6941SOL    HW132285   2.617   0.518   3.784  0.5508 -2.2359 -0.8001
 6941SOL    HW232286   2.536   0.430   3.864 -0.7909  0.4728 -0.2579
 6942SOL     OW32287   3.160   0.923   5.985 -0.3909  0.0782 -0.2369
 6942SOL    HW132288   3.233   0.960   5.936 -0.7576  0.1166 -0.7512
 6942SOL    HW232289   3.110   0.887   5.912  0.2692 -2.6901  0.6919
 6943SOL     OW32290   2.603   4.222   4.748  0.3192 -0.1591 -0.4992
 6943SOL    HW132291   2.541   4.292   4.769 -0.2489 -1.3759  1.9585
 6943SOL    HW232292   2.549   4.160   4.700  1.7185 -0.9474 -1.0397
 6944SOL     OW32293   1.007   4.471   4.648  0.5410  0.1334 -0.5857
 6944SOL    HW132294   0.995   4.399   4.586 -0.5793 -0.1384 -0.0613
 6944SOL    HW232295   1.011   4.418   4.728  2.4332  0.4915 -0.4468
 6945SOL     OW32296   0.527   4.101   9.472  0.6551 -0.0924  0.4390
 6945SOL    HW132297   0.519   4.196   9.458 -1.4791 -0.3374  0.0719
 6945SOL    HW232298   0.609   4.079   9.427  2.5239  1.7834  2.9085
 6946SOL     OW32299   2.479   0.395   6.502  0.6373 -0.2633 -0.1844
 6946SOL    HW132300   2.513   0.327   6.560 -1.9333 -1.1097  0.3457
 6946SOL    HW232301   2.386   0.376   6.494  0.3583  0.1481  2.0176
 6947SOL     OW32302   3.031   1.450   1.932 -0.2995  0.4224 -0.5770
 6947SOL    HW132303   3.040   1.541   1.902 -1.1552  0.8715  0.5518
 6947SOL    HW232304   2.955   1.415   1.886 -0.6708 -0.3509  0.6398
 6948SOL     OW32305   4.133   1.441   5.004  0.2884  0.2501 -0.0823
 6948SOL    HW132306   4.118   1.415   4.913  1.7813 -3.5429  0.7524
 6948SOL    HW232307   4.093   1.526   4.989 -0.7991 -0.4131 -1.0056
 6949SOL     OW32308   0.327   3.362  13.092  0.1835 -0.0539 -0.5286
 6949SOL    HW132309   0.258   3.410  13.138  1.2354  0.9746 -0.0208
 6949SOL    HW232310   0.373   3.325  13.167 -2.5308 -0.6917  0.8419
 6950SOL     OW32311   3.851   4.074   6.638 -0.5538  0.6233  0.2417
 6950SOL    HW132312   3.808   4.141   6.692 -0.7619  1.0985 -0.5202
 6950SOL    HW232313   3.849   4.123   6.556  1.9242  0.0186 -0.1641
 6951SOL     OW32314   1.031   2.110  14.599  0.1963  0.1463 -0.5074
 6951SOL    HW132315   1.052   2.161  14.678 -0.3661 -1.3073  0.5704
 6951SOL    HW232316   0.936   2.098  14.607  0.5910 -2.6410 -0.2769
 6952SOL     OW32317   1.353   2.597   7.327  0.3162 -0.6848 -0.0456
 6952SOL    HW132318   1.267   2.615   7.290  0.6941 -1.8617 -1.4700
 6952SOL    HW232319   1.351   2.503   7.342 -0.6037 -0.4713  1.1723
 6953SOL     OW32320   3.717   3.590  14.114 -0.1393  0.1253  0.3051
 6953SOL    HW132321   3.628   3.557  14.129  0.4392 -0.4053  2.5237
 6953SOL    HW232322   3.732   3.550  14.029  0.1976 -1.4610  1.1159
 6954SOL     OW32323   1.481   3.748  15.173  0.0154  0.1903  0.2067
 6954SOL    HW132324   1.549   3.800  15.131  0.5505 -1.2940 -0.7453
 6954SOL    HW232325   1.445   3.814  15.233 -1.5151  2.0446 -2.7655
 6955SOL     OW32326   3.727   3.075   1.766  0.1457  0.6088  0.4241
 6955SOL    HW132327   3.724   3.107   1.856  1.8826 -1.3281  1.1510
 6955SOL    HW232328   3.685   3.150   1.723  1.5154  1.4991  0.6415
 6956SOL     OW32329   4.608   2.704   5.105 -0.3331 -0.3950  0.0935
 6956SOL    HW132330   4.576   2.793   5.089  1.5997  0.1696 -0.6063
 6956SOL    HW232331   4.675   2.731   5.167 -0.5168 -1.9907  0.9702
 6957SOL     OW32332   1.276   2.015  11.565 -0.0513  0.4739  0.4641
 6957SOL    HW132333   1.317   1.948  11.510 -1.0865  0.2131  0.0132
 6957SOL    HW232334   1.232   1.963  11.632 -0.9102 -0.0207 -0.4951
 6958SOL     OW32335   1.546   0.971   9.634 -0.1881 -0.1328 -0.1060
 6958SOL    HW132336   1.594   1.051   9.611  0.4084 -0.6039 -0.5208
 6958SOL    HW232337   1.614   0.912   9.668 -1.1936 -0.3299  1.5351
 6959SOL     OW32338   3.863   1.526   3.501  0.0073 -0.0091  0.8911
 6959SOL    HW132339   3.777   1.568   3.512 -0.1799 -0.1721  0.0910
 6959SOL    HW232340   3.853   1.493   3.412 -1.5112 -1.5714  1.6372
 6960SOL     OW32341   3.707   2.384   5.655 -0.6287 -0.4259 -0.1228
 6960SOL    HW132342   3.635   2.349   5.708  0.8735  0.6333  2.5729
 6960SOL    HW232343   3.687   2.332   5.576  0.1673 -1.0406  0.0848
 6961SOL     OW32344   0.388   0.656   7.357  0.7183  0.4741  0.0897
 6961SOL    HW132345   0.337   0.693   7.285 -0.0100  1.4206  1.0823
 6961SOL    HW232346   0.419   0.736   7.398 -0.3707  0.0427  1.7746
 6962SOL     OW32347   4.494   0.881  13.080 -0.2311 -0.1533  0.4053
 6962SOL    HW132348   4.448   0.835  13.151  1.2362 -2.3430 -0.0648
 6962SOL    HW232349   4.584   0.849  13.083 -1.1191 -2.6351  0.5020
 6963SOL     OW32350   0.138   3.130  10.592 -0.7308 -0.2566  0.1729
 6963SOL    HW132351   0.176   3.212  10.623  1.3676 -0.6259 -1.4850
 6963SOL    HW232352   0.143   3.143  10.498  0.6397 -0.1952  0.2519
 6964SOL     OW32353   3.683   0.031   2.495 -0.6016 -0.0200  0.4618
 6964SOL    HW132354   3.604   0.007   2.448 -0.1562 -1.2045  0.3296
 6964SOL    HW232355   3.732   4.671   2.499 -0.5866  0.0480  1.6463
 6965SOL     OW32356   3.310   1.630  13.487 -0.1953 -0.7399 -0.1398
 6965SOL    HW132357   3.283   1.609  13.398  1.6447 -0.4607 -0.7620
 6965SOL    HW232358   3.336   1.722  13.477 -2.2026 -0.3239 -1.4182
 6966SOL     OW32359   3.468   1.378   0.403 -0.2622 -0.0794 -0.6726
 6966SOL    HW132360   3.414   1.361   0.480  1.9795 -3.0990  0.2547
 6966SOL    HW232361   3.496   1.290   0.378 -1.7596 -0.6921 -0.2087
 6967SOL     OW32362   1.828   4.576   9.603 -0.0434  0.2506 -0.3082
 6967SOL    HW132363   1.862   4.587   9.514  0.2060 -1.5468 -0.4334
 6967SOL    HW232364   1.814   4.482   9.612  1.5884  0.2505  2.0679
 6968SOL     OW32365   0.986   3.420  17.303  0.2360 -0.1194  0.1111
 6968SOL    HW132366   1.007   3.434  17.395 -1.5924  0.5507  0.4199
 6968SOL    HW232367   1.036   3.340  17.289  1.1433  0.7987 -1.9716
 6969SOL     OW32368   3.103   1.142   7.761 -0.1911 -0.3796 -0.3366
 6969SOL    HW132369   3.028   1.187   7.800 -0.0005  0.5796 -1.0660
 6969SOL    HW232370   3.177   1.194   7.792 -0.7127  0.5853 -0.7119
 6970SOL     OW32371   4.061   1.556  17.536 -0.1818 -0.2116  0.1754
 6970SOL    HW132372   4.025   1.521  17.618  0.9326  1.6256  1.4365
 6970SOL    HW232373   4.071   1.645  17.571  0.3609 -1.2287  2.6400
 6971SOL     OW32374   1.414   3.166  17.247  0.2217  0.2850 -0.3898
 6971SOL    HW132375   1.365   3.094  17.209  2.0811 -2.1118  1.7668
 6971SOL    HW232376   1.487   3.175  17.185  0.5979 -0.6798 -0.0783
 6972SOL     OW32377   3.550   0.917   6.453 -0.1068 -0.0249 -0.1175
 6972SOL    HW132378   3.495   0.883   6.523 -0.5822  0.2420 -0.3579
 6972SOL    HW232379   3.487   0.974   6.408 -0.8326 -0.4651  0.3479
 6973SOL     OW32380   0.983   1.479   4.067  0.0282  0.3654  0.3860
 6973SOL    HW132381   0.969   1.497   3.974  0.9173 -2.0414 -0.2047
 6973SOL    HW232382   1.028   1.559   4.094  1.8909 -0.5074 -0.1369
 6974SOL     OW32383   2.146   3.934   3.988  0.1183  0.2153 -0.3030
 6974SOL    HW132384   2.175   3.917   4.078 -1.4077 -1.2781 -0.0941
 6974SOL    HW232385   2.053   3.951   4.001  0.3907  1.7181 -0.2782
 6975SOL     OW32386   2.978   3.960   2.363 -0.3116 -0.3407  0.0633
 6975SOL    HW132387   2.946   3.956   2.453 -3.7674  1.0896 -1.0741
 6975SOL    HW232388   3.032   3.882   2.351 -2.0737 -1.3995 -1.1189
 6976SOL     OW32389   1.032   3.543  10.467  0.2168  0.0707 -0.2370
 6976SOL    HW132390   1.021   3.587  10.551 -1.8283  0.9388 -0.9512
 6976SOL    HW232391   1.027   3.450  10.492  1.4258  0.9865  3.4282
 6977SOL     OW32392   3.079   2.592   7.051 -0.0302 -0.6422 -0.6267
 6977SOL    HW132393   3.086   2.687   7.038 -2.0152 -0.2725  0.9965
 6977SOL    HW232394   3.069   2.594   7.146 -2.4329 -2.1572 -0.8576
 6978SOL     OW32395   3.323   2.024  11.477 -0.0025 -0.3439 -0.0094
 6978SOL    HW132396   3.399   1.980  11.514 -0.1824 -0.4772  0.2040
 6978SOL    HW232397   3.254   1.960  11.494  0.8196 -1.4826 -1.0087
 6979SOL     OW32398   3.224   1.732   2.385  0.2156 -0.5241 -0.5096
 6979SOL    HW132399   3.293   1.726   2.319  2.6312  0.9705  1.8580
 6979SOL    HW232400   3.227   1.641   2.415 -0.9968 -0.4657 -0.1921
 6980SOL     OW32401   4.170   4.463   7.729  0.1237  0.2767 -0.2845
 6980SOL    HW132402   4.197   4.452   7.637 -1.7167  0.3759 -0.8467
 6980SOL    HW232403   4.075   4.475   7.719  0.1379  0.1068 -0.6411
 6981SOL     OW32404   1.699   3.887   3.119  0.1449 -0.3755  0.1217
 6981SOL    HW132405   1.621   3.904   3.065 -0.0580  1.3908  0.9943
 6981SOL    HW232406   1.771   3.911   3.061  0.7515 -1.6443  0.3481
 6982SOL     OW32407   0.412   4.559  14.736  0.4350 -0.2002 -0.0114
 6982SOL    HW132408   0.357   4.480  14.735 -0.9031  0.7209  2.4391
 6982SOL    HW232409   0.476   4.537  14.668 -1.0553 -2.7815 -0.5944
 6983SOL     OW32410   3.072   0.805   8.689  0.2520  0.0487  0.0289
 6983SOL    HW132411   2.990   0.767   8.722  0.4346  1.5540  2.1451
 6983SOL    HW232412   3.045   0.895   8.674  0.6225  0.2697  0.7065
 6984SOL     OW32413   3.316   1.908  14.483  0.7810  0.0841 -0.1201
 6984SOL    HW132414   3.272   1.926  14.400  1.1290  0.5998 -0.1961
 6984SOL    HW232415   3.249   1.908  14.552  1.3905  2.4985  0.4895
 6985SOL     OW32416   0.472   0.118   4.680  0.4656  0.5070  0.0191
 6985SOL    HW132417   0.388   0.096   4.640  0.5912 -1.3729  0.8052
 6985SOL    HW232418   0.542   0.072   4.632 -1.0239 -0.1742 -1.5000
 6986SOL     OW32419   3.217   4.689   3.371 -0.3924  0.0113  0.3639
 6986SOL    HW132420   3.293   4.685   3.314 -0.1068 -0.2975  0.7716
 6986SOL    HW232421   3.178   0.052   3.350 -1.5078 -0.7087 -0.4955
 6987SOL     OW32422   0.931   3.632   7.428  0.4737 -0.1862 -0.1820
 6987SOL    HW132423   0.975   3.676   7.355  2.3816 -2.6169 -0.5002
 6987SOL    HW232424   0.875   3.703   7.459  0.7501 -0.9945  2.1223
 6988SOL     OW32425   3.704   1.566  13.685 -0.4677  0.4284 -0.0657
 6988SOL    HW132426   3.640   1.523  13.627 -1.5811  1.9875  0.0033
 6988SOL    HW232427   3.717   1.487  13.738  0.9176 -1.9586 -3.9147
 6989SOL     OW32428   2.208   2.466   5.262 -0.3218  0.1138 -0.4205
 6989SOL    HW132429   2.258   2.456   5.342  0.8181 -0.3470 -1.1850
 6989SOL    HW232430   2.265   2.533   5.224 -2.2179  1.1121 -1.5213
 6990SOL     OW32431   0.568   0.366   9.595 -0.5077  0.4465  0.0370
 6990SOL    HW132432   0.521   0.382   9.513  0.8696  1.8815 -0.4721
 6990SOL    HW232433   0.518   0.427   9.649 -0.5046  1.2321 -0.8374
 6991SOL     OW32434   3.939   2.104   2.049 -0.6111 -0.4024 -0.3578
 6991SOL    HW132435   4.011   2.068   1.997  0.2951  2.3642 -1.0174
 6991SOL    HW232436   3.876   2.032   2.049 -1.2474  0.1608 -1.7110
 6992SOL     OW32437   3.556   2.407   5.953 -0.0497 -0.1681  0.4803
 6992SOL    HW132438   3.555   2.318   5.919 -1.2993 -0.3491  0.9948
 6992SOL    HW232439   3.562   2.395   6.048 -0.7205  1.2891  0.7142
 6993SOL     OW32440   1.014   3.866  15.081 -0.0551  0.0482 -0.2114
 6993SOL    HW132441   1.091   3.810  15.068  0.2896 -0.2467  2.9598
 6993SOL    HW232442   0.948   3.825  15.025  1.3181 -1.2842 -0.8627
 6994SOL     OW32443   1.574   1.080   0.775 -0.0744  0.5181 -0.2408
 6994SOL    HW132444   1.588   1.146   0.843  0.9867  0.4896 -0.4370
 6994SOL    HW232445   1.481   1.067   0.795 -0.4402 -0.0188 -2.3499
 6995SOL     OW32446   2.237   2.330   8.824 -0.7394  0.2674 -0.0764
 6995SOL    HW132447   2.295   2.285   8.763 -0.4719 -0.1035  0.4535
 6995SOL    HW232448   2.249   2.271   8.898 -0.1701  2.4913  1.6384
 6996SOL     OW32449   1.693   1.686   2.966  0.0118 -0.5724 -0.0275
 6996SOL    HW132450   1.655   1.613   3.015 -1.3351  0.8693  1.0924
 6996SOL    HW232451   1.614   1.719   2.924  0.8680  1.7247  0.1261
 6997SOL     OW32452   3.359   4.145  13.372  0.1335  0.3885 -0.2312
 6997SOL    HW132453   3.333   4.126  13.462  0.4752  0.0684 -0.2017
 6997SOL    HW232454   3.326   4.073  13.319  0.7414  0.2496 -0.4188
 6998SOL     OW32455   2.210   3.390  17.228  0.1134  0.2667 -0.0112
 6998SOL    HW132456   2.215   3.393  17.323  1.1895  1.8443 -0.1086
 6998SOL    HW232457   2.115   3.399  17.217 -0.0582 -1.2889  0.2687
 6999SOL     OW32458   3.983   2.666   7.729 -0.2307  0.5936  0.3117
 6999SOL    HW132459   3.970   2.571   7.728 -1.5344  0.7918 -0.3137
 6999SOL    HW232460   4.065   2.659   7.679 -0.0534  1.7499  0.4388
 7000SOL     OW32461   0.823   0.842   7.983  0.1624  0.2767 -0.3393
 7000SOL    HW132462   0.873   0.789   8.045 -0.3491 -0.1800 -0.3199
 7000SOL    HW232463   0.893   0.902   7.958 -0.8456  1.7842  0.4870
 7001SOL     OW32464   2.356   2.492   1.727  0.6329  0.6925  0.3315
 7001SOL    HW132465   2.379   2.493   1.820  1.0785 -0.4483  0.2301
 7001SOL    HW232466   2.292   2.563   1.731 -0.0071  0.1102  0.6159
 7002SOL     OW32467   2.404   3.585   3.510  0.3025 -0.0869 -0.9104
 7002SOL    HW132468   2.337   3.522   3.481  1.0260 -0.9836 -0.6147
 7002SOL    HW232469   2.433   3.546   3.592 -3.5329 -0.3430  0.3330
 7003SOL     OW32470   3.545   1.968  16.236  0.3183  0.3296  0.3960
 7003SOL    HW132471   3.558   1.874  16.240 -2.8866 -0.2353 -2.4836
 7003SOL    HW232472   3.496   1.994  16.314  2.9977 -0.8281  2.4507
 7004SOL     OW32473   3.883   1.245   2.645  0.1410 -0.0453  0.3678
 7004SOL    HW132474   3.961   1.202   2.610 -0.5189  0.7442 -2.0508
 7004SOL    HW232475   3.841   1.172   2.690 -1.1452  0.7950  0.5052
 7005SOL     OW32476   2.844   1.228   6.945  0.5042 -0.6765  0.2941
 7005SOL    HW132477   2.931   1.190   6.929  0.4209  0.2662 -2.3658
 7005SOL    HW232478   2.812   1.233   6.855 -1.5453  1.8827  1.1735
 7006SOL     OW32479   0.873   2.681   2.737 -0.1246 -0.5186  0.0307
 7006SOL    HW132480   0.864   2.724   2.653  1.4062 -2.7016 -1.2551
 7006SOL    HW232481   0.956   2.635   2.727  0.1084 -0.1115  0.1100
 7007SOL     OW32482   0.293   3.512   9.327  0.2956 -0.2957 -0.1188
 7007SOL    HW132483   0.336   3.441   9.376 -1.7945 -1.9061 -0.6773
 7007SOL    HW232484   0.292   3.583   9.393 -2.2389 -0.9425  0.5337
 7008SOL     OW32485   0.902   0.622   4.929  0.3101  0.3177 -0.2141
 7008SOL    HW132486   0.884   0.706   4.888 -1.2014  0.9101  1.6405
 7008SOL    HW232487   0.998   0.626   4.930  0.3828 -1.2484 -0.2325
 7009SOL     OW32488   4.014   2.536  11.915 -0.2809 -0.4135 -0.1339
 7009SOL    HW132489   3.989   2.602  11.851  1.3971 -0.1835 -0.5438
 7009SOL    HW232490   4.108   2.548  11.903 -0.3338 -0.3029 -0.4265
 7010SOL     OW32491   4.454   1.863   7.425 -0.0403  0.1594  0.2075
 7010SOL    HW132492   4.427   1.954   7.430 -2.2225 -0.3548 -2.1422
 7010SOL    HW232493   4.410   1.826   7.348  1.3732  0.7380 -0.8541
 7011SOL     OW32494   1.408   4.238   8.601 -0.2756  0.0150  0.2497
 7011SOL    HW132495   1.344   4.301   8.634  0.1597 -0.1571  1.4277
 7011SOL    HW232496   1.492   4.270   8.634 -1.0211  2.6078 -0.3804
 7012SOL     OW32497   3.667   2.021   2.334  0.5730  0.0631 -0.0206
 7012SOL    HW132498   3.745   2.019   2.389 -0.4898 -1.7125  1.3941
 7012SOL    HW232499   3.607   1.960   2.377 -0.0058  0.7938  0.2189
 7013SOL     OW32500   2.154   1.232  13.178  0.4872  0.5051  0.6174
 7013SOL    HW132501   2.125   1.310  13.130  2.1411  0.1202 -1.0318
 7013SOL    HW232502   2.201   1.274  13.251 -0.1222  0.5457  0.9834
 7014SOL     OW32503   2.624   2.522  11.838  0.5256 -0.2109  0.3646
 7014SOL    HW132504   2.689   2.551  11.902 -1.3870  3.0303  0.8222
 7014SOL    HW232505   2.546   2.573  11.858 -0.2745 -1.4574  0.4619
 7015SOL     OW32506   1.139   2.182   0.161 -0.0359  0.0865  0.1742
 7015SOL    HW132507   1.154   2.089   0.172 -2.3247 -0.3133 -0.0712
 7015SOL    HW232508   1.188   2.216   0.236  0.5509  0.6653 -0.4700
 7016SOL     OW32509   3.629   4.003   6.361 -0.2667  0.7400 -0.6179
 7016SOL    HW132510   3.677   4.083   6.385  0.4336  0.3661 -0.7715
 7016SOL    HW232511   3.694   3.977   6.295  0.5158 -2.2011  1.3183
 7017SOL     OW32512   1.421   0.813   0.123  0.3732  0.2004 -0.0622
 7017SOL    HW132513   1.463   0.830   0.039 -2.1715 -1.0359 -1.5710
 7017SOL    HW232514   1.503   0.808   0.172  0.4669 -1.6377 -0.3829
 7018SOL     OW32515   2.521   3.181   1.812 -0.6051 -0.0320 -0.0541
 7018SOL    HW132516   2.485   3.159   1.898 -0.8408 -0.6710 -0.3164
 7018SOL    HW232517   2.499   3.103   1.761 -1.8286  0.2457  0.0527
 7019SOL     OW32518   1.698   4.178   6.936  0.3268 -0.3778  0.2071
 7019SOL    HW132519   1.728   4.262   6.901 -1.8089  0.3826  0.2187
 7019SOL    HW232520   1.665   4.129   6.860 -0.4112  0.7479 -0.1879
 7020SOL     OW32521   1.008   3.838   2.541 -0.1894 -0.4027  0.2905
 7020SOL    HW132522   1.022   3.752   2.500 -0.2113  0.2467 -1.0964
 7020SOL    HW232523   1.004   3.898   2.466  1.8222 -0.9445 -0.2629
 7021SOL     OW32524   3.367   0.062   9.040 -0.7724  0.1352 -0.3163
 7021SOL    HW132525   3.406   4.715   9.094 -2.0300  0.2739  0.7625
 7021SOL    HW232526   3.356   0.015   8.957 -1.8495  0.5785 -0.4171
 7022SOL     OW32527   0.317   4.599   5.574  0.6813 -0.4830 -0.4088
 7022SOL    HW132528   0.281   4.618   5.488  0.9002  1.2616 -0.1312
 7022SOL    HW232529   0.405   4.633   5.555  0.4192  1.3558  1.7190
 7023SOL     OW32530   2.693   1.711   6.349 -0.0349  0.0648  0.4220
 7023SOL    HW132531   2.756   1.780   6.371 -0.0599 -0.1983  1.3144
 7023SOL    HW232532   2.735   1.665   6.276 -0.2472  0.4753  0.0440
 7024SOL     OW32533   1.136   4.317  17.497 -0.2108 -0.1847  0.1427
 7024SOL    HW132534   1.228   4.290  17.492 -0.2924 -0.5596  0.7242
 7024SOL    HW232535   1.096   4.248  17.444  1.7572 -1.8437  0.8106
 7025SOL     OW32536   0.619   2.790   3.241 -0.4983  0.1349 -0.7693
 7025SOL    HW132537   0.597   2.837   3.322 -0.0058 -1.1175  0.0873
 7025SOL    HW232538   0.702   2.750   3.267 -1.1340  0.2279  1.3846
 7026SOL     OW32539   3.454   2.858   2.649  0.4292 -0.4803  0.8380
 7026SOL    HW132540   3.484   2.851   2.559 -1.6224 -0.8418  0.1903
 7026SOL    HW232541   3.415   2.774   2.672 -1.1804 -0.4980 -2.0747
 7027SOL     OW32542   0.507   4.159   5.046  0.8791  0.9652  0.1432
 7027SOL    HW132543   0.542   4.200   4.967 -1.2086  0.9996 -0.7686
 7027SOL    HW232544   0.567   4.086   5.056  0.4014  0.5150 -0.3285
 7028SOL     OW32545   3.276   0.335   1.625  0.6296 -0.1317 -0.1971
 7028SOL    HW132546   3.319   0.266   1.675 -1.7129 -1.8064 -0.4727
 7028SOL    HW232547   3.346   0.399   1.611 -0.0004  0.9504  1.4943
 7029SOL     OW32548   3.067   3.717  16.728 -0.0947 -0.4151 -0.4709
 7029SOL    HW132549   2.985   3.735  16.682 -0.2572 -1.1908 -0.4924
 7029SOL    HW232550   3.117   3.786  16.684  0.3520  1.5149  3.0226
 7030SOL     OW32551   0.162   0.780   8.959 -0.2144  1.0050 -0.5830
 7030SOL    HW132552   0.256   0.790   8.941 -0.6323  0.0009 -3.3658
 7030SOL    HW232553   0.173   0.746   9.048 -0.7484  0.4453 -0.7300
 7031SOL     OW32554   2.956   4.367   9.555  0.2274  0.0157 -0.0336
 7031SOL    HW132555   2.931   4.395   9.643 -1.4816 -1.8136  0.0549
 7031SOL    HW232556   2.877   4.317   9.534  0.1307  0.1848 -0.0713
 7032SOL     OW32557   2.847   4.377   6.493  0.8126 -0.2046 -0.0445
 7032SOL    HW132558   2.806   4.339   6.570 -1.6569  0.5461 -0.9967
 7032SOL    HW232559   2.782   4.436   6.455  1.2021  0.3380  0.1267
 7033SOL     OW32560   1.048   4.047  13.066 -0.6954 -0.0292 -0.5735
 7033SOL    HW132561   1.077   3.960  13.041 -1.6885  0.2301 -2.5836
 7033SOL    HW232562   1.129   4.088  13.098 -1.0497 -0.0749  0.3683
 7034SOL     OW32563   2.477   1.608  12.887 -0.1349  0.4864  0.6338
 7034SOL    HW132564   2.394   1.646  12.859 -0.0936 -1.3919 -2.0107
 7034SOL    HW232565   2.455   1.556  12.964  0.4800 -0.3023  0.2804
 7035SOL     OW32566   1.357   0.783   4.614  0.6012  0.0940 -0.1150
 7035SOL    HW132567   1.263   0.770   4.625  0.8361 -0.1474  1.6296
 7035SOL    HW232568   1.368   0.828   4.530  0.4044  1.5068  0.6276
 7036SOL     OW32569   0.696   4.212   7.281 -0.3036  0.3449 -0.0255
 7036SOL    HW132570   0.623   4.232   7.223 -1.9430 -1.4555  1.4139
 7036SOL    HW232571   0.662   4.126   7.308  2.4879  0.0974  2.7217
 7037SOL     OW32572   1.501   1.321   8.923 -0.0420 -0.4385 -0.1332
 7037SOL    HW132573   1.500   1.230   8.895  0.1413 -0.4810  0.0028
 7037SOL    HW232574   1.421   1.360   8.886 -1.0507 -1.4617  0.9646
 7038SOL     OW32575   4.688   0.279   0.469 -0.6603 -0.2484  0.1227
 7038SOL    HW132576   0.033   0.344   0.493  1.0115 -1.8400 -0.2732
 7038SOL    HW232577   4.700   0.213   0.537  0.1244  0.2115  0.4350
 7039SOL     OW32578   4.375   0.823   2.813 -0.0296  0.4777  0.6999
 7039SOL    HW132579   4.332   0.868   2.886  2.1131 -0.2673  2.4210
 7039SOL    HW232580   4.458   0.871   2.809  0.2369 -0.1122 -0.9177
 7040SOL     OW32581   0.376   0.182   3.657  0.0437 -0.4776  0.0901
 7040SOL    HW132582   0.458   0.178   3.706 -1.0239  1.1334  1.9882
 7040SOL    HW232583   0.330   0.239   3.718 -0.4868  0.0673 -0.8075
 7041SOL     OW32584   2.272   3.831   6.457 -0.0817 -0.6315 -0.3914
 7041SOL    HW132585   2.215   3.862   6.387 -0.1634  1.8973  0.8033
 7041SOL    HW232586   2.341   3.897   6.452 -1.5370  0.9535  0.4503
 7042SOL     OW32587   3.968   0.918  11.209  0.8914 -0.0582  0.2624
 7042SOL    HW132588   3.929   0.997  11.173  0.4624 -1.1364 -1.6154
 7042SOL    HW232589   3.890   0.864  11.222  1.0409 -0.4977 -0.6641
 7043SOL     OW32590   1.574   3.485  10.368  0.0928  0.0162  0.3336
 7043SOL    HW132591   1.640   3.514  10.431  1.2939 -2.6846  0.3364
 7043SOL    HW232592   1.491   3.496  10.414  0.9928  1.6314  1.5676
 7044SOL     OW32593   1.422   0.871   2.081 -0.2280 -0.4526  0.2423
 7044SOL    HW132594   1.432   0.966   2.073  3.3381 -0.9091 -0.5190
 7044SOL    HW232595   1.499   0.846   2.031 -1.4493 -2.5306 -0.6311
 7045SOL     OW32596   3.881   1.729  13.508  0.6151  0.9726  0.5992
 7045SOL    HW132597   3.962   1.760  13.547  2.1010  0.7263 -2.2635
 7045SOL    HW232598   3.827   1.714  13.585  0.9747  0.1316  0.6915
 7046SOL     OW32599   1.956   4.188  12.063  0.4981 -0.7425 -0.0917
 7046SOL    HW132600   1.933   4.104  12.022 -1.2051 -0.3252  0.0066
 7046SOL    HW232601   1.952   4.160  12.154 -0.5331 -0.8733 -0.1807
 7047SOL     OW32602   1.161   3.604   2.118 -0.4563 -0.2065  0.1941
 7047SOL    HW132603   1.109   3.684   2.127  1.6915  1.0493  1.6791
 7047SOL    HW232604   1.125   3.559   2.042  0.3880 -1.7857  0.7410
 7048SOL     OW32605   4.433   1.389   8.537 -0.0693 -0.3962 -0.3539
 7048SOL    HW132606   4.479   1.470   8.557  4.1500 -2.5409 -1.3446
 7048SOL    HW232607   4.389   1.363   8.618 -1.3687 -0.5175 -1.0949
 7049SOL     OW32608   0.734   3.833   5.664 -0.1190  0.6921 -0.0783
 7049SOL    HW132609   0.741   3.737   5.659 -0.4735  0.6502  0.2117
 7049SOL    HW232610   0.813   3.870   5.624  1.2663 -0.0496  1.9448
 7050SOL     OW32611   3.142   4.324   7.154 -0.2568  0.8366  0.0080
 7050SOL    HW132612   3.062   4.273   7.141  0.2916  0.1041 -0.5372
 7050SOL    HW232613   3.121   4.403   7.104  1.8148  0.8322 -0.8460
 7051SOL     OW32614   1.939   0.507   8.845 -0.0706 -0.2469 -0.0885
 7051SOL    HW132615   1.851   0.470   8.851  0.7779 -2.5454 -1.4290
 7051SOL    HW232616   1.920   0.599   8.828  0.7988 -0.3084 -1.3903
 7052SOL     OW32617   0.180   0.040  12.704 -0.1957  0.1864 -0.5434
 7052SOL    HW132618   0.111   0.025  12.639 -0.3457  0.7110 -0.5059
 7052SOL    HW232619   0.234   0.102  12.654  1.9800 -0.5641  0.9019
 7053SOL     OW32620   4.190   3.381   8.027  0.3355 -0.7454 -0.1183
 7053SOL    HW132621   4.141   3.311   8.070 -0.8994  0.9156  1.1499
 7053SOL    HW232622   4.234   3.430   8.096 -1.1881  1.7547 -0.9177
 7054SOL     OW32623   3.628   4.255   9.039  0.4136 -0.7317  0.0690
 7054SOL    HW132624   3.708   4.207   9.064  0.7159  1.4375  3.2662
 7054SOL    HW232625   3.650   4.276   8.949 -0.1584  2.9432  0.8060
 7055SOL     OW32626   0.019   3.415   4.935  0.0789 -0.0313 -0.2231
 7055SOL    HW132627   4.652   3.402   4.901  0.8726  0.1414 -2.3616
 7055SOL    HW232628   4.720   3.468   5.012 -2.2917 -0.3000 -0.6703
 7056SOL     OW32629   3.452   1.056   2.055  0.5094  0.8672 -0.4306
 7056SOL    HW132630   3.454   0.981   1.996 -0.6411  0.9757 -0.6005
 7056SOL    HW232631   3.384   1.111   2.016  0.1082 -0.3044 -1.3700
 7057SOL     OW32632   0.799   1.847   5.885  0.3598  0.1299  0.0100
 7057SOL    HW132633   0.708   1.850   5.914  0.1473  0.2811 -0.6737
 7057SOL    HW232634   0.808   1.763   5.840  0.0936  0.7211 -1.1641
 7058SOL     OW32635   2.302   2.633  17.142 -0.8278 -0.1219  0.0384
 7058SOL    HW132636   2.386   2.672  17.118 -1.5660  1.3574 -0.1243
 7058SOL    HW232637   2.325   2.597  17.228  2.1708  2.4986  0.3210
 7059SOL     OW32638   1.901   3.937   4.139  0.3119 -0.0737 -0.1441
 7059SOL    HW132639   1.881   3.907   4.227 -1.2318  1.9969  0.2206
 7059SOL    HW232640   1.871   3.861   4.088 -1.8672  0.6996 -0.0221
 7060SOL     OW32641   3.700   1.728   3.383  0.0203 -0.4271  0.4523
 7060SOL    HW132642   3.675   1.787   3.454 -0.5151  1.5294 -1.3803
 7060SOL    HW232643   3.794   1.728   3.396  0.0450 -0.9781  0.2787
 7061SOL     OW32644   1.729   2.874   7.776  0.0552  0.5306 -0.2361
 7061SOL    HW132645   1.682   2.921   7.707 -0.1244  0.1754 -0.3547
 7061SOL    HW232646   1.811   2.857   7.731  0.1484  0.7641 -0.1540
 7062SOL     OW32647   1.811   3.762  10.395 -0.0216 -0.0424  0.0577
 7062SOL    HW132648   1.723   3.780  10.362  1.0765  1.7651 -1.8974
 7062SOL    HW232649   1.796   3.794  10.484 -0.9643  0.1528 -0.1739
 7063SOL     OW32650   1.536   3.638   7.350  0.0328 -0.4252 -0.2389
 7063SOL    HW132651   1.557   3.653   7.258 -0.1806  0.6307 -0.1088
 7063SOL    HW232652   1.574   3.707   7.405  1.9895  0.4251 -2.6595
 7064SOL     OW32653   2.036   3.925  16.687 -0.1266 -0.1027  0.4182
 7064SOL    HW132654   2.129   3.909  16.704  0.3993  1.7448 -0.6944
 7064SOL    HW232655   2.037   3.989  16.616 -2.6938 -0.2404  0.2616
 7065SOL     OW32656   3.190   1.993  14.259 -0.6577 -0.4562  0.5988
 7065SOL    HW132657   3.116   2.050  14.235  1.5156  2.0705 -0.1564
 7065SOL    HW232658   3.142   1.912  14.245 -0.3363 -0.5128 -0.1982
 7066SOL     OW32659   1.687   3.269  16.368 -0.2218  0.0303  0.0098
 7066SOL    HW132660   1.603   3.308  16.389  0.8062  2.3788 -0.2503
 7066SOL    HW232661   1.741   3.285  16.445 -1.1024 -0.1086  0.6493
 7067SOL     OW32662   0.339   2.615   5.523 -0.3039  0.8138  0.3761
 7067SOL    HW132663   0.284   2.539   5.540 -1.0974  0.9805 -1.4772
 7067SOL    HW232664   0.408   2.592   5.585 -1.8675 -1.1954  1.3576
 7068SOL     OW32665   0.365   2.369   9.885 -0.6833  0.2555  0.3515
 7068SOL    HW132666   0.336   2.361   9.976 -0.9017  2.2713  0.4565
 7068SOL    HW232667   0.309   2.443   9.862 -0.8603  0.4219  1.3186
 7069SOL     OW32668   1.908   0.262   2.490  0.4942  0.4057  0.8617
 7069SOL    HW132669   1.999   0.249   2.462  0.6093 -0.8095  1.7846
 7069SOL    HW232670   1.878   0.329   2.429  0.0017 -0.7975 -0.2026
 7070SOL     OW32671   0.706   4.140  13.924 -0.0033  0.2016  0.6709
 7070SOL    HW132672   0.728   4.166  14.014  0.3352  3.1746 -0.2620
 7070SOL    HW232673   0.775   4.182  13.873  0.4017 -0.7010  0.4793
 7071SOL     OW32674   3.456   3.391   2.809  0.0629 -0.3066  0.4361
 7071SOL    HW132675   3.494   3.465   2.858  0.8965 -0.3225 -0.1796
 7071SOL    HW232676   3.540   3.361   2.772 -0.4949 -1.9963  0.5871
 7072SOL     OW32677   0.565   0.600   1.986  0.4421  0.4104 -0.1797
 7072SOL    HW132678   0.546   0.564   2.072  2.6722  0.7254  0.4389
 7072SOL    HW232679   0.648   0.555   1.970 -1.1379 -2.2096 -0.9317
 7073SOL     OW32680   3.491   0.827  13.798  0.1785  0.2863  0.3934
 7073SOL    HW132681   3.448   0.814  13.714  0.6901  4.0876 -0.4725
 7073SOL    HW232682   3.445   0.909  13.818  3.1005  2.0616 -0.2336
 7074SOL     OW32683   1.906   2.464   8.122  0.4009 -0.2136 -0.1450
 7074SOL    HW132684   1.848   2.490   8.050  1.3199  1.3019 -0.3376
 7074SOL    HW232685   1.990   2.502   8.099  0.7971 -0.8904  0.1953
 7075SOL     OW32686   2.310   3.945  16.771 -0.4616  0.3108  0.2852
 7075SOL    HW132687   2.289   4.026  16.817 -2.2492 -0.6652  1.2100
 7075SOL    HW232688   2.406   3.949  16.775 -0.2955 -1.7887 -1.4638
 7076SOL     OW32689   4.211   4.325   9.133  0.2612 -0.5261 -0.1594
 7076SOL    HW132690   4.169   4.386   9.072  1.2484  1.4285  1.1137
 7076SOL    HW232691   4.194   4.247   9.081  0.0383 -0.7553  0.2593
 7077SOL     OW32692   3.161   2.924   6.643  0.4980  0.1909  0.0868
 7077SOL    HW132693   3.145   2.973   6.563 -1.9789 -0.6089  0.0843
 7077SOL    HW232694   3.072   2.942   6.673  0.1360  0.2998 -1.0695
 7078SOL     OW32695   2.549   1.421  15.293 -0.1091  0.3523 -0.4421
 7078SOL    HW132696   2.476   1.480  15.309  1.8609  2.7099 -0.0630
 7078SOL    HW232697   2.558   1.390  15.384 -0.4643 -0.8562 -0.8118
 7079SOL     OW32698   3.167   2.572   6.345 -0.8490 -0.0955  0.2250
 7079SOL    HW132699   3.152   2.626   6.423 -2.5472 -2.1562  1.3229
 7079SOL    HW232700   3.252   2.606   6.314 -0.3814 -0.2516  1.3326
 7080SOL     OW32701   2.146   4.125   8.402  0.0507 -0.3606 -0.7564
 7080SOL    HW132702   2.194   4.112   8.320  1.2788  2.4563 -0.4587
 7080SOL    HW232703   2.158   4.219   8.413  0.0326 -0.4772  0.2388
 7081SOL     OW32704   4.288   4.541  15.681 -0.0130  0.0449  0.6528
 7081SOL    HW132705   4.297   4.447  15.700 -1.4533 -0.4184 -0.9769
 7081SOL    HW232706   4.312   4.573  15.768 -0.4554  2.3449 -0.0668
 7082SOL     OW32707   1.629   2.908  15.623  0.0091  0.7219 -0.1210
 7082SOL    HW132708   1.633   2.922  15.528  1.0508 -0.4535 -0.2380
 7082SOL    HW232709   1.659   2.997  15.644 -0.4486  0.5581  1.2225
 7083SOL     OW32710   3.677   4.507  16.482  0.4233  0.1658  0.1478
 7083SOL    HW132711   3.709   4.499  16.572 -0.9146  2.4898  0.8265
 7083SOL    HW232712   3.690   4.599  16.459 -1.6412  0.8690  1.7405
 7084SOL     OW32713   2.824   1.577   6.137 -0.2178 -0.3616 -0.0542
 7084SOL    HW132714   2.879   1.602   6.063 -2.3105 -0.2538 -1.5594
 7084SOL    HW232715   2.740   1.559   6.094 -1.3948  1.5866  1.4827
 7085SOL     OW32716   1.494   0.725   5.046  0.0980 -0.3251 -0.1097
 7085SOL    HW132717   1.474   0.799   4.989  1.2071 -0.5766 -0.8266
 7085SOL    HW232718   1.588   0.710   5.032  0.3714 -0.2476  1.5635
 7086SOL     OW32719   1.484   3.974   2.354 -0.4470 -0.2112  0.4888
 7086SOL    HW132720   1.568   3.947   2.391 -0.1711  1.6201  1.1896
 7086SOL    HW232721   1.427   3.956   2.428 -1.9558  2.4161 -0.0414
 7087SOL     OW32722   3.553   1.477   3.879 -0.1739 -0.3026  0.0797
 7087SOL    HW132723   3.564   1.503   3.971 -4.1432  4.2709 -0.7710
 7087SOL    HW232724   3.473   1.425   3.886 -0.0865 -0.3261  0.8722
 7088SOL     OW32725   4.437   3.345   4.877  0.1190  0.9140 -0.0368
 7088SOL    HW132726   4.349   3.361   4.843  0.0351  0.4213 -0.0470
 7088SOL    HW232727   4.476   3.299   4.803 -1.2609  0.1901 -0.3163
 7089SOL     OW32728   1.372   2.562  10.993 -0.4737 -0.4439 -0.7323
 7089SOL    HW132729   1.391   2.654  11.011  0.2788 -0.4277 -1.6147
 7089SOL    HW232730   1.339   2.568  10.904 -1.1399  0.4301 -0.4265
 7090SOL     OW32731   4.019   3.449  11.529 -0.6304 -0.0730 -0.1247
 7090SOL    HW132732   4.085   3.382  11.547 -0.7052 -0.4046 -1.0700
 7090SOL    HW232733   3.949   3.406  11.579  0.5883 -1.6674  0.2136
 7091SOL     OW32734   0.104   3.704  13.562 -0.2339 -0.2119 -0.4985
 7091SOL    HW132735   0.080   3.718  13.470 -1.2867  0.4890 -0.1244
 7091SOL    HW232736   0.104   3.608  13.563 -1.5094 -0.2074 -0.1381
 7092SOL     OW32737   4.230   1.697   3.290 -0.1618  0.0287  0.2950
 7092SOL    HW132738   4.304   1.638   3.273  0.5056  1.0842 -0.4752
 7092SOL    HW232739   4.202   1.692   3.198  0.5628  0.5488  0.0479
 7093SOL     OW32740   2.875   0.403   2.287 -0.2442  0.2728 -0.3164
 7093SOL    HW132741   2.785   0.404   2.253 -0.5857 -1.1869  0.5234
 7093SOL    HW232742   2.910   0.376   2.202  2.0580  1.8669  0.1130
 7094SOL     OW32743   4.159   1.048  14.326 -0.0390  0.1407 -0.2808
 7094SOL    HW132744   4.109   0.984  14.275  0.2483 -2.2418  2.3686
 7094SOL    HW232745   4.096   1.109  14.364  3.3066  1.4364  3.2253
 7095SOL     OW32746   2.561   0.038   1.597  0.2582 -0.5653 -0.1971
 7095SOL    HW132747   2.485   0.097   1.597 -0.9622 -2.1668  3.1079
 7095SOL    HW232748   2.635   0.092   1.622  0.1907 -0.6170  0.1127
 7096SOL     OW32749   0.216   2.622   5.057 -0.3744 -0.1031 -0.3961
 7096SOL    HW132750   0.149   2.637   4.990 -0.1901 -1.0894 -0.7968
 7096SOL    HW232751   0.187   2.543   5.103 -0.8411 -0.2420 -0.9269
 7097SOL     OW32752   0.322   4.177   5.919  0.4665  0.9974 -0.0208
 7097SOL    HW132753   0.328   4.086   5.947  0.1101  1.4184  1.4195
 7097SOL    HW232754   0.258   4.215   5.979  1.1221  0.4662  1.0178
 7098SOL     OW32755   1.776   3.015   6.871 -0.3384  0.0362 -0.2801
 7098SOL    HW132756   1.814   2.983   6.953  2.1469  1.1496 -1.0179
 7098SOL    HW232757   1.693   3.034   6.916 -0.9707 -1.5246 -0.7641
 7099SOL     OW32758   3.591   0.656   7.797 -0.0842 -0.5537 -0.0113
 7099SOL    HW132759   3.678   0.692   7.816 -0.4403 -0.0608  0.6625
 7099SOL    HW232760   3.613   0.617   7.712  0.6133 -2.7420  1.1663
 7100SOL     OW32761   4.034   2.590   3.170 -0.2434 -0.1074 -0.2465
 7100SOL    HW132762   4.013   2.680   3.196  1.8177 -0.5120  2.9116
 7100SOL    HW232763   3.973   2.566   3.101  0.3029 -0.2730 -0.6684
 7101SOL     OW32764   0.959   0.730   1.888  0.4966 -0.2535  0.1400
 7101SOL    HW132765   1.041   0.723   1.938  0.3791 -1.6504  0.1253
 7101SOL    HW232766   0.899   0.720   1.962 -1.3626 -2.3103 -1.6458
 7102SOL     OW32767   3.107   2.477  12.736  0.5655  0.8139 -0.3491
 7102SOL    HW132768   3.130   2.403  12.680  2.4534  0.3686  1.0353
 7102SOL    HW232769   3.184   2.474  12.793  1.2143 -1.3394 -1.3620
 7103SOL     OW32770   4.440   1.056   1.672 -0.0366 -0.6013 -0.1902
 7103SOL    HW132771   4.535   1.063   1.682  0.1714 -0.8960 -1.9092
 7103SOL    HW232772   4.431   0.985   1.608  0.9814 -0.9046  0.0075
 7104SOL     OW32773   1.875   1.493  15.420  0.0149 -0.0184 -0.0672
 7104SOL    HW132774   1.945   1.437  15.387  1.1731  0.7772  1.0198
 7104SOL    HW232775   1.817   1.426  15.456 -0.2596  1.5121  2.3569
 7105SOL     OW32776   4.466   0.506  12.450  0.3040 -0.1473 -0.0828
 7105SOL    HW132777   4.540   0.534  12.396  0.3042  0.1344  0.0591
 7105SOL    HW232778   4.397   0.486  12.388 -0.0568 -0.6318  0.4730
 7106SOL     OW32779   2.835   2.447   9.041 -0.1189 -0.6059 -0.1327
 7106SOL    HW132780   2.839   2.455   9.137 -0.2580  0.6992 -0.2311
 7106SOL    HW232781   2.919   2.486   9.016 -0.5511  2.0526  2.5421
 7107SOL     OW32782   2.105   1.378   3.631 -0.7217  0.1837  0.8532
 7107SOL    HW132783   2.109   1.283   3.633 -1.5228  0.1116 -0.3638
 7107SOL    HW232784   2.138   1.394   3.542  0.9475 -1.9263  1.1099
 7108SOL     OW32785   0.676   2.296   6.182  0.1576 -0.2995  0.0639
 7108SOL    HW132786   0.588   2.270   6.155  0.6014  1.1117 -2.7848
 7108SOL    HW232787   0.712   2.209   6.197 -2.3405 -1.2915  0.3961
 7109SOL     OW32788   3.355   0.093   5.162 -0.2222 -0.1685  1.0942
 7109SOL    HW132789   3.353   4.720   5.150 -0.2150  0.2064 -1.9396
 7109SOL    HW232790   3.401   0.122   5.083 -0.2472  1.5740  1.7234
 7110SOL     OW32791   1.676   3.961   9.061  0.6026 -0.0810 -0.6106
 7110SOL    HW132792   1.583   3.964   9.039  0.3664  1.2292  0.5480
 7110SOL    HW232793   1.702   3.870   9.051  0.3947  0.0710 -2.5337
 7111SOL     OW32794   2.954   3.419   4.623  0.0995 -0.4544 -0.0036
 7111SOL    HW132795   3.001   3.394   4.543  1.5256 -0.3179  0.7860
 7111SOL    HW232796   3.034   3.442   4.670 -0.1607 -0.5220  0.4731
 7112SOL     OW32797   1.092   3.796  15.314 -0.4836  0.2205 -0.1070
 7112SOL    HW132798   1.171   3.850  15.317  0.7568 -1.5926 -0.4243
 7112SOL    HW232799   1.054   3.816  15.228 -0.5243 -1.6367 -0.5141
 7113SOL     OW32800   2.855   1.756   1.942 -0.4245 -0.1917 -0.1215
 7113SOL    HW132801   2.940   1.715   1.955 -0.0575  0.9849  1.2030
 7113SOL    HW232802   2.871   1.811   1.865 -0.3888 -0.1832 -0.1080
 7114SOL     OW32803   3.462   3.284  12.360  0.9178  0.6419 -0.5429
 7114SOL    HW132804   3.509   3.276  12.443  2.0967 -1.7796 -1.4327
 7114SOL    HW232805   3.379   3.244  12.385  1.6317  0.5876  1.7714
 7115SOL     OW32806   3.266   2.287  11.469  0.0293  0.1192 -0.4551
 7115SOL    HW132807   3.309   2.332  11.396  1.5395 -0.4092  0.1073
 7115SOL    HW232808   3.284   2.194  11.454 -0.4873  0.2198 -1.7150
 7116SOL     OW32809   0.953   2.294   6.869 -0.7443  0.5254  0.0407
 7116SOL    HW132810   0.997   2.304   6.785 -1.0136 -1.4605 -0.3303
 7116SOL    HW232811   1.036   2.293   6.917 -0.2633  0.0106 -0.8066
 7117SOL     OW32812   3.410   0.715   2.221  0.2084  0.4545  0.2938
 7117SOL    HW132813   3.337   0.663   2.254 -0.7631  0.4898 -1.7706
 7117SOL    HW232814   3.390   0.807   2.239  1.2536  1.2758 -2.7809
 7118SOL     OW32815   2.105   3.003   4.872 -0.2976  0.5299 -0.2429
 7118SOL    HW132816   2.071   2.968   4.790 -0.0135  0.3932 -0.3023
 7118SOL    HW232817   2.052   2.948   4.929 -1.1880 -0.2959 -1.8660
 7119SOL     OW32818   2.761   2.495   5.217  0.1395 -0.3735  0.3868
 7119SOL    HW132819   2.714   2.577   5.205 -1.6482 -1.7824 -2.4431
 7119SOL    HW232820   2.846   2.523   5.250 -0.7981  0.7155  1.8414
 7120SOL     OW32821   0.284   2.813   8.599 -0.0161 -0.4634 -1.0355
 7120SOL    HW132822   0.276   2.895   8.648  1.5514 -1.3125  0.6485
 7120SOL    HW232823   0.193   2.784   8.602 -0.1982  0.2194  0.0533
 7121SOL     OW32824   3.674   3.355   5.220 -0.0617  0.0154  0.5083
 7121SOL    HW132825   3.580   3.372   5.219  0.1935  1.3499 -0.6049
 7121SOL    HW232826   3.678   3.354   5.315  0.9506 -1.7341  0.4564
 7122SOL     OW32827   1.014   3.274   7.114 -0.7903 -0.3655  0.0803
 7122SOL    HW132828   0.940   3.276   7.175  0.0632  0.0469  1.0886
 7122SOL    HW232829   1.008   3.183   7.083 -1.4327 -0.5192  0.6466
 7123SOL     OW32830   0.142   0.001   5.032 -0.2383 -0.0947  0.5100
 7123SOL    HW132831   0.116   4.699   5.121  0.4682  1.7545  1.2276
 7123SOL    HW232832   0.070   4.685   4.982  0.2688  1.2198 -1.2457
 7124SOL     OW32833   1.399   0.747  12.675 -0.0326 -0.2838 -0.2452
 7124SOL    HW132834   1.393   0.809  12.602  1.3922 -1.2450 -1.1786
 7124SOL    HW232835   1.310   0.715  12.691 -0.7301  1.2861 -0.9649
 7125SOL     OW32836   2.114   1.764   5.009  0.3693 -0.4996 -0.5042
 7125SOL    HW132837   2.087   1.727   4.925  0.0052 -1.8996  0.2344
 7125SOL    HW232838   2.043   1.826   5.026  1.0499  0.1178  0.0782
 7126SOL     OW32839   0.515   2.139   1.223 -0.7780  0.1248 -0.2045
 7126SOL    HW132840   0.470   2.144   1.308 -1.4504 -1.7732 -0.4383
 7126SOL    HW232841   0.567   2.219   1.216  1.2497 -1.0984  0.8889
 7127SOL     OW32842   3.160   1.236   2.657 -0.2380 -0.1698 -0.0599
 7127SOL    HW132843   3.072   1.273   2.665 -0.0951 -0.0699  0.9790
 7127SOL    HW232844   3.150   1.148   2.691  0.5341 -0.9834 -1.9630
 7128SOL     OW32845   3.973   1.212  10.753 -0.4287 -0.1167  0.1633
 7128SOL    HW132846   4.045   1.195  10.813  1.3487  2.9194 -1.1213
 7128SOL    HW232847   3.923   1.257  10.820 -3.2507 -2.4889 -0.3282
 7129SOL     OW32848   0.722   3.729   9.135 -0.1495  0.4324 -0.0853
 7129SOL    HW132849   0.712   3.824   9.129  0.6390  0.5093 -0.1418
 7129SOL    HW232850   0.815   3.721   9.117  0.2455  2.8312  1.0054
 7130SOL     OW32851   2.864   0.662   4.459 -0.5099  0.4141 -0.1461
 7130SOL    HW132852   2.869   0.625   4.371  2.3986 -4.2062  1.9529
 7130SOL    HW232853   2.902   0.592   4.512  0.3242  2.0239  1.3907
 7131SOL     OW32854   1.688   1.821  16.853 -0.1122 -0.1852 -0.3170
 7131SOL    HW132855   1.683   1.881  16.779 -0.8940  1.6141  1.1836
 7131SOL    HW232856   1.595   1.797  16.856  0.1647 -1.1355  0.5115
 7132SOL     OW32857   3.428   3.191   8.318  0.2462  0.2662  0.2238
 7132SOL    HW132858   3.395   3.163   8.232 -0.9625 -0.1325  0.8113
 7132SOL    HW232859   3.482   3.114   8.337  0.8335  1.3496  2.9211
 7133SOL     OW32860   2.389   3.454   7.746 -0.6240  0.4653  0.3900
 7133SOL    HW132861   2.410   3.484   7.658  0.8677  1.8432  1.2272
 7133SOL    HW232862   2.404   3.534   7.796 -2.1725  0.9878  0.0071
 7134SOL     OW32863   1.717   0.034   6.881  0.1625  0.6594  0.1282
 7134SOL    HW132864   1.756   4.698   6.946 -1.8698 -1.6564 -0.7010
 7134SOL    HW232865   1.739   0.117   6.923 -0.4524  0.4360  0.8936
 7135SOL     OW32866   4.406   4.153   1.409 -0.3328  0.5435 -0.4614
 7135SOL    HW132867   4.450   4.153   1.494  0.9130 -0.9078 -1.1121
 7135SOL    HW232868   4.446   4.228   1.363 -1.3570  1.6831  0.4959
 7136SOL     OW32869   0.354   3.315   6.301 -0.3288  0.2442  0.5666
 7136SOL    HW132870   0.341   3.228   6.263 -0.8102  0.6397 -0.1713
 7136SOL    HW232871   0.365   3.369   6.223 -0.9756 -1.3302 -0.6185
 7137SOL     OW32872   4.390   3.904   0.293  0.4467 -0.0118  0.3439
 7137SOL    HW132873   4.369   3.865   0.208 -2.3384  0.0310  1.0401
 7137SOL    HW232874   4.373   3.826   0.346 -0.1124 -0.3439 -0.3234
 7138SOL     OW32875   2.868   0.768   5.147  0.4185 -0.1977 -0.3410
 7138SOL    HW132876   2.895   0.686   5.106  0.1491 -0.1822 -0.5501
 7138SOL    HW232877   2.951   0.784   5.192  1.3390  0.4046 -2.2381
 7139SOL     OW32878   2.118   3.466   3.818 -0.0520 -0.4480  0.1861
 7139SOL    HW132879   2.186   3.450   3.752 -1.7602  0.4252 -1.7621
 7139SOL    HW232880   2.151   3.414   3.891 -4.4298 -1.9893  1.0210
 7140SOL     OW32881   2.875   1.996   7.295  0.6028 -0.4766  0.0473
 7140SOL    HW132882   2.830   2.012   7.212 -1.9850 -1.7900  1.2096
 7140SOL    HW232883   2.936   2.070   7.297 -0.2834  0.2745 -0.8606
 7141SOL     OW32884   1.008   1.213   5.794 -0.4753 -0.3043  0.0708
 7141SOL    HW132885   0.969   1.299   5.779 -1.4956 -0.5444  1.3454
 7141SOL    HW232886   0.965   1.158   5.729  0.7430  0.0658 -1.0622
 7142SOL     OW32887   3.622   4.691   7.256  0.3575 -0.1741  0.2396
 7142SOL    HW132888   3.576   0.038   7.209  0.8158  1.0297  1.5607
 7142SOL    HW232889   3.575   4.696   7.339 -0.7379 -1.1418 -0.3247
 7143SOL     OW32890   3.174   1.042   5.331 -0.8328 -0.0954  0.4551
 7143SOL    HW132891   3.157   1.114   5.391 -4.0034 -2.5199  2.4722
 7143SOL    HW232892   3.164   1.077   5.243  0.1354 -1.2968 -0.1314
 7144SOL     OW32893   3.441   3.350   7.589 -0.3589 -0.2313 -0.4465
 7144SOL    HW132894   3.513   3.365   7.651 -0.5059 -1.0368 -0.0897
 7144SOL    HW232895   3.409   3.266   7.620 -1.1401 -0.8474 -2.9181
 7145SOL     OW32896   0.922   4.309   7.981  0.0123 -0.4682 -0.3003
 7145SOL    HW132897   0.978   4.378   7.945  1.1263 -2.1166 -1.7426
 7145SOL    HW232898   0.905   4.341   8.070 -0.4681 -1.5528 -0.0011
 7146SOL     OW32899   1.787   1.230   6.045  0.5915 -0.0305  0.6477
 7146SOL    HW132900   1.845   1.194   6.113 -1.9786 -2.0744  1.7508
 7146SOL    HW232901   1.706   1.181   6.061  1.1972 -1.7615 -1.5111
 7147SOL     OW32902   2.353   0.728  14.596  0.6916  0.2486 -0.2179
 7147SOL    HW132903   2.380   0.795  14.533 -1.7027  0.3086 -1.1887
 7147SOL    HW232904   2.303   0.673  14.536 -1.0254  1.8187 -0.2028
 7148SOL     OW32905   1.930   3.359  10.138 -0.3317 -0.6480 -0.0502
 7148SOL    HW132906   1.918   3.454  10.136 -1.3190 -0.7889 -1.5184
 7148SOL    HW232907   1.894   3.338  10.224 -3.3558  0.5227 -1.0266
 7149SOL     OW32908   3.030   3.715   4.216  0.1089 -0.3347  0.0621
 7149SOL    HW132909   3.106   3.771   4.199 -0.1278 -0.0904 -0.1991
 7149SOL    HW232910   2.992   3.753   4.295  1.3801 -0.5960  0.7926
 7150SOL     OW32911   0.107   3.459   3.600  0.4670  0.2355 -0.0457
 7150SOL    HW132912   0.196   3.464   3.564  1.5972 -0.4378  2.6206
 7150SOL    HW232913   0.129   3.463   3.694 -2.6882 -6.1917  0.9441
 7151SOL     OW32914   1.941   3.469  15.513  0.1745 -0.4625 -0.5513
 7151SOL    HW132915   1.966   3.463  15.421  1.3104  1.2649 -0.3529
 7151SOL    HW232916   1.951   3.376  15.536 -0.2496  0.2750  2.5637
 7152SOL     OW32917   4.292   0.711   6.234 -0.0617 -0.0790 -0.6934
 7152SOL    HW132918   4.254   0.761   6.306 -0.2363 -1.1000 -0.0698
 7152SOL    HW232919   4.373   0.761   6.223  0.4139 -1.1761 -2.0819
 7153SOL     OW32920   2.077   1.477   9.050 -0.1415 -0.4453  0.3366
 7153SOL    HW132921   1.984   1.462   9.033 -0.1668 -0.1688  0.2172
 7153SOL    HW232922   2.068   1.568   9.080  0.0477 -0.6036  0.8688
 7154SOL     OW32923   4.711   0.525  17.081  0.2499  0.0295 -0.1235
 7154SOL    HW132924   4.657   0.583  17.026  0.8245  0.0918 -0.6201
 7154SOL    HW232925   4.695   0.567  17.165 -0.6157 -0.3099 -0.1161
 7155SOL     OW32926   1.390   0.883   5.598  0.2309 -0.6455  0.0504
 7155SOL    HW132927   1.332   0.948   5.638 -2.0733 -1.1030 -2.5662
 7155SOL    HW232928   1.473   0.919   5.631  0.8006  0.2656 -2.3376
 7156SOL     OW32929   1.877   3.668   8.282 -0.6172  0.2573 -0.3013
 7156SOL    HW132930   1.870   3.594   8.343  1.7860  0.1978 -0.1014
 7156SOL    HW232931   1.903   3.741   8.338  0.2562 -0.2039 -0.1073
 7157SOL     OW32932   3.508   2.642   5.830  0.5425  0.3174  0.0498
 7157SOL    HW132933   3.511   2.557   5.873 -1.7944  0.0576 -0.2541
 7157SOL    HW232934   3.601   2.655   5.811  0.4368  0.3724 -0.4467
 7158SOL     OW32935   0.662   0.942   0.049  0.1335 -0.9180  0.2180
 7158SOL    HW132936   0.705   0.982   0.124  0.8365 -0.4080 -0.4458
 7158SOL    HW232937   0.631   0.862   0.091  1.5209 -1.6450 -0.1207
 7159SOL     OW32938   1.312   4.493   9.638  0.4325  0.5600 -0.5817
 7159SOL    HW132939   1.286   4.585   9.635  0.0966  0.4135 -2.5599
 7159SOL    HW232940   1.395   4.486   9.686  0.4545  1.8294 -0.4394
 7160SOL     OW32941   1.380   1.239   5.407 -0.3170 -0.0751  0.2489
 7160SOL    HW132942   1.358   1.332   5.396  1.0877  0.0425 -1.5847
 7160SOL    HW232943   1.454   1.233   5.346  1.4453 -0.3279  2.3905
 7161SOL     OW32944   3.103   0.649   8.240  0.0171  0.5307  0.1449
 7161SOL    HW132945   3.123   0.733   8.280 -0.5178 -0.0223  1.5930
 7161SOL    HW232946   3.194   0.621   8.237  0.4458  2.0707 -1.6090
 7162SOL     OW32947   3.087   4.311  14.394  0.0337 -0.1710 -0.1720
 7162SOL    HW132948   3.145   4.270  14.330 -1.1611  0.1825 -1.4539
 7162SOL    HW232949   3.012   4.332  14.339 -1.0661 -0.6927  1.1205
 7163SOL     OW32950   0.957   3.109   6.554 -0.0070  0.0948  0.0360
 7163SOL    HW132951   0.891   3.057   6.599 -0.4582  0.7860  0.1795
 7163SOL    HW232952   0.936   3.096   6.462 -0.1896  1.8472 -0.1864
 7164SOL     OW32953   3.862   4.542  16.715 -0.4052  0.1994  0.1716
 7164SOL    HW132954   3.794   4.598  16.754 -0.4148  0.2228  0.1218
 7164SOL    HW232955   3.931   4.550  16.780  0.2235  0.5485 -0.5371
 7165SOL     OW32956   2.738   4.446   8.080  0.0193 -0.7866 -0.2827
 7165SOL    HW132957   2.729   4.365   8.029  0.1712  0.3373 -2.1031
 7165SOL    HW232958   2.761   4.412   8.166 -2.5672  0.4841  0.9070
 7166SOL     OW32959   1.811   3.890   4.472 -0.4650 -0.3699 -0.0838
 7166SOL    HW132960   1.715   3.887   4.468 -0.4271 -0.6872 -0.8376
 7166SOL    HW232961   1.835   3.801   4.496 -1.7214  0.2244  3.2709
 7167SOL     OW32962   2.565   3.529  16.143  0.3885  0.1259  0.4975
 7167SOL    HW132963   2.536   3.501  16.057 -5.3680 -1.7857  3.0266
 7167SOL    HW232964   2.639   3.585  16.120  1.2381 -0.7875  0.9801
 7168SOL     OW32965   1.574   2.276   5.248  0.5896 -0.5505 -0.3098
 7168SOL    HW132966   1.620   2.221   5.185  0.5747  0.2627 -1.0301
 7168SOL    HW232967   1.636   2.341   5.280 -0.2300 -0.3147  0.8174
 7169SOL     OW32968   4.107   1.650  16.225  0.2297  0.6235  0.3564
 7169SOL    HW132969   4.157   1.714  16.276 -0.8506  2.2613 -0.6341
 7169SOL    HW232970   4.171   1.644  16.155  0.8867  0.0720  1.0144
 7170SOL     OW32971   0.595   0.677   6.715  0.4628 -0.4424  0.4858
 7170SOL    HW132972   0.556   0.716   6.637  2.2719 -0.9047 -0.6539
 7170SOL    HW232973   0.524   0.669   6.779  0.5149 -0.2862  0.5660
 7171SOL     OW32974   3.659   1.444   2.987 -0.0812 -0.3634  0.3368
 7171SOL    HW132975   3.661   1.539   2.993  2.1798 -0.3459 -1.0354
 7171SOL    HW232976   3.749   1.429   2.958 -0.3279 -0.8655 -0.1772
 7172SOL     OW32977   0.930   1.945  15.331 -0.1408  0.1329  0.5879
 7172SOL    HW132978   1.020   1.946  15.365  0.4948 -1.1197 -1.0777
 7172SOL    HW232979   0.883   1.969  15.411 -0.7760 -1.0260  0.5609
 7173SOL     OW32980   3.705   3.965   2.569 -0.4316 -0.1976  0.4830
 7173SOL    HW132981   3.696   4.055   2.599 -0.8976 -0.8783  2.4262
 7173SOL    HW232982   3.735   3.937   2.656 -2.1330  0.7418  1.3773
 7174SOL     OW32983   1.127   2.036   4.260 -0.2811  0.4392  0.2441
 7174SOL    HW132984   1.137   2.017   4.353  2.8459  1.3579  0.0996
 7174SOL    HW232985   1.173   2.119   4.252 -1.2947  0.9029 -0.8095
 7175SOL     OW32986   2.073   3.700   4.676 -0.3344  0.5650  0.1411
 7175SOL    HW132987   2.042   3.785   4.707 -1.3854 -0.3586  1.6495
 7175SOL    HW232988   2.123   3.659   4.747 -1.4862  1.1229  1.2819
 7176SOL     OW32989   2.717   0.081   4.760 -0.4831 -0.2968  0.3766
 7176SOL    HW132990   2.661   0.158   4.754 -0.4923 -0.7373 -4.6833
 7176SOL    HW232991   2.701   0.040   4.675 -0.4012 -0.9730  0.6826
 7177SOL     OW32992   3.885   3.249  13.810 -0.3698  0.5159  0.0860
 7177SOL    HW132993   3.916   3.338  13.829 -2.3956  1.0287  0.8915
 7177SOL    HW232994   3.794   3.262  13.833 -0.5857 -1.7400  0.4333
 7178SOL     OW32995   4.230   1.748  11.132 -0.1512 -0.4969 -0.6066
 7178SOL    HW132996   4.216   1.825  11.187  1.2479 -1.3580  0.9306
 7178SOL    HW232997   4.276   1.701  11.201  0.3159  0.9456  0.0626
 7179SOL     OW32998   0.224   3.949   3.194 -1.0325 -0.2489  0.2080
 7179SOL    HW132999   0.212   4.041   3.218 -0.4048 -0.5467  1.6935
 7179SOL    HW233000   0.154   3.940   3.129 -3.0736 -0.0671  2.3578
 7180SOL     OW33001   1.667   3.497   6.970  0.1607 -0.2005 -0.8546
 7180SOL    HW133002   1.652   3.587   6.998  1.0631  0.0954 -1.3074
 7180SOL    HW233003   1.596   3.450   7.014 -0.2426  1.4725  0.2671
 7181SOL     OW33004   1.366   1.156   6.923 -0.3929  0.2861 -0.1515
 7181SOL    HW133005   1.419   1.146   7.002  0.9095  1.6135 -0.8648
 7181SOL    HW233006   1.316   1.075   6.932  2.8191 -1.6615 -0.0373
 7182SOL     OW33007   2.450   0.985  12.585 -0.4086 -0.2167  0.1362
 7182SOL    HW133008   2.478   1.069  12.547 -1.8291  0.2924  0.1939
 7182SOL    HW233009   2.401   1.017  12.660  1.0660  2.1998  0.1058
 7183SOL     OW33010   1.725   0.312   6.930 -0.3266 -0.1020 -0.1633
 7183SOL    HW133011   1.778   0.383   6.965  0.3193 -0.8565  0.3910
 7183SOL    HW233012   1.642   0.342   6.965  0.8088  0.9634  1.5689
 7184SOL     OW33013   2.620   1.468  17.534  0.0494 -0.2438 -0.4735
 7184SOL    HW133014   2.605   1.464  17.439 -1.7923 -0.8579 -0.1506
 7184SOL    HW233015   2.641   1.376  17.550  0.4725 -0.3550 -1.6812
 7185SOL     OW33016   4.173   1.402   6.663 -0.0045  0.2001  0.3097
 7185SOL    HW133017   4.204   1.395   6.572  1.7451 -0.2859  0.9343
 7185SOL    HW233018   4.197   1.319   6.705 -1.2730 -0.6454 -0.6359
 7186SOL     OW33019   1.798   2.206   0.470 -0.5767  0.2327 -0.2991
 7186SOL    HW133020   1.761   2.119   0.458 -2.2716  0.9526 -0.2360
 7186SOL    HW233021   1.781   2.226   0.561  1.2710 -1.8420  0.5180
 7187SOL     OW33022   0.333   3.173   4.289  0.3372 -0.1841 -0.7961
 7187SOL    HW133023   0.377   3.228   4.225  0.4270 -0.5799 -1.0738
 7187SOL    HW233024   0.400   3.175   4.357 -1.3254 -0.9334  0.8508
 7188SOL     OW33025   2.482   2.018  11.718  0.3871  0.2242 -0.0377
 7188SOL    HW133026   2.520   2.098  11.682 -2.2917  1.4378 -0.1077
 7188SOL    HW233027   2.484   1.962  11.640  1.5564 -1.3030  1.0942
 7189SOL     OW33028   2.995   0.549  10.415 -0.7023  0.2999 -0.2232
 7189SOL    HW133029   3.011   0.456  10.434 -3.0431  0.0618  0.5529
 7189SOL    HW233030   3.022   0.556  10.324 -0.5725  0.8912 -0.1354
 7190SOL     OW33031   2.291   3.684   4.845  0.5124 -0.2482  0.0884
 7190SOL    HW133032   2.354   3.650   4.908  1.6051  2.9700  0.7293
 7190SOL    HW233033   2.329   3.771   4.833  1.4067 -0.7213 -0.5633
 7191SOL     OW33034   1.957   2.540   5.394 -0.4435 -0.2336 -0.0713
 7191SOL    HW133035   1.986   2.632   5.396  1.1711 -0.7960  2.0943
 7191SOL    HW233036   2.037   2.491   5.376  0.9881  1.9916  0.2790
 7192SOL     OW33037   2.431   0.114   6.373 -0.0391 -0.2739 -0.1194
 7192SOL    HW133038   2.474   0.175   6.314 -0.6209 -0.5306 -0.7997
 7192SOL    HW233039   2.424   0.039   6.314  0.4952 -1.5713  1.4420
 7193SOL     OW33040   1.157   4.248   8.777 -0.5583 -0.1806  0.2848
 7193SOL    HW133041   1.084   4.233   8.837 -0.2693  0.1862  0.7254
 7193SOL    HW233042   1.228   4.231   8.838  0.5029  0.4414 -0.7811
 7194SOL     OW33043   0.874   0.877   8.461 -0.3127 -0.8805  0.4016
 7194SOL    HW133044   0.785   0.886   8.429 -1.0290 -1.6086  2.2190
 7194SOL    HW233045   0.909   0.966   8.466 -3.0124  0.1731  0.4150
 7195SOL     OW33046   1.702   3.679   7.868 -0.4468 -0.1169 -0.3106
 7195SOL    HW133047   1.785   3.727   7.864 -0.3606 -0.4381 -2.6391
 7195SOL    HW233048   1.713   3.618   7.940 -0.4574  0.8978  0.5526
 7196SOL     OW33049   4.317   1.126   6.622  0.3179  0.1092 -0.2934
 7196SOL    HW133050   4.230   1.101   6.589  0.9522 -3.2549  0.5428
 7196SOL    HW233051   4.360   1.042   6.640  1.4379  0.4607 -1.3020
 7197SOL     OW33052   3.087   0.206  14.255 -0.2122  0.0039 -0.2653
 7197SOL    HW133053   3.103   0.114  14.276  0.9476  0.0739 -0.8423
 7197SOL    HW233054   3.167   0.253  14.280 -0.2323  0.2795 -0.7183
 7198SOL     OW33055   2.130   3.614   4.126 -0.1960 -0.2559  0.1661
 7198SOL    HW133056   2.170   3.587   4.043 -1.0564 -1.4699  0.1434
 7198SOL    HW233057   2.173   3.695   4.152 -0.7757  0.9929 -2.8049
 7199SOL     OW33058   1.862   1.644   1.075 -0.4269  0.2848  0.3090
 7199SOL    HW133059   1.788   1.701   1.053  2.3225  3.1388 -1.6333
 7199SOL    HW233060   1.852   1.619   1.167 -2.0143 -0.4343 -0.0726
 7200SOL     OW33061   2.957   3.788   5.488  0.3169 -0.1512  0.0821
 7200SOL    HW133062   3.006   3.820   5.564  1.3706 -1.0069 -0.2347
 7200SOL    HW233063   3.029   3.789   5.425  0.4583  0.8435  0.2707
 7201SOL     OW33064   0.992   4.618   5.398 -0.3754  0.2348  0.1212
 7201SOL    HW133065   0.957   4.623   5.309  0.1716 -0.5989 -0.1427
 7201SOL    HW233066   1.069   4.674   5.393 -0.9123  1.0937  1.8106
 7202SOL     OW33067   2.350   0.923  14.402 -0.3065 -0.5925 -0.5382
 7202SOL    HW133068   2.405   0.997  14.375  0.0110 -0.6468 -0.0458
 7202SOL    HW233069   2.321   0.904  14.312 -1.5196 -1.2139 -0.0050
 7203SOL     OW33070   4.282   4.511   8.797 -0.1535  0.0260  0.2997
 7203SOL    HW133071   4.276   4.592   8.747 -1.3385 -0.9145 -1.0672
 7203SOL    HW233072   4.251   4.525   8.887  1.2165  0.2562  0.7306
 7204SOL     OW33073   1.583   1.976   0.510 -0.5148 -0.4145  1.0440
 7204SOL    HW133074   1.642   1.997   0.582  0.9280 -0.8552 -0.0061
 7204SOL    HW233075   1.515   1.926   0.554 -1.4979 -0.3029 -0.3426
 7205SOL     OW33076   1.556   4.433   4.028  0.8392  0.6298  0.0308
 7205SOL    HW133077   1.612   4.357   4.043 -1.8141 -1.5118 -0.9313
 7205SOL    HW233078   1.574   4.448   3.935  1.0441 -0.3919 -0.0900
 7206SOL     OW33079   3.431   0.537   4.919 -0.0419  0.4560  0.3371
 7206SOL    HW133080   3.410   0.486   4.997  0.9389 -1.1053 -0.4228
 7206SOL    HW233081   3.414   0.468   4.856  2.2882 -0.1549  0.3999
 7207SOL     OW33082   2.881   4.494   9.269 -0.1518 -0.9172 -0.6379
 7207SOL    HW133083   2.943   4.549   9.317  1.2401 -2.8776 -0.1943
 7207SOL    HW233084   2.899   4.525   9.180  3.0570 -0.9201  0.0304
 7208SOL     OW33085   2.441   1.026   7.609 -0.3623  0.4557  0.4379
 7208SOL    HW133086   2.515   0.980   7.649  0.7825  0.4353 -1.6911
 7208SOL    HW233087   2.396   1.059   7.687  0.6128  3.5636 -0.3378
 7209SOL     OW33088   2.333   4.606   3.422  0.4704 -0.9289  0.3331
 7209SOL    HW133089   2.280   4.682   3.399  0.3845 -0.9015  0.6279
 7209SOL    HW233090   2.420   4.637   3.397  0.8617 -1.6769  0.7605
 7210SOL     OW33091   4.597   1.969   8.621 -0.6112 -0.6348  0.7443
 7210SOL    HW133092   4.677   2.003   8.580 -0.4996 -0.1621  1.3529
 7210SOL    HW233093   4.636   1.924   8.695 -1.0004 -1.1389  0.6402
 7211SOL     OW33094   3.584   4.624  13.601  0.0142  0.5496  0.3614
 7211SOL    HW133095   3.645   4.628  13.527 -2.6826 -0.2704 -1.8903
 7211SOL    HW233096   3.614   4.687  13.666 -1.8842  2.8980 -1.0448
 7212SOL     OW33097   0.692   3.837   6.646 -0.6832  0.5992  0.0973
 7212SOL    HW133098   0.640   3.819   6.568 -0.5353  0.9045 -0.0742
 7212SOL    HW233099   0.657   3.767   6.701  0.3557  0.8492  1.0694
 7213SOL     OW33100   3.658   1.203   2.154  0.4738 -0.6250  0.1140
 7213SOL    HW133101   3.581   1.175   2.104 -0.7659  1.8259  0.6322
 7213SOL    HW233102   3.651   1.296   2.133 -0.9479 -0.9525 -0.8872
 7214SOL     OW33103   1.799   3.516  11.683 -0.3393  0.2149  0.0216
 7214SOL    HW133104   1.784   3.428  11.716  0.4022  0.1737  0.2600
 7214SOL    HW233105   1.818   3.558  11.767 -2.3297 -1.9910  1.5326
 7215SOL     OW33106   2.147   4.190   6.599 -0.2968 -0.7832 -0.5842
 7215SOL    HW133107   2.084   4.204   6.528  0.3020  0.0222 -0.9548
 7215SOL    HW233108   2.127   4.098   6.615 -0.9493 -0.6656 -0.7258
 7216SOL     OW33109   1.596   2.230   1.715 -0.5023 -0.2964 -0.3473
 7216SOL    HW133110   1.610   2.136   1.707 -2.6012 -0.5204 -1.2774
 7216SOL    HW233111   1.643   2.245   1.798  0.6122  0.9913 -1.2065
 7217SOL     OW33112   4.086   1.305   7.926  0.1500  0.1746 -0.4585
 7217SOL    HW133113   4.107   1.230   7.981 -1.5550 -1.1577 -1.6169
 7217SOL    HW233114   4.014   1.268   7.875  0.1431  0.1527 -0.4326
 7218SOL     OW33115   4.277   3.883   4.309  0.6757 -0.4019  0.1489
 7218SOL    HW133116   4.371   3.894   4.324  0.1999  1.8143  1.5645
 7218SOL    HW233117   4.258   3.976   4.322  1.8957 -0.1824  0.3618
 7219SOL     OW33118   3.065   2.847  15.093  0.2212  0.0932 -0.1875
 7219SOL    HW133119   3.019   2.910  15.038 -0.8962 -0.9182 -0.4165
 7219SOL    HW233120   3.151   2.884  15.112  1.3892 -1.2405 -2.9337
 7220SOL     OW33121   3.357   2.432   4.721 -0.8322 -0.2359  0.3547
 7220SOL    HW133122   3.389   2.482   4.796  1.8720  0.8463 -1.5066
 7220SOL    HW233123   3.385   2.495   4.655 -0.5771  1.2177  1.8554
 7221SOL     OW33124   2.897   0.243   7.828  0.1547 -0.0109  0.6001
 7221SOL    HW133125   2.889   0.154   7.862  0.8170 -1.4560 -2.9984
 7221SOL    HW233126   2.946   0.231   7.747 -0.9488  0.6511 -0.1738
 7222SOL     OW33127   2.470   4.272  15.321  0.1789  1.1633 -0.4884
 7222SOL    HW133128   2.470   4.177  15.334  0.8045  1.1293 -0.6956
 7222SOL    HW233129   2.545   4.310  15.367  0.8000 -0.6459 -0.0348
 7223SOL     OW33130   0.750   0.817   2.851 -0.1598 -0.4849  0.2917
 7223SOL    HW133131   0.821   0.764   2.815 -0.0003  0.4571 -0.7829
 7223SOL    HW233132   0.673   0.764   2.829 -1.3277  1.2839  0.1239
 7224SOL     OW33133   3.556   2.041   2.913 -0.3059  0.2715 -0.1952
 7224SOL    HW133134   3.608   2.036   2.833 -1.4684  2.1158 -1.0482
 7224SOL    HW233135   3.493   2.108   2.888 -3.8437 -2.3696  1.6932
 7225SOL     OW33136   3.955   3.697   4.461  0.0636  0.1006  0.1913
 7225SOL    HW133137   3.873   3.715   4.507  0.5880  1.7937  0.4564
 7225SOL    HW233138   4.013   3.739   4.525  0.5316  0.3130 -0.3715
 7226SOL     OW33139   4.247   2.008  16.216  0.2545 -0.3168 -0.6662
 7226SOL    HW133140   4.269   1.937  16.276 -0.0935 -1.2227 -1.6059
 7226SOL    HW233141   4.330   2.023  16.171  0.7263 -0.9156  0.0159
 7227SOL     OW33142   1.531   3.211  10.791 -0.2026 -0.0979 -0.2106
 7227SOL    HW133143   1.599   3.146  10.808 -0.7451 -0.9970 -1.4553
 7227SOL    HW233144   1.570   3.288  10.833  1.4918 -1.1567  0.1345
 7228SOL     OW33145   3.219   0.213   2.155 -0.1546 -0.1426  0.3461
 7228SOL    HW133146   3.211   0.118   2.161 -1.2504 -0.0758  0.0776
 7228SOL    HW233147   3.127   0.233   2.135 -0.0737 -0.8131 -0.6836
 7229SOL     OW33148   0.320   4.493   1.812  0.3004  0.2810  0.3595
 7229SOL    HW133149   0.382   4.531   1.874 -1.3894  0.2401  2.0567
 7229SOL    HW233150   0.384   4.441   1.762 -0.7970 -2.1337  1.4790
 7230SOL     OW33151   0.458   2.233  10.207 -0.2627  0.0486 -0.1212
 7230SOL    HW133152   0.442   2.152  10.158 -1.7535  0.0395  0.3817
 7230SOL    HW233153   0.369   2.267  10.199  0.0323  1.2466  1.6472
 7231SOL     OW33154   2.663   3.349   3.529  0.2168 -0.2213  0.4359
 7231SOL    HW133155   2.725   3.397   3.584 -0.1295  1.8161 -0.9721
 7231SOL    HW233156   2.703   3.264   3.513  1.9022  0.9946 -1.8122
 7232SOL     OW33157   0.113   2.094  12.828  0.2926  0.1531  0.0227
 7232SOL    HW133158   0.136   2.002  12.814  0.5257  0.1604  0.3551
 7232SOL    HW233159   0.145   2.139  12.750  0.2922 -1.2812 -0.7974
 7233SOL     OW33160   4.010   1.550   4.461  0.2355 -0.6181  0.4342
 7233SOL    HW133161   4.051   1.593   4.535 -2.4883  2.7229 -0.0227
 7233SOL    HW233162   4.012   1.623   4.399 -3.5249  0.4496  1.6055
 7234SOL     OW33163   0.472   2.691   5.927  0.6976 -0.0061  0.2301
 7234SOL    HW133164   0.551   2.692   5.981  0.5055 -1.6786  0.5276
 7234SOL    HW233165   0.480   2.783   5.901  1.0331  0.2060  1.0675
 7235SOL     OW33166   4.030   1.307  14.929  0.3998  0.1463 -0.0856
 7235SOL    HW133167   4.010   1.215  14.944  1.5088  0.3152  2.3839
 7235SOL    HW233168   4.056   1.345  15.013  0.2214  0.2944 -0.0989
 7236SOL     OW33169   1.466   0.870   1.678 -0.0049  0.0557 -0.0599
 7236SOL    HW133170   1.387   0.883   1.730 -0.9360  1.4130 -1.8339
 7236SOL    HW233171   1.529   0.884   1.749  0.0687  0.2397 -0.1617
 7237SOL     OW33172   1.115   3.702  16.374 -0.3739  0.1732  0.1227
 7237SOL    HW133173   1.028   3.702  16.414 -0.4799 -0.5191 -0.1054
 7237SOL    HW233174   1.103   3.772  16.310  2.9822 -0.3434 -1.0599
 7238SOL     OW33175   0.058   2.329  14.315 -0.2710  0.1457  0.1995
 7238SOL    HW133176   0.051   2.234  14.314  3.0768 -0.1046  2.0016
 7238SOL    HW233177   0.150   2.348  14.336  1.0449 -2.2323 -3.5111
 7239SOL     OW33178   2.227   4.446   7.165 -0.3674  0.5290 -0.7769
 7239SOL    HW133179   2.253   4.493   7.244  0.9235 -0.8278 -0.3766
 7239SOL    HW233180   2.304   4.461   7.109  1.4817 -0.2114  1.5341
 7240SOL     OW33181   3.152   3.019   5.566 -0.6486  0.1835 -0.1553
 7240SOL    HW133182   3.225   3.076   5.542 -0.9530 -0.0882 -1.6727
 7240SOL    HW233183   3.082   3.046   5.507  1.4706  1.4469 -2.0759
 7241SOL     OW33184   4.039   0.728  16.500  0.0931 -0.4555  0.0335
 7241SOL    HW133185   3.998   0.682  16.574  1.3906  1.2933  1.8408
 7241SOL    HW233186   4.099   0.792  16.538  0.9915 -2.1336  1.4451
 7242SOL     OW33187   0.055   0.075  11.175  0.6778  0.4623  0.1634
 7242SOL    HW133188   0.097   0.065  11.089  3.1875  1.2076  1.2946
 7242SOL    HW233189   0.008   0.158  11.162 -3.9555 -2.2236 -0.1719
 7243SOL     OW33190   2.771   1.833  17.089 -0.5141 -0.5567  0.3742
 7243SOL    HW133191   2.829   1.907  17.108  0.9858 -1.9887  1.3764
 7243SOL    HW233192   2.817   1.810  17.009  2.4068  1.1148  1.5547
 7244SOL     OW33193   1.541   1.943   8.265  0.2388 -0.3191  0.2364
 7244SOL    HW133194   1.569   2.003   8.335  2.3788 -1.1153  0.0544
 7244SOL    HW233195   1.516   1.870   8.322  1.3966  1.4670  3.0138
 7245SOL     OW33196   4.717   3.647   1.056 -0.1048  0.0847 -0.1061
 7245SOL    HW133197   4.712   3.707   1.131  2.8860  0.0447  0.1418
 7245SOL    HW233198   4.628   3.617   1.073  0.2677 -0.9005  0.1088
 7246SOL     OW33199   3.916   2.022   4.679 -0.5606  0.1972  0.4567
 7246SOL    HW133200   3.855   2.081   4.635  1.6578  1.1914 -1.2687
 7246SOL    HW233201   3.981   2.004   4.611 -1.2643  1.6246 -0.5947
 7247SOL     OW33202   2.962   2.501   2.262 -0.3813  0.6701 -0.1974
 7247SOL    HW133203   2.950   2.479   2.169 -2.2969 -2.6803  0.8244
 7247SOL    HW233204   2.997   2.421   2.300  0.0079 -0.0197 -1.9751
 7248SOL     OW33205   0.010   3.034   4.557 -0.1780 -0.0540  0.4190
 7248SOL    HW133206   0.080   2.971   4.577  0.9071  0.1988 -2.5989
 7248SOL    HW233207   0.027   3.070   4.470  0.4987 -2.1630 -0.3247
 7249SOL     OW33208   2.120   3.835   8.230 -0.4643  0.1659 -0.7767
 7249SOL    HW133209   2.118   3.750   8.186 -1.7630 -1.3517  2.2131
 7249SOL    HW233210   2.178   3.816   8.303 -0.5703 -1.5555 -1.1346
 7250SOL     OW33211   0.829   3.195   9.047 -0.2016 -0.0222 -0.3565
 7250SOL    HW133212   0.738   3.224   9.042  0.0775  0.9971  0.3828
 7250SOL    HW233213   0.876   3.260   8.994  1.3317 -1.0643 -0.2683
 7251SOL     OW33214   1.565   0.253  10.266  0.5695 -0.2596 -0.3858
 7251SOL    HW133215   1.596   0.286  10.182 -0.2464  3.1238  0.6351
 7251SOL    HW233216   1.596   0.334  10.306  0.8397 -0.2065 -0.7031
 7252SOL     OW33217   1.560   1.421   5.956 -0.3243 -0.0442 -0.5142
 7252SOL    HW133218   1.622   1.366   6.003 -2.3174 -3.0314 -1.4190
 7252SOL    HW233219   1.593   1.415   5.866 -0.0820 -0.1675 -0.4186
 7253SOL     OW33220   3.150   2.839  13.442 -0.5431 -0.0627 -0.0552
 7253SOL    HW133221   3.156   2.806  13.352 -2.1381  1.7889 -0.8377
 7253SOL    HW233222   3.079   2.782  13.473 -0.0131 -1.3887 -1.2367
 7254SOL     OW33223   4.673   4.085   3.283  0.1941 -0.3315 -0.0937
 7254SOL    HW133224   4.647   3.993   3.286  0.6875 -0.4173  1.3900
 7254SOL    HW233225   4.624   4.114   3.206 -0.7239 -2.2486 -0.2319
 7255SOL     OW33226   0.535   0.973   5.101 -0.4471  0.4259 -0.0529
 7255SOL    HW133227   0.530   0.889   5.055 -3.4023  0.7722 -0.3138
 7255SOL    HW233228   0.493   0.941   5.181 -0.3578 -1.4919 -0.7565
 7256SOL     OW33229   2.786   1.321  15.352  0.2141  0.2332  0.0460
 7256SOL    HW133230   2.695   1.324  15.322  0.0006  0.7046  0.7442
 7256SOL    HW233231   2.843   1.286  15.283  0.4742 -1.4549  1.0934
 7257SOL     OW33232   1.000   4.544  13.529  0.5331  0.3695 -0.0946
 7257SOL    HW133233   1.092   4.527  13.509 -0.0575  0.1066 -2.5228
 7257SOL    HW233234   0.997   4.634  13.496 -2.1462  1.4281  3.0017
 7258SOL     OW33235   3.749   1.777   5.042  0.2836  0.2767  0.3443
 7258SOL    HW133236   3.673   1.759   4.988  0.3210  0.7464  0.1360
 7258SOL    HW233237   3.711   1.760   5.128 -2.6241  0.2491 -0.9535
 7259SOL     OW33238   0.282   4.523  17.572 -0.3613 -0.4484  0.2964
 7259SOL    HW133239   0.237   4.574  17.640 -2.0356 -0.4427 -0.7913
 7259SOL    HW233240   0.313   4.586  17.507  0.8450 -0.9113  0.4243
 7260SOL     OW33241   2.692   2.883   4.518  0.0801  0.0528  0.0027
 7260SOL    HW133242   2.673   2.789   4.519  0.0174  0.0707  1.2079
 7260SOL    HW233243   2.782   2.894   4.488  0.7166 -1.5263  1.3306
 7261SOL     OW33244   1.122   2.989   8.485  0.0657 -0.0786  0.4344
 7261SOL    HW133245   1.129   2.918   8.549 -1.4551 -0.7135 -0.0968
 7261SOL    HW233246   1.069   3.048   8.539 -0.4109  0.1638 -0.2919
 7262SOL     OW33247   4.581   3.828   3.264 -0.3986  0.1698  0.0378
 7262SOL    HW133248   4.627   3.798   3.342 -0.9320  2.2264  1.1350
 7262SOL    HW233249   4.491   3.819   3.294 -0.2276 -0.8854  0.2349
 7263SOL     OW33250   4.447   2.251   8.342 -0.6751 -1.0290 -0.4977
 7263SOL    HW133251   4.508   2.231   8.271  0.0395  1.1286 -0.5079
 7263SOL    HW233252   4.430   2.344   8.328  2.9306  0.0956  2.6515
 7264SOL     OW33253   0.618   4.183   8.156 -0.3287 -0.3948 -0.5362
 7264SOL    HW133254   0.562   4.171   8.233 -0.7263 -0.6946 -0.8787
 7264SOL    HW233255   0.604   4.276   8.140  0.2373 -0.3014 -0.5100
 7265SOL     OW33256   1.437   2.977   0.343 -0.5244  0.0415 -0.6407
 7265SOL    HW133257   1.448   3.067   0.314 -0.8338  0.7263  1.4112
 7265SOL    HW233258   1.453   2.929   0.261  0.0610 -1.5488  0.3931
 7266SOL     OW33259   0.312   4.325  14.709 -0.3718 -0.3866 -0.1257
 7266SOL    HW133260   0.364   4.252  14.742  0.2962  0.2062  0.1245
 7266SOL    HW233261   0.286   4.287  14.625 -0.2901  0.7407 -0.6608
 7267SOL     OW33262   2.324   1.412  11.111  0.4209  0.4425 -0.5864
 7267SOL    HW133263   2.239   1.371  11.097 -0.4227  1.8521  0.3814
 7267SOL    HW233264   2.337   1.459  11.029 -1.8428  0.8450 -0.7225
 7268SOL     OW33265   3.784   0.984   7.680 -0.3325  0.2468 -0.0170
 7268SOL    HW133266   3.768   0.890   7.680 -1.2048  0.3927 -0.3661
 7268SOL    HW233267   3.703   1.010   7.723  0.5494  0.9297  1.2134
 7269SOL     OW33268   3.947   2.938   7.190  0.2054 -0.1327  0.0914
 7269SOL    HW133269   3.950   3.014   7.132 -0.6353  1.1434  1.7295
 7269SOL    HW233270   4.038   2.909   7.189  0.6049  1.2023 -2.5347
 7270SOL     OW33271   2.797   0.298   5.592  0.1280  0.5030  0.2477
 7270SOL    HW133272   2.728   0.364   5.587 -0.5862 -0.4159 -2.4953
 7270SOL    HW233273   2.807   0.271   5.500  0.8849  2.4105 -0.2316
 7271SOL     OW33274   3.463   0.723   0.090 -0.0358  0.3469 -0.5737
 7271SOL    HW133275   3.481   0.673   0.170  1.3809  2.2919  0.3407
 7271SOL    HW233276   3.511   0.675   0.023  3.0544 -0.7732  2.4027
 7272SOL     OW33277   1.670   1.417   4.305  0.0448 -0.4092 -0.1458
 7272SOL    HW133278   1.615   1.349   4.344 -1.7555  0.0226 -1.8952
 7272SOL    HW233279   1.640   1.493   4.355  0.5781 -0.4226  0.1941
 7273SOL     OW33280   0.373   3.155   7.178 -0.1890  0.6660  0.1758
 7273SOL    HW133281   0.359   3.101   7.256 -1.5620  3.0288  1.5546
 7273SOL    HW233282   0.439   3.217   7.208  2.3496 -1.8948 -0.0655
 7274SOL     OW33283   2.658   0.719   7.355  0.1533 -0.0627  0.0389
 7274SOL    HW133284   2.682   0.739   7.446 -1.8992  0.0048  0.5542
 7274SOL    HW233285   2.747   0.708   7.320  0.6664 -1.7073  1.8408
 7275SOL     OW33286   0.339   1.315   4.689  0.0221  0.0344 -0.1187
 7275SOL    HW133287   0.337   1.303   4.594  2.3400 -0.7421 -0.0566
 7275SOL    HW233288   0.287   1.238   4.713  0.7314 -1.2202 -2.5367
 7276SOL     OW33289   1.370   2.048   7.625  0.6084  0.0441  0.1031
 7276SOL    HW133290   1.440   2.109   7.648 -2.6202  2.7521  2.7625
 7276SOL    HW233291   1.415   2.007   7.552 -0.2229 -0.9263  0.1223
 7277SOL     OW33292   0.468   4.141   6.548 -0.0272 -0.0322  0.2068
 7277SOL    HW133293   0.497   4.051   6.531  1.7295  0.9809 -2.1414
 7277SOL    HW233294   0.531   4.183   6.490 -1.8007  0.4950 -1.3396
 7278SOL     OW33295   4.300   3.866  10.720  0.2905  0.4177 -0.5701
 7278SOL    HW133296   4.252   3.801  10.771  2.6453  0.0399  1.1278
 7278SOL    HW233297   4.389   3.845  10.746  0.5927  0.5639 -1.4655
 7279SOL     OW33298   3.361   1.120  11.543 -0.0823 -0.3661  0.1115
 7279SOL    HW133299   3.315   1.049  11.499 -1.5539  0.5696  0.1600
 7279SOL    HW233300   3.441   1.068  11.556  0.5896  0.4226 -0.8769
 7280SOL     OW33301   4.633   3.252  11.629 -0.5479 -0.4341 -0.7386
 7280SOL    HW133302   4.642   3.226  11.538 -0.7683 -1.2368 -0.5283
 7280SOL    HW233303   4.721   3.259  11.666 -0.8220 -1.6493  0.1395
 7281SOL     OW33304   3.194   0.833   0.321  0.1567 -0.1208 -0.1882
 7281SOL    HW133305   3.262   0.833   0.390  0.0838 -1.7602 -0.1073
 7281SOL    HW233306   3.151   0.753   0.352  0.7630 -0.3068  0.1984
 7282SOL     OW33307   2.339   3.807   5.119 -0.2681  0.6193 -0.5110
 7282SOL    HW133308   2.396   3.841   5.187  0.1337  0.2261 -0.6542
 7282SOL    HW233309   2.398   3.796   5.044 -0.0215  3.4934 -0.7275
 7283SOL     OW33310   2.634   0.519   5.931  0.3648  0.1015 -0.7394
 7283SOL    HW133311   2.684   0.569   5.866 -0.5108  0.4207 -1.1621
 7283SOL    HW233312   2.573   0.473   5.873 -1.4548  0.9854  0.4706
 7284SOL     OW33313   1.428   2.568   1.362  0.2328  0.4696  0.1368
 7284SOL    HW133314   1.393   2.545   1.276  0.0756  1.1323  0.0232
 7284SOL    HW233315   1.508   2.515   1.359 -0.3558 -0.3816 -0.4402
 7285SOL     OW33316   4.679   2.012   6.223 -0.1568  0.2314 -0.0206
 7285SOL    HW133317   0.025   1.950   6.198 -0.6647 -0.8383  1.2279
 7285SOL    HW233318   4.700   2.077   6.156  1.2915  0.2604  0.4555
 7286SOL     OW33319   0.913   4.105   5.918 -0.6205 -0.0030  0.3953
 7286SOL    HW133320   0.893   4.191   5.881 -1.7472  0.4303  2.0315
 7286SOL    HW233321   0.993   4.094   5.866 -1.9662 -0.0463 -1.7009
 7287SOL     OW33322   1.326   3.154   6.542 -0.5761  0.1799  0.4742
 7287SOL    HW133323   1.240   3.190   6.518  0.8572  1.6117 -2.5814
 7287SOL    HW233324   1.355   3.224   6.600  0.3502 -0.1443  0.3969
 7288SOL     OW33325   4.509   4.063   7.189 -1.0028 -0.7126 -0.0214
 7288SOL    HW133326   4.439   4.101   7.242  0.1083 -0.1780  1.0599
 7288SOL    HW233327   4.558   4.142   7.163 -1.2336  0.2184  2.4253
 7289SOL     OW33328   4.398   1.981  14.996 -0.0674  0.1693  0.2621
 7289SOL    HW133329   4.482   1.962  15.038  0.4686 -0.1090 -0.9474
 7289SOL    HW233330   4.416   1.983  14.902 -1.6028 -0.3382 -0.0352
 7290SOL     OW33331   4.203   3.333   3.060  0.0063  0.2760  0.3040
 7290SOL    HW133332   4.161   3.418   3.071 -1.4212 -0.4864  0.7398
 7290SOL    HW233333   4.278   3.343   3.119  1.0371  1.0372 -1.1281
 7291SOL     OW33334   4.572   3.388  12.150  0.3200 -0.6860 -0.6166
 7291SOL    HW133335   4.579   3.332  12.072  1.7290 -0.0058 -0.9840
 7291SOL    HW233336   4.511   3.456  12.122  0.4790 -0.9619 -1.6494
 7292SOL     OW33337   2.768   3.869   9.120 -0.4673  0.1702 -0.0638
 7292SOL    HW133338   2.753   3.794   9.063 -0.2008  0.1313 -0.0820
 7292SOL    HW233339   2.834   3.832   9.179 -0.1209  0.5642 -0.2057
 7293SOL     OW33340   0.082   3.808   5.853  0.0170  0.2276  0.4413
 7293SOL    HW133341   0.125   3.724   5.843  0.5089  0.6631 -1.1617
 7293SOL    HW233342   0.005   3.795   5.797  2.0670  0.2908 -2.4281
 7294SOL     OW33343   2.070   3.639   5.030 -0.1860 -0.5858 -0.6082
 7294SOL    HW133344   2.107   3.558   5.067 -2.3825 -1.1219  0.4452
 7294SOL    HW233345   2.126   3.666   4.958  2.4426 -5.3282 -0.3766
 7295SOL     OW33346   3.462   3.267  16.091  0.1998  0.1709  0.0019
 7295SOL    HW133347   3.390   3.216  16.128 -1.1472  1.4321 -0.8911
 7295SOL    HW233348   3.531   3.232  16.149  0.5668 -0.0547 -0.5685
 7296SOL     OW33349   0.029   3.389  16.434 -0.0375  0.2001 -0.3515
 7296SOL    HW133350   4.705   3.458  16.387  2.3996  0.9399 -1.6657
 7296SOL    HW233351   0.029   3.320  16.369 -3.7540  0.7079 -0.8812
 7297SOL     OW33352   1.790   4.095   5.566  0.2794  0.4433 -0.2156
 7297SOL    HW133353   1.835   4.029   5.618 -1.5867 -2.4899 -2.3724
 7297SOL    HW233354   1.860   4.139   5.518 -0.2491  0.2652 -1.1414
 7298SOL     OW33355   1.748   4.531   6.700  0.0164  0.2992  0.1171
 7298SOL    HW133356   1.770   4.587   6.774 -0.4417 -0.3278  0.7234
 7298SOL    HW233357   1.836   4.503   6.675 -0.1613  0.1665 -0.3731
 7299SOL     OW33358   3.869   4.290  16.791 -0.2737  0.1347 -0.1856
 7299SOL    HW133359   3.870   4.247  16.705  1.4656  1.5173 -0.8527
 7299SOL    HW233360   3.866   4.381  16.763  0.3597  1.4216  3.9892
 7300SOL     OW33361   4.002   0.091   6.618 -0.1578 -0.2187  0.2455
 7300SOL    HW133362   3.994   0.184   6.595 -0.2075 -0.2334  0.2029
 7300SOL    HW233363   3.967   0.051   6.538  1.0039 -1.3406  0.3042
 7301SOL     OW33364   2.078   0.828   7.851  0.1535 -0.4022  0.1731
 7301SOL    HW133365   2.052   0.760   7.790 -0.9052 -0.0370  0.2069
 7301SOL    HW233366   2.121   0.779   7.922  0.2919  1.5961  1.4785
 7302SOL     OW33367   3.770   3.509  10.509 -0.6997  0.4589 -0.1782
 7302SOL    HW133368   3.840   3.573  10.496 -1.3287  1.6656  2.4868
 7302SOL    HW233369   3.759   3.473  10.421 -0.2112 -1.0118  0.3561
 7303SOL     OW33370   1.935   1.400   4.213  0.1079 -0.8170  0.1405
 7303SOL    HW133371   1.888   1.395   4.130 -0.7181  0.0582  0.5635
 7303SOL    HW233372   1.860   1.423   4.267  0.6449  0.4314  0.3492
 7304SOL     OW33373   0.640   1.362   6.668  0.1575  0.5773  0.1574
 7304SOL    HW133374   0.586   1.435   6.635  0.0417 -0.3754 -1.7496
 7304SOL    HW233375   0.653   1.390   6.759  2.0324  0.9253 -0.2283
 7305SOL     OW33376   1.002   4.274  16.939 -0.7984 -0.4913  0.4174
 7305SOL    HW133377   0.935   4.321  16.990 -0.4241  0.9633 -0.4309
 7305SOL    HW233378   1.081   4.312  16.976  0.6003 -2.8639 -0.1255
 7306SOL     OW33379   3.810   4.238   0.023  0.0100  0.0412 -0.2887
 7306SOL    HW133380   3.751   4.295   0.073  2.3672  2.3406 -0.0957
 7306SOL    HW233381   3.834   4.283  17.633  0.6650 -1.2548 -0.8206
 7307SOL     OW33382   3.239   1.512   8.887  0.8993 -0.1009 -0.3811
 7307SOL    HW133383   3.225   1.417   8.886  0.4049 -0.0545  1.7094
 7307SOL    HW233384   3.319   1.518   8.835  0.5428 -0.4703 -0.9651
 7308SOL     OW33385   0.767   3.756   8.807 -0.0269  0.3068 -0.1807
 7308SOL    HW133386   0.830   3.825   8.830  0.1545  0.8409 -2.2738
 7308SOL    HW233387   0.681   3.795   8.822  0.1776  0.2168  1.1747
 7309SOL     OW33388   2.689   2.496   6.207 -0.1698 -0.0478  0.7203
 7309SOL    HW133389   2.748   2.447   6.265 -0.0749 -0.9766 -0.1586
 7309SOL    HW233390   2.607   2.454   6.231  0.0451 -1.1950 -0.5282
 7310SOL     OW33391   2.212   3.541   8.386  0.0421  0.0086  0.2599
 7310SOL    HW133392   2.186   3.558   8.295  0.7418 -0.9204 -0.1024
 7310SOL    HW233393   2.160   3.465   8.412 -3.1820  2.0255 -0.1976
 7311SOL     OW33394   4.617   2.066   6.504  0.0331 -0.2636 -0.2914
 7311SOL    HW133395   4.701   2.055   6.549 -1.1749  0.1801  2.0632
 7311SOL    HW233396   4.637   2.034   6.416 -0.9264  1.9058 -1.3040
 7312SOL     OW33397   1.772   0.536   8.089  0.2287  1.3185  0.1582
 7312SOL    HW133398   1.782   0.571   8.000 -1.4850  0.0627 -0.5341
 7312SOL    HW233399   1.751   0.618   8.134 -1.3547  0.5614  0.7956
 7313SOL     OW33400   0.840   0.245  14.219  0.0771 -0.2695  0.3721
 7313SOL    HW133401   0.892   0.225  14.297  1.8978 -1.2846 -1.0863
 7313SOL    HW233402   0.899   0.291  14.159 -0.3573  1.0409  0.9287
 7314SOL     OW33403   0.767   3.372   6.227 -0.4912  0.2238  0.3257
 7314SOL    HW133404   0.858   3.402   6.233 -0.3459 -0.3199  0.9416
 7314SOL    HW233405   0.729   3.410   6.307 -1.9699  0.3370 -0.4383
 7315SOL     OW33406   4.632   0.524   1.301 -0.1578 -0.9795 -0.8169
 7315SOL    HW133407   4.687   0.449   1.279  0.5501 -0.7560  0.2265
 7315SOL    HW233408   4.672   0.563   1.378 -1.3276 -0.1084 -0.6464
 7316SOL     OW33409   4.171   4.233   2.232  0.6626  0.0484  0.2723
 7316SOL    HW133410   4.217   4.309   2.198 -0.7341 -0.6655 -3.1831
 7316SOL    HW233411   4.139   4.201   2.148 -1.9537 -3.3603  2.5540
 7317SOL     OW33412   4.450   1.806   7.715 -0.2120 -0.3248 -0.3783
 7317SOL    HW133413   4.520   1.809   7.650  0.5471 -1.0160  0.3971
 7317SOL    HW233414   4.410   1.892   7.701  1.0471  0.4417  0.6513
 7318SOL     OW33415   1.008   2.160  10.517 -0.2324 -0.0711 -0.2141
 7318SOL    HW133416   1.034   2.068  10.510  3.2436  0.8049  0.7988
 7318SOL    HW233417   0.922   2.160  10.558 -0.2699 -0.4873 -0.2902
 7319SOL     OW33418   2.052   4.253   7.158  0.0462 -0.2300 -0.1016
 7319SOL    HW133419   2.029   4.281   7.247  0.6594 -1.4829  0.4542
 7319SOL    HW233420   2.121   4.318   7.148  0.3773 -0.2126  2.2850
 7320SOL     OW33421   4.256   3.530  10.265 -0.2823  0.7250 -0.3014
 7320SOL    HW133422   4.348   3.507  10.275  0.3887  2.8616 -1.7314
 7320SOL    HW233423   4.259   3.600  10.330 -0.9430  1.4146 -1.0209
 7321SOL     OW33424   3.266   4.067   5.858  0.5878 -0.2232 -0.2210
 7321SOL    HW133425   3.296   4.026   5.939 -0.1618  0.5824  0.4568
 7321SOL    HW233426   3.352   4.098   5.831  0.5747  0.3866  0.4391
 7322SOL     OW33427   3.794   1.296   6.806 -0.2424 -0.3329  0.0698
 7322SOL    HW133428   3.855   1.355   6.851 -0.1768  0.4340 -1.0286
 7322SOL    HW233429   3.730   1.355   6.767  2.0367  1.3512 -1.1100
 7323SOL     OW33430   1.074   3.352   6.541  0.1868 -0.0210 -0.2264
 7323SOL    HW133431   1.046   3.263   6.523 -0.7580  0.2063  0.1082
 7323SOL    HW233432   0.988   3.389   6.563  0.5823  0.4705  0.5134
 7324SOL     OW33433   1.966   4.291   3.336  0.2892 -0.2398  0.2174
 7324SOL    HW133434   2.036   4.350   3.308 -1.6000  1.8877  0.0252
 7324SOL    HW233435   2.005   4.249   3.413  0.1376 -1.2526 -0.2569
 7325SOL     OW33436   3.578   2.638  17.627  0.1950  0.2450  0.1021
 7325SOL    HW133437   3.618   2.584   0.005  1.6905  1.6537  0.3293
 7325SOL    HW233438   3.519   2.574  17.586  0.7905 -0.3707  0.1992
 7326SOL     OW33439   2.275   0.055  17.063  0.0922 -0.5614  0.7506
 7326SOL    HW133440   2.222   4.703  17.032  1.3100 -1.3169  0.4889
 7326SOL    HW233441   2.216   0.130  17.052 -0.7497 -1.2664  0.4106
 7327SOL     OW33442   0.744   3.895   2.164  0.8347 -0.4113 -0.0012
 7327SOL    HW133443   0.711   3.979   2.193 -0.8057 -0.4316 -1.8438
 7327SOL    HW233444   0.675   3.874   2.101  2.3661  1.5974 -2.3899
 7328SOL     OW33445   3.202   1.849   9.142 -0.0340 -0.6986 -0.0694
 7328SOL    HW133446   3.246   1.790   9.080 -0.5003 -0.1202 -0.9646
 7328SOL    HW233447   3.157   1.789   9.200 -1.6274 -1.2273 -1.8447
 7329SOL     OW33448   3.188   1.587   7.194  0.9651  0.0391 -0.1189
 7329SOL    HW133449   3.149   1.514   7.145  1.4393 -0.5541  0.3893
 7329SOL    HW233450   3.144   1.662   7.153 -1.7465 -0.4037  1.9355
 7330SOL     OW33451   1.128   2.282   6.639  0.6279  0.2260  0.4539
 7330SOL    HW133452   1.121   2.284   6.543  0.8562 -1.0914  0.4055
 7330SOL    HW233453   1.220   2.255   6.642  0.3186 -0.9136 -0.2751
 7331SOL     OW33454   1.064   4.372   8.562  0.2610  0.4703 -0.1401
 7331SOL    HW133455   1.034   4.289   8.525  2.6035 -0.4142 -0.0509
 7331SOL    HW233456   1.094   4.339   8.647 -2.9252  0.4682  0.9739
 7332SOL     OW33457   4.032   1.207   8.627  0.4905 -0.4034 -0.3603
 7332SOL    HW133458   4.068   1.125   8.660 -1.8928 -2.6662 -3.3677
 7332SOL    HW233459   4.091   1.274   8.661 -0.9144 -1.0591  3.3470
 7333SOL     OW33460   1.454   0.847   0.934  0.4433  0.4707 -0.1823
 7333SOL    HW133461   1.491   0.783   0.994 -0.0839  0.3878  0.0533
 7333SOL    HW233462   1.390   0.793   0.889  1.6626  2.0951 -3.9522
 7334SOL     OW33463   3.286   3.431  17.222  0.2370 -0.1549 -0.6240
 7334SOL    HW133464   3.248   3.377  17.153 -1.7421  1.8452 -1.1030
 7334SOL    HW233465   3.367   3.388  17.250 -0.4115 -0.5714  0.6223
 7335SOL     OW33466   3.685   4.325   2.607  0.6515 -0.3731 -0.1357
 7335SOL    HW133467   3.610   4.282   2.565 -0.0067 -1.5780  2.2922
 7335SOL    HW233468   3.669   4.303   2.699 -0.0473 -1.3340 -0.4827
 7336SOL     OW33469   4.395   2.221  10.522  0.1898  0.8584  0.1887
 7336SOL    HW133470   4.351   2.283  10.464  0.9275 -0.2444 -1.5321
 7336SOL    HW233471   4.436   2.276  10.589  0.0138  1.9079 -0.5778
 7337SOL     OW33472   4.106   3.567   0.020  0.4406  0.6492 -0.5423
 7337SOL    HW133473   4.041   3.618   0.069  1.2636 -0.9954  2.2795
 7337SOL    HW233474   4.112   3.616  17.628  2.0102  2.1401  0.4412
 7338SOL     OW33475   4.416   2.471   1.773 -0.1870  0.6195  0.0714
 7338SOL    HW133476   4.352   2.439   1.837  0.1418  1.2041  0.6925
 7338SOL    HW233477   4.372   2.446   1.692  0.7337  2.2416 -0.9446
 7339SOL     OW33478   1.099   2.540   8.898 -0.2637 -0.1516  0.1339
 7339SOL    HW133479   1.137   2.545   8.810 -1.5497  0.5637 -0.3808
 7339SOL    HW233480   1.008   2.566   8.883 -0.6846 -1.2998  0.7064
 7340SOL     OW33481   2.618   2.048   6.119  0.7328  0.2559 -0.1235
 7340SOL    HW133482   2.640   2.116   6.055 -1.8055  0.9070 -0.2955
 7340SOL    HW233483   2.525   2.029   6.110  0.8757 -0.3665 -0.3286
 7341SOL     OW33484   2.279   3.864   2.605  0.3045 -0.6305 -0.1933
 7341SOL    HW133485   2.206   3.826   2.655 -0.6457  1.5387  0.0339
 7341SOL    HW233486   2.236   3.933   2.555 -0.9167 -0.3513  1.2443
 7342SOL     OW33487   0.252   4.567   3.864 -0.4072  0.2450  0.0068
 7342SOL    HW133488   0.343   4.598   3.867 -0.5010  0.3041  1.9903
 7342SOL    HW233489   0.263   4.472   3.866  0.8136  0.3478 -1.1285
 7343SOL     OW33490   3.963   2.370   7.736 -0.1423  0.1705  0.5183
 7343SOL    HW133491   3.976   2.285   7.779 -0.4378 -0.0613  0.1521
 7343SOL    HW233492   3.884   2.353   7.685  0.2231  0.8390 -0.2616
 7344SOL     OW33493   1.476   0.790  13.539  0.0484 -0.2401  0.4485
 7344SOL    HW133494   1.434   0.785  13.624 -0.8564 -0.0010  0.0076
 7344SOL    HW233495   1.533   0.866  13.547  1.3742 -1.0358 -1.2655
 7345SOL     OW33496   1.434   1.152   7.502 -0.4827  0.0289 -1.4783
 7345SOL    HW133497   1.438   1.064   7.538  0.2050  0.3051 -0.8794
 7345SOL    HW233498   1.348   1.172   7.540  0.3227  0.0462  0.3656
 7346SOL     OW33499   2.912   0.622   2.027  0.3134  0.0970 -0.3477
 7346SOL    HW133500   2.890   0.650   2.115  1.4552  0.5364 -0.2031
 7346SOL    HW233501   2.939   0.705   1.987 -3.7799  2.5069  1.9149
 7347SOL     OW33502   3.687   4.532   9.169  0.3709 -0.0516 -0.1541
 7347SOL    HW133503   3.664   4.441   9.150  0.8922 -0.2088 -0.0410
 7347SOL    HW233504   3.603   4.569   9.194  0.3269 -1.5330  1.9107
 7348SOL     OW33505   1.909   0.740   7.646  0.3623 -0.4132 -0.2286
 7348SOL    HW133506   1.939   0.806   7.583  1.8430 -0.9426 -0.0734
 7348SOL    HW233507   1.822   0.772   7.672  1.2903  2.0890 -0.2517
 7349SOL     OW33508   1.616   4.471   4.592  0.0131  0.0550 -0.2521
 7349SOL    HW133509   1.529   4.435   4.573  0.5981 -1.3341 -0.3587
 7349SOL    HW233510   1.644   4.396   4.645 -2.2956 -1.8857 -1.7650
 7350SOL     OW33511   2.063   0.175   7.562  0.2673 -0.1819  0.4708
 7350SOL    HW133512   1.986   0.125   7.590  1.0120 -0.9631  1.1349
 7350SOL    HW233513   2.109   0.176   7.646 -0.9103 -2.0319  1.1499
 7351SOL     OW33514   1.290   3.798   1.092  0.4444 -0.4397 -0.0440
 7351SOL    HW133515   1.216   3.850   1.061 -0.0902 -1.8388 -1.1755
 7351SOL    HW233516   1.362   3.839   1.046  1.5785 -0.1054  2.0196
 7352SOL     OW33517   1.541   0.789  14.799 -0.7120 -0.5295 -0.5822
 7352SOL    HW133518   1.559   0.882  14.808  1.1764 -0.9307 -0.1473
 7352SOL    HW233519   1.576   0.771  14.711 -2.3356 -0.0368 -1.3404
 7353SOL     OW33520   0.594   0.652  14.571  0.2085 -0.2041  0.6045
 7353SOL    HW133521   0.587   0.678  14.663  2.1697 -2.0733  1.2960
 7353SOL    HW233522   0.506   0.615  14.561 -0.4832  1.3093  1.1280
 7354SOL     OW33523   0.944   4.167   2.704  0.2238 -0.3784 -0.1402
 7354SOL    HW133524   0.979   4.248   2.669 -0.3239  0.2130  0.6680
 7354SOL    HW233525   0.977   4.093   2.654 -0.3428 -1.0414  0.4563
 7355SOL     OW33526   3.027   4.198  13.177 -0.8763  0.1315 -1.0415
 7355SOL    HW133527   3.097   4.254  13.209 -1.7069  2.0934 -2.6402
 7355SOL    HW233528   3.055   4.106  13.181  0.6571  0.5764 -1.6699
 7356SOL     OW33529   1.939   1.836   5.629 -0.0953 -0.4291  0.1205
 7356SOL    HW133530   2.019   1.817   5.581  0.6989 -2.1108  2.1374
 7356SOL    HW233531   1.936   1.932   5.627 -0.0820 -0.4244  0.3631
 7357SOL     OW33532   1.074   2.637   3.028  0.5943 -0.2001  0.6814
 7357SOL    HW133533   1.085   2.628   2.933 -0.7726 -0.6786  0.5660
 7357SOL    HW233534   0.989   2.596   3.043  2.3108 -3.4257  1.5423
 7358SOL     OW33535   2.472   3.899  10.786 -0.3739 -0.5895  0.1783
 7358SOL    HW133536   2.547   3.935  10.834 -1.4129 -0.1557  1.4549
 7358SOL    HW233537   2.488   3.928  10.696  2.0505  0.5868  0.9901
 7359SOL     OW33538   1.680   4.323  14.887 -0.7045 -0.1391 -1.0280
 7359SOL    HW133539   1.714   4.357  14.970 -0.2580  0.7127 -1.5639
 7359SOL    HW233540   1.754   4.270  14.858  0.7420  1.5428 -0.3927
 7360SOL     OW33541   3.760   1.365  11.598 -0.2517  0.0497  0.0085
 7360SOL    HW133542   3.721   1.422  11.531 -0.0651 -0.4128 -0.4924
 7360SOL    HW233543   3.852   1.371  11.573 -0.4268 -0.4093 -0.7582
 7361SOL     OW33544   3.028   3.216  17.415 -0.1059 -0.4382 -0.3786
 7361SOL    HW133545   2.948   3.163  17.414  0.2142 -0.9287  0.7372
 7361SOL    HW233546   3.009   3.302  17.378 -0.6902  0.3458  1.7566
 7362SOL     OW33547   2.043   1.000   0.815  0.1659 -0.1845 -0.5539
 7362SOL    HW133548   1.953   1.016   0.842 -0.2567 -0.6490 -1.6982
 7362SOL    HW233549   2.058   0.906   0.829  1.7573  0.1299 -0.0336
 7363SOL     OW33550   1.653   1.137   3.787  0.3015  0.1805 -0.0749
 7363SOL    HW133551   1.584   1.129   3.852  1.4033 -1.6305  0.8575
 7363SOL    HW233552   1.704   1.213   3.816 -0.5946  0.7143  0.1063
 7364SOL     OW33553   1.875   1.323   1.579 -0.1894 -0.1875  0.3374
 7364SOL    HW133554   1.803   1.357   1.525 -0.1841 -0.8157 -0.0628
 7364SOL    HW233555   1.944   1.315   1.513  0.2012  1.9895  0.4805
 7365SOL     OW33556   3.529   1.626   9.988  0.1548 -0.0685 -0.1109
 7365SOL    HW133557   3.455   1.582  10.030 -1.2688  3.4537  1.0993
 7365SOL    HW233558   3.483   1.696   9.941  0.1669  0.1299  0.1702
 7366SOL     OW33559   3.163   3.358   1.487  0.5262 -0.0528 -0.2728
 7366SOL    HW133560   3.086   3.408   1.462  1.0689  0.5681 -0.6861
 7366SOL    HW233561   3.191   3.405   1.565 -0.1142 -0.6939  0.3547
 7367SOL     OW33562   3.905   0.498   2.925 -0.1695 -0.7918 -0.4466
 7367SOL    HW133563   3.944   0.422   2.882  3.4658  0.6375  0.3088
 7367SOL    HW233564   3.926   0.501   3.018 -0.5394  1.2689 -0.4150
 7368SOL     OW33565   3.717   0.689   6.667  0.2157  0.4682  0.4469
 7368SOL    HW133566   3.653   0.742   6.713 -0.2017 -1.3125  1.9212
 7368SOL    HW233567   3.676   0.602   6.669 -0.6304  0.7977 -2.0228
 7369SOL     OW33568   2.453   2.231   2.233 -0.2604 -0.4903  0.2657
 7369SOL    HW133569   2.395   2.155   2.223 -0.0846 -0.7152  0.9231
 7369SOL    HW233570   2.422   2.270   2.315  3.5574  2.3137  0.3568
 7370SOL     OW33571   0.054   2.908   4.015 -0.2124  0.3327 -0.6522
 7370SOL    HW133572   4.693   2.879   3.979 -0.4851 -0.0945  0.3164
 7370SOL    HW233573   0.079   2.977   3.954  0.8408  0.0271 -0.5685
 7371SOL     OW33574   3.824   1.387   5.528  0.4021 -0.2788  0.3454
 7371SOL    HW133575   3.771   1.466   5.535  1.6173  0.6084 -0.5685
 7371SOL    HW233576   3.779   1.348   5.453  0.0478 -1.2886  1.0870
 7372SOL     OW33577   2.448   2.655   2.643 -0.2055  0.4029 -0.0082
 7372SOL    HW133578   2.487   2.741   2.658  2.5533 -0.8164 -0.1254
 7372SOL    HW233579   2.445   2.644   2.548  0.6874 -1.5089  0.1741
 7373SOL     OW33580   0.243   1.565   4.769  0.2306 -1.0469  0.4630
 7373SOL    HW133581   0.295   1.493   4.734  1.9067 -0.5484  1.9552
 7373SOL    HW233582   0.255   1.645   4.719 -1.1757 -1.0023  0.1787
 7374SOL     OW33583   3.784   4.718  17.500 -0.7573  0.3331  0.1121
 7374SOL    HW133584   3.750   0.020  17.586 -0.6729  0.1531  0.1954
 7374SOL    HW233585   3.834   4.637  17.512  1.2278  1.7028  1.1684
 7375SOL     OW33586   1.916   1.583   2.843  0.5264  0.0673  0.1037
 7375SOL    HW133587   1.845   1.623   2.893  0.2486 -0.4462  0.1156
 7375SOL    HW233588   1.898   1.616   2.756 -0.1800  2.2875  1.0882
 7376SOL     OW33589   3.585   2.702   3.902  0.2412  0.2997 -0.3452
 7376SOL    HW133590   3.677   2.687   3.878  0.0338  0.1477 -1.0534
 7376SOL    HW233591   3.542   2.688   3.818 -1.1422  0.3590  0.3664
 7377SOL     OW33592   3.037   3.773  10.172 -0.1335 -0.2912  0.1051
 7377SOL    HW133593   2.984   3.769  10.252  0.9059  1.2712  0.8551
 7377SOL    HW233594   2.972   3.802  10.108  0.7760  2.3054  0.3664
 7378SOL     OW33595   0.140   0.146   8.839  0.9026 -0.1670  0.1300
 7378SOL    HW133596   0.148   0.237   8.867 -1.6127  0.1001 -0.0369
 7378SOL    HW233597   0.187   0.148   8.755  2.1005  1.7542  0.8719
 7379SOL     OW33598   1.252   0.479   2.162  0.0214  0.2558 -0.4779
 7379SOL    HW133599   1.241   0.506   2.253 -0.6629  0.0705 -0.5046
 7379SOL    HW233600   1.288   0.392   2.176  0.8099  0.9703  1.9088
 7380SOL     OW33601   2.569   4.612   5.431 -0.4932 -0.0484 -0.7428
 7380SOL    HW133602   2.632   4.642   5.496  2.1026 -0.9346 -2.8377
 7380SOL    HW233603   2.493   4.648   5.477 -0.5083 -0.6249 -0.3216
 7381SOL     OW33604   1.611   0.189   1.251 -0.0384  0.2242  0.4222
 7381SOL    HW133605   1.672   0.117   1.233  2.0111  1.3855  2.8033
 7381SOL    HW233606   1.533   0.156   1.207 -0.3125  0.5582  0.6591
 7382SOL     OW33607   0.678   0.116   6.565 -0.0357 -0.7978  0.0086
 7382SOL    HW133608   0.676   0.068   6.648  0.1866 -0.9856 -0.0917
 7382SOL    HW233609   0.683   0.208   6.589  0.5996  0.0494 -3.3590
 7383SOL     OW33610   3.107   3.584  15.902 -0.1808 -0.0950  0.6172
 7383SOL    HW133611   3.196   3.551  15.910  0.7697  2.4274  0.6152
 7383SOL    HW233612   3.117   3.661  15.958  1.5787  0.2853 -0.1949
 7384SOL     OW33613   2.785   0.042   2.929 -0.1442 -0.3405 -0.0453
 7384SOL    HW133614   2.799   0.114   2.866 -0.4412 -0.2466 -0.0035
 7384SOL    HW233615   2.758   4.697   2.866  1.5580 -0.2534 -0.8665
 7385SOL     OW33616   4.620   3.713  12.617  0.2892 -0.2301 -0.6265
 7385SOL    HW133617   4.692   3.692  12.677 -2.0261 -2.0706  1.4986
 7385SOL    HW233618   4.585   3.630  12.584 -0.7470 -0.4843  1.1101
 7386SOL     OW33619   0.987   0.239   1.785  0.0175  0.0953 -0.1800
 7386SOL    HW133620   0.913   0.191   1.750  0.2648 -0.2341 -0.2553
 7386SOL    HW233621   0.980   0.328   1.752 -1.6802 -0.7971 -2.2191
 7387SOL     OW33622   4.485   1.140   9.658 -0.8298  0.1372 -0.1097
 7387SOL    HW133623   4.416   1.174   9.714  0.1398  2.2099 -0.1501
 7387SOL    HW233624   4.523   1.080   9.722 -0.1678 -1.7287 -2.2604
 7388SOL     OW33625   3.414   0.930  14.377 -0.3553  0.0393 -0.1128
 7388SOL    HW133626   3.368   0.857  14.418 -2.0668  1.0340 -0.2745
 7388SOL    HW233627   3.408   0.906  14.285  0.6919 -0.0313 -0.1655
 7389SOL     OW33628   4.459   3.186   4.392 -0.3476 -0.2620 -0.0220
 7389SOL    HW133629   4.509   3.267   4.395 -2.0367  0.7223  1.2721
 7389SOL    HW233630   4.395   3.193   4.321  1.1253 -1.2466 -1.4582
 7390SOL     OW33631   0.816   0.171   2.767  0.8155  0.2197  0.3075
 7390SOL    HW133632   0.863   0.243   2.809  1.2788  0.2976 -0.3524
 7390SOL    HW233633   0.789   0.210   2.684 -0.6704  0.2578  0.8071
 7391SOL     OW33634   2.273   0.095   4.776 -0.2321 -0.0625 -0.2884
 7391SOL    HW133635   2.339   0.081   4.843  2.7383 -2.0291 -3.6402
 7391SOL    HW233636   2.322   0.094   4.694  0.6631  0.9194  0.2299
 7392SOL     OW33637   4.327   3.999   2.296  0.1674 -0.4220  0.1896
 7392SOL    HW133638   4.288   4.082   2.267 -0.2828 -0.8909 -0.5488
 7392SOL    HW233639   4.329   4.019   2.390  0.9931 -0.5589  0.1966
 7393SOL     OW33640   4.199   3.137   3.900 -0.1627  0.0888  0.5672
 7393SOL    HW133641   4.211   3.044   3.883  0.8343  0.8172 -2.7193
 7393SOL    HW233642   4.247   3.175   3.827  1.9826 -1.3192  1.2543
 7394SOL     OW33643   4.112   3.824   9.972  0.4581  0.0201 -0.1504
 7394SOL    HW133644   4.038   3.764   9.982  1.3949 -1.0791  0.3358
 7394SOL    HW233645   4.115   3.825   9.877 -0.6827 -3.1804 -0.2249
 7395SOL     OW33646   2.535   4.189   2.551  0.0452 -0.0534 -0.0859
 7395SOL    HW133647   2.490   4.161   2.471  0.4097 -0.3429 -0.1923
 7395SOL    HW233648   2.509   4.281   2.545  1.3143  0.2922 -0.2650
 7396SOL     OW33649   1.859   2.344   3.682  0.0775 -0.2094  0.5211
 7396SOL    HW133650   1.923   2.414   3.693 -2.2604  1.7753  1.4437
 7396SOL    HW233651   1.779   2.394   3.699 -0.6902 -0.5248 -2.2287
 7397SOL     OW33652   4.452   4.527  10.220  0.1236  0.7771 -0.1941
 7397SOL    HW133653   4.518   4.469  10.183 -1.7776  0.0372 -2.4565
 7397SOL    HW233654   4.369   4.497  10.184  1.0140 -2.8471  0.7953
 7398SOL     OW33655   4.002   1.477  11.097 -0.0136 -0.7859  0.8319
 7398SOL    HW133656   3.951   1.407  11.055 -1.7196  2.1380 -1.9789
 7398SOL    HW233657   3.931   1.538  11.117 -0.1221 -0.2878 -1.0557
 7399SOL     OW33658   2.830   0.295  10.669 -0.8606 -0.6165 -0.8167
 7399SOL    HW133659   2.819   0.314  10.762  1.3873 -0.0389 -0.6856
 7399SOL    HW233660   2.742   0.265  10.643 -0.9928 -1.6826  0.9219
 7400SOL     OW33661   1.894   4.677  13.132  0.2103  0.2232 -0.0003
 7400SOL    HW133662   1.877   4.599  13.078 -1.1803  1.7812 -1.7860
 7400SOL    HW233663   1.805   4.693  13.162 -1.2370 -4.1742 -2.0056
 7401SOL     OW33664   3.233   2.083   5.432  0.6937  0.4247 -0.1425
 7401SOL    HW133665   3.192   2.036   5.505  0.5113  0.1218 -0.4358
 7401SOL    HW233666   3.209   2.026   5.359  0.9515 -1.9890  1.6346
 7402SOL     OW33667   3.338   4.230   6.623 -0.6042 -0.6892 -0.4157
 7402SOL    HW133668   3.294   4.170   6.563 -0.5971 -1.1118 -0.0017
 7402SOL    HW233669   3.263   4.244   6.680  1.6121  0.6603  2.1874
 7403SOL     OW33670   2.562   1.733   0.853 -0.4174 -0.0250 -0.2725
 7403SOL    HW133671   2.503   1.802   0.882 -1.0805 -0.2924 -0.9962
 7403SOL    HW233672   2.576   1.687   0.936 -0.8132 -0.5920 -0.5180
 7404SOL     OW33673   3.347   4.085   3.133  0.2521  0.4830  0.4187
 7404SOL    HW133674   3.264   4.048   3.162 -0.1147 -0.0378 -1.3554
 7404SOL    HW233675   3.321   4.175   3.112  0.0219  0.0922 -0.9692
 7405SOL     OW33676   4.510   2.550  14.738 -0.5013 -0.0299 -0.1478
 7405SOL    HW133677   4.495   2.510  14.653  0.5042 -0.5297 -0.0957
 7405SOL    HW233678   4.518   2.469  14.788 -1.5835  1.2814  2.1532
 7406SOL     OW33679   0.957   1.479  12.729  0.0447  0.2128  0.0191
 7406SOL    HW133680   0.974   1.454  12.638  1.5627  1.7734 -0.1537
 7406SOL    HW233681   0.896   1.412  12.759 -1.1505  0.7593 -1.2288
 7407SOL     OW33682   0.981   2.143  15.105  0.5224  0.0884 -0.3994
 7407SOL    HW133683   0.926   2.097  15.168  0.2235 -0.8911 -1.3643
 7407SOL    HW233684   0.906   2.173  15.053 -0.2325  0.0917  0.6936
 7408SOL     OW33685   2.254   0.896   9.867  0.1816 -0.4687 -0.2222
 7408SOL    HW133686   2.295   0.908   9.952  0.0975 -1.8781  0.0180
 7408SOL    HW233687   2.300   0.824   9.822  1.2761 -1.3207  2.2681
 7409SOL     OW33688   2.943   3.316   8.122  0.3282  0.2905  0.4370
 7409SOL    HW133689   2.850   3.339   8.127  0.4923  1.2520 -0.8476
 7409SOL    HW233690   2.939   3.248   8.189  0.9811  0.9173  1.1111
 7410SOL     OW33691   4.548   0.915   8.185 -0.0212 -0.2859  0.0194
 7410SOL    HW133692   4.481   0.974   8.220  2.4487  1.5750  1.6293
 7410SOL    HW233693   4.626   0.971   8.180 -0.3111  0.0361 -0.8590
 7411SOL     OW33694   2.696   2.099   3.429 -0.0454 -0.5261 -0.3323
 7411SOL    HW133695   2.605   2.128   3.424  1.2501  3.5081 -0.1312
 7411SOL    HW233696   2.671   2.007   3.439  2.3140 -1.4177 -2.3711
 7412SOL     OW33697   0.779   1.721   3.566  0.0130  0.5047  0.0920
 7412SOL    HW133698   0.794   1.634   3.530 -2.8969  0.6598 -1.4642
 7412SOL    HW233699   0.865   1.743   3.604  1.1442  0.7050 -2.5400
 7413SOL     OW33700   4.087   3.131   7.782  0.1179 -0.2512 -0.2081
 7413SOL    HW133701   4.163   3.188   7.794 -0.3301  0.5032 -0.9275
 7413SOL    HW233702   4.093   3.069   7.854  1.2432  2.3504  1.9361
 7414SOL     OW33703   0.879   4.067   7.664 -0.8945  0.5321  0.4625
 7414SOL    HW133704   0.808   4.126   7.637 -0.7193  0.7309  0.4337
 7414SOL    HW233705   0.920   4.120   7.733 -1.1703  0.3237  0.7885
 7415SOL     OW33706   3.006   4.627  13.524 -0.7308 -0.5550  0.3886
 7415SOL    HW133707   2.923   4.632  13.571  0.5564 -0.6698  2.6741
 7415SOL    HW233708   3.046   4.705  13.563  1.5930 -1.7798  0.4269
 7416SOL     OW33709   0.008   1.428   8.834  0.0579 -0.7416  0.0775
 7416SOL    HW133710   4.717   1.371   8.758  0.4355  1.0459 -1.3224
 7416SOL    HW233711   0.101   1.417   8.858 -0.0502  0.1160  0.9024
 7417SOL     OW33712   4.173   4.131   7.225 -0.4523 -0.2551 -0.1878
 7417SOL    HW133713   4.191   4.112   7.317 -0.4889  1.4758  0.1903
 7417SOL    HW233714   4.105   4.197   7.240  1.6963  2.1558 -0.8823
 7418SOL     OW33715   3.252   3.097   4.019 -0.2968 -0.5763  0.4870
 7418SOL    HW133716   3.324   3.035   4.031  1.0216  0.5977 -1.4300
 7418SOL    HW233717   3.180   3.067   4.075 -1.5814 -0.6550 -1.2396
 7419SOL     OW33718   2.152   3.679   5.312 -0.1643  0.1041  0.1413
 7419SOL    HW133719   2.082   3.736   5.345 -2.9506 -1.7851 -2.5294
 7419SOL    HW233720   2.175   3.726   5.232 -1.0582 -1.7545 -1.2174
 7420SOL     OW33721   0.233   0.093   7.176  0.0430 -0.1080  0.0574
 7420SOL    HW133722   0.297   0.029   7.207 -0.1949  1.0660  2.8984
 7420SOL    HW233723   0.268   0.170   7.219  1.5264 -0.9296  0.3306
 7421SOL     OW33724   3.112   2.561   8.290 -0.0224  0.0723 -0.1397
 7421SOL    HW133725   3.177   2.495   8.313  0.4776  0.5684 -0.1358
 7421SOL    HW233726   3.031   2.514   8.309  0.8808 -2.0205 -1.4719
 7422SOL     OW33727   1.604   4.636   8.573  0.1715 -0.3384 -0.3542
 7422SOL    HW133728   1.581   4.676   8.490 -0.8192 -0.1704 -0.0023
 7422SOL    HW233729   1.553   4.694   8.629 -0.8446 -0.0649 -1.5800
 7423SOL     OW33730   4.126   4.316   5.273  0.0247 -0.3383 -0.2290
 7423SOL    HW133731   4.157   4.302   5.183 -1.7081 -1.1425 -0.7057
 7423SOL    HW233732   4.134   4.412   5.269  1.7422 -0.4363  0.8349
 7424SOL     OW33733   3.462   2.290   1.890 -0.2320 -0.3211  0.0940
 7424SOL    HW133734   3.405   2.353   1.935  0.4797  0.2806  0.1419
 7424SOL    HW233735   3.517   2.255   1.959  0.7638 -1.0191 -1.0539
 7425SOL     OW33736   4.195   3.549   2.090  0.3224  0.2921 -0.2855
 7425SOL    HW133737   4.247   3.499   2.153 -1.7493 -2.0488 -0.4403
 7425SOL    HW233738   4.235   3.524   2.007 -3.2434 -1.5285 -1.4527
 7426SOL     OW33739   4.108   0.313   0.584 -0.3342  0.4273 -0.1152
 7426SOL    HW133740   4.096   0.406   0.602  3.5559  0.6866  1.1599
 7426SOL    HW233741   4.080   0.284   0.670  0.6917 -1.8875 -0.5753
 7427SOL     OW33742   1.212   0.895   6.823  0.0144 -0.3579 -0.2060
 7427SOL    HW133743   1.178   0.861   6.906 -2.6737  0.1716 -1.0618
 7427SOL    HW233744   1.135   0.944   6.793  1.3663  1.0515 -1.3437
 7428SOL     OW33745   0.528   2.779   8.473 -0.3409  0.1667  0.3309
 7428SOL    HW133746   0.511   2.859   8.424 -0.2128 -1.1841 -1.9267
 7428SOL    HW233747   0.457   2.786   8.537 -1.4233  1.0514 -0.9694
 7429SOL     OW33748   3.616   0.841   7.257 -0.2762 -0.8585 -0.4397
 7429SOL    HW133749   3.693   0.863   7.203 -1.7950  2.1082 -1.3998
 7429SOL    HW233750   3.649   0.779   7.322  0.4679  0.2941  0.2773
 7430SOL     OW33751   3.374   0.521   6.202  0.1963  0.0377 -0.9709
 7430SOL    HW133752   3.336   0.568   6.127  0.6775  1.8615 -0.0626
 7430SOL    HW233753   3.457   0.567   6.216 -0.1649 -0.2753  2.2034
 7431SOL     OW33754   3.458   0.737   7.047  0.1825  0.0676  0.3965
 7431SOL    HW133755   3.508   0.751   7.127  0.5818 -0.8362  0.3087
 7431SOL    HW233756   3.448   0.826   7.015 -4.6901  0.0490  1.9763
 7432SOL     OW33757   4.558   2.446  13.651 -0.0577  0.0313 -0.2760
 7432SOL    HW133758   4.464   2.445  13.632  0.1115  1.5230 -1.1676
 7432SOL    HW233759   4.555   2.423  13.744  1.9553 -0.2458 -0.2875
 7433SOL     OW33760   3.576   2.181   5.814  0.0653  0.2589  0.8228
 7433SOL    HW133761   3.620   2.132   5.883  2.0558  0.1090 -0.5295
 7433SOL    HW233762   3.563   2.108   5.753 -1.1248  0.4612  0.8496
 7434SOL     OW33763   2.004   3.603  16.753 -0.2787 -0.5240 -0.4449
 7434SOL    HW133764   2.077   3.648  16.710  0.4342 -2.6872 -1.5049
 7434SOL    HW233765   2.023   3.511  16.737 -0.1934 -0.8689  1.6835
 7435SOL     OW33766   1.752   2.182   5.047  0.1441  0.4722 -0.4236
 7435SOL    HW133767   1.754   2.104   4.992 -1.2552 -0.0328  0.2297
 7435SOL    HW233768   1.844   2.195   5.066  0.5847 -1.9033 -0.9185
 7436SOL     OW33769   3.701   4.446   2.883 -0.0010  0.2423  0.1205
 7436SOL    HW133770   3.728   4.532   2.851 -0.3694  0.9694  1.7621
 7436SOL    HW233771   3.744   4.443   2.968  0.7807 -1.0894 -0.3248
 7437SOL     OW33772   3.278   2.796   1.187 -0.1829 -0.3960 -0.7068
 7437SOL    HW133773   3.295   2.880   1.144  1.2058  0.2744  1.1681
 7437SOL    HW233774   3.185   2.802   1.211 -0.5256  0.5644 -2.2364
 7438SOL     OW33775   1.367   4.135   8.037  0.8926  0.1175  0.2445
 7438SOL    HW133776   1.316   4.138   8.118 -1.4620 -1.6485 -1.2037
 7438SOL    HW233777   1.298   4.111   7.976  0.8697 -0.9597  0.7024
 7439SOL     OW33778   1.298   2.532   3.462 -0.5900  0.0109  0.2249
 7439SOL    HW133779   1.350   2.589   3.520 -0.4267  0.2258 -0.1344
 7439SOL    HW233780   1.304   2.450   3.510 -1.8522  1.4659  2.9200
 7440SOL     OW33781   0.950   2.741   1.735 -0.3027 -0.2378  0.5393
 7440SOL    HW133782   1.028   2.781   1.698  0.8314 -1.7927  1.2454
 7440SOL    HW233783   0.956   2.770   1.826  0.7332 -0.6456  0.5962
 7441SOL     OW33784   3.433   1.278   5.627 -0.2928 -0.6045  0.1516
 7441SOL    HW133785   3.487   1.258   5.703 -0.1018 -0.4526  0.0535
 7441SOL    HW233786   3.419   1.372   5.635  0.2134 -0.5949  0.8400
 7442SOL     OW33787   3.296   4.427  17.238  0.0246 -0.0900 -0.6834
 7442SOL    HW133788   3.374   4.428  17.183  0.3010 -0.5065 -0.3011
 7442SOL    HW233789   3.339   4.457  17.318 -1.6785 -0.1672  0.2533
 7443SOL     OW33790   2.955   3.442   9.696  0.2728 -0.7155 -0.2732
 7443SOL    HW133791   2.870   3.485   9.695  1.1469  1.0051  0.3466
 7443SOL    HW233792   2.983   3.435   9.788  0.3113 -0.2418 -0.2526
 7444SOL     OW33793   1.225   1.733   8.019 -0.0794  0.0791  0.9940
 7444SOL    HW133794   1.262   1.762   7.936 -0.1015  0.1404  1.0051
 7444SOL    HW233795   1.300   1.697   8.065 -0.0254 -1.0680  0.0296
 7445SOL     OW33796   2.716   3.097   6.576 -0.1528  0.2542  0.4668
 7445SOL    HW133797   2.676   3.146   6.504  0.1116 -2.8665 -1.8224
 7445SOL    HW233798   2.639   3.082   6.630  1.2702  0.0094  2.4111
 7446SOL     OW33799   2.605   1.261   6.167 -0.3495  0.1258  0.3974
 7446SOL    HW133800   2.572   1.171   6.163  0.7270 -0.4150  4.0961
 7446SOL    HW233801   2.615   1.275   6.073 -0.1069 -2.6239  0.0101
 7447SOL     OW33802   1.830   2.998  14.215  0.1926  0.0888 -0.0011
 7447SOL    HW133803   1.904   2.957  14.169 -0.0978 -0.1450 -0.2561
 7447SOL    HW233804   1.824   3.089  14.188  3.2097  0.8316  1.8474
 7448SOL     OW33805   3.936   4.462   7.534 -0.1201  0.2366  0.3061
 7448SOL    HW133806   3.887   4.544   7.524  0.6939  0.7434  0.5279
 7448SOL    HW233807   3.908   4.445   7.624 -0.3843  0.3442  0.2441
 7449SOL     OW33808   1.775   3.658  14.043 -0.1042  0.4543 -0.8494
 7449SOL    HW133809   1.800   3.568  14.022 -0.5851  0.2801 -0.6747
 7449SOL    HW233810   1.854   3.696  14.079 -0.0737 -0.0302 -0.4086
 7450SOL     OW33811   1.927   3.937   0.690  0.7169 -0.1816 -0.1019
 7450SOL    HW133812   1.881   3.898   0.764  1.5030 -1.8078 -0.4690
 7450SOL    HW233813   2.014   3.951   0.727  0.1009  1.5073  0.7344
 7451SOL     OW33814   0.987   2.804   6.271 -0.8537  0.0076 -0.3673
 7451SOL    HW133815   1.041   2.753   6.332  0.3046  1.3122 -0.2921
 7451SOL    HW233816   0.901   2.773   6.298 -0.8782 -0.7137 -1.2836
 7452SOL     OW33817   3.109   1.837   0.574 -0.4286  0.1064 -0.2745
 7452SOL    HW133818   3.158   1.806   0.499  1.3424  2.1707  0.0352
 7452SOL    HW233819   3.020   1.850   0.542 -0.6041 -2.1003 -0.6635
 7453SOL     OW33820   1.562   1.044   0.503 -0.2115 -0.1372  0.0085
 7453SOL    HW133821   1.623   0.975   0.481 -2.1526 -1.0319 -2.4853
 7453SOL    HW233822   1.588   1.046   0.595  1.1835 -1.8489 -0.3626
 7454SOL     OW33823   1.387   0.968  16.342  0.7650 -0.1544 -0.1448
 7454SOL    HW133824   1.465   0.979  16.396  0.0826  0.2863  0.7555
 7454SOL    HW233825   1.384   0.875  16.319  1.4068  0.1106 -1.2784
 7455SOL     OW33826   0.259   2.535   7.300 -0.2166 -0.1265  0.0961
 7455SOL    HW133827   0.189   2.473   7.320 -0.3699 -0.1383 -0.4767
 7455SOL    HW233828   0.205   2.597   7.251  0.0322 -0.2651 -0.3459
 7456SOL     OW33829   2.921   3.191  12.643 -0.9524  0.1862  0.0430
 7456SOL    HW133830   2.886   3.203  12.732  0.5973 -1.1193  0.8371
 7456SOL    HW233831   2.990   3.126  12.656 -0.0409  0.8479 -1.4852
 7457SOL     OW33832   4.382   3.503   5.924  0.1892 -0.3699  0.1672
 7457SOL    HW133833   4.434   3.475   5.849 -0.7315 -1.4293 -0.0761
 7457SOL    HW233834   4.397   3.597   5.929  0.0928 -0.3202 -0.5089
 7458SOL     OW33835   4.371   3.333  15.366 -0.3777 -0.5016  0.0238
 7458SOL    HW133836   4.342   3.424  15.357  0.6500 -0.4037 -2.4907
 7458SOL    HW233837   4.307   3.301  15.429 -1.8165 -0.0469 -1.1909
 7459SOL     OW33838   3.288   2.174  13.631 -0.0876  0.7635 -0.4449
 7459SOL    HW133839   3.340   2.143  13.705 -0.7818  1.0981  0.1851
 7459SOL    HW233840   3.349   2.164  13.558  0.6826  1.0256  0.1608
 7460SOL     OW33841   2.642   0.626   3.329 -0.3606  0.5646  1.0831
 7460SOL    HW133842   2.585   0.626   3.253  3.2208  2.2095 -1.5788
 7460SOL    HW233843   2.675   0.716   3.334  0.0270  0.5039 -0.4500
 7461SOL     OW33844   3.417   0.004   3.198  0.0503 -0.2687  0.0171
 7461SOL    HW133845   3.513   0.011   3.200 -0.1260  1.2938  2.2665
 7461SOL    HW233846   3.400   4.696   3.108 -2.9746 -0.3547  0.6309
 7462SOL     OW33847   1.880   1.680   2.571 -0.3678 -0.3108 -0.1621
 7462SOL    HW133848   1.911   1.770   2.581  0.3718 -0.6709  0.7563
 7462SOL    HW233849   1.794   1.703   2.536  0.2609  1.2824 -0.6683
 7463SOL     OW33850   4.203   2.831   8.767  0.1655 -0.1004 -0.7585
 7463SOL    HW133851   4.229   2.814   8.676 -0.1263  0.8514 -1.0186
 7463SOL    HW233852   4.108   2.825   8.755 -0.3762  1.1011  2.9218
 7464SOL     OW33853   4.442   0.368  16.616  0.2348  0.7324 -0.1756
 7464SOL    HW133854   4.358   0.322  16.606 -0.6514  1.8906  1.9253
 7464SOL    HW233855   4.412   0.441  16.671  1.1239 -0.4189  1.8454
 7465SOL     OW33856   0.934   4.047  17.566  0.5102  0.0448 -0.4673
 7465SOL    HW133857   0.985   3.968  17.582  0.0436 -0.5293 -1.7610
 7465SOL    HW233858   0.978   4.084  17.489  3.3745 -2.4293 -0.0056
 7466SOL     OW33859   4.483   4.023   4.467 -0.0349  0.1752 -0.2128
 7466SOL    HW133860   4.514   4.047   4.555  1.0128  0.2719 -0.6072
 7466SOL    HW233861   4.537   4.071   4.404  1.6795  2.7965  3.2452
 7467SOL     OW33862   1.025   4.716   3.218 -0.1734 -0.1581 -0.0140
 7467SOL    HW133863   1.023   0.008   3.123 -1.0892  1.7847  0.2913
 7467SOL    HW233864   1.043   0.084   3.245 -1.0428 -0.9750  3.2946
 7468SOL     OW33865   3.940   3.331   3.688 -0.0159 -0.1854 -0.2111
 7468SOL    HW133866   3.848   3.355   3.680  0.2768  0.7992 -0.5884
 7468SOL    HW233867   3.947   3.334   3.784 -0.8687  2.5597 -0.2599
 7469SOL     OW33868   3.051   1.213   3.385  0.8855 -0.0322 -0.0095
 7469SOL    HW133869   3.132   1.165   3.367 -1.1227 -1.9612 -3.9833
 7469SOL    HW233870   3.087   1.298   3.361 -1.1658  0.9407  0.4030
 7470SOL     OW33871   1.928   4.056   3.031 -0.0711  0.2353 -0.7718
 7470SOL    HW133872   1.971   4.047   2.946  1.0114 -0.3860 -0.1529
 7470SOL    HW233873   1.968   4.137   3.061 -1.1655  0.2343  0.6646
 7471SOL     OW33874   3.801   4.464  12.802 -0.1460 -0.3104 -0.3625
 7471SOL    HW133875   3.863   4.502  12.739 -0.4555 -0.2005 -0.5983
 7471SOL    HW233876   3.854   4.441  12.879 -0.6536  0.2048  0.1399
 7472SOL     OW33877   3.902   0.621   4.510  0.1644  0.6194  0.6966
 7472SOL    HW133878   3.971   0.562   4.480 -0.1939  0.1315  0.8541
 7472SOL    HW233879   3.957   0.700   4.503  2.8091 -1.4228 -2.0027
 7473SOL     OW33880   3.983   2.127  16.253  0.2458 -0.1596  0.0416
 7473SOL    HW133881   3.934   2.132  16.171 -0.8044 -0.1235  0.6744
 7473SOL    HW233882   4.068   2.088  16.231  0.6890  0.4233  0.7397
 7474SOL     OW33883   2.602   3.501   6.344  0.1172 -0.5897 -0.2454
 7474SOL    HW133884   2.549   3.506   6.423 -1.6866 -0.3394 -1.4842
 7474SOL    HW233885   2.552   3.557   6.285 -0.4470  0.2298  1.0284
 7475SOL     OW33886   1.415   0.901  12.422 -0.1817  0.3926 -0.2115
 7475SOL    HW133887   1.335   0.953  12.434  0.2729  1.1293 -0.3946
 7475SOL    HW233888   1.479   0.968  12.400  1.6082 -0.6286  1.9047
 7476SOL     OW33889   1.127   2.860  14.443 -0.9071  0.2834 -0.0075
 7476SOL    HW133890   1.149   2.780  14.395  0.4930  0.3798  0.4549
 7476SOL    HW233891   1.033   2.859  14.425 -0.5179  0.0776 -1.9859
 7477SOL     OW33892   3.542   0.059   5.428  0.9135  0.3135  0.1674
 7477SOL    HW133893   3.565   4.691   5.408 -0.4248 -0.6375  2.9549
 7477SOL    HW233894   3.467   0.062   5.369  0.6479 -0.3598  0.4727
 7478SOL     OW33895   1.454   1.724   6.650  1.0524 -0.0004  0.1262
 7478SOL    HW133896   1.541   1.698   6.681 -0.1604 -4.5075 -0.1902
 7478SOL    HW233897   1.405   1.643   6.665 -2.7265  2.4419  0.8772
 7479SOL     OW33898   3.898   1.162  12.216 -0.9553 -0.8393 -0.3576
 7479SOL    HW133899   3.909   1.222  12.142  0.6898  1.3260  1.6294
 7479SOL    HW233900   3.954   1.196  12.286  2.2042 -0.1667 -3.1968
 7480SOL     OW33901   1.629   2.656   3.945 -0.1138 -0.2215 -0.0464
 7480SOL    HW133902   1.597   2.591   3.883  1.2250 -1.1783  0.2556
 7480SOL    HW233903   1.640   2.736   3.895 -0.5874  0.4700  0.9484
 7481SOL     OW33904   0.460   4.541   7.145 -0.0858 -0.7744 -0.4910
 7481SOL    HW133905   0.455   4.555   7.239  0.1359 -0.2887 -0.5473
 7481SOL    HW233906   0.552   4.557   7.124 -0.0734  1.1083  1.0275
 7482SOL     OW33907   2.478   2.534   5.706  0.4352 -0.0776 -0.1463
 7482SOL    HW133908   2.556   2.479   5.716  1.1965  0.9202 -0.6508
 7482SOL    HW233909   2.504   2.615   5.748  3.5315 -0.5353 -1.2119
 7483SOL     OW33910   0.516   0.679   8.224  0.5932  0.3253  0.1381
 7483SOL    HW133911   0.551   0.597   8.258 -1.7641 -0.7610 -0.1128
 7483SOL    HW233912   0.547   0.680   8.134 -0.9662 -2.9381 -0.4190
 7484SOL     OW33913   3.037   3.102   7.723  0.3922  0.0153 -0.1030
 7484SOL    HW133914   3.049   3.184   7.770  3.3195 -0.7109  0.4336
 7484SOL    HW233915   2.943   3.101   7.707  0.1132 -1.0748  1.5638
 7485SOL     OW33916   0.838   3.292  15.527  0.2820  0.0852 -0.1331
 7485SOL    HW133917   0.884   3.372  15.503  2.0011 -0.2506  2.0634
 7485SOL    HW233918   0.755   3.333  15.549 -0.0366 -0.3326 -0.5733
 7486SOL     OW33919   3.723   0.332  17.187  0.2936 -0.0732 -0.2666
 7486SOL    HW133920   3.741   0.245  17.225  2.9806  0.7802  0.4173
 7486SOL    HW233921   3.697   0.309  17.098 -2.5648  1.7530  0.1203
 7487SOL     OW33922   0.110   4.015   4.857 -0.0172 -0.0691 -0.3346
 7487SOL    HW133923   0.120   4.103   4.891 -2.1442 -1.2945  3.4441
 7487SOL    HW233924   0.197   4.007   4.819  0.2128  2.0403 -0.2364
 7488SOL     OW33925   2.219   1.435   4.647 -0.1014 -0.5781  0.1522
 7488SOL    HW133926   2.301   1.474   4.617 -0.1163 -1.0837 -0.5628
 7488SOL    HW233927   2.167   1.489   4.586  0.8589 -0.4803 -0.5759
 7489SOL     OW33928   2.807   4.325  13.247 -0.1333 -0.4311  0.0011
 7489SOL    HW133929   2.822   4.321  13.341 -0.3462  1.2835  0.1062
 7489SOL    HW233930   2.888   4.283  13.217  0.3304 -1.0729  2.1347
 7490SOL     OW33931   4.067   1.179   1.296 -0.2706  0.2665  0.2222
 7490SOL    HW133932   4.053   1.260   1.248 -0.5420  0.3699  0.4776
 7490SOL    HW233933   3.982   1.166   1.336  0.4450 -1.4082  1.2195
 7491SOL     OW33934   2.312   1.329   4.354  0.2114 -0.0851 -0.6188
 7491SOL    HW133935   2.323   1.283   4.437  2.2623  0.4025 -0.6299
 7491SOL    HW233936   2.392   1.309   4.306  1.7528  2.2813  0.9617
 7492SOL     OW33937   0.220   4.471   8.531 -0.1348  0.4897  1.0391
 7492SOL    HW133938   0.299   4.466   8.477  0.2581  0.8746  1.5795
 7492SOL    HW233939   0.222   4.392   8.586  1.0413 -0.0649  0.1962
 7493SOL     OW33940   0.708   4.421   1.382 -0.3569  0.4408 -0.6959
 7493SOL    HW133941   0.631   4.440   1.329 -0.6624 -4.2050 -1.8844
 7493SOL    HW233942   0.736   4.335   1.349  3.5240  1.7354 -0.8187
 7494SOL     OW33943   2.659   1.351   8.814  0.3836 -0.0025  0.3387
 7494SOL    HW133944   2.665   1.398   8.731  0.6538  0.2617  0.5039
 7494SOL    HW233945   2.574   1.308   8.817  0.5746 -0.3237  1.4411
 7495SOL     OW33946   1.421   4.169   9.645 -0.1503  0.4877  0.2561
 7495SOL    HW133947   1.423   4.265   9.641  0.7495  0.4254 -0.7762
 7495SOL    HW233948   1.469   4.163   9.728  1.1595  2.2190 -0.3757
 7496SOL     OW33949   4.653   2.232   1.520  0.4096  0.2815  0.3828
 7496SOL    HW133950   4.606   2.260   1.442  2.0946  0.1628 -0.6863
 7496SOL    HW233951   4.659   2.315   1.567 -0.9059 -0.2646  1.4825
 7497SOL     OW33952   0.514   3.038   2.444  0.2399 -0.3295  0.2929
 7497SOL    HW133953   0.485   2.949   2.464  1.0073 -0.7993 -0.7107
 7497SOL    HW233954   0.528   3.070   2.534 -0.1347 -2.1597  0.9959
 7498SOL     OW33955   1.057   1.752   3.157 -0.3907  0.2732  0.0021
 7498SOL    HW133956   1.058   1.660   3.130 -0.4637 -0.2960  1.9619
 7498SOL    HW233957   1.152   1.756   3.166 -0.4004 -2.3909  1.2422
 7499SOL     OW33958   4.092   1.770   7.048  0.6614  0.1334  0.1897
 7499SOL    HW133959   4.049   1.784   7.133  3.1793 -1.2588  1.6920
 7499SOL    HW233960   4.058   1.848   7.003 -0.4408  0.3029  1.3032
 7500SOL     OW33961   1.202   1.489   8.410 -0.0837 -0.0910  0.0860
 7500SOL    HW133962   1.124   1.463   8.458  0.1928 -1.2871 -0.1198
 7500SOL    HW233963   1.161   1.520   8.329  3.0499 -0.7856 -1.7559
 7501SOL     OW33964   2.991   4.174   3.799  0.0664  0.1862 -0.9523
 7501SOL    HW133965   2.925   4.159   3.731  0.1010 -0.3074 -0.8779
 7501SOL    HW233966   2.937   4.217   3.866 -0.9747 -1.4709 -0.7284
 7502SOL     OW33967   0.068   3.007   5.953 -0.4520 -0.5780 -0.3972
 7502SOL    HW133968   0.073   2.960   5.870  0.0667 -0.8184 -0.2317
 7502SOL    HW233969   0.155   2.989   5.989 -0.5886 -1.3594 -0.4620
 7503SOL     OW33970   4.502   1.879  11.928  0.0604  0.1590 -0.1184
 7503SOL    HW133971   4.444   1.894  11.853  0.9970 -1.0493 -1.0795
 7503SOL    HW233972   4.562   1.808  11.905  2.1810  1.1738  2.3098
 7504SOL     OW33973   0.276   4.118  15.353  0.4874  0.0218  0.0607
 7504SOL    HW133974   0.292   4.207  15.383  0.0056  0.9450 -2.3643
 7504SOL    HW233975   0.343   4.073  15.404 -0.3219  0.7036  1.7200
 7505SOL     OW33976   4.408   0.313   5.813 -0.1636  0.3961  0.0637
 7505SOL    HW133977   4.330   0.362   5.839  0.4354  1.9766 -1.1392
 7505SOL    HW233978   4.469   0.347   5.879 -0.3560  0.1326  0.3794
 7506SOL     OW33979   1.179   2.443  16.948  0.3044  0.2428  0.2937
 7506SOL    HW133980   1.179   2.494  17.029 -1.1922  0.2837  0.2714
 7506SOL    HW233981   1.273   2.453  16.932  0.0105  1.5909 -0.6082
 7507SOL     OW33982   4.713   0.509   9.141 -0.7049 -0.2705  0.2178
 7507SOL    HW133983   0.018   0.589   9.187  0.3413 -0.8741  0.6588
 7507SOL    HW233984   4.672   0.452   9.205 -1.3187 -1.3570 -1.1300
 7508SOL     OW33985   3.731   3.807   4.308 -0.7467 -0.1652  0.4019
 7508SOL    HW133986   3.793   3.867   4.350 -0.5090 -2.0857  2.8349
 7508SOL    HW233987   3.684   3.770   4.383  1.4801 -1.8391  0.9769
 7509SOL     OW33988   2.963   3.049   4.748  0.3539 -1.0348 -0.1345
 7509SOL    HW133989   2.889   3.014   4.797 -0.5195 -2.5052 -2.4733
 7509SOL    HW233990   2.923   3.086   4.669 -0.7672 -0.1455  0.8688
 7510SOL     OW33991   0.064   3.231   0.817 -0.1109 -0.3159 -0.4288
 7510SOL    HW133992   0.090   3.247   0.908 -1.7652  2.0056 -0.3676
 7510SOL    HW233993   0.015   3.149   0.820 -2.3248  1.1262  2.2925
 7511SOL     OW33994   2.539   3.188   7.500 -0.3777  0.0811  0.9608
 7511SOL    HW133995   2.609   3.140   7.456 -2.4820 -1.9382 -0.1573
 7511SOL    HW233996   2.586   3.215   7.579  1.4436 -1.1652  0.2961
 7512SOL     OW33997   1.946   2.144  12.132  0.4080  0.0707 -0.1685
 7512SOL    HW133998   2.001   2.089  12.077  0.5629 -1.2513  1.3090
 7512SOL    HW233999   1.883   2.078  12.158  0.3261  1.3299  2.8903
 7513SOL     OW34000   2.417   2.969   7.995 -0.4119  0.9552  0.0804
 7513SOL    HW134001   2.428   3.048   7.942  0.6450  0.0030 -1.1123
 7513SOL    HW234002   2.350   3.000   8.056  0.2455 -2.4857  2.5692
 7514SOL     OW34003   1.616   1.541   9.925  0.4078 -0.1438  0.3821
 7514SOL    HW134004   1.557   1.472   9.954 -2.5792  0.9587 -3.1289
 7514SOL    HW234005   1.553   1.606   9.894  0.0556  0.2611  1.8934
 7515SOL     OW34006   2.405   2.420   7.013 -0.2710 -0.3275  0.1701
 7515SOL    HW134007   2.412   2.329   6.984  2.2266 -1.1239  3.2962
 7515SOL    HW234008   2.473   2.427   7.080  1.8588 -3.2268 -1.6816
 7516SOL     OW34009   4.687   2.143  11.465  0.0963  0.0278  0.5692
 7516SOL    HW134010   0.050   2.138  11.509  0.2151 -1.8821  0.1323
 7516SOL    HW234011   4.680   2.239  11.466 -0.0661  0.0165  0.5957
 7517SOL     OW34012   1.374   2.683   4.545 -0.3122  0.5422 -0.3876
 7517SOL    HW134013   1.370   2.759   4.488 -0.4797  0.0098 -1.0840
 7517SOL    HW234014   1.346   2.720   4.629  0.9910  0.5202  0.0470
 7518SOL     OW34015   0.046   0.223   2.035 -0.1983  0.4466 -0.0582
 7518SOL    HW134016   0.044   0.180   2.121  0.9166 -0.9685 -0.7388
 7518SOL    HW234017   0.134   0.260   2.031  1.0619 -2.3806  1.2331
 7519SOL     OW34018   2.855   0.492   6.383 -0.4328  0.0805  0.2287
 7519SOL    HW134019   2.909   0.550   6.328  0.2294 -1.1411 -0.4034
 7519SOL    HW234020   2.843   0.553   6.456  1.3602 -0.6622  1.1486
 7520SOL     OW34021   0.517   3.858   8.550  0.5270  0.4115  0.1327
 7520SOL    HW134022   0.574   3.786   8.573 -0.1397 -0.3808 -0.6908
 7520SOL    HW234023   0.436   3.807   8.552  0.0185  1.1514 -1.0442
 7521SOL     OW34024   4.694   4.320  12.923 -0.1249  0.2864 -0.3771
 7521SOL    HW134025   0.029   4.388  12.890 -1.1636  1.8413  1.0171
 7521SOL    HW234026   4.704   4.333  13.017 -1.7782  0.4915 -0.2259
 7522SOL     OW34027   4.649   3.406   1.671 -0.5565 -0.1304 -0.8076
 7522SOL    HW134028   4.666   3.408   1.577  1.1666  3.0662 -0.4161
 7522SOL    HW234029   4.558   3.433   1.681 -0.1660  0.7849  0.3632
 7523SOL     OW34030   2.265   1.195   4.769  0.0454 -0.3324 -0.0083
 7523SOL    HW134031   2.259   1.281   4.729  1.6390 -0.3921 -0.3714
 7523SOL    HW234032   2.298   1.223   4.854  0.2578  3.0183 -1.2042
 7524SOL     OW34033   1.115   2.430   6.219  0.1200 -0.2152  0.6024
 7524SOL    HW134034   1.183   2.478   6.172 -0.5218 -0.9739 -1.0911
 7524SOL    HW234035   1.135   2.452   6.310 -1.8918  1.1352  0.7088
 7525SOL     OW34036   0.098   4.686   8.598 -0.1057  0.4121 -0.3147
 7525SOL    HW134037   0.151   4.614   8.565  0.2739  0.9415 -0.8570
 7525SOL    HW234038   0.073   4.636   8.677  0.9821  0.1931 -0.1115
 7526SOL     OW34039   1.931   1.973   1.755 -0.1229 -0.4774 -0.0535
 7526SOL    HW134040   1.965   2.050   1.800  2.7368 -0.8038 -1.6075
 7526SOL    HW234041   1.905   2.006   1.669 -2.7480  2.5893  1.9226
 7527SOL     OW34042   2.398   1.955   7.986 -0.7367  0.2882 -0.2411
 7527SOL    HW134043   2.325   2.006   7.952  1.0614  1.6108 -2.1474
 7527SOL    HW234044   2.445   1.932   7.906  0.7818 -0.1481  0.7673
 7528SOL     OW34045   2.516   3.627  17.021 -0.6182  0.2769  0.2052
 7528SOL    HW134046   2.424   3.610  17.000 -0.5496 -1.9508  1.7657
 7528SOL    HW234047   2.521   3.621  17.116 -1.5471 -0.5758  0.1999
 7529SOL     OW34048   0.534   1.964   3.005 -0.4038 -0.8558  0.0695
 7529SOL    HW134049   0.576   1.986   3.088 -1.9797  2.3723  0.0322
 7529SOL    HW234050   0.548   1.870   3.002  1.1231 -0.6131 -0.1952
 7530SOL     OW34051   1.357   2.508   0.539  0.3229  0.5005  0.2231
 7530SOL    HW134052   1.328   2.417   0.534  0.4231  0.6221 -2.1895
 7530SOL    HW234053   1.427   2.504   0.474  1.2887  1.4053  1.1922
 7531SOL     OW34054   1.041   0.440   6.330 -0.5513 -0.3547 -0.0332
 7531SOL    HW134055   1.071   0.403   6.413  0.2977  3.1495  1.2418
 7531SOL    HW234056   1.119   0.446   6.275  0.0751 -1.6826  0.7070
 7532SOL     OW34057   2.506   4.000   7.910  0.3303  0.5308  0.2411
 7532SOL    HW134058   2.487   4.028   7.820  2.0551 -0.2182 -0.3438
 7532SOL    HW234059   2.418   4.021   7.943  0.0586  1.5777 -1.1321
 7533SOL     OW34060   2.710   4.269   6.727 -0.1548  0.3469  0.1021
 7533SOL    HW134061   2.685   4.237   6.813 -2.7019  1.6773 -0.1465
 7533SOL    HW234062   2.630   4.241   6.684 -0.2161 -0.1209  0.5262
 7534SOL     OW34063   2.959   3.285   0.484 -0.3111 -0.0229  0.2456
 7534SOL    HW134064   3.012   3.364   0.496  0.4871 -0.3372 -1.2342
 7534SOL    HW234065   2.899   3.312   0.554  0.8124 -0.7131  1.4754
 7535SOL     OW34066   1.810   0.593   9.437  0.1333  0.0304 -0.0398
 7535SOL    HW134067   1.893   0.630   9.468 -0.0873  1.0667 -0.7047
 7535SOL    HW234068   1.773   0.550   9.514 -0.0377 -0.2905 -0.3053
 7536SOL     OW34069   1.402   1.919  11.349 -0.5475  0.0264 -0.5254
 7536SOL    HW134070   1.377   1.839  11.301  0.9073  0.0108 -1.2747
 7536SOL    HW234071   1.484   1.888  11.389 -0.9014 -0.9538 -0.5486
 7537SOL     OW34072   4.108   4.581   6.942  0.3264  0.1976  0.4908
 7537SOL    HW134073   4.089   4.491   6.915 -0.6100  0.0204  1.7521
 7537SOL    HW234074   4.184   4.599   6.887 -0.3573 -1.9186 -1.1841
 7538SOL     OW34075   0.775   1.721   6.926 -0.5030  0.2819 -0.2146
 7538SOL    HW134076   0.724   1.659   6.979 -0.9574  0.1645 -0.7851
 7538SOL    HW234077   0.757   1.800   6.976  0.5979 -0.0996  0.7787
 7539SOL     OW34078   0.991   2.154   3.292 -0.2592  0.4775 -0.3187
 7539SOL    HW134079   1.044   2.074   3.298 -1.1619  0.0425  1.8280
 7539SOL    HW234080   0.999   2.177   3.199 -2.1230 -2.0392 -1.1123
 7540SOL     OW34081   3.500   4.578   4.133 -0.7895 -0.5720 -0.4051
 7540SOL    HW134082   3.548   4.584   4.050 -0.9216 -0.8296 -0.4992
 7540SOL    HW234083   3.437   4.649   4.125  0.2263  0.2994 -0.6816
 7541SOL     OW34084   2.433   4.417   9.270  0.4383  0.5629 -0.2319
 7541SOL    HW134085   2.363   4.479   9.248  0.2525 -0.1441 -1.6139
 7541SOL    HW234086   2.475   4.428   9.185 -1.1112  1.7426 -0.8507
 7542SOL     OW34087   4.025   0.089   3.474  0.7115 -0.7436 -0.2212
 7542SOL    HW134088   4.005   4.718   3.471  0.2269 -0.5923 -1.8366
 7542SOL    HW234089   4.078   0.103   3.553 -0.5641 -0.8752  0.6566
 7543SOL     OW34090   2.564   2.265   6.707 -0.5579  0.1943 -0.1301
 7543SOL    HW134091   2.568   2.237   6.799  1.3315  0.6432 -0.0786
 7543SOL    HW234092   2.607   2.350   6.713 -1.0384  0.4717 -0.5658
 7544SOL     OW34093   4.232   0.286   1.026  0.2251 -0.3975  0.6101
 7544SOL    HW134094   4.161   0.346   1.005 -0.3221 -1.4102 -0.4253
 7544SOL    HW234095   4.272   0.268   0.941  0.3475  3.0826 -0.0668
 7545SOL     OW34096   0.600   0.869   8.403  0.5360 -0.1497  0.4013
 7545SOL    HW134097   0.544   0.935   8.362 -0.7873 -0.3118  1.9519
 7545SOL    HW234098   0.568   0.792   8.356 -1.3166  0.7989  0.1157
 7546SOL     OW34099   4.683   0.264   3.672  0.7062  0.1173 -0.4272
 7546SOL    HW134100   0.021   0.202   3.630 -0.6189 -1.4483  0.0160
 7546SOL    HW234101   4.691   0.223   3.758  2.8353 -0.1760 -0.7424
 7547SOL     OW34102   2.240   1.092   5.534 -0.5473  0.8573  0.2822
 7547SOL    HW134103   2.323   1.079   5.580 -0.9434 -0.2689  0.6655
 7547SOL    HW234104   2.227   1.007   5.493 -0.0998  1.9979 -2.2856
 7548SOL     OW34105   0.429   1.193   5.376  0.0518 -0.4373 -0.0982
 7548SOL    HW134106   0.372   1.238   5.313  2.9769  0.3204 -2.2251
 7548SOL    HW234107   0.426   1.259   5.445 -1.1075 -0.4480 -0.1387
 7549SOL     OW34108   0.794   2.456   4.081  0.0740 -0.3808  0.4080
 7549SOL    HW134109   0.874   2.434   4.035  0.3064  0.0694  0.5957
 7549SOL    HW234110   0.817   2.456   4.174 -1.0731 -0.6009  0.6940
 7550SOL     OW34111   0.748   3.107   5.940 -0.3862  0.1402  0.4200
 7550SOL    HW134112   0.785   3.193   5.917  0.9136  0.0853  2.3839
 7550SOL    HW234113   0.828   3.064   5.970  1.1663  1.0875 -2.2559
 7551SOL     OW34114   1.681   0.688   7.877 -0.3325 -0.3888  0.5660
 7551SOL    HW134115   1.658   0.650   7.792 -4.7523  0.9776  1.1384
 7551SOL    HW234116   1.639   0.774   7.874 -0.4948 -0.5017 -0.3893
 7552SOL     OW34117   1.508   2.220   8.811 -0.1354 -0.3737  0.4442
 7552SOL    HW134118   1.436   2.183   8.863  0.5443 -0.8259  1.0652
 7552SOL    HW234119   1.552   2.138   8.789 -1.2280 -0.6980 -0.5105
 7553SOL     OW34120   4.593   4.342   2.315 -0.3321 -0.3991 -0.5300
 7553SOL    HW134121   4.669   4.291   2.285  0.2971 -0.7028  1.5354
 7553SOL    HW234122   4.607   4.416   2.256  0.0011  0.2644  0.3816
 7554SOL     OW34123   3.514   0.619   3.943  0.1691  0.4844  0.1040
 7554SOL    HW134124   3.419   0.620   3.942  0.1917  1.0414 -1.4395
 7554SOL    HW234125   3.533   0.698   3.893 -1.4318  1.3548  0.8821
 7555SOL     OW34126   3.254   3.495   6.375 -0.2465  0.2925 -0.6352
 7555SOL    HW134127   3.189   3.432   6.346 -2.2197  1.5091  1.1361
 7555SOL    HW234128   3.329   3.436   6.385 -0.1862  0.3236 -0.9113
 7556SOL     OW34129   2.453   3.648   6.534  0.0995 -0.3652 -0.2393
 7556SOL    HW134130   2.391   3.712   6.498 -2.3485 -1.7932  1.4290
 7556SOL    HW234131   2.433   3.640   6.627 -0.2196 -0.2674 -0.3002
 7557SOL     OW34132   4.545   0.471  10.581  0.3743  0.6667 -0.2870
 7557SOL    HW134133   4.599   0.415  10.526 -1.0885 -1.7265  0.7479
 7557SOL    HW234134   4.459   0.434  10.559  1.2350 -1.4526 -0.0183
 7558SOL     OW34135   3.480   3.171  16.986 -0.6327  0.3162  0.1733
 7558SOL    HW134136   3.479   3.264  17.009 -0.9615  0.4298 -0.2968
 7558SOL    HW234137   3.441   3.140  17.067  0.1289  0.7513  0.7067
 7559SOL     OW34138   4.537   2.227   3.041  0.4519 -0.4011 -0.3127
 7559SOL    HW134139   4.598   2.162   3.076  0.0412 -1.6058 -1.8638
 7559SOL    HW234140   4.451   2.190   3.060  0.7381  0.0044  1.8186
 7560SOL     OW34141   4.274   1.680  17.265 -0.7557  0.4029 -0.1263
 7560SOL    HW134142   4.240   1.611  17.322  0.8068 -0.7146 -0.5458
 7560SOL    HW234143   4.221   1.672  17.186 -2.2749  2.1295  0.6978
 7561SOL     OW34144   2.586   0.193  10.626 -0.2234  0.4921  0.3876
 7561SOL    HW134145   2.521   0.132  10.592  1.8480 -1.7439  0.4296
 7561SOL    HW234146   2.627   0.142  10.696  0.7479  1.5907  0.6301
 7562SOL     OW34147   2.794   4.186  17.651  0.4741 -0.2297 -0.0311
 7562SOL    HW134148   2.703   4.180  17.620  0.4377 -1.6260  0.3596
 7562SOL    HW234149   2.788   4.148   0.048 -0.5594 -0.7776 -0.3406
 7563SOL     OW34150   4.450   0.229   2.105 -0.2682  0.3840 -0.4142
 7563SOL    HW134151   4.493   0.162   2.051  2.6455  2.1502 -0.3053
 7563SOL    HW234152   4.359   0.234   2.075 -0.2216 -3.6770 -1.2376
 7564SOL     OW34153   4.612   1.776  14.354 -0.5562 -0.0023  0.3178
 7564SOL    HW134154   4.547   1.725  14.305  0.9449 -2.6663  1.1677
 7564SOL    HW234155   4.649   1.709  14.410  0.3466 -1.7345 -2.3423
 7565SOL     OW34156   0.373   3.096   6.922  0.3448  0.0133 -0.2632
 7565SOL    HW134157   0.352   3.125   7.011 -0.6223 -0.7713 -0.2368
 7565SOL    HW234158   0.285   3.066   6.899  0.8743 -1.5564 -0.2220
 7566SOL     OW34159   1.681   1.376   1.392 -0.0255  0.0846 -0.8169
 7566SOL    HW134160   1.611   1.432   1.426  1.6017  0.9288  1.1456
 7566SOL    HW234161   1.657   1.355   1.302  2.2939  0.5548 -1.5279
 7567SOL     OW34162   0.566   1.604   6.547  0.3620  0.0892  0.3053
 7567SOL    HW134163   0.498   1.613   6.480  0.7292 -2.0319 -0.3654
 7567SOL    HW234164   0.645   1.603   6.494  1.5722 -0.8218  2.1128
 7568SOL     OW34165   1.905   3.774   6.696  0.3003  0.2674  0.2444
 7568SOL    HW134166   1.865   3.696   6.735 -0.4621  0.4406 -0.1805
 7568SOL    HW234167   1.859   3.784   6.612 -1.8612  1.9476  1.6356
 7569SOL     OW34168   4.179   3.877   5.849  0.2352  0.2852  0.1593
 7569SOL    HW134169   4.134   3.822   5.914  0.1255  0.1094 -0.0672
 7569SOL    HW234170   4.122   3.954   5.849  0.1311  0.2096  1.9497
 7570SOL     OW34171   4.652   3.099   5.125 -0.1717 -0.0175 -0.0589
 7570SOL    HW134172   4.587   3.051   5.074  0.8442 -0.2148 -1.1809
 7570SOL    HW234173   4.713   3.129   5.057  0.4054 -2.1145 -0.4741
 7571SOL     OW34174   2.863   1.672   3.920  0.6869 -0.2212  0.5643
 7571SOL    HW134175   2.893   1.693   3.832  1.2955 -0.8414  0.6201
 7571SOL    HW234176   2.790   1.733   3.922 -0.2775 -1.3383 -0.3996
 7572SOL     OW34177   3.696   0.415  14.770  0.7223  0.2344 -0.3712
 7572SOL    HW134178   3.745   0.493  14.795  2.6537 -1.0469 -0.1450
 7572SOL    HW234179   3.684   0.424  14.675  2.4541  0.0141 -0.6000
 7573SOL     OW34180   1.676   0.317   6.413 -0.3514 -0.1204 -0.2465
 7573SOL    HW134181   1.768   0.336   6.399 -0.4585 -0.6170 -1.5905
 7573SOL    HW234182   1.675   0.303   6.508  2.6476 -0.2826 -0.2593
 7574SOL     OW34183   1.784   3.249   4.807  0.5767 -0.3558 -0.1970
 7574SOL    HW134184   1.823   3.335   4.791  0.4890 -0.6070 -1.8005
 7574SOL    HW234185   1.849   3.219   4.870 -0.3816 -1.4162  0.2900
 7575SOL     OW34186   1.113   2.677  15.903 -0.6095 -0.3186 -0.0511
 7575SOL    HW134187   1.078   2.735  15.835 -3.5193 -0.6396  1.1830
 7575SOL    HW234188   1.145   2.742  15.965 -0.3216 -0.0133 -0.5224
 7576SOL     OW34189   0.601   2.495  10.128 -0.3591  0.2148  0.2703
 7576SOL    HW134190   0.599   2.408  10.089 -1.7297  0.2263  0.3040
 7576SOL    HW234191   0.613   2.537  10.043 -1.5729  1.6097  0.7830
 7577SOL     OW34192   3.117   4.628   5.065 -0.0197  0.4979  1.1754
 7577SOL    HW134193   3.168   4.674   4.998 -0.2953  1.2401  1.4672
 7577SOL    HW234194   3.112   4.540   5.028 -2.6610  1.5818 -1.0506
 7578SOL     OW34195   1.710   1.842  15.039  0.2369 -0.5986  0.3503
 7578SOL    HW134196   1.634   1.893  15.065  1.2697  0.7280  0.7792
 7578SOL    HW234197   1.768   1.917  15.023  0.2040 -0.6053  0.1959
 7579SOL     OW34198   3.105   3.744   7.441 -0.5554  0.2843 -0.0711
 7579SOL    HW134199   3.160   3.673   7.410 -3.2475 -1.7959 -0.0565
 7579SOL    HW234200   3.167   3.814   7.421  0.4428 -0.4852  0.3798
 7580SOL     OW34201   4.397   4.191   2.728  0.0296  0.0922 -0.3208
 7580SOL    HW134202   4.400   4.286   2.738 -2.8991  0.2471 -0.8451
 7580SOL    HW234203   4.412   4.176   2.634  0.6434  1.3351 -0.4115
 7581SOL     OW34204   3.369   1.905  13.363 -0.1748 -0.2047  0.3170
 7581SOL    HW134205   3.349   1.998  13.372  0.7014 -0.0002  0.1821
 7581SOL    HW234206   3.455   1.901  13.405  0.4246 -1.7641 -1.0375
 7582SOL     OW34207   3.009   4.403   3.149  0.1974 -0.0605 -1.0478
 7582SOL    HW134208   2.981   4.494   3.162 -2.2492 -1.1582  1.2727
 7582SOL    HW234209   3.100   4.410   3.122 -0.1485  0.4503 -2.0760
 7583SOL     OW34210   4.411   3.266  11.755 -0.2361  0.2309 -0.1990
 7583SOL    HW134211   4.493   3.279  11.707 -0.6625 -3.6988 -1.9121
 7583SOL    HW234212   4.447   3.222  11.832  0.4618 -0.7788 -1.1006
 7584SOL     OW34213   1.576   3.977   8.037 -0.3448 -0.3754  0.0115
 7584SOL    HW134214   1.494   4.022   8.017  1.2819  2.5863  0.0336
 7584SOL    HW234215   1.632   4.006   7.965  1.1204 -2.4810  0.3044
 7585SOL     OW34216   2.230   0.059   3.211  0.4031  1.0028 -1.0643
 7585SOL    HW134217   2.159   0.114   3.179  0.4016  1.2857 -0.5907
 7585SOL    HW234218   2.306   0.101   3.171  2.1014  0.3567  1.4270
 7586SOL     OW34219   4.479   0.005  14.151 -0.2011 -0.2400  0.0733
 7586SOL    HW134220   4.486   0.006  14.246  0.8437 -2.5574  0.0203
 7586SOL    HW234221   4.384   4.716  14.139 -0.1081 -0.7399 -0.2091
 7587SOL     OW34222   2.841   3.776   7.394 -0.1696  0.1651 -0.5399
 7587SOL    HW134223   2.823   3.694   7.347  1.3949 -0.6474  0.2974
 7587SOL    HW234224   2.933   3.761   7.414  0.1523 -0.0778 -2.1934
 7588SOL     OW34225   0.090   1.730   0.538  0.3014 -0.1327  0.3810
 7588SOL    HW134226   0.166   1.677   0.563  0.7312 -0.1787 -1.0014
 7588SOL    HW234227   0.022   1.675   0.502  2.2895 -1.8619 -0.7297
 7589SOL     OW34228   1.404   4.515   3.332  0.1007  0.8454  0.1959
 7589SOL    HW134229   1.309   4.512   3.344  0.0833  3.0017  0.5608
 7589SOL    HW234230   1.420   4.459   3.256 -2.4799  1.1241 -0.5396
 7590SOL     OW34231   0.891   2.897   1.443  0.0141  0.0668  0.6591
 7590SOL    HW134232   0.912   2.965   1.379 -1.2258 -0.8971 -0.7747
 7590SOL    HW234233   0.979   2.881   1.477  0.7115 -1.4848 -1.8946
 7591SOL     OW34234   0.281   1.596  16.185 -0.0379  0.3603  0.0125
 7591SOL    HW134235   0.223   1.656  16.232 -1.1509 -1.1864  0.5951
 7591SOL    HW234236   0.235   1.513  16.188 -0.7188  0.6795 -1.7680
 7592SOL     OW34237   3.371   1.988   0.483 -0.1809 -0.1408 -1.1704
 7592SOL    HW134238   3.324   2.005   0.402  0.6732  0.6835 -1.4909
 7592SOL    HW234239   3.457   1.955   0.455  0.7347  0.7141  0.6045
 7593SOL     OW34240   4.440   3.252   0.707  0.0655 -0.2514  0.2297
 7593SOL    HW134241   4.400   3.170   0.737  0.3314 -1.1368 -1.8054
 7593SOL    HW234242   4.452   3.297   0.790 -0.7874 -0.4388  0.4569
 7594SOL     OW34243   2.772   0.427  13.991 -0.2349  0.0481 -0.3675
 7594SOL    HW134244   2.787   0.434  13.897 -0.9295  1.5776 -0.3687
 7594SOL    HW234245   2.856   0.400  14.026  0.5328  0.8664 -1.5876
 7595SOL     OW34246   1.410   0.879   4.851  0.1422  0.3651  0.3346
 7595SOL    HW134247   1.390   0.845   4.764 -1.4431  1.8425  0.1138
 7595SOL    HW234248   1.447   0.963   4.822  0.8063 -0.5842 -1.5454
 7596SOL     OW34249   0.304   2.237   2.475 -0.0261  0.1731  0.2529
 7596SOL    HW134250   0.342   2.325   2.482 -0.0071  0.2879 -1.4557
 7596SOL    HW234251   0.381   2.186   2.502  0.1832  1.2661  1.7716
 7597SOL     OW34252   1.132   3.895  15.576  0.2413 -0.2291 -0.6081
 7597SOL    HW134253   1.041   3.920  15.591  0.4641  0.9821 -1.2646
 7597SOL    HW234254   1.144   3.908  15.482 -0.5514 -0.1170 -0.6917
 7598SOL     OW34255   0.396   1.646   6.337  0.4584 -0.3983  0.0239
 7598SOL    HW134256   0.359   1.609   6.257 -0.6137  0.7162 -0.0001
 7598SOL    HW234257   0.436   1.728   6.308  0.7464 -0.8767 -0.9208
 7599SOL     OW34258   4.467   0.042   5.780  0.4761  0.0378  0.2133
 7599SOL    HW134259   4.379   0.068   5.807  0.4370  1.0147 -0.8385
 7599SOL    HW234260   4.505   0.130   5.780  0.2000  0.1501 -3.4616
 7600SOL     OW34261   0.897   3.502   0.413  0.1412  0.0668  0.1088
 7600SOL    HW134262   0.962   3.532   0.350  1.5746 -0.0578  1.5184
 7600SOL    HW234263   0.950   3.456   0.479  0.0072 -0.8450 -0.4085
 7601SOL     OW34264   4.262   1.817  11.402 -0.2035  0.1057 -0.7045
 7601SOL    HW134265   4.337   1.871  11.424  1.5159 -2.0938 -1.1797
 7601SOL    HW234266   4.191   1.843  11.461 -0.0134  1.1700 -0.9472
 7602SOL     OW34267   0.355   1.235   2.494  0.1278  0.0230  0.4185
 7602SOL    HW134268   0.349   1.161   2.433 -1.3452  0.1292  0.4329
 7602SOL    HW234269   0.449   1.249   2.488 -0.0793 -0.0448 -3.0485
 7603SOL     OW34270   0.076   2.066   7.953  0.4634 -0.4818 -0.3096
 7603SOL    HW134271   0.112   2.152   7.932  0.3602 -0.3202  0.1838
 7603SOL    HW234272   0.061   2.027   7.867  1.6885  1.7906 -1.5561
 7604SOL     OW34273   3.750   0.167   8.664 -0.1325  0.4687  0.5463
 7604SOL    HW134274   3.697   0.159   8.585 -1.3592 -1.6925  1.6148
 7604SOL    HW234275   3.699   0.123   8.732 -1.3426  0.1045 -0.5977
 7605SOL     OW34276   3.946   2.647   5.223  0.2149  0.1041  0.0285
 7605SOL    HW134277   3.999   2.689   5.292 -0.4627 -1.7471  1.6591
 7605SOL    HW234278   3.874   2.612   5.275  0.0334  0.5651  0.0833
 7606SOL     OW34279   0.655   4.656   5.493  0.3152 -0.3261 -0.2345
 7606SOL    HW134280   0.669   4.629   5.584  0.9795 -0.7165 -0.4539
 7606SOL    HW234281   0.668   0.029   5.494  3.2258 -0.7735  2.5774
 7607SOL     OW34282   3.659   1.098   7.434  0.1730  0.3157  0.7079
 7607SOL    HW134283   3.675   1.025   7.495 -0.4718 -0.5946 -0.2141
 7607SOL    HW234284   3.596   1.153   7.480 -1.2570  0.7572 -1.8111
 7608SOL     OW34285   0.083   2.632  11.052 -0.4690 -0.1316  0.6925
 7608SOL    HW134286   0.065   2.582  11.131  1.3960 -1.7267  0.1159
 7608SOL    HW234287   0.159   2.592  11.011 -1.5536 -3.1058  1.6097
 7609SOL     OW34288   1.757   0.472   3.156 -0.1629 -0.6169 -0.0305
 7609SOL    HW134289   1.769   0.556   3.200  0.7000  0.1437 -1.7396
 7609SOL    HW234290   1.788   0.419   3.230 -1.5601  2.2185  2.5843
 7610SOL     OW34291   3.299   3.565   3.657  0.2452 -0.3745  0.4274
 7610SOL    HW134292   3.334   3.541   3.571  1.0050  0.0610  0.6160
 7610SOL    HW234293   3.360   3.517   3.713  2.3860  3.9942  1.7916
 7611SOL     OW34294   2.394   0.393  10.667  0.3441 -0.6327 -0.1778
 7611SOL    HW134295   2.463   0.333  10.638  0.2560 -0.2327 -1.2110
 7611SOL    HW234296   2.392   0.384  10.763 -3.0220  0.6524 -0.1310
 7612SOL     OW34297   2.336   2.379   4.620 -0.4286 -0.1258 -1.0227
 7612SOL    HW134298   2.364   2.442   4.687 -2.4028  2.1111 -2.3130
 7612SOL    HW234299   2.421   2.356   4.583  1.1914  1.1832  1.9014
 7613SOL     OW34300   4.339   1.470  14.483  0.3837 -0.0147  0.0139
 7613SOL    HW134301   4.265   1.439  14.431  1.2473 -1.6316 -0.2399
 7613SOL    HW234302   4.295   1.517  14.554 -2.7965 -3.0440  0.0287
 7614SOL     OW34303   3.005   0.422   8.871  0.0690  0.1143  0.5225
 7614SOL    HW134304   3.073   0.486   8.890 -0.2614  0.7536 -0.4421
 7614SOL    HW234305   3.044   0.346   8.915 -1.6296 -0.8164  0.4441
 7615SOL     OW34306   1.937   2.755   3.985 -0.8088 -0.1740  0.3771
 7615SOL    HW134307   1.847   2.729   4.006 -0.8012  0.2843  0.9890
 7615SOL    HW234308   1.947   2.725   3.895 -0.3268  1.2407 -0.0462
 7616SOL     OW34309   4.597   0.071   2.308  0.8191  0.2740 -0.4706
 7616SOL    HW134310   4.524   0.010   2.296  1.5804 -0.3930 -1.6766
 7616SOL    HW234311   4.571   0.150   2.260  2.4265  0.8630 -0.3606
 7617SOL     OW34312   1.294   2.131   4.945  0.1997  0.4492 -0.2451
 7617SOL    HW134313   1.366   2.171   4.896  0.1333 -0.0583 -0.7750
 7617SOL    HW234314   1.303   2.040   4.915 -0.3903  0.3179 -0.0229
 7618SOL     OW34315   1.056   3.170   6.083 -0.0007  0.2369 -0.3495
 7618SOL    HW134316   1.000   3.095   6.100  1.3580 -1.0863 -1.7376
 7618SOL    HW234317   1.127   3.153   6.143 -0.6064 -1.3245 -0.0931
 7619SOL     OW34318   3.144   1.751   0.316 -0.0913  0.3860 -0.2345
 7619SOL    HW134319   3.212   1.684   0.314 -1.8215 -1.4157  1.1694
 7619SOL    HW234320   3.080   1.707   0.261 -0.0877  0.2216 -0.1093
 7620SOL     OW34321   2.413   3.109   2.468 -0.1028 -0.3204  0.2288
 7620SOL    HW134322   2.464   3.049   2.413  1.0212  1.0347 -0.1890
 7620SOL    HW234323   2.427   3.055   2.546  3.1556  0.0134 -0.1181
 7621SOL     OW34324   2.857   2.249  12.418  0.6972  0.7635  0.4152
 7621SOL    HW134325   2.862   2.254  12.323  0.5895  0.2586  0.3859
 7621SOL    HW234326   2.820   2.163  12.436  0.2833  0.5764 -1.3782
 7622SOL     OW34327   2.302   0.382   7.915  0.2034 -0.2703 -0.1735
 7622SOL    HW134328   2.281   0.302   7.868  0.7332 -1.0208  0.8810
 7622SOL    HW234329   2.366   0.335   7.968  1.8475  1.8289 -0.2438
 7623SOL     OW34330   1.261   2.464  12.245  0.0768  0.2236 -0.9688
 7623SOL    HW134331   1.285   2.525  12.175  1.4172  0.3045 -0.4344
 7623SOL    HW234332   1.267   2.381  12.199 -1.9617 -1.1813  1.2689
 7624SOL     OW34333   1.005   2.356  12.288  0.0132 -0.1899 -0.4415
 7624SOL    HW134334   0.929   2.302  12.267 -0.3715  0.4309 -0.6425
 7624SOL    HW234335   0.966   2.442  12.271  3.1760  1.4453  0.6614
 7625SOL     OW34336   4.454   3.407   2.678  0.0333 -0.1280 -0.1363
 7625SOL    HW134337   4.533   3.352   2.676  0.1092  0.0542 -2.5928
 7625SOL    HW234338   4.492   3.491   2.651 -2.0093  0.7276 -0.3529
 7626SOL     OW34339   1.433   3.683   4.431  0.0994 -0.3249  0.2142
 7626SOL    HW134340   1.423   3.588   4.440  1.3683 -0.7171 -2.3620
 7626SOL    HW234341   1.489   3.684   4.353  1.0072 -2.0972  0.8250
 7627SOL     OW34342   0.118   3.387  14.329  0.0945 -0.8099  0.0946
 7627SOL    HW134343   0.073   3.390  14.244  0.3232 -0.2854 -0.0045
 7627SOL    HW234344   0.204   3.412  14.298 -0.0594 -0.7112 -0.2521
 7628SOL     OW34345   3.322   1.346   0.625  0.1668  0.0225 -0.0885
 7628SOL    HW134346   3.309   1.440   0.642  0.8715  0.0219  0.4834
 7628SOL    HW234347   3.308   1.298   0.706 -0.9345 -0.0863 -0.3543
 7629SOL     OW34348   0.168   3.824   3.679 -0.1315  0.2952  0.0925
 7629SOL    HW134349   0.167   3.920   3.683  3.4487  0.3071  0.0198
 7629SOL    HW234350   0.259   3.799   3.695  0.2965 -0.2849 -3.3201
 7630SOL     OW34351   2.894   2.673   6.498 -0.1930 -0.5663  0.1028
 7630SOL    HW134352   2.862   2.724   6.423 -0.5447 -1.4247 -0.3345
 7630SOL    HW234353   2.881   2.744   6.560  1.0671  1.0742 -1.5042
 7631SOL     OW34354   0.504   2.975   7.474  0.1211 -0.0221 -0.2116
 7631SOL    HW134355   0.418   3.009   7.449  0.3541 -0.2508 -1.3103
 7631SOL    HW234356   0.472   2.888   7.498 -1.6903  0.0043 -2.5210
 7632SOL     OW34357   1.712   1.784   8.533  0.1931  0.5281 -0.8736
 7632SOL    HW134358   1.740   1.830   8.454  0.8587 -1.1192 -1.6127
 7632SOL    HW234359   1.792   1.769   8.583 -0.5218  1.7303  0.5897
 7633SOL     OW34360   3.944   0.196   0.401  0.0728 -0.8927 -0.2369
 7633SOL    HW134361   4.011   0.233   0.459 -0.3523 -0.4816 -0.0070
 7633SOL    HW234362   3.990   0.200   0.317  0.9737 -1.4682  0.2255
 7634SOL     OW34363   2.543   2.009   6.572 -0.1114 -0.2426 -0.0758
 7634SOL    HW134364   2.529   2.097   6.609  0.5843 -0.1727  0.0123
 7634SOL    HW234365   2.578   1.959   6.645  0.2750 -1.8351 -1.3534
 7635SOL     OW34366   1.262   0.600   6.999  0.1825  0.6070  0.0869
 7635SOL    HW134367   1.183   0.578   6.950 -0.3776  1.4539  0.6200
 7635SOL    HW234368   1.227   0.569   7.082 -1.9661  2.0872 -0.2829
 7636SOL     OW34369   2.104   1.040   2.567  0.5517  0.2878  0.1991
 7636SOL    HW134370   2.067   1.094   2.636  0.0020 -0.2007  0.2942
 7636SOL    HW234371   2.175   1.095   2.535  0.7382 -0.5287 -0.8163
 7637SOL     OW34372   3.099   0.802   5.292 -0.8106  0.3667  0.1482
 7637SOL    HW134373   3.152   0.879   5.314 -0.6400  0.3162 -0.0822
 7637SOL    HW234374   3.157   0.734   5.257 -0.5157  1.2422 -1.0616
 7638SOL     OW34375   4.596   2.726   7.858 -0.4159  0.1536  0.3014
 7638SOL    HW134376   4.517   2.755   7.813 -1.0545  0.1053  1.4088
 7638SOL    HW234377   4.594   2.765   7.945 -0.1461 -1.6209  1.0820
 7639SOL     OW34378   2.746   2.091   3.067  0.7552 -0.6619  0.3937
 7639SOL    HW134379   2.826   2.137   3.095  2.3774 -2.4625 -1.2840
 7639SOL    HW234380   2.780   2.044   2.990  0.7341 -2.6484  1.6043
 7640SOL     OW34381   2.410   3.473   2.673  0.1257 -0.3926 -0.4822
 7640SOL    HW134382   2.368   3.534   2.734 -1.0268 -1.8396  0.1584
 7640SOL    HW234383   2.496   3.459   2.713  0.1272  0.0908 -0.3136
 7641SOL     OW34384   1.955   4.525  15.536 -0.0153  0.1049 -0.4621
 7641SOL    HW134385   1.913   4.464  15.476  0.4809 -2.0630  1.3870
 7641SOL    HW234386   2.037   4.483  15.561 -0.4400 -0.1723  0.5052
 7642SOL     OW34387   2.228   4.566   3.017 -0.1790  0.3139 -0.7725
 7642SOL    HW134388   2.140   4.602   3.005 -0.3692  0.6548  1.5118
 7642SOL    HW234389   2.255   4.604   3.101 -0.3253 -1.0072 -0.1263
 7643SOL     OW34390   2.872   3.968   6.728 -0.0835  0.3796  0.1526
 7643SOL    HW134391   2.848   3.887   6.683  0.5885 -0.4569  1.2696
 7643SOL    HW234392   2.851   4.035   6.663  1.4616  1.3979  0.7042
 7644SOL     OW34393   1.556   3.989   4.591  0.2567  0.0621  0.1090
 7644SOL    HW134394   1.485   3.926   4.581 -0.0075  0.3695  0.0885
 7644SOL    HW234395   1.516   4.057   4.645 -0.4592  0.9007 -1.5055
 7645SOL     OW34396   1.295   4.525  12.198 -0.3432  0.0320  0.1727
 7645SOL    HW134397   1.288   4.541  12.104  1.5080  0.1162  0.0536
 7645SOL    HW234398   1.388   4.546  12.193 -1.0367  2.7105 -1.1971
 7646SOL     OW34399   4.131   2.836   3.309  0.8194 -0.2068 -0.6773
 7646SOL    HW134400   4.177   2.842   3.393 -0.0103  0.0674 -0.2427
 7646SOL    HW234401   4.072   2.912   3.312  0.4814 -0.4291 -1.5921
 7647SOL     OW34402   1.899   1.981  14.042  0.5061 -0.3376 -0.0314
 7647SOL    HW134403   1.894   2.026  13.958  1.2015  1.2906  0.7796
 7647SOL    HW234404   1.894   1.890  14.013 -2.8474  0.4845 -1.9840
 7648SOL     OW34405   2.017   2.010   9.229  0.1473 -0.0013 -0.0711
 7648SOL    HW134406   1.938   1.960   9.212 -0.1322 -0.3472  2.3440
 7648SOL    HW234407   2.019   2.075   9.158 -1.4702 -2.0165 -1.9650
 7649SOL     OW34408   0.665   4.623   2.987 -0.3092  0.1458  0.2366
 7649SOL    HW134409   0.617   4.702   2.962 -1.6658 -0.9067 -0.5100
 7649SOL    HW234410   0.682   4.639   3.080 -0.5005  0.7870  0.1600
 7650SOL     OW34411   4.050   3.019  11.014  0.1752  0.7882  0.0642
 7650SOL    HW134412   4.025   2.952  10.951 -0.5808 -1.0211  2.3266
 7650SOL    HW234413   4.001   3.091  10.974 -1.2572 -0.1985  0.0589
 7651SOL     OW34414   4.237   2.540  10.060  0.2603  0.1198  0.2330
 7651SOL    HW134415   4.270   2.455  10.089 -0.6898  0.1438  1.3437
 7651SOL    HW234416   4.207   2.512   9.973  2.6404 -0.2458 -0.4801
 7652SOL     OW34417   3.713   1.005   1.835 -0.2037 -0.2774  0.3622
 7652SOL    HW134418   3.806   0.980   1.840  0.5021  2.3852  0.5925
 7652SOL    HW234419   3.712   1.071   1.765 -1.1235 -0.4797  0.1938
 7653SOL     OW34420   3.411   1.084   6.265  0.3661 -0.1505  0.0456
 7653SOL    HW134421   3.323   1.048   6.254 -0.1372  0.0236  3.4953
 7653SOL    HW234422   3.436   1.103   6.175  0.6952 -1.2118 -0.0829
 7654SOL     OW34423   0.567   0.164   2.900  0.1201  0.5769 -0.3041
 7654SOL    HW134424   0.622   0.207   2.835 -0.2744  2.4034  0.5611
 7654SOL    HW234425   0.608   0.198   2.979  0.7854 -0.4569 -0.2166
 7655SOL     OW34426   2.082   4.634   5.497 -0.1665  0.1642 -0.1382
 7655SOL    HW134427   2.077   4.596   5.410 -0.6699 -0.0227 -0.0281
 7655SOL    HW234428   2.049   4.567   5.557 -0.6876 -0.0401 -0.6532
 7656SOL     OW34429   4.611   3.171   5.709  0.0680 -0.0393 -0.3812
 7656SOL    HW134430   4.666   3.220   5.649  0.1218  0.5634  0.1622
 7656SOL    HW234431   4.576   3.238   5.768 -0.6437 -2.3996  1.9202
 7657SOL     OW34432   3.435   1.360   7.237 -0.3858  0.2088 -0.2885
 7657SOL    HW134433   3.444   1.449   7.202  1.0431 -0.3921 -1.4590
 7657SOL    HW234434   3.405   1.310   7.162 -1.4673  0.2311  0.1220
 7658SOL     OW34435   4.086   4.052  11.208  0.0509  0.4898  0.1561
 7658SOL    HW134436   4.010   4.032  11.262  0.3539  0.2754  0.5001
 7658SOL    HW234437   4.144   3.980  11.233  0.3401  0.1291 -1.4969
 7659SOL     OW34438   2.735   2.868  10.432 -0.2847 -0.5202 -0.4850
 7659SOL    HW134439   2.662   2.819  10.395 -1.8145 -0.1897  2.1237
 7659SOL    HW234440   2.718   2.959  10.410 -2.4728 -1.2395 -1.8040
 7660SOL     OW34441   0.037   3.139   2.089  0.2299 -0.2634 -0.5501
 7660SOL    HW134442   0.011   3.076   2.022  2.2918 -3.4099  1.5901
 7660SOL    HW234443   0.058   3.216   2.036  0.5342 -0.5512 -0.8544
 7661SOL     OW34444   1.097   1.592   5.082  0.2679 -0.2228  0.4826
 7661SOL    HW134445   1.026   1.646   5.116  1.6023 -0.2596  3.3234
 7661SOL    HW234446   1.161   1.650   5.042 -1.4239  0.0956 -1.8198
 7662SOL     OW34447   0.949   2.314  10.848 -0.2429  0.8327 -0.2270
 7662SOL    HW134448   0.929   2.225  10.876  2.2386 -0.0441 -1.2451
 7662SOL    HW234449   1.026   2.352  10.890  0.6455 -0.8150 -0.3656
 7663SOL     OW34450   2.672   2.219   5.923  0.2169 -0.3569 -0.2873
 7663SOL    HW134451   2.667   2.313   5.939  0.1282 -0.6804  1.6862
 7663SOL    HW234452   2.651   2.233   5.831  3.9210 -0.4569 -1.1339
 7664SOL     OW34453   2.586   1.848   2.501 -0.2009 -0.2099 -0.0860
 7664SOL    HW134454   2.680   1.869   2.507 -0.9596  2.5540  2.1863
 7664SOL    HW234455   2.543   1.922   2.544 -2.8705 -0.7726 -1.7996
 7665SOL     OW34456   1.505   3.337  12.491 -0.4443  0.2406  0.3364
 7665SOL    HW134457   1.486   3.405  12.554 -0.1371 -1.9117  2.7414
 7665SOL    HW234458   1.601   3.334  12.493 -0.3727 -1.3405 -3.8654
 7666SOL     OW34459   1.868   2.487   6.272  0.1166 -0.0916  0.6414
 7666SOL    HW134460   1.920   2.451   6.200 -4.7447 -2.7295 -1.5364
 7666SOL    HW234461   1.889   2.422   6.339  0.9386  1.0171  1.4585
 7667SOL     OW34462   3.421   0.380   8.172  0.3962  0.4556  0.2000
 7667SOL    HW134463   3.377   0.367   8.087 -0.4182 -1.0162  0.8508
 7667SOL    HW234464   3.472   0.300   8.170  0.4343  0.5251 -1.8054
 7668SOL     OW34465   1.418   0.143   5.191  0.1051  0.8495 -0.0212
 7668SOL    HW134466   1.483   0.211   5.208  0.4307  0.7943 -1.0784
 7668SOL    HW234467   1.396   0.151   5.099 -0.1056 -0.1268 -0.0567
 7669SOL     OW34468   4.313   0.662   6.838 -0.7910 -0.0062  0.6779
 7669SOL    HW134469   4.391   0.616   6.866 -1.2244 -1.5160 -0.5904
 7669SOL    HW234470   4.258   0.593   6.800  1.6962 -2.7958  2.2082
 7670SOL     OW34471   3.055   2.396   3.200 -0.2775 -0.0299  0.0387
 7670SOL    HW134472   3.091   2.415   3.286 -0.4883  0.8260 -0.0608
 7670SOL    HW234473   2.964   2.378   3.226 -0.7656  0.7394 -1.1289
 7671SOL     OW34474   4.299   3.574   4.487 -0.3396  0.4795  0.1103
 7671SOL    HW134475   4.359   3.622   4.429  1.5359 -1.4333  0.4560
 7671SOL    HW234476   4.324   3.483   4.466  0.8422  0.5846  1.0343
 7672SOL     OW34477   2.080   4.189   8.098 -0.0616  0.3297  0.0500
 7672SOL    HW134478   2.166   4.151   8.110 -0.4695 -0.3434  0.8590
 7672SOL    HW234479   2.107   4.280   8.087  0.0219  0.1958 -0.8435
 7673SOL     OW34480   2.444   3.387  12.065 -0.0394 -0.0470  0.0180
 7673SOL    HW134481   2.458   3.306  12.016 -0.9724  0.6276 -1.3692
 7673SOL    HW234482   2.501   3.446  12.015  1.4264 -0.6570  0.9798
 7674SOL     OW34483   2.627   4.331   7.679 -0.1086 -0.5046  0.4069
 7674SOL    HW134484   2.696   4.388   7.712  0.0703 -1.4093  1.5894
 7674SOL    HW234485   2.553   4.391   7.683 -0.8660 -1.3796 -0.5925
 7675SOL     OW34486   2.114   4.113   1.371 -0.5114  0.0457  0.7628
 7675SOL    HW134487   2.152   4.049   1.311 -0.8514 -0.8912  1.5503
 7675SOL    HW234488   2.185   4.177   1.385 -1.7226  0.7556  3.8492
 7676SOL     OW34489   1.090   0.758   4.551  0.5942  0.7550  0.0496
 7676SOL    HW134490   1.106   0.740   4.459  0.4428  1.5369 -0.1219
 7676SOL    HW234491   1.090   0.853   4.549 -0.5465  0.7500 -0.0634
 7677SOL     OW34492   0.161   4.226  14.469  0.9755 -0.4700 -0.1861
 7677SOL    HW134493   0.114   4.305  14.443 -0.1998 -0.9109  0.5852
 7677SOL    HW234494   0.105   4.167  14.420 -1.8572  1.1370  1.1151
 7678SOL     OW34495   4.298   1.753   3.670  0.0363  0.0637  0.0160
 7678SOL    HW134496   4.222   1.696   3.681  0.4997 -0.1506  2.0128
 7678SOL    HW234497   4.343   1.730   3.751  1.4804  1.5761 -0.3628
 7679SOL     OW34498   2.383   0.682   9.758  0.6035 -0.1794 -0.2399
 7679SOL    HW134499   2.413   0.706   9.670  0.8338  2.7672  0.6253
 7679SOL    HW234500   2.459   0.637   9.795  0.4907 -0.1695  0.0051
 7680SOL     OW34501   4.405   0.670  10.266  0.4364 -0.3764 -0.0818
 7680SOL    HW134502   4.336   0.610  10.294 -0.8366  0.8870 -0.5066
 7680SOL    HW234503   4.371   0.700  10.182  1.3105 -2.6609 -1.2408
 7681SOL     OW34504   2.535   1.943   8.688 -0.0906 -0.4965 -0.3569
 7681SOL    HW134505   2.579   1.937   8.603  0.8334 -0.2881  0.1080
 7681SOL    HW234506   2.536   1.848   8.703 -1.4160 -0.6418 -1.2090
 7682SOL     OW34507   3.877   0.196   5.202 -0.1526 -0.3339  0.2721
 7682SOL    HW134508   3.879   0.239   5.287  2.0960  0.3395 -0.1329
 7682SOL    HW234509   3.875   0.275   5.148 -0.3405  0.4561  1.4345
 7683SOL     OW34510   1.857   4.678   3.603 -0.1116  0.2553 -0.2739
 7683SOL    HW134511   1.838   4.613   3.670  1.6296  0.2771  0.2542
 7683SOL    HW234512   1.808   4.650   3.526  1.8294  1.9176 -2.1400
 7684SOL     OW34513   0.732   3.902  11.457 -0.1205 -0.1662 -0.0359
 7684SOL    HW134514   0.679   3.926  11.533 -2.6307 -1.3637 -1.3720
 7684SOL    HW234515   0.772   3.822  11.490 -1.5949 -0.8451  0.1281
 7685SOL     OW34516   1.478   0.609   0.405  0.2534 -0.1262 -0.4611
 7685SOL    HW134517   1.540   0.664   0.453 -0.4628  1.4633 -1.3649
 7685SOL    HW234518   1.531   0.549   0.352  0.1943 -0.5836 -0.0008
 7686SOL     OW34519   2.102   0.043   3.833 -0.0463  0.0133 -0.4362
 7686SOL    HW134520   2.086   4.671   3.842 -0.5987  0.0080 -1.3768
 7686SOL    HW234521   2.036   0.079   3.893 -0.0824 -2.4512  1.0072
 7687SOL     OW34522   2.919   1.704   2.526  0.0100  0.0031  0.0210
 7687SOL    HW134523   2.918   1.688   2.620 -0.6799  0.2748  0.0670
 7687SOL    HW234524   2.925   1.613   2.498  1.0247 -0.4414  1.7033
 7688SOL     OW34525   2.722   1.687   1.586 -0.0938  0.4685  0.3798
 7688SOL    HW134526   2.699   1.767   1.539  0.4024  1.1154  1.2354
 7688SOL    HW234527   2.765   1.727   1.662 -1.2067  0.7707  0.8540
 7689SOL     OW34528   4.218   4.708   7.842 -0.4388  0.0177 -0.3870
 7689SOL    HW134529   4.205   4.618   7.811  0.4188 -0.5938  1.0481
 7689SOL    HW234530   4.309   0.012   7.835 -0.1652 -0.6213  0.8539
 7690SOL     OW34531   4.005   4.091   6.887 -0.5589  0.2556  0.6450
 7690SOL    HW134532   3.945   4.096   6.813 -0.6446 -1.1242  0.6177
 7690SOL    HW234533   4.067   4.164   6.879 -0.8718  0.5732  1.1670
 7691SOL     OW34534   2.823   1.392   0.757 -0.6665  0.3889 -0.5909
 7691SOL    HW134535   2.799   1.365   0.668 -1.7503  0.3396 -0.2912
 7691SOL    HW234536   2.779   1.477   0.750  3.2753  2.3010 -1.8753
 7692SOL     OW34537   0.486   0.967   2.958 -0.1972  0.5200  0.5305
 7692SOL    HW134538   0.490   1.058   2.987 -2.6778  1.0264 -0.6808
 7692SOL    HW234539   0.573   0.955   2.919  0.3871  0.6160  1.8187
 7693SOL     OW34540   0.373   4.346  17.240  0.5510 -0.1220  0.1271
 7693SOL    HW134541   0.289   4.391  17.231 -0.5453 -2.6892 -2.5490
 7693SOL    HW234542   0.377   4.322  17.332  1.0313  0.6815  0.3173
 7694SOL     OW34543   1.172   2.373  10.982  0.4254 -0.2710  0.3626
 7694SOL    HW134544   1.143   2.349  11.071  0.7561 -0.4669  0.4167
 7694SOL    HW234545   1.231   2.446  11.001  0.0717  0.0907  0.0702
 7695SOL     OW34546   1.548   4.458   9.758  0.0737  0.2965  0.1902
 7695SOL    HW134547   1.577   4.503   9.837  0.4303  2.0856 -0.9576
 7695SOL    HW234548   1.632   4.445   9.714 -0.7920 -1.7003 -0.8519
 7696SOL     OW34549   2.633   4.201   9.870  0.1607 -0.1025  0.2897
 7696SOL    HW134550   2.716   4.235   9.904 -0.0922  2.0003 -1.1532
 7696SOL    HW234551   2.612   4.263   9.800  0.0937  0.9822  1.2808
 7697SOL     OW34552   0.409   3.343   2.606 -0.7276  0.6083 -0.0116
 7697SOL    HW134553   0.481   3.405   2.611  0.7827 -1.1368 -0.1910
 7697SOL    HW234554   0.352   3.383   2.541 -1.2453  0.0196  0.0746
 7698SOL     OW34555   1.385   1.024   9.050  0.5647  0.1021 -0.8545
 7698SOL    HW134556   1.345   1.083   9.113  1.2870  0.3775 -0.6551
 7698SOL    HW234557   1.474   1.005   9.077 -0.2648 -0.2612  1.5958
 7699SOL     OW34558   3.599   0.431   7.007  0.3280  0.3448  0.5437
 7699SOL    HW134559   3.678   0.481   6.987 -0.0892  0.0576 -1.7422
 7699SOL    HW234560   3.615   0.410   7.099  0.2754 -0.1696  0.4382
 7700SOL     OW34561   1.352   2.523   7.040 -0.1877  0.1782  0.0157
 7700SOL    HW134562   1.404   2.523   6.959 -1.2053  0.8255 -0.6370
 7700SOL    HW234563   1.424   2.543   7.099 -0.9745 -0.1817  1.1020
 7701SOL     OW34564   3.530   0.257  16.977  0.3672  0.7004 -0.1729
 7701SOL    HW134565   3.465   0.318  16.941  1.3873  1.9875  0.1272
 7701SOL    HW234566   3.517   0.174  16.931  0.9060  0.5099  0.0187
 7702SOL     OW34567   2.920   2.528   3.889  0.1954 -0.5705 -0.2745
 7702SOL    HW134568   2.922   2.464   3.960  0.2241  1.0026  1.1500
 7702SOL    HW234569   2.861   2.493   3.823  1.5265 -1.2813 -1.0923
 7703SOL     OW34570   4.079   2.033   8.795  0.1019 -0.0712  0.6023
 7703SOL    HW134571   4.065   1.949   8.838  1.0339  0.4511  1.9369
 7703SOL    HW234572   4.005   2.087   8.821 -1.3699 -2.1492  0.7500
 7704SOL     OW34573   3.680   1.290   8.021  0.0800  0.5642 -0.4536
 7704SOL    HW134574   3.663   1.379   7.989 -0.2757  0.4385 -0.6200
 7704SOL    HW234575   3.598   1.240   8.012 -1.0002  2.3814 -0.7532
 7705SOL     OW34576   1.734   1.875   2.358 -0.1308 -0.7117  0.4103
 7705SOL    HW134577   1.650   1.919   2.374  0.3111  0.7762 -1.3567
 7705SOL    HW234578   1.796   1.916   2.419 -0.7898 -1.4834  1.5918
 7706SOL     OW34579   2.272   2.864   3.117  0.4082 -0.4507  0.0375
 7706SOL    HW134580   2.330   2.937   3.138 -0.2448 -0.2765  1.2294
 7706SOL    HW234581   2.187   2.896   3.149  1.1427  1.1087  0.3933
 7707SOL     OW34582   0.170   3.663   7.982 -0.4633  0.0806 -0.4777
 7707SOL    HW134583   0.262   3.676   7.963 -0.7285  0.1104 -1.7358
 7707SOL    HW234584   0.132   3.724   7.919 -0.1462 -2.1618 -2.7953
 7708SOL     OW34585   1.950   3.097   2.998 -0.1066  0.1500 -0.1133
 7708SOL    HW134586   1.982   3.185   3.021 -0.5130 -0.2352  1.9179
 7708SOL    HW234587   1.895   3.075   3.073 -3.1696 -1.7684 -2.8964
 7709SOL     OW34588   4.553   4.337  16.600  0.3549 -0.2108  0.1542
 7709SOL    HW134589   4.534   4.412  16.545  2.3689 -2.0437 -3.0501
 7709SOL    HW234590   4.545   4.257  16.548 -0.3879 -1.2777  1.9015
 7710SOL     OW34591   0.450   0.998   1.045  0.1558  0.0324  0.3028
 7710SOL    HW134592   0.453   1.020   0.953  0.5111 -1.1868  0.0122
 7710SOL    HW234593   0.508   0.922   1.051  1.3296  0.8564 -0.6258
 7711SOL     OW34594   4.067   4.344   6.616 -0.6014  0.6202  0.2026
 7711SOL    HW134595   4.072   4.395   6.535  1.3823  1.5016  0.8860
 7711SOL    HW234596   3.983   4.379   6.646 -0.5019  1.1267 -0.1200
 7712SOL     OW34597   0.892   0.864  13.346  0.4041 -0.5381  0.0298
 7712SOL    HW134598   0.843   0.813  13.281  0.4118 -1.0904  0.4577
 7712SOL    HW234599   0.819   0.875  13.407 -0.3977 -1.8162 -0.7004
 7713SOL     OW34600   1.277   2.224   3.024 -0.2503 -0.2367  0.2983
 7713SOL    HW134601   1.191   2.182   3.031  1.2038 -2.9708  1.6821
 7713SOL    HW234602   1.264   2.301   3.079 -2.1218 -0.3706  0.0461
 7714SOL     OW34603   4.340   1.899  12.805  0.3468 -0.9545 -0.2292
 7714SOL    HW134604   4.323   1.970  12.866 -1.3351 -1.1641 -0.4669
 7714SOL    HW234605   4.352   1.955  12.728  0.4328  0.0881  0.5526
 7715SOL     OW34606   0.580   4.299   4.538 -0.0889 -0.5320  0.3472
 7715SOL    HW134607   0.510   4.325   4.598  1.9812  1.6609  1.8146
 7715SOL    HW234608   0.530   4.227   4.501 -1.3446  0.8629 -0.6465
 7716SOL     OW34609   1.946   0.839  15.396 -0.2159  0.0148  0.6325
 7716SOL    HW134610   1.876   0.781  15.364  1.2300 -0.9411 -0.8266
 7716SOL    HW234611   1.991   0.870  15.318 -1.4029  0.6319  0.1855
 7717SOL     OW34612   0.060   4.671  15.322  0.1525  0.2395 -0.3101
 7717SOL    HW134613   4.712   0.015  15.327 -1.2420 -1.2037 -0.6188
 7717SOL    HW234614   0.001   4.596  15.314 -0.1313  0.4234  0.0342
 7718SOL     OW34615   2.789   4.368   2.820 -0.0873  0.0642 -0.5269
 7718SOL    HW134616   2.853   4.409   2.879 -0.3784 -1.2715  0.7189
 7718SOL    HW234617   2.742   4.445   2.789 -2.6028 -2.1127 -2.0999
 7719SOL     OW34618   1.873   4.587  16.534 -0.2070  0.6310 -0.0403
 7719SOL    HW134619   1.804   4.526  16.508 -1.1446  1.8519 -0.3779
 7719SOL    HW234620   1.840   4.667  16.494 -0.5859 -0.6797 -2.3901
 7720SOL     OW34621   2.905   3.784   2.850  0.4088  0.7611  0.3656
 7720SOL    HW134622   2.854   3.856   2.886  0.0271  1.1323 -0.8895
 7720SOL    HW234623   2.988   3.791   2.896  1.3376 -1.3077 -0.9951
 7721SOL     OW34624   3.742   0.623   7.375  0.2155 -0.3027  0.2094
 7721SOL    HW134625   3.797   0.572   7.435  0.4668  1.6599  1.6838
 7721SOL    HW234626   3.806   0.689   7.347  0.7214 -0.7198  0.3684
 7722SOL     OW34627   3.619   0.037   5.696  0.5569  0.2301 -0.2664
 7722SOL    HW134628   3.573   4.684   5.733 -0.3235  1.0702  0.3501
 7722SOL    HW234629   3.573   0.058   5.614  0.4472  4.0104  0.7487
 7723SOL     OW34630   2.581   0.801   5.187  0.5977  0.3586 -0.2164
 7723SOL    HW134631   2.595   0.706   5.198  4.2447  0.9445  0.1717
 7723SOL    HW234632   2.656   0.816   5.130  0.7338 -0.1968 -0.1832
 7724SOL     OW34633   1.065   0.875   7.055 -0.2945  0.3852  0.0101
 7724SOL    HW134634   1.045   0.798   7.109 -0.2664  1.5016  1.5866
 7724SOL    HW234635   0.974   0.906   7.055 -0.3002  0.3621  0.4343
 7725SOL     OW34636   4.253   3.878   2.822  0.0941 -0.0734 -0.2433
 7725SOL    HW134637   4.171   3.863   2.868 -0.9763 -0.3443 -2.2497
 7725SOL    HW234638   4.225   3.862   2.732 -1.5018  0.6366  0.1409
 7726SOL     OW34639   1.408   2.794  11.341 -0.6487 -0.2510  0.6919
 7726SOL    HW134640   1.335   2.785  11.402 -0.3304 -0.6890  1.0060
 7726SOL    HW234641   1.474   2.746  11.391 -1.6411 -1.7497  0.5550
 7727SOL     OW34642   0.588   2.995   3.721 -0.8082  0.2653 -0.1189
 7727SOL    HW134643   0.620   2.905   3.714  1.1825  1.1281 -1.9034
 7727SOL    HW234644   0.542   3.002   3.637 -1.2842 -1.9964 -0.0586
 7728SOL     OW34645   1.753   1.542   7.676  0.3227 -0.1911  0.1425
 7728SOL    HW134646   1.763   1.575   7.765 -2.9460 -2.3606  1.2992
 7728SOL    HW234647   1.681   1.592   7.637  1.1122  0.6564 -0.2343
 7729SOL     OW34648   1.063   3.052   3.299 -0.2247 -0.0854 -0.6601
 7729SOL    HW134649   1.156   3.069   3.309 -0.4719  0.0451  1.3866
 7729SOL    HW234650   1.057   2.964   3.335 -0.4651  0.1910 -0.0143
 7730SOL     OW34651   2.387   2.244  10.322  0.7596 -0.3365 -0.0256
 7730SOL    HW134652   2.437   2.308  10.373  3.3830 -1.0651 -1.6877
 7730SOL    HW234653   2.333   2.201  10.388 -0.7770  0.5835 -0.6811
 7731SOL     OW34654   2.821   1.162   3.040  0.5389 -0.5806 -0.5837
 7731SOL    HW134655   2.802   1.116   3.122  1.9063  4.1560  2.4145
 7731SOL    HW234656   2.812   1.094   2.974  0.2297  1.7733 -2.9947
 7732SOL     OW34657   4.390   3.990  17.644 -1.2070  0.1500  0.3993
 7732SOL    HW134658   4.377   3.899  17.669  1.7417 -0.9756 -2.1675
 7732SOL    HW234659   4.350   3.988  17.557 -1.2874  1.7295  0.3949
 7733SOL     OW34660   0.538   0.405  10.033 -0.4140  0.0108  0.3335
 7733SOL    HW134661   0.518   0.498  10.038 -1.1533 -0.0973 -0.5554
 7733SOL    HW234662   0.474   0.371  10.095 -1.8077 -1.4693 -1.9040
 7734SOL     OW34663   4.559   4.484   2.066  0.3656  0.1881 -0.4320
 7734SOL    HW134664   4.540   4.578   2.071  0.3914  0.0740  1.8559
 7734SOL    HW234665   4.625   4.479   1.997 -2.0134  0.1636 -2.7097
 7735SOL     OW34666   2.262   1.935   5.381  0.6720  0.0915 -0.1536
 7735SOL    HW134667   2.287   2.014   5.333  1.4914 -1.4098 -2.2019
 7735SOL    HW234668   2.236   1.885   5.304 -2.8647  1.9226 -0.1356
 7736SOL     OW34669   4.065   4.016  16.742 -0.4951 -0.6280 -0.1592
 7736SOL    HW134670   4.134   4.066  16.788 -0.7664 -1.4314  1.1012
 7736SOL    HW234671   3.993   4.071  16.773 -1.0170  0.1128 -2.7397
 7737SOL     OW34672   4.595   2.142   7.194 -0.4961 -0.1988  0.8098
 7737SOL    HW134673   4.541   2.141   7.273 -2.6960  0.1350 -0.7029
 7737SOL    HW234674   4.525   2.115   7.135 -1.0658  2.2351  0.3957
 7738SOL     OW34675   3.709   3.388  10.254 -0.0042 -0.4087 -0.1796
 7738SOL    HW134676   3.691   3.436  10.173 -1.1412  1.2928  1.0861
 7738SOL    HW234677   3.619   3.360  10.272 -0.5114  0.4404 -1.3612
 7739SOL     OW34678   3.609   1.635   8.397 -0.6094 -0.1056  0.1483
 7739SOL    HW134679   3.645   1.556   8.359  0.2739  0.6578 -0.5953
 7739SOL    HW234680   3.664   1.647   8.475  0.8054  0.0671 -0.8815
 7740SOL     OW34681   1.808   1.058   2.763 -0.5971  0.3822 -0.3544
 7740SOL    HW134682   1.876   1.118   2.734  1.6769 -2.6247 -1.1765
 7740SOL    HW234683   1.730   1.083   2.713 -0.9167  0.6672  0.2843
 7741SOL     OW34684   2.576   4.329   3.892  0.3874 -0.2013 -0.1905
 7741SOL    HW134685   2.545   4.409   3.935 -1.2296 -0.1763 -1.3781
 7741SOL    HW234686   2.494   4.281   3.880  0.4199  0.1395 -1.8048
 7742SOL     OW34687   1.355   4.144   3.908  0.1388 -0.7100  0.1153
 7742SOL    HW134688   1.429   4.083   3.905  1.0984  0.4493 -0.0790
 7742SOL    HW234689   1.285   4.108   3.854 -1.3443 -0.8984  2.1815
 7743SOL     OW34690   0.565   0.389   5.263 -0.1514 -0.1336  0.4400
 7743SOL    HW134691   0.605   0.456   5.318 -2.4725  2.4571 -1.0099
 7743SOL    HW234692   0.499   0.364   5.328 -0.5681 -0.9571 -0.2901
 7744SOL     OW34693   3.286   3.672   8.755  0.0579  0.5339 -0.0595
 7744SOL    HW134694   3.308   3.735   8.824 -0.1163 -1.1318  1.5318
 7744SOL    HW234695   3.202   3.635   8.784  0.7877 -0.1836  1.1344
 7745SOL     OW34696   1.198   0.728   2.969 -0.1980 -0.2263 -0.4313
 7745SOL    HW134697   1.279   0.697   2.927  0.3800  0.2306  0.3584
 7745SOL    HW234698   1.192   0.815   2.930  1.2670  0.8242  1.7110
 7746SOL     OW34699   3.206   3.263   3.805  0.1725  0.3772  0.3776
 7746SOL    HW134700   3.148   3.328   3.845  0.1330 -0.5446  1.8129
 7746SOL    HW234701   3.213   3.199   3.876  0.0307  1.1027  1.0393
 7747SOL     OW34702   0.480   1.665  12.323 -0.1084  0.6290  0.0030
 7747SOL    HW134703   0.493   1.759  12.331 -1.2952  1.0118 -2.5149
 7747SOL    HW234704   0.564   1.619  12.330  0.5276  1.7510 -0.2228
 7748SOL     OW34705   4.465   3.111   2.083  0.5722  0.5967  0.3067
 7748SOL    HW134706   4.499   3.140   2.167  0.4187  0.3568  0.4523
 7748SOL    HW234707   4.529   3.046   2.055  1.8597  1.7076  0.7163
 7749SOL     OW34708   2.519   4.481  15.112  0.2277 -0.2052  0.3344
 7749SOL    HW134709   2.475   4.478  15.027 -2.5397  2.3265  1.6915
 7749SOL    HW234710   2.488   4.403  15.157 -1.2126  0.9794  1.4146
 7750SOL     OW34711   3.956   3.231  14.380  0.2008  0.0063  0.3875
 7750SOL    HW134712   3.875   3.217  14.331 -0.6352  1.7914  1.2293
 7750SOL    HW234713   3.974   3.324  14.368 -2.3821  0.0767 -2.9566
 7751SOL     OW34714   2.784   1.002   2.824  0.3872 -0.7681  0.3417
 7751SOL    HW134715   2.801   0.914   2.858  1.1354 -1.2694 -1.3435
 7751SOL    HW234716   2.830   0.988   2.742  0.2758  0.7516  0.0081
 7752SOL     OW34717   4.344   0.997   7.982  0.1918 -0.1948  1.0218
 7752SOL    HW134718   4.432   0.965   8.004 -0.3584 -2.0684  0.5145
 7752SOL    HW234719   4.322   1.046   8.061 -1.3776  0.5977  0.0888
 7753SOL     OW34720   2.349   2.083   2.870 -0.2790 -0.3275  0.1972
 7753SOL    HW134721   2.293   2.008   2.890  0.5475 -0.4751  1.9516
 7753SOL    HW234722   2.335   2.098   2.776 -3.8968  3.6182  1.4211
 7754SOL     OW34723   2.004   3.948   4.753  0.1496  0.0998 -0.3213
 7754SOL    HW134724   1.937   4.005   4.715 -0.5718 -1.0184 -0.7257
 7754SOL    HW234725   2.018   3.978   4.843  1.4608  1.2223 -0.9246
 7755SOL     OW34726   4.453   2.064  17.077  0.0486  0.3180 -0.7303
 7755SOL    HW134727   4.378   2.038  17.131 -0.0970  1.1784 -0.5190
 7755SOL    HW234728   4.429   2.156  17.069 -0.2526  0.4415  1.5315
 7756SOL     OW34729   2.354   2.960   7.085 -0.0293 -0.4909  0.3066
 7756SOL    HW134730   2.284   2.940   7.023 -0.0866  1.0799 -0.1354
 7756SOL    HW234731   2.307   3.023   7.139 -0.4455 -1.1773  0.7506
 7757SOL     OW34732   1.186   3.585   8.518  0.6635  0.4006  0.1999
 7757SOL    HW134733   1.247   3.653   8.490  0.2108 -0.0495 -1.8767
 7757SOL    HW234734   1.201   3.516   8.453  2.6946 -0.1336  1.2185
 7758SOL     OW34735   1.426   3.119   7.428 -0.5388  0.6775 -0.2087
 7758SOL    HW134736   1.445   3.201   7.383 -1.0038  0.5257 -0.6811
 7758SOL    HW234737   1.379   3.064   7.365  1.9612 -1.1798 -0.4628
 7759SOL     OW34738   1.765   3.933   2.483  0.4958 -0.3985 -0.0551
 7759SOL    HW134739   1.832   3.997   2.505 -1.8407  1.2481  2.2343
 7759SOL    HW234740   1.810   3.874   2.422 -2.0163 -1.1194 -1.2346
 7760SOL     OW34741   1.394   4.247   2.359 -0.0340 -0.2175 -0.1070
 7760SOL    HW134742   1.411   4.153   2.357 -0.3783 -0.3196  1.6175
 7760SOL    HW234743   1.410   4.273   2.268 -0.8631  1.1122  0.1152
 7761SOL     OW34744   2.690   1.351  12.161 -0.0610  0.1100 -0.2613
 7761SOL    HW134745   2.712   1.288  12.092 -0.1253 -0.0737 -0.1141
 7761SOL    HW234746   2.777   1.386  12.182 -0.6699  1.4318  0.0387
 7762SOL     OW34747   3.499   2.480   5.232  0.5667  0.2498 -0.3142
 7762SOL    HW134748   3.452   2.561   5.212  0.2347 -0.4957 -2.5684
 7762SOL    HW234749   3.433   2.412   5.239  0.6238  0.0695 -1.6507
 7763SOL     OW34750   0.644   2.741   3.657 -0.9387 -0.4165  0.0347
 7763SOL    HW134751   0.664   2.713   3.746 -0.0094  1.7438  0.5007
 7763SOL    HW234752   0.614   2.657   3.622 -0.2508 -0.7054  0.1459
 7764SOL     OW34753   2.148   2.773   4.337 -0.1629 -0.3393  0.2032
 7764SOL    HW134754   2.131   2.856   4.293 -1.0553 -1.1424 -0.9755
 7764SOL    HW234755   2.241   2.755   4.324  0.3837  2.1545  0.6939
 7765SOL     OW34756   4.332   2.330  17.041  0.4563  0.8028  0.0074
 7765SOL    HW134757   4.364   2.337  17.130  0.8331  0.6633 -0.1168
 7765SOL    HW234758   4.243   2.364  17.037  0.7418  1.7605  1.9998
 7766SOL     OW34759   3.071   0.637   5.027 -0.8430  0.3636  0.2064
 7766SOL    HW134760   3.103   0.674   4.944 -0.7788 -1.1561 -0.4534
 7766SOL    HW234761   3.119   0.554   5.037 -0.4065  0.7637  1.3853
 7767SOL     OW34762   0.493   3.991   5.428 -0.9214 -0.2828 -0.1520
 7767SOL    HW134763   0.561   3.929   5.405  0.5594  0.9177  1.0229
 7767SOL    HW234764   0.544   4.065   5.460  1.6391 -2.1914  0.1528
 7768SOL     OW34765   4.494   3.906  14.284 -0.3857 -0.2783 -0.3327
 7768SOL    HW134766   4.435   3.971  14.245  0.0207  0.7675  0.7730
 7768SOL    HW234767   4.463   3.823  14.248  2.4216 -1.5970  0.2370
 7769SOL     OW34768   3.605   3.978  13.433  0.0741 -0.1695  0.0225
 7769SOL    HW134769   3.693   3.990  13.397 -0.1639  0.7366 -0.2342
 7769SOL    HW234770   3.573   4.067  13.419 -0.6176 -0.7296 -1.9345
 7770SOL     OW34771   0.027   0.088  10.194  0.0765  0.2683 -0.0534
 7770SOL    HW134772   0.103   0.140  10.220  0.9370 -1.0140  0.0005
 7770SOL    HW234773   4.705   0.167  10.163 -0.0242  0.1401 -0.2385
 7771SOL     OW34774   2.970   0.853  14.831 -0.1153  0.5258  0.1057
 7771SOL    HW134775   2.998   0.932  14.879  2.0105 -0.6464  0.7795
 7771SOL    HW234776   3.002   0.792  14.898 -0.5984  1.7718  1.4829
 7772SOL     OW34777   1.595   2.193  14.630 -0.4631 -0.1902 -0.0472
 7772SOL    HW134778   1.545   2.117  14.601 -1.9805  0.7211  0.1534
 7772SOL    HW234779   1.570   2.185  14.722 -1.3912 -1.6096 -0.4191
 7773SOL     OW34780   1.113   0.308   2.492  0.2739 -0.2521 -0.0990
 7773SOL    HW134781   1.204   0.335   2.501 -0.2232  0.5109  2.6261
 7773SOL    HW234782   1.120   0.247   2.418  1.0278  0.0814 -0.2961
 7774SOL     OW34783   4.020   0.754   3.819 -0.0478 -0.0608 -0.4346
 7774SOL    HW134784   3.958   0.748   3.891 -0.7332  1.5590 -0.8824
 7774SOL    HW234785   4.085   0.687   3.839  0.1004  0.8630  2.2145
 7775SOL     OW34786   3.383   2.380   4.172  0.1295 -0.4752 -0.5213
 7775SOL    HW134787   3.346   2.390   4.084 -0.5872  0.6851 -0.0908
 7775SOL    HW234788   3.363   2.290   4.196  1.6367 -0.3592  1.1938
 7776SOL     OW34789   0.416   3.337  10.931  0.5669 -0.0287  0.0686
 7776SOL    HW134790   0.422   3.321  11.025 -2.9873  2.2005  0.6946
 7776SOL    HW234791   0.350   3.406  10.936  0.0661 -0.3894 -1.3567
 7777SOL     OW34792   1.673   2.658   2.223  0.0885  0.1179  0.2818
 7777SOL    HW134793   1.607   2.648   2.292  0.0741  0.6289  0.3460
 7777SOL    HW234794   1.742   2.715   2.258 -0.8481  1.8274 -0.6608
 7778SOL     OW34795   4.429   2.913   4.290 -0.3091  0.2433 -0.3095
 7778SOL    HW134796   4.442   2.949   4.202  3.5555 -0.0450  0.1637
 7778SOL    HW234797   4.483   2.980   4.332 -0.6243  0.9862 -1.0799
 7779SOL     OW34798   1.934   1.009   1.576 -0.2907 -0.2540 -0.0700
 7779SOL    HW134799   1.952   0.915   1.582 -2.4068 -0.7342 -1.1797
 7779SOL    HW234800   1.866   1.015   1.509  1.1543  2.1051 -1.3101
 7780SOL     OW34801   1.294   3.484   8.030 -0.4274 -0.3743 -0.0387
 7780SOL    HW134802   1.207   3.495   8.067 -0.5199 -1.7267  0.1159
 7780SOL    HW234803   1.343   3.543   8.088  0.0034  0.3103 -1.0931
 7781SOL     OW34804   4.183   4.516  14.104 -0.2089  0.0272 -0.1884
 7781SOL    HW134805   4.249   4.497  14.170  1.2290  2.3464 -0.9862
 7781SOL    HW234806   4.104   4.534  14.156  0.3318 -0.9575  0.9677
 7782SOL     OW34807   3.138   4.400   2.839  0.2193  0.1382 -0.1539
 7782SOL    HW134808   3.113   4.361   2.755 -1.2383 -1.6588  1.1055
 7782SOL    HW234809   3.163   4.323   2.890 -1.9031  0.6307  1.6845
 7783SOL     OW34810   3.732   1.717   6.491 -0.6789 -0.0752  0.4023
 7783SOL    HW134811   3.669   1.757   6.431  1.0107 -0.2273 -1.4746
 7783SOL    HW234812   3.755   1.637   6.442 -0.4295 -0.5616  1.3136
 7784SOL     OW34813   3.209   2.448  17.169 -0.1279  0.1291 -0.1267
 7784SOL    HW134814   3.262   2.372  17.149 -0.2985  0.3455 -1.4340
 7784SOL    HW234815   3.184   2.473  17.079  0.1138 -0.3701 -0.3297
 7785SOL     OW34816   1.176   4.494   8.190 -0.3248  0.8291  0.1666
 7785SOL    HW134817   1.160   4.490   8.096  1.9813 -0.3233 -0.1698
 7785SOL    HW234818   1.158   4.405   8.221  0.7182  0.3144 -0.7373
 7786SOL     OW34819   4.456   2.067   0.369  0.7718 -0.5298  0.3551
 7786SOL    HW134820   4.550   2.080   0.356  0.7417  1.7311  2.3838
 7786SOL    HW234821   4.449   1.973   0.352 -0.9218 -0.0650 -1.5838
 7787SOL     OW34822   2.326   1.373  13.356 -0.0939  0.6547  0.1253
 7787SOL    HW134823   2.324   1.290  13.402  4.1630  0.2585 -0.3989
 7787SOL    HW234824   2.265   1.416  13.417  1.3114  0.5031  1.6252
 7788SOL     OW34825   1.491   4.486   3.725  0.5591  0.4107 -0.1002
 7788SOL    HW134826   1.527   4.565   3.765 -0.0170  0.7988 -0.3543
 7788SOL    HW234827   1.420   4.474   3.788  2.3957 -0.3048  1.8220
 7789SOL     OW34828   4.548   2.594   6.258 -0.1467  0.2969  0.4621
 7789SOL    HW134829   4.593   2.670   6.220  0.2564  0.3156  0.9683
 7789SOL    HW234830   4.467   2.580   6.210 -0.1989  0.0868  0.6105
 7790SOL     OW34831   1.276   0.973   9.652 -0.1726 -0.2943 -0.4975
 7790SOL    HW134832   1.261   0.885   9.618 -0.5384 -0.8368  1.0540
 7790SOL    HW234833   1.372   0.968   9.652 -0.1630 -0.0171  0.4910
 7791SOL     OW34834   1.285   2.953   7.264 -0.6123 -0.6751 -0.1488
 7791SOL    HW134835   1.230   2.892   7.312  1.3012 -2.8990 -0.8130
 7791SOL    HW234836   1.329   2.896   7.201  0.3919  0.6237 -0.6289
 7792SOL     OW34837   2.223   0.625   5.292  0.3493 -0.2383  0.0961
 7792SOL    HW134838   2.263   0.705   5.326  1.5290 -0.3584 -0.9885
 7792SOL    HW234839   2.181   0.665   5.215  0.5826  0.9634  0.6097
 7793SOL     OW34840   2.427   0.116   8.711  0.1946  0.4547 -0.4086
 7793SOL    HW134841   2.367   0.165   8.654  2.2180  0.2559 -2.6514
 7793SOL    HW234842   2.510   0.163   8.705  0.0167  0.7662 -0.4575
 7794SOL     OW34843   0.837   2.770  14.383 -0.4819 -0.4299 -0.2759
 7794SOL    HW134844   0.761   2.797  14.330 -2.5970 -1.4788  2.2557
 7794SOL    HW234845   0.889   2.733  14.312 -0.0334 -0.5062  0.0915
 7795SOL     OW34846   3.110   1.186   4.484  0.2739  0.5332  0.3781
 7795SOL    HW134847   3.136   1.279   4.483  0.9369  0.3693  2.9104
 7795SOL    HW234848   3.195   1.143   4.478 -0.9132 -1.6812 -0.2929
 7796SOL     OW34849   0.635   1.125   2.724  0.0786 -0.3115  0.5503
 7796SOL    HW134850   0.603   1.157   2.640 -1.4221 -1.1104  0.8111
 7796SOL    HW234851   0.704   1.067   2.691 -0.9610  0.9193 -3.7297
 7797SOL     OW34852   3.066   4.262   5.878 -0.3383  0.2715 -0.2848
 7797SOL    HW134853   3.048   4.248   5.971  3.8101  2.0707  0.7895
 7797SOL    HW234854   3.132   4.198   5.852  1.0180  0.1911  3.2534
 7798SOL     OW34855   1.568   0.979   7.893  0.9011  0.3956 -0.2665
 7798SOL    HW134856   1.555   1.072   7.872 -0.9930  0.2920  0.5340
 7798SOL    HW234857   1.658   0.978   7.925  1.3079  2.1462 -1.3206
 7799SOL     OW34858   0.476   0.203   4.061  0.6813  0.3769  0.0085
 7799SOL    HW134859   0.534   0.261   4.111 -0.7888  0.8990  1.0963
 7799SOL    HW234860   0.416   0.174   4.129  1.3201 -0.2476  0.3030
 7800SOL     OW34861   4.013   2.117   1.346 -0.2358  0.0972  0.0942
 7800SOL    HW134862   4.021   2.073   1.430 -0.2058 -1.1247 -0.5365
 7800SOL    HW234863   3.969   2.049   1.294 -3.5369  1.6743  0.8101
 7801SOL     OW34864   2.421   2.191   3.453 -0.3696  0.5359 -0.2501
 7801SOL    HW134865   2.342   2.240   3.473 -1.3009 -1.2858  0.5823
 7801SOL    HW234866   2.389   2.135   3.382  1.6956  0.5847 -1.2209
 7802SOL     OW34867   3.931   2.746   6.039 -0.2414  0.2023  0.0718
 7802SOL    HW134868   3.960   2.656   6.021  0.8167  0.9554 -2.0294
 7802SOL    HW234869   3.996   2.780   6.100  0.0686 -2.4627  1.2228
 7803SOL     OW34870   1.656   3.302  15.396  0.2775  0.3860  0.1416
 7803SOL    HW134871   1.626   3.377  15.344  0.2467 -0.5031 -1.1008
 7803SOL    HW234872   1.664   3.344  15.482  2.1075  0.1229  0.1074
 7804SOL     OW34873   1.943   1.123   4.052 -0.4932  0.1343  0.2096
 7804SOL    HW134874   1.878   1.193   4.046 -1.0522 -0.4581 -0.5449
 7804SOL    HW234875   2.017   1.169   4.093  0.4085 -1.2687  0.1552
 7805SOL     OW34876   2.799   3.052  13.535  0.3844 -0.0049  0.1136
 7805SOL    HW134877   2.781   3.085  13.623  1.0894 -0.3015  0.3746
 7805SOL    HW234878   2.815   3.136  13.492 -0.7974  1.0704  1.7607
 7806SOL     OW34879   0.816   1.889   3.076  0.1375  0.5822  0.1924
 7806SOL    HW134880   0.755   1.879   3.149  0.8418 -1.9138  0.4453
 7806SOL    HW234881   0.891   1.838   3.107 -0.2468 -0.1055 -0.0028
 7807SOL     OW34882   0.749   3.779   5.949 -0.4714 -0.7128 -0.2132
 7807SOL    HW134883   0.718   3.690   5.966 -1.1971 -0.8420 -2.1694
 7807SOL    HW234884   0.733   3.789   5.855  2.6256 -0.9216 -0.7659
 7808SOL     OW34885   4.715   3.003  14.864 -0.3494 -0.4828  0.5974
 7808SOL    HW134886   4.653   3.027  14.795  3.1686 -1.0824 -2.7053
 7808SOL    HW234887   0.001   2.912  14.837  1.1774  0.3521 -1.7461
 7809SOL     OW34888   4.129   1.964   8.551 -0.5994 -0.3792 -0.3749
 7809SOL    HW134889   4.216   1.999   8.533 -1.3163  1.7845  0.4096
 7809SOL    HW234890   4.120   1.969   8.646  1.7210 -3.9778  0.0674
 7810SOL     OW34891   1.788   0.852   4.154 -0.6587 -0.2160 -0.7466
 7810SOL    HW134892   1.837   0.839   4.235 -0.0290 -0.9086 -1.2291
 7810SOL    HW234893   1.733   0.925   4.181 -1.8070 -1.0828 -0.7613
 7811SOL     OW34894   0.030   2.420   5.238 -0.9322 -0.2015  0.0401
 7811SOL    HW134895   4.703   2.502   5.246 -0.0318  0.2549  0.7797
 7811SOL    HW234896   0.017   2.410   5.143 -0.2641 -2.8024  0.2073
 7812SOL     OW34897   3.550   2.761   9.953 -0.1248  0.2405 -0.4640
 7812SOL    HW134898   3.474   2.771   9.895 -0.3462 -0.5395 -0.3132
 7812SOL    HW234899   3.513   2.806  10.029  1.0061 -1.7330  1.2338
 7813SOL     OW34900   0.723   1.743  12.030 -0.1483 -0.3229  0.2346
 7813SOL    HW134901   0.718   1.698  11.945 -0.6976 -1.3685  0.8260
 7813SOL    HW234902   0.634   1.761  12.060 -0.9415 -0.7626 -1.8459
 7814SOL     OW34903   3.864   0.396   3.879 -0.2093 -0.2870 -0.5871
 7814SOL    HW134904   3.951   0.436   3.880 -1.7272  3.0086 -0.1746
 7814SOL    HW234905   3.823   0.470   3.834 -0.6827  0.0135  0.3304
 7815SOL     OW34906   1.258   1.774   4.458  1.0656  0.5903  0.0631
 7815SOL    HW134907   1.173   1.730   4.467  0.8390  0.7620 -1.2966
 7815SOL    HW234908   1.230   1.858   4.495  3.1545  0.8154  1.1080
 7816SOL     OW34909   1.922   2.177   0.931 -0.4126 -0.6687  0.1266
 7816SOL    HW134910   1.855   2.190   0.997  0.4800  0.6939  0.7621
 7816SOL    HW234911   1.990   2.149   0.992 -0.4399  0.2260  0.5713
 7817SOL     OW34912   3.426   4.616   2.936 -0.1925 -0.4509  0.4334
 7817SOL    HW134913   3.479   4.662   2.872 -3.6935  0.9423 -1.4922
 7817SOL    HW234914   3.453   4.524   2.929  0.5751  0.0849 -3.3442
 7818SOL     OW34915   2.100   4.104   5.333  0.1117  0.2959  0.1190
 7818SOL    HW134916   2.129   4.194   5.339  2.6130 -0.4438 -1.2031
 7818SOL    HW234917   2.156   4.061   5.398  1.3511 -0.7743 -1.6776
 7819SOL     OW34918   1.429   3.239   6.116 -0.0340  0.5419 -0.3402
 7819SOL    HW134919   1.455   3.330   6.131  1.1938 -0.0010  0.8204
 7819SOL    HW234920   1.446   3.230   6.022 -0.2585  0.0684 -0.3324
 7820SOL     OW34921   2.206   4.376   2.468  0.0135  0.4800  0.1620
 7820SOL    HW134922   2.295   4.395   2.439  0.6118 -0.7436  1.1939
 7820SOL    HW234923   2.159   4.372   2.385 -0.0202  2.2614  0.0917
 7821SOL     OW34924   3.721   2.077   9.377  0.0023 -0.5389  0.2358
 7821SOL    HW134925   3.780   2.044   9.308  2.0334 -1.2336  2.2879
 7821SOL    HW234926   3.682   2.151   9.331 -1.2658 -0.1230  2.0104
 7822SOL     OW34927   1.993   2.269   6.393  0.4618 -0.0646 -0.0321
 7822SOL    HW134928   1.957   2.216   6.323  0.8334 -0.6726  0.2378
 7822SOL    HW234929   2.014   2.201   6.457 -0.9185 -1.8228 -1.4591
 7823SOL     OW34930   4.215   3.955   1.394  0.3883  0.0520 -0.2153
 7823SOL    HW134931   4.288   4.016   1.388 -0.0325  0.6126  0.2654
 7823SOL    HW234932   4.144   4.017   1.409  0.8547  0.6176 -0.3793
 7824SOL     OW34933   2.369   1.539  13.140  0.0848  0.0850 -0.5633
 7824SOL    HW134934   2.304   1.607  13.124  1.8826  1.1199 -3.3815
 7824SOL    HW234935   2.343   1.501  13.224 -1.0445  1.3211 -0.3463
 7825SOL     OW34936   3.866   1.163   3.154  0.0235 -0.5400 -0.0781
 7825SOL    HW134937   3.929   1.149   3.083 -1.6963 -0.5173 -1.6328
 7825SOL    HW234938   3.799   1.094   3.150 -0.0552 -0.4591 -0.1892
 7826SOL     OW34939   3.183   4.449   9.694 -0.2372 -0.1959  0.4778
 7826SOL    HW134940   3.128   4.427   9.619  0.3783 -1.2248  0.3344
 7826SOL    HW234941   3.183   4.364   9.737 -1.4894  0.1272  1.1085
 7827SOL     OW34942   2.903   1.592   5.452 -0.0113 -0.1876  0.0986
 7827SOL    HW134943   2.903   1.498   5.433  1.3506 -0.0902 -0.3664
 7827SOL    HW234944   2.809   1.605   5.447 -0.0783  0.1892  2.4944
 7828SOL     OW34945   4.327   1.242  14.239  0.0401 -0.2120  0.0712
 7828SOL    HW134946   4.244   1.281  14.213  0.0656  0.5263  1.0709
 7828SOL    HW234947   4.289   1.191  14.310  0.1360  1.3448  1.2531
 7829SOL     OW34948   2.990   0.799   6.799 -0.3242  0.2639  0.8472
 7829SOL    HW134949   2.919   0.859   6.822  0.7978  2.5165 -1.5624
 7829SOL    HW234950   3.060   0.863   6.787 -0.8315  0.2138 -2.2972
 7830SOL     OW34951   2.793   3.678  16.093  0.6712  0.1525 -0.2470
 7830SOL    HW134952   2.760   3.697  16.005  2.0629  1.8034 -0.4037
 7830SOL    HW234953   2.861   3.744  16.100  0.6543  0.1156  0.2752
 7831SOL     OW34954   1.280   4.545  16.494 -0.5071  0.3834 -0.5638
 7831SOL    HW134955   1.228   4.531  16.573 -0.7788 -0.0393 -0.8151
 7831SOL    HW234956   1.308   4.636  16.508 -2.4865  1.0968 -1.2408
 7832SOL     OW34957   1.716   3.711   5.394 -0.2592  0.0319 -0.3368
 7832SOL    HW134958   1.629   3.711   5.434 -0.4102 -1.6116 -0.6361
 7832SOL    HW234959   1.710   3.629   5.345  3.3217 -1.9324  2.5315
 7833SOL     OW34960   3.915   0.643   1.883  0.3426 -0.5066  0.3976
 7833SOL    HW134961   3.926   0.711   1.817 -1.0526 -0.4119  0.2494
 7833SOL    HW234962   3.927   0.567   1.827  2.0339  2.2383 -2.9805
 7834SOL     OW34963   4.643   3.604   8.425  0.1083 -0.2197  0.3514
 7834SOL    HW134964   4.708   3.629   8.359 -0.9053  0.5184 -0.3585
 7834SOL    HW234965   4.714   3.564   8.476 -0.0601 -0.9135  0.0360
 7835SOL     OW34966   4.244   1.168  14.658 -0.1495 -0.5194 -0.1287
 7835SOL    HW134967   4.208   1.202  14.576  2.3620 -1.2262 -1.5267
 7835SOL    HW234968   4.224   1.244  14.713 -1.5982 -0.0199 -1.3411
 7836SOL     OW34969   3.015   2.118   7.779  0.3125 -0.5138  0.7941
 7836SOL    HW134970   3.054   2.094   7.863  0.1273  0.3293  1.1189
 7836SOL    HW234971   3.047   2.048   7.721 -1.0408 -1.9422  1.7514
 7837SOL     OW34972   3.655   0.294   4.384 -0.4532 -0.3364 -0.5239
 7837SOL    HW134973   3.698   0.327   4.305  0.5521  0.1496  0.2296
 7837SOL    HW234974   3.667   0.353   4.458 -1.1408 -1.9621  0.8894
 7838SOL     OW34975   0.507   2.414  14.611 -0.1800 -0.3420  0.6581
 7838SOL    HW134976   0.425   2.446  14.573  0.4588  1.6471  0.9287
 7838SOL    HW234977   0.506   2.319  14.598  1.0953 -0.4001  0.9719
 7839SOL     OW34978   4.497   1.182  12.763  0.7928 -0.5056  0.2067
 7839SOL    HW134979   4.407   1.182  12.795  1.3526  1.5051  1.7440
 7839SOL    HW234980   4.492   1.123  12.688  2.4561 -3.0765  2.1435
 7840SOL     OW34981   3.214   0.876   0.780 -0.3359  0.4163 -0.5347
 7840SOL    HW134982   3.175   0.853   0.864 -3.0109  1.8633 -1.3861
 7840SOL    HW234983   3.256   0.791   0.767 -0.6107  0.3478 -0.9996
 7841SOL     OW34984   1.212   0.567  17.330  0.5722 -0.3117 -0.4222
 7841SOL    HW134985   1.127   0.611  17.336  1.4397  1.3917 -0.7678
 7841SOL    HW234986   1.258   0.632  17.383  1.1413 -0.8708 -0.2366
 7842SOL     OW34987   4.495   2.584   0.992  0.5260 -0.1334 -0.2248
 7842SOL    HW134988   4.572   2.594   0.936 -1.2113 -0.1605 -2.5916
 7842SOL    HW234989   4.500   2.492   1.021  1.0099 -0.3823 -1.0981
 7843SOL     OW34990   3.509   2.882   7.575  0.5688  0.0169  0.7229
 7843SOL    HW134991   3.456   2.961   7.565  0.9632  0.3009  0.8979
 7843SOL    HW234992   3.592   2.915   7.608  0.3863  4.3089 -3.1501
 7844SOL     OW34993   3.698   0.013   0.511 -0.1024 -0.5633  0.0810
 7844SOL    HW134994   3.624   0.071   0.527  1.9638  1.3347  2.7175
 7844SOL    HW234995   3.762   0.083   0.500 -0.9939  0.2440  0.0962
 7845SOL     OW34996   1.863   2.031  11.438 -0.2867  0.2643  0.1376
 7845SOL    HW134997   1.899   2.098  11.380 -3.0300  1.6702  0.0427
 7845SOL    HW234998   1.805   2.089  11.489  0.3811 -0.0410  1.2527
 7846SOL     OW34999   4.098   0.506   4.134  0.2810 -0.1700 -0.2329
 7846SOL    HW135000   4.135   0.422   4.107 -1.0931 -0.2265 -1.9488
 7846SOL    HW235001   4.077   0.479   4.223 -1.5255 -2.4114 -1.3518
 7847SOL     OW35002   3.239   0.880   0.046 -0.0064 -0.1335 -0.2117
 7847SOL    HW135003   3.212   0.879   0.138  0.2064 -1.2411 -0.1575
 7847SOL    HW235004   3.321   0.829   0.044  0.4904  0.7608 -2.7788
 7848SOL     OW35005   4.599   1.749  13.547  0.6376 -0.4412 -0.6480
 7848SOL    HW135006   4.595   1.776  13.455 -0.8325  0.0384 -0.4433
 7848SOL    HW235007   4.684   1.705  13.544  0.0677 -1.5915  0.1708
 7849SOL     OW35008   3.199   4.533   0.155 -0.2377  0.1955 -0.5352
 7849SOL    HW135009   3.259   4.497   0.090 -1.4312 -0.0377 -1.4954
 7849SOL    HW235010   3.111   4.524   0.120 -1.1133  0.5130  1.6179
 7850SOL     OW35011   1.285   1.004  14.333 -0.1469  0.0908  0.5441
 7850SOL    HW135012   1.309   1.096  14.322 -0.2953 -0.1529 -1.9129
 7850SOL    HW235013   1.348   0.971  14.397  0.1884  0.3507  0.3534
 7851SOL     OW35014   4.409   0.910   5.461 -0.2259 -0.3522 -0.1623
 7851SOL    HW135015   4.457   0.920   5.543 -2.1492 -1.3053  1.0765
 7851SOL    HW235016   4.471   0.865   5.403  1.2081 -0.2325  1.2735
 7852SOL     OW35017   3.010   0.686   6.175 -0.5291 -0.8208  0.6922
 7852SOL    HW135018   2.925   0.731   6.178  0.8998  1.9824 -1.3149
 7852SOL    HW235019   3.004   0.652   6.086 -0.8505  1.7360 -0.2536
 7853SOL     OW35020   3.509   4.132   5.745 -0.3962 -0.7844 -0.4469
 7853SOL    HW135021   3.585   4.129   5.802 -1.2062  1.0994  0.7208
 7853SOL    HW235022   3.534   4.196   5.679  1.4074 -1.7428 -0.7081
 7854SOL     OW35023   2.898   3.994  12.040  0.2523  0.5734  0.4789
 7854SOL    HW135024   2.812   4.028  12.015  0.7151  2.6143  1.7234
 7854SOL    HW235025   2.928   4.062  12.100  1.4816  1.4253 -1.0842
 7855SOL     OW35026   1.281   4.234   7.502 -0.1332 -0.2349 -0.5789
 7855SOL    HW135027   1.213   4.284   7.547  2.1797  1.1219  1.3856
 7855SOL    HW235028   1.364   4.278   7.521 -0.2456 -0.0637 -0.4797
 7856SOL     OW35029   1.597   0.564   1.802  0.0159  0.1860  0.2723
 7856SOL    HW135030   1.550   0.511   1.739 -1.8352  2.5208 -0.2976
 7856SOL    HW235031   1.550   0.533   1.880 -2.2006 -2.0091 -1.9555
 7857SOL     OW35032   1.268   2.761  14.649  0.3579  0.0302 -0.2739
 7857SOL    HW135033   1.224   2.808  14.578 -0.6995  0.2003  0.4740
 7857SOL    HW235034   1.357   2.764  14.616  0.8026 -3.2288  0.5857
 7858SOL     OW35035   1.818   3.162   2.777  0.4358  0.3281  0.0652
 7858SOL    HW135036   1.862   3.127   2.855 -1.7677 -1.5400  0.4565
 7858SOL    HW235037   1.780   3.239   2.819 -0.1784  0.8845 -1.5180
 7859SOL     OW35038   1.633   2.298  14.351  0.5756  0.1021 -0.3118
 7859SOL    HW135039   1.544   2.264  14.348  0.1888  1.2238 -1.9512
 7859SOL    HW235040   1.666   2.226  14.296 -1.6496 -1.1811  0.0435
 7860SOL     OW35041   1.014   2.543  13.581  0.0263 -0.2914 -0.1336
 7860SOL    HW135042   1.042   2.481  13.648  0.0663 -0.7480 -0.5710
 7860SOL    HW235043   0.964   2.611  13.627 -0.2777 -0.1088 -0.7360
 7861SOL     OW35044   0.685   3.043   8.032  0.4724 -0.0904  0.4706
 7861SOL    HW135045   0.614   3.105   8.016  1.4390 -0.0193 -3.5940
 7861SOL    HW235046   0.690   3.018   7.939  0.5291  1.1284  0.1563
 7862SOL     OW35047   1.017   1.698   4.419 -0.0467  0.6186 -0.1662
 7862SOL    HW135048   0.957   1.730   4.486 -0.7106  0.4726 -0.6808
 7862SOL    HW235049   0.980   1.610   4.410  1.3859 -0.2072  2.0725
 7863SOL     OW35050   4.073   4.516   3.288  0.8518  0.3136  0.0596
 7863SOL    HW135051   4.167   4.529   3.281  0.8574  0.6345  0.6854
 7863SOL    HW235052   4.038   4.588   3.236  3.0047  0.2395 -1.4438
 7864SOL     OW35053   3.114   2.579  16.331 -0.0974  0.1482  0.6924
 7864SOL    HW135054   3.082   2.577  16.241 -1.2709 -2.2850  1.1540
 7864SOL    HW235055   3.072   2.659  16.361  1.0641  1.2969 -0.7739
 7865SOL     OW35056   2.400   0.399  11.887 -0.3969  0.2661 -0.4134
 7865SOL    HW135057   2.477   0.361  11.930 -0.3010  0.9281 -0.0031
 7865SOL    HW235058   2.336   0.409  11.958  2.4683 -0.1169  2.2416
 7866SOL     OW35059   3.414   4.262   6.192  0.5014 -0.1001  0.3588
 7866SOL    HW135060   3.321   4.284   6.202  0.4301  0.0642 -0.6863
 7866SOL    HW235061   3.407   4.166   6.193  0.0311 -0.0543  1.1981
 7867SOL     OW35062   2.017   0.040  16.083  0.2131 -0.4111  0.1572
 7867SOL    HW135063   2.110   0.055  16.104  0.3473 -1.4700  0.3157
 7867SOL    HW235064   2.011   0.010  15.992 -2.6706 -0.9565  0.5467
 7868SOL     OW35065   1.072   4.350   2.557 -0.4766 -0.3248  0.1410
 7868SOL    HW135066   1.055   4.366   2.464  1.1710  0.0713 -0.0804
 7868SOL    HW235067   1.157   4.394   2.563 -0.2027 -0.5542 -2.2173
 7869SOL     OW35068   1.736   4.058  17.650 -0.3819 -0.3623  0.5761
 7869SOL    HW135069   1.644   4.036  17.664 -0.6342  1.5054  1.8195
 7869SOL    HW235070   1.739   4.143  17.608 -3.9907  0.5076  2.1031
 7870SOL     OW35071   0.944   1.119   4.315 -0.2150 -0.3648 -0.7071
 7870SOL    HW135072   0.971   1.159   4.398  0.6748 -0.1967 -1.0752
 7870SOL    HW235073   0.857   1.091   4.344 -1.0134  1.0391 -1.7455
 7871SOL     OW35074   1.469   0.778   7.010  1.0798 -0.1887 -0.5268
 7871SOL    HW135075   1.380   0.743   7.007  1.0747 -0.2805  0.6795
 7871SOL    HW235076   1.486   0.780   6.916  0.5068  0.6514 -0.6123
 7872SOL     OW35077   3.041   1.803   7.394 -0.3137  0.3587 -0.4124
 7872SOL    HW135078   2.982   1.863   7.349 -0.5937 -0.4535 -1.1293
 7872SOL    HW235079   3.092   1.774   7.318 -0.3241 -0.4287 -0.1171
 7873SOL     OW35080   2.343   2.724  12.958  0.0138  0.2928 -0.5616
 7873SOL    HW135081   2.310   2.810  12.983 -2.8642 -0.3973 -2.0054
 7873SOL    HW235082   2.381   2.687  13.037  2.9942  2.1831 -1.1005
 7874SOL     OW35083   1.885   3.228   6.757 -0.2372 -0.0867 -0.2251
 7874SOL    HW135084   1.951   3.235   6.826  0.5136  3.3177 -1.3168
 7874SOL    HW235085   1.843   3.148   6.790 -0.8964  0.9788  1.5504
 7875SOL     OW35086   3.457   1.093  15.938  0.0046 -0.4958 -0.3764
 7875SOL    HW135087   3.497   1.093  16.024  1.2398 -2.2717 -0.9524
 7875SOL    HW235088   3.378   1.042  15.958  0.6582 -1.0646  0.6855
 7876SOL     OW35089   0.798   2.823   4.161  0.2019 -0.8548 -0.1106
 7876SOL    HW135090   0.711   2.855   4.184  0.1672 -1.0478  0.0219
 7876SOL    HW235091   0.854   2.872   4.221  0.4764 -0.1145 -0.9683
 7877SOL     OW35092   3.483   1.166  14.472 -0.6295  0.0569 -0.4933
 7877SOL    HW135093   3.443   1.082  14.446  0.5709 -0.9996  1.0873
 7877SOL    HW235094   3.402   1.216  14.464  0.5206  1.9011 -0.5612
 7878SOL     OW35095   3.233   4.659   2.208  0.3939  0.4890  0.5961
 7878SOL    HW135096   3.194   4.572   2.216  1.8322  0.3223  5.4984
 7878SOL    HW235097   3.287   4.643   2.131 -1.9431  0.7925 -1.1335
 7879SOL     OW35098   0.525   3.553  13.077  0.3289  0.0907 -0.7877
 7879SOL    HW135099   0.465   3.478  13.064 -1.5562  1.4074  0.3135
 7879SOL    HW235100   0.491   3.598  13.154  0.7928 -1.6902  0.4451
 7880SOL     OW35101   1.755   4.178   6.130 -0.1180  0.6280 -0.6479
 7880SOL    HW135102   1.806   4.124   6.071 -0.2854 -1.5668  1.1894
 7880SOL    HW235103   1.675   4.125   6.139  1.0113 -0.9393  0.0800
 7881SOL     OW35104   0.837   3.102   2.608  0.1305 -0.0419 -0.2093
 7881SOL    HW135105   0.816   3.161   2.536 -0.4278 -2.0080 -1.6778
 7881SOL    HW235106   0.761   3.123   2.662  0.0652 -2.5841  0.6941
 7882SOL     OW35107   3.656   4.518  14.092 -0.4341 -0.1401  0.2856
 7882SOL    HW135108   3.582   4.576  14.104 -2.4290 -2.1447 -2.2986
 7882SOL    HW235109   3.651   4.512  13.996 -0.1562 -0.4853  0.2921
 7883SOL     OW35110   1.094   0.164   7.334  0.3182  0.2689 -0.1757
 7883SOL    HW135111   1.099   0.071   7.356 -1.8119 -0.1363 -1.3625
 7883SOL    HW235112   1.119   0.194   7.421  0.0795 -2.1892  0.7607
 7884SOL     OW35113   0.401   0.105  16.861 -0.0254 -0.2523 -0.2287
 7884SOL    HW135114   0.412   0.189  16.906  1.3993 -0.3599 -0.3861
 7884SOL    HW235115   0.311   0.105  16.829 -0.6955 -0.1478  1.6724
 7885SOL     OW35116   3.657   4.509   4.595 -0.1661 -0.3210 -0.1707
 7885SOL    HW135117   3.670   4.459   4.676 -1.3148 -1.5057 -0.7143
 7885SOL    HW235118   3.645   4.594   4.637  0.1492  0.1418 -1.0190
 7886SOL     OW35119   4.172   0.313   8.616 -0.1480  0.0231  0.1502
 7886SOL    HW135120   4.265   0.302   8.638 -0.0651  0.2837 -0.0676
 7886SOL    HW235121   4.130   0.356   8.690  0.5045  1.0604 -0.0856
 7887SOL     OW35122   0.542   1.924   1.084  0.3892  0.1222  0.1434
 7887SOL    HW135123   0.530   2.011   1.123 -0.0728  0.0008  0.2688
 7887SOL    HW235124   0.596   1.895   1.157  1.8304  1.8078 -0.2419
 7888SOL     OW35125   4.021   1.429   7.217 -0.0321  0.5460 -0.3492
 7888SOL    HW135126   3.928   1.423   7.238  0.5058  1.7652  2.4461
 7888SOL    HW235127   4.023   1.399   7.126  2.2793 -1.8352  0.4802
 7889SOL     OW35128   0.826   2.334   4.346 -0.0042  0.6015  0.1788
 7889SOL    HW135129   0.830   2.254   4.292 -1.0323 -0.6648  2.0034
 7889SOL    HW235130   0.814   2.313   4.438 -0.8502 -0.4248 -0.1658
 7890SOL     OW35131   0.974   2.293   5.095 -0.2664  0.7345 -0.0843
 7890SOL    HW135132   1.002   2.204   5.117  1.7088  1.0151 -1.4389
 7890SOL    HW235133   0.998   2.335   5.178  0.2514 -0.6308  0.4586
 7891SOL     OW35134   4.122   3.843  13.398  0.3130 -0.1521  0.2554
 7891SOL    HW135135   4.043   3.819  13.350 -0.5531  0.6692  1.2736
 7891SOL    HW235136   4.128   3.937  13.386  1.3299 -0.2878 -0.2701
 7892SOL     OW35137   3.657   3.861   1.628  0.1674 -0.1376  0.5772
 7892SOL    HW135138   3.597   3.848   1.554 -1.2011 -0.2576  1.6970
 7892SOL    HW235139   3.632   3.951   1.649  0.8207  0.2021 -0.1159
 7893SOL     OW35140   1.744   0.815   7.146  0.1129 -0.0997  0.0194
 7893SOL    HW135141   1.657   0.803   7.183 -0.9878  0.7288 -2.3008
 7893SOL    HW235142   1.789   0.753   7.203 -1.1816 -0.8365  0.2412
 7894SOL     OW35143   0.225   4.672   4.120 -1.0147  0.0517  0.4691
 7894SOL    HW135144   0.226   4.618   4.041  0.0657 -0.2716  0.7000
 7894SOL    HW235145   0.318   4.684   4.141 -0.9589 -1.6345  1.2061
 7895SOL     OW35146   4.498   1.376  12.575 -0.1109  0.0820  0.4714
 7895SOL    HW135147   4.502   1.309  12.644  2.4435  0.3938  0.6220
 7895SOL    HW235148   4.410   1.406  12.597 -0.3109 -2.1209  2.6953
 7896SOL     OW35149   1.637   3.228   4.188  0.2488 -0.0650 -0.6851
 7896SOL    HW135150   1.572   3.297   4.200  1.4646  0.8410  0.6292
 7896SOL    HW235151   1.712   3.267   4.232 -0.7828 -0.4168  1.3809
 7897SOL     OW35152   2.922   4.679   4.117 -0.0494 -0.2462 -0.2933
 7897SOL    HW135153   2.964   4.611   4.170 -1.7251 -1.0659 -0.0262
 7897SOL    HW235154   2.970   4.683   4.035  1.4028 -1.9263  0.4831
 7898SOL     OW35155   0.917   4.553   5.636 -0.5518  0.1235  0.0295
 7898SOL    HW135156   0.895   4.632   5.686  1.7316 -0.3676  1.8125
 7898SOL    HW235157   0.940   4.579   5.547  1.9314  0.0732  0.6343
 7899SOL     OW35158   1.846   0.608  11.335 -0.2259 -0.2316  0.0309
 7899SOL    HW135159   1.918   0.544  11.339 -1.4408 -1.4316  2.6340
 7899SOL    HW235160   1.889   0.690  11.313 -1.8053  0.6132  0.1012
 7900SOL     OW35161   0.944   2.477  10.648  0.0205  0.0284  0.2948
 7900SOL    HW135162   0.930   2.544  10.715 -4.4750 -2.6856  2.1418
 7900SOL    HW235163   0.955   2.396  10.699  0.3118 -0.0219  0.1494
 7901SOL     OW35164   3.113   2.457   3.452  0.2935 -0.0751 -0.2231
 7901SOL    HW135165   3.066   2.390   3.502 -1.7525  1.3923 -0.1694
 7901SOL    HW235166   3.065   2.535   3.478  1.7608  0.7686 -0.0510
 7902SOL     OW35167   0.586   4.367   1.980 -0.4034 -0.0765 -0.2620
 7902SOL    HW135168   0.667   4.417   1.969 -1.1020  1.0055 -0.3933
 7902SOL    HW235169   0.579   4.317   1.899  1.7906 -0.5122 -0.1946
 7903SOL     OW35170   2.528   2.894   9.076 -0.0848 -0.0749 -0.2587
 7903SOL    HW135171   2.608   2.943   9.091  0.0633 -0.8340  1.4369
 7903SOL    HW235172   2.455   2.956   9.085 -0.4521 -0.1043 -3.0404
 7904SOL     OW35173   1.639   0.142   3.009 -0.0137  0.4264 -0.4762
 7904SOL    HW135174   1.698   0.114   3.079  1.6474  0.3291 -1.9483
 7904SOL    HW235175   1.700   0.162   2.939  1.3932  0.9684  0.8993
 7905SOL     OW35176   4.650   3.692   1.763 -0.0023 -0.0602 -0.6505
 7905SOL    HW135177   4.670   3.750   1.690  0.0907 -0.2105 -0.7439
 7905SOL    HW235178   0.013   3.656   1.786  0.9673  1.4428 -1.8492
 7906SOL     OW35179   3.017   3.615  14.289  0.2415 -0.1373  0.0955
 7906SOL    HW135180   3.001   3.646  14.200  2.0343  1.5905  0.3681
 7906SOL    HW235181   3.111   3.634  14.292  0.2000 -0.5758  3.3292
 7907SOL     OW35182   1.786   0.567   1.459  0.0095 -0.0864 -0.3430
 7907SOL    HW135183   1.711   0.511   1.482  0.9874 -1.6468 -1.0265
 7907SOL    HW235184   1.737   0.648   1.444  0.1293 -0.1774 -1.2405
 7908SOL     OW35185   4.290   1.419  12.907  0.5685 -0.2070 -0.1198
 7908SOL    HW135186   4.306   1.328  12.880 -1.9134 -0.8178  0.5180
 7908SOL    HW235187   4.207   1.442  12.866  2.7828  1.1791 -3.7897
 7909SOL     OW35188   3.531   4.141  17.284  0.3870 -0.5967 -0.3158
 7909SOL    HW135189   3.618   4.126  17.322  0.4360  0.3139 -0.0719
 7909SOL    HW235190   3.493   4.056  17.309 -0.6271  0.3913  1.5323
 7910SOL     OW35191   0.717   2.508  14.471  0.3082 -0.3397 -0.3171
 7910SOL    HW135192   0.650   2.537  14.409  0.6250 -2.2088 -1.5438
 7910SOL    HW235193   0.666   2.466  14.541 -2.3040 -0.2068 -2.1520
 7911SOL     OW35194   0.824   0.142  17.662  0.1228  0.0046 -0.3514
 7911SOL    HW135195   0.869   0.098  17.590  1.1272  2.1702 -1.0663
 7911SOL    HW235196   0.786   0.072   0.023 -1.4574  1.6760  0.7781
 7912SOL     OW35197   2.814   3.271   3.063 -0.0705 -0.0920  0.6083
 7912SOL    HW135198   2.892   3.325   3.072 -0.4676  0.6992 -0.7992
 7912SOL    HW235199   2.808   3.216   3.141  0.4874 -1.0356 -0.0166
 7913SOL     OW35200   3.761   3.720   3.813 -0.5676  0.0250  0.3467
 7913SOL    HW135201   3.817   3.754   3.883 -0.5628 -1.1648  0.9216
 7913SOL    HW235202   3.823   3.693   3.745  2.2808  2.2409  2.0568
 7914SOL     OW35203   1.594   4.258   8.114  0.4290 -0.3769  0.4988
 7914SOL    HW135204   1.635   4.203   8.181  0.5487 -0.4067  0.4021
 7914SOL    HW235205   1.517   4.201   8.107 -1.2541  1.8521  1.0244
 7915SOL     OW35206   2.370   3.309  15.318  0.2369  0.1594 -0.1409
 7915SOL    HW135207   2.337   3.309  15.408 -0.4231  0.8469 -0.3822
 7915SOL    HW235208   2.409   3.396  15.312 -0.4833  0.4127 -1.0784
 7916SOL     OW35209   1.246   4.357   0.493 -0.0143 -0.0820 -0.2441
 7916SOL    HW135210   1.262   4.323   0.405  0.6719 -0.0778 -0.1192
 7916SOL    HW235211   1.262   4.448   0.468  1.4623 -0.0270  0.9334
 7917SOL     OW35212   3.630   2.328   0.289 -0.6877  0.6172 -0.8215
 7917SOL    HW135213   3.687   2.265   0.333 -1.1935  0.1403 -0.8470
 7917SOL    HW235214   3.605   2.374   0.369  0.4304 -0.2867  0.0378
 7918SOL     OW35215   0.566   2.332   6.460  0.5980  0.0118 -0.7566
 7918SOL    HW135216   0.597   2.349   6.371  1.3019  0.7917 -0.3631
 7918SOL    HW235217   0.476   2.365   6.459  0.0568 -1.4624 -0.4405
 7919SOL     OW35218   2.859   3.479  17.063  0.0789 -0.1106  0.2569
 7919SOL    HW135219   2.928   3.447  17.005  0.4770 -0.8619  1.1381
 7919SOL    HW235220   2.875   3.572  17.046 -2.3077  0.3605  0.6659
 7920SOL     OW35221   4.255   4.323  11.818 -0.0072 -0.3331 -0.3136
 7920SOL    HW135222   4.183   4.288  11.870 -0.8774 -0.9988 -1.9471
 7920SOL    HW235223   4.206   4.393  11.775  2.2625 -0.7901 -3.6595
 7921SOL     OW35224   3.743   0.459   0.352 -0.2056 -0.4482  0.1635
 7921SOL    HW135225   3.746   0.418   0.438  2.1484 -0.6185 -0.0078
 7921SOL    HW235226   3.813   0.412   0.307  0.3680 -1.9910  2.6673
 7922SOL     OW35227   1.164   3.741   1.769 -0.5570 -0.2507  0.0210
 7922SOL    HW135228   1.078   3.781   1.778  0.1468  1.8381 -2.3107
 7922SOL    HW235229   1.141   3.652   1.794  0.1030 -0.8335 -1.4028
 7923SOL     OW35230   2.861   0.538   4.207 -0.3375  0.5510  0.5392
 7923SOL    HW135231   2.895   0.480   4.138  0.5309  1.0620  0.5380
 7923SOL    HW235232   2.795   0.588   4.161 -0.1738 -0.9776 -1.3682
 7924SOL     OW35233   3.514   2.170   3.669  0.1790  0.3667  0.3531
 7924SOL    HW135234   3.540   2.167   3.762  1.6312  1.4604 -0.0200
 7924SOL    HW235235   3.529   2.260   3.641 -1.1964  1.3717  2.8362
 7925SOL     OW35236   1.544   3.662  11.737 -0.1834  0.5090  0.3642
 7925SOL    HW135237   1.579   3.607  11.667 -0.9647 -1.5638  1.6080
 7925SOL    HW235238   1.622   3.707  11.768 -0.4037  0.7433  0.5830
 7926SOL     OW35239   1.094   1.012   2.049 -0.5436  0.4293  0.2064
 7926SOL    HW135240   1.107   0.925   2.010  1.3093  0.7140  0.1979
 7926SOL    HW235241   1.140   1.060   1.981 -0.4450 -0.7628 -0.5765
 7927SOL     OW35242   4.719   1.730  13.259 -0.2177 -0.5773 -0.5906
 7927SOL    HW135243   0.068   1.670  13.236  0.7789  0.0101  1.0178
 7927SOL    HW235244   4.647   1.669  13.240 -1.2389 -0.0958  1.7399
 7928SOL     OW35245   3.916   0.838   1.680  0.0735 -0.1243  0.1367
 7928SOL    HW135246   3.907   0.851   1.586  0.4171  0.9103  0.2478
 7928SOL    HW235247   3.986   0.772   1.684 -0.3166 -0.6242 -1.5705
 7929SOL     OW35248   3.094   1.653   9.356 -0.0173  0.0398 -0.3059
 7929SOL    HW135249   3.098   1.645   9.451  1.5804 -1.8890 -0.5290
 7929SOL    HW235250   3.144   1.573   9.341  0.4289  0.1475  0.6737
 7930SOL     OW35251   1.779   1.921  12.134 -0.4626  0.0472  1.1302
 7930SOL    HW135252   1.760   1.918  12.227  0.9360  0.6543  1.4323
 7930SOL    HW235253   1.694   1.935  12.093  0.0596  0.4776  0.1999
 7931SOL     OW35254   0.462   2.081  15.102 -0.0132  0.0744  0.0350
 7931SOL    HW135255   0.427   2.071  15.191 -0.3307 -0.2812 -0.1279
 7931SOL    HW235256   0.546   2.124  15.118 -1.1410  2.8545 -1.5511
 7932SOL     OW35257   3.491   3.696   0.716 -0.2869  0.1013  0.0246
 7932SOL    HW135258   3.573   3.707   0.763 -0.1077  2.1438 -0.7654
 7932SOL    HW235259   3.484   3.601   0.721  1.0423 -0.2072 -3.6702
 7933SOL     OW35260   1.786   4.674   1.924  0.3761 -0.1947 -0.1656
 7933SOL    HW135261   1.806   4.712   1.838  1.0519 -0.5012 -0.1453
 7933SOL    HW235262   1.766   0.032   1.972 -1.1154 -0.5631 -0.1394
 7934SOL     OW35263   2.231   3.482   4.362  0.5914  0.2339 -0.3005
 7934SOL    HW135264   2.321   3.509   4.341  0.3776  0.2630 -1.1718
 7934SOL    HW235265   2.199   3.462   4.274 -0.2615 -0.1647  0.1108
 7935SOL     OW35266   3.457   2.913  11.773 -0.1324  0.4925  0.6751
 7935SOL    HW135267   3.363   2.898  11.762 -0.5666  3.3044  0.4706
 7935SOL    HW235268   3.459   2.903  11.868 -2.0872  0.7011  0.7354
 7936SOL     OW35269   2.535   3.031  12.597 -0.1048  0.1147 -0.4206
 7936SOL    HW135270   2.604   2.968  12.619 -0.0804  0.6161  0.9126
 7936SOL    HW235271   2.468   2.968  12.568 -0.2580 -1.5087  3.4660
 7937SOL     OW35272   3.563   0.044   8.284 -0.3853 -0.2866  0.1512
 7937SOL    HW135273   3.555   4.674   8.308 -0.9933 -1.2768 -3.9956
 7937SOL    HW235274   3.656   0.063   8.300 -0.5926  1.4553 -0.7606
 7938SOL     OW35275   0.457   4.435   8.426  0.2244  0.4849 -0.0038
 7938SOL    HW135276   0.544   4.473   8.435  1.0647 -1.0540 -1.7644
 7938SOL    HW235277   0.487   4.344   8.433  0.5890  0.5446 -0.9117
 7939SOL     OW35278   2.081   4.180   4.195  0.5588  0.3733  0.1320
 7939SOL    HW135279   2.045   4.112   4.138  4.3809 -2.0415  0.6327
 7939SOL    HW235280   2.055   4.137   4.277 -3.7753  2.7880  0.0583
 7940SOL     OW35281   4.551   2.923   4.727 -0.5588  0.2927  0.1288
 7940SOL    HW135282   4.598   2.842   4.703  0.0322  0.7840 -0.3757
 7940SOL    HW235283   4.600   2.986   4.674 -0.3648  0.6844  0.7722
 7941SOL     OW35284   1.958   2.188   4.809  0.3136  0.0268  0.4175
 7941SOL    HW135285   1.914   2.251   4.751 -0.1732 -0.9774 -0.3150
 7941SOL    HW235286   2.026   2.246   4.843  0.1537  0.0727  0.6572
 7942SOL     OW35287   0.743   4.563  15.419  0.1006 -0.1756 -0.2575
 7942SOL    HW135288   0.699   4.642  15.387  1.8928  0.9921  0.1592
 7942SOL    HW235289   0.683   4.540  15.489 -0.3513  2.9352  0.3829
 7943SOL     OW35290   2.217   2.543  16.377  0.1165 -0.3115 -0.1379
 7943SOL    HW135291   2.266   2.541  16.459  1.5092  1.8480 -0.9002
 7943SOL    HW235292   2.271   2.483  16.326  0.9205 -0.1813  0.5612
 7944SOL     OW35293   1.071   3.656   4.147  0.5437  0.6769 -0.2955
 7944SOL    HW135294   1.110   3.721   4.205  2.4528  1.7459 -2.7672
 7944SOL    HW235295   1.142   3.649   4.084  0.6467  3.2658 -0.4654
 7945SOL     OW35296   2.250   2.174  14.777 -0.1405  0.3738 -0.1133
 7945SOL    HW135297   2.195   2.252  14.767 -0.3408  0.1004 -1.1361
 7945SOL    HW235298   2.289   2.183  14.690 -2.0114 -1.0666 -1.0997
 7946SOL     OW35299   4.540   3.339   3.966  0.4593  0.3538  0.3253
 7946SOL    HW135300   4.547   3.434   3.975 -1.1561  0.5369 -0.2529
 7946SOL    HW235301   4.492   3.331   3.883 -0.1633 -1.2109  0.8383
 7947SOL     OW35302   1.801   2.817   8.680  0.0054 -0.7269 -0.4477
 7947SOL    HW135303   1.849   2.818   8.763  1.2689 -0.2611 -1.1907
 7947SOL    HW235304   1.814   2.727   8.652  1.5579 -0.5067 -0.4246
 7948SOL     OW35305   0.777   2.186   4.931  0.1809 -0.1164 -0.2947
 7948SOL    HW135306   0.696   2.216   4.971  0.1082 -2.8321  1.5853
 7948SOL    HW235307   0.840   2.236   4.983 -1.0356  0.6103  0.4730
 7949SOL     OW35308   1.496   1.839   1.416 -0.5926 -0.7390  0.0243
 7949SOL    HW135309   1.446   1.881   1.485  0.1112  0.7259 -0.3750
 7949SOL    HW235310   1.446   1.759   1.398  0.4652 -1.4223  0.1205
 7950SOL     OW35311   0.776   1.860   8.882  0.1083 -0.0125  0.8579
 7950SOL    HW135312   0.710   1.838   8.948 -1.6979 -0.9158 -1.2690
 7950SOL    HW235313   0.723   1.904   8.816 -0.7760  0.4535  1.8839
 7951SOL     OW35314   2.204   0.558   7.719 -0.3831 -0.0555 -0.2862
 7951SOL    HW135315   2.253   0.490   7.765  0.5043  0.6470 -0.1871
 7951SOL    HW235316   2.116   0.520   7.714 -0.0805 -0.8467  0.4556
 7952SOL     OW35317   3.332   1.313   4.936  0.1046  0.1776 -0.0818
 7952SOL    HW135318   3.285   1.281   5.013 -0.7781  0.6494 -0.4205
 7952SOL    HW235319   3.307   1.406   4.932 -1.6949 -0.2436  1.6514
 7953SOL     OW35320   4.245   2.848   3.605 -0.2462  0.0413  0.2770
 7953SOL    HW135321   4.285   2.834   3.691  0.4415  1.1297  0.1328
 7953SOL    HW235322   4.185   2.917   3.632  0.4384  0.6155  0.3286
 7954SOL     OW35323   1.550   3.951   3.903  0.9393 -0.3566 -0.1658
 7954SOL    HW135324   1.602   3.899   3.843 -0.2047 -0.9598 -0.6411
 7954SOL    HW235325   1.619   4.007   3.939 -0.4884  1.3223 -0.0178
 7955SOL     OW35326   3.795   3.138   2.048  0.5076 -0.0614  0.7486
 7955SOL    HW135327   3.804   3.131   2.143  1.8192  0.2002  0.6432
 7955SOL    HW235328   3.860   3.207   2.037  0.5463 -0.3310 -0.8249
 7956SOL     OW35329   1.189   0.934   1.782  0.2946 -0.2833 -0.2479
 7956SOL    HW135330   1.096   0.954   1.779  0.3212  0.2254  1.7057
 7956SOL    HW235331   1.216   1.021   1.811 -0.4620 -0.1577  0.0600
 7957SOL     OW35332   2.392   1.339   2.120  0.0596  0.2675  0.0177
 7957SOL    HW135333   2.319   1.398   2.099  1.8453  2.5847  0.3032
 7957SOL    HW235334   2.427   1.340   2.031 -1.8312  0.1165 -0.7438
 7958SOL     OW35335   0.136   0.284   5.062  0.0108  0.4704 -0.3835
 7958SOL    HW135336   0.085   0.203   5.055 -0.2928  0.7270 -1.1827
 7958SOL    HW235337   0.140   0.296   5.157 -0.1546 -2.5772  0.0267
 7959SOL     OW35338   3.860   0.292   7.787  0.1937  0.1920 -0.1429
 7959SOL    HW135339   3.826   0.231   7.853 -0.0432  0.6938  0.2029
 7959SOL    HW235340   3.905   0.230   7.731  0.9221  1.6716 -1.1992
 7960SOL     OW35341   4.508   0.558  12.695  0.5336 -0.0201 -0.3705
 7960SOL    HW135342   4.489   0.533  12.605 -0.6520  0.0530 -0.1370
 7960SOL    HW235343   4.514   0.653  12.687  2.7838  0.0790  2.2312
 7961SOL     OW35344   4.449   3.856   7.583  0.2700 -0.4813  0.1074
 7961SOL    HW135345   4.430   3.804   7.661  1.3115 -1.5966 -0.3828
 7961SOL    HW235346   4.505   3.787   7.547 -0.8950 -1.0738 -0.5847
 7962SOL     OW35347   3.411   1.904   7.434  0.0542  0.1477 -0.2272
 7962SOL    HW135348   3.379   1.846   7.503  0.2420  0.6071  0.2467
 7962SOL    HW235349   3.381   1.987   7.471 -2.4101 -0.4008 -1.0076
 7963SOL     OW35350   4.622   2.219   8.130 -0.3756 -0.1652 -0.1291
 7963SOL    HW135351   4.703   2.255   8.167 -0.0994 -0.1346 -0.7625
 7963SOL    HW235352   4.662   2.166   8.061  2.1934 -0.0839  1.2805
 7964SOL     OW35353   1.233   0.425  15.784 -0.0230  0.4628  0.8714
 7964SOL    HW135354   1.209   0.516  15.802 -0.7694  0.8436 -2.0476
 7964SOL    HW235355   1.180   0.372  15.843  0.1750 -0.5040  0.1693
 7965SOL     OW35356   3.099   3.016  11.921  0.3683 -0.5422  0.2046
 7965SOL    HW135357   3.119   3.097  11.873 -1.3385 -1.4580 -2.0440
 7965SOL    HW235358   3.145   2.949  11.871  2.4505  0.2302  1.1123
 7966SOL     OW35359   1.177   1.368  17.263  0.4719  0.2140 -0.1087
 7966SOL    HW135360   1.195   1.331  17.349 -0.7573 -0.8914 -0.3323
 7966SOL    HW235361   1.255   1.351  17.210 -0.1093 -1.9096 -0.2936
 7967SOL     OW35362   2.203   4.455   8.098  0.0275  0.4771  0.2252
 7967SOL    HW135363   2.260   4.452   8.021 -2.0843 -1.9389 -1.2848
 7967SOL    HW235364   2.269   4.458   8.167 -0.7792 -1.5139  1.0832
 7968SOL     OW35365   0.950   3.730   8.564 -0.3245  0.0885  0.3214
 7968SOL    HW135366   0.871   3.691   8.526 -1.7098  2.1969  1.0140
 7968SOL    HW235367   1.016   3.661   8.557  0.1903  0.5651  0.4759
 7969SOL     OW35368   4.608   4.376  14.624 -0.7945  0.6946  0.2147
 7969SOL    HW135369   4.617   4.440  14.694  1.3842 -0.0786  0.6594
 7969SOL    HW235370   4.699   4.362  14.598 -0.8087  2.1074 -0.5963
 7970SOL     OW35371   3.007   3.470  16.835 -0.5236 -0.0050 -0.2414
 7970SOL    HW135372   3.101   3.478  16.849 -0.4605  1.4030 -1.5077
 7970SOL    HW235373   2.979   3.540  16.775 -3.5351 -0.3845  0.7249
 7971SOL     OW35374   0.905   0.361  10.168 -0.0338  0.2397 -0.1593
 7971SOL    HW135375   0.890   0.438  10.114  0.4225  1.1289  0.9588
 7971SOL    HW235376   0.967   0.394  10.234 -0.7312  0.9736  0.1367
 7972SOL     OW35377   2.514   0.288   6.137  0.4125 -0.0505  0.0131
 7972SOL    HW135378   2.512   0.376   6.100 -0.1573 -0.5550 -1.1676
 7972SOL    HW235379   2.488   0.238   6.059 -1.4709  0.7838  0.0980
 7973SOL     OW35380   3.828   4.125   1.641 -0.3535  0.1287 -0.0495
 7973SOL    HW135381   3.810   4.069   1.565  0.4919  0.4926 -0.5150
 7973SOL    HW235382   3.778   4.197   1.601 -3.3474 -1.9872 -0.1541
 7974SOL     OW35383   0.986   1.835   7.778 -0.1167  0.1088  0.1888
 7974SOL    HW135384   1.045   1.910   7.766 -0.6809  0.6318  0.6396
 7974SOL    HW235385   1.047   1.766   7.751 -0.9391 -0.4595 -0.2057
 7975SOL     OW35386   2.532   1.860   1.904 -0.3794  0.2578 -0.0005
 7975SOL    HW135387   2.458   1.886   1.850 -0.6731  0.3842  0.4644
 7975SOL    HW235388   2.565   1.947   1.928  1.9122 -0.7780  0.6336
 7976SOL     OW35389   2.446   3.465  15.040 -0.0248  0.1587  0.2969
 7976SOL    HW135390   2.431   3.469  14.946 -0.0775 -1.5617  0.2436
 7976SOL    HW235391   2.501   3.387  15.043  1.8412  1.4586  0.7547
 7977SOL     OW35392   4.171   4.075   6.586  0.5307  0.0154 -0.8079
 7977SOL    HW135393   4.161   4.170   6.588 -1.1437 -0.2212  1.0697
 7977SOL    HW235394   4.160   4.064   6.491  3.4136  0.1411 -1.1562
 7978SOL     OW35395   4.610   0.287  14.093 -0.0117 -0.0458  0.2429
 7978SOL    HW135396   4.592   0.198  14.125 -1.3318  0.5579  1.1924
 7978SOL    HW235397   4.541   0.284  14.028 -1.8536 -0.5744  2.2237
 7979SOL     OW35398   0.144   2.279   3.625  0.2904  0.2624  0.5386
 7979SOL    HW135399   0.135   2.336   3.549  0.5449  2.6173  2.2483
 7979SOL    HW235400   0.052   2.271   3.650 -0.9020 -0.7712 -4.1992
 7980SOL     OW35401   1.821   3.622  11.915 -0.2642 -0.0999  0.2677
 7980SOL    HW135402   1.793   3.712  11.933 -0.7635  0.0063 -1.0437
 7980SOL    HW235403   1.813   3.583  12.001  2.7261  2.1390  1.5666
 7981SOL     OW35404   2.799   3.392   6.761  0.0691 -0.4670  0.6590
 7981SOL    HW135405   2.788   3.416   6.669  0.2201  1.1477  1.0568
 7981SOL    HW235406   2.878   3.440   6.784  0.6533 -0.6091 -1.0310
 7982SOL     OW35407   0.212   1.133   1.188  0.4615  0.4739 -0.7297
 7982SOL    HW135408   0.204   1.220   1.147 -1.5669 -0.2850 -1.9448
 7982SOL    HW235409   0.288   1.091   1.150  0.1186 -0.1122 -0.7679
 7983SOL     OW35410   3.938   2.247   2.940  0.4425 -0.5936  0.5011
 7983SOL    HW135411   3.931   2.178   2.874 -0.3306  1.2637 -1.3436
 7983SOL    HW235412   3.931   2.328   2.890 -1.1044 -1.6053 -0.9095
 7984SOL     OW35413   1.664   1.987   3.549  0.2470 -0.3880  0.0021
 7984SOL    HW135414   1.756   1.978   3.524  0.6379  4.8092 -0.5857
 7984SOL    HW235415   1.626   2.024   3.469  0.1353 -0.7464 -0.1057
 7985SOL     OW35416   4.635   3.121   1.128  0.1995  0.2211 -0.1550
 7985SOL    HW135417   4.707   3.177   1.099 -2.0170  3.1143 -0.0762
 7985SOL    HW235418   4.646   3.033   1.091  1.5935  0.4770 -0.3490
 7986SOL     OW35419   4.163   3.684   2.576 -0.1241 -0.9199 -0.4784
 7986SOL    HW135420   4.226   3.702   2.506 -2.2637 -0.4728 -2.3132
 7986SOL    HW235421   4.082   3.717   2.537 -0.0473  0.8458  0.8926
 7987SOL     OW35422   3.157   3.307  10.627  0.0854  0.0964 -0.6399
 7987SOL    HW135423   3.210   3.242  10.583 -2.1431 -2.4368  0.4145
 7987SOL    HW235424   3.143   3.268  10.713 -2.3361 -1.4305 -1.7268
 7988SOL     OW35425   4.642   2.125  13.016 -0.0893  0.0654 -0.1089
 7988SOL    HW135426   4.715   2.114  12.955  0.2723 -2.2506  0.7345
 7988SOL    HW235427   4.668   2.061  13.082 -2.5604 -0.5395  0.2705
 7989SOL     OW35428   3.869   3.684   6.949  0.1507 -0.1713  0.0352
 7989SOL    HW135429   3.873   3.591   6.925 -1.2965  0.2957 -2.0221
 7989SOL    HW235430   3.956   3.713   6.923  0.3418  1.1160  2.0543
 7990SOL     OW35431   2.074   0.904   9.287 -0.2018 -0.5409 -0.0369
 7990SOL    HW135432   2.080   0.932   9.196  0.1315  0.2722  0.2406
 7990SOL    HW235433   2.019   0.975   9.320 -1.4304 -1.1600 -0.7385
 7991SOL     OW35434   4.422   3.102   4.102 -0.7422  0.1150 -0.0554
 7991SOL    HW135435   4.353   3.104   4.036  0.7465 -0.1202 -1.6211
 7991SOL    HW235436   4.481   3.167   4.064 -0.5655 -1.0794 -1.7861
 7992SOL     OW35437   3.819   4.204   6.400  0.2528 -0.2291  0.2260
 7992SOL    HW135438   3.833   4.132   6.340 -0.0091 -2.0205  2.3076
 7992SOL    HW235439   3.860   4.277   6.354 -2.7210  1.2599 -0.0600
 7993SOL     OW35440   4.502   0.656  16.894 -0.3579 -1.0167 -0.4192
 7993SOL    HW135441   4.584   0.677  16.850 -0.6310  0.6822 -0.1441
 7993SOL    HW235442   4.446   0.670  16.817 -1.9741 -3.6806  0.2756
 7994SOL     OW35443   2.626   3.153   0.043 -0.1576 -0.5867  0.0639
 7994SOL    HW135444   2.718   3.137   0.065  0.4278  3.8511  0.8100
 7994SOL    HW235445   2.608   3.196   0.127 -2.7885 -0.1140 -0.7375
 7995SOL     OW35446   0.100   3.155  16.169 -0.3794  0.0692 -0.2014
 7995SOL    HW135447   0.150   3.234  16.151 -0.2283 -0.3373 -1.5449
 7995SOL    HW235448   0.171   3.093  16.153  0.5152  0.9237  0.4599
 7996SOL     OW35449   2.768   0.225   1.439  0.2204  0.2804  0.0758
 7996SOL    HW135450   2.786   0.160   1.372  0.1685  0.9642 -0.5992
 7996SOL    HW235451   2.854   0.223   1.482 -0.1069  0.0706  0.7157
 7997SOL     OW35452   2.076   3.234   8.416 -0.5940 -0.3097 -0.6430
 7997SOL    HW135453   2.079   3.263   8.325  0.1252  1.5455 -0.0401
 7997SOL    HW235454   2.155   3.179   8.417  0.4066  1.1309 -0.1237
 7998SOL     OW35455   2.124   1.965  15.776 -0.2209 -0.5957  0.4298
 7998SOL    HW135456   2.158   2.054  15.784 -1.2580 -0.4034  2.6758
 7998SOL    HW235457   2.189   1.913  15.823  0.2384  0.6223  1.1496
 7999SOL     OW35458   0.637   0.682   4.756 -0.3215  0.3600  0.3546
 7999SOL    HW135459   0.719   0.722   4.728 -0.5857  0.7248  0.1134
 7999SOL    HW235460   0.667   0.595   4.783  0.8789  1.0337  1.1906
 8000SOL     OW35461   2.910   0.694   3.598 -0.1209  0.5204  0.1508
 8000SOL    HW135462   2.931   0.606   3.568  1.1876  1.6726 -2.2904
 8000SOL    HW235463   2.863   0.723   3.520 -0.9898  0.9983  0.8567
 8001SOL     OW35464   1.240   2.740   2.383 -0.4314  0.3894  0.5731
 8001SOL    HW135465   1.206   2.660   2.424 -0.0930  0.1248  0.3460
 8001SOL    HW235466   1.271   2.791   2.457  2.9615  0.5081 -0.9185
 8002SOL     OW35467   0.353   2.632  10.048 -0.0565  0.6574  0.0765
 8002SOL    HW135468   0.440   2.659  10.016 -0.2876 -0.8540 -1.8397
 8002SOL    HW235469   0.364   2.583  10.129  0.2196 -0.1501 -0.4441
 8003SOL     OW35470   4.314   2.540   9.096  0.3760  0.0173 -0.2648
 8003SOL    HW135471   4.273   2.471   9.148 -0.1376  1.2973  1.0473
 8003SOL    HW235472   4.274   2.620   9.130  3.0412  0.9967  0.5862
 8004SOL     OW35473   4.444   0.428   8.103 -0.1109 -0.5229  0.0464
 8004SOL    HW135474   4.382   0.390   8.164 -2.8064  2.2896 -0.9228
 8004SOL    HW235475   4.454   0.512   8.149 -0.5745  0.4047 -1.5304
 8005SOL     OW35476   3.487   1.658  12.389  0.2919 -0.1115 -0.0424
 8005SOL    HW135477   3.478   1.563  12.399 -1.6281  0.0703 -0.0572
 8005SOL    HW235478   3.468   1.682  12.480  0.0611 -2.1193  0.4475
 8006SOL     OW35479   3.059   2.612   5.012  0.2457 -0.3393 -0.1355
 8006SOL    HW135480   3.035   2.690   4.962  0.4557 -0.4827 -0.4592
 8006SOL    HW235481   3.031   2.641   5.099  0.7774 -0.5076  0.0893
 8007SOL     OW35482   1.168   2.898  17.532 -0.1503 -0.4604 -0.1615
 8007SOL    HW135483   1.222   2.893  17.611 -0.0851  1.4478 -0.0741
 8007SOL    HW235484   1.084   2.898  17.579 -0.3873 -1.0705 -0.5933
 8008SOL     OW35485   3.746   1.633  16.087  0.7931 -0.2699  0.1909
 8008SOL    HW135486   3.698   1.555  16.116 -1.3180  1.2035  0.6665
 8008SOL    HW235487   3.734   1.632  15.992 -0.7728  0.5980  0.3881
 8009SOL     OW35488   0.999   4.269   4.464 -0.0920 -0.3814 -0.2526
 8009SOL    HW135489   0.973   4.280   4.372  4.3859  1.9346 -1.2557
 8009SOL    HW235490   0.996   4.174   4.479 -1.0754 -0.4939 -1.1689
 8010SOL     OW35491   1.293   3.953   3.700  0.8767 -0.9294  0.4863
 8010SOL    HW135492   1.223   4.015   3.681  2.9352  1.2438 -0.0620
 8010SOL    HW235493   1.370   4.006   3.719 -0.5102  1.5009 -0.6959
 8011SOL     OW35494   0.762   1.981   3.716  0.3797  0.6288 -0.0579
 8011SOL    HW135495   0.698   1.980   3.645  0.2468 -2.1553  0.1039
 8011SOL    HW235496   0.760   1.891   3.749 -0.0194  0.1308 -1.4504
 8012SOL     OW35497   2.123   0.701   3.124  0.7853 -0.3494  0.6585
 8012SOL    HW135498   2.071   0.651   3.060  0.0764 -0.8126  1.6082
 8012SOL    HW235499   2.105   0.649   3.202 -1.2277  0.1298  0.5066
 8013SOL     OW35500   2.732   2.163   4.097 -0.3850  0.1497  0.1308
 8013SOL    HW135501   2.786   2.086   4.082 -2.6099 -1.3811 -0.0260
 8013SOL    HW235502   2.791   2.236   4.082  1.9695 -1.6986  0.4880
 8014SOL     OW35503   0.040   1.836  12.339  0.1199  0.1432 -0.3693
 8014SOL    HW135504   4.693   1.865  12.279 -1.1298 -0.0904  0.9619
 8014SOL    HW235505   0.010   1.868  12.424 -0.6358  0.2460 -0.6753
 8015SOL     OW35506   3.782   3.322   0.637 -0.2376  0.8012 -0.1343
 8015SOL    HW135507   3.853   3.312   0.573 -0.3888  0.1378 -0.2036
 8015SOL    HW235508   3.794   3.248   0.697  2.3780  1.2591 -0.0951
 8016SOL     OW35509   2.597   0.029  12.677 -0.1862 -0.5473  0.8773
 8016SOL    HW135510   2.674   0.076  12.646 -0.9455 -1.3071 -2.1000
 8016SOL    HW235511   2.521   0.080  12.649  2.9102  1.6339 -3.4718
 8017SOL     OW35512   2.476   3.421  12.326 -0.0390  0.6200 -0.2122
 8017SOL    HW135513   2.444   3.439  12.238  0.8765  0.3287 -0.6023
 8017SOL    HW235514   2.470   3.326  12.329 -0.1821  0.6337 -0.0643
 8018SOL     OW35515   2.348   2.423   9.205  0.3418 -0.1094  0.3067
 8018SOL    HW135516   2.321   2.478   9.131  1.6704  0.2244  0.0557
 8018SOL    HW235517   2.419   2.485   9.224  0.0774 -0.4079  2.1783
 8019SOL     OW35518   2.708   2.535   6.688 -0.1324  0.1089  0.9456
 8019SOL    HW135519   2.756   2.528   6.771 -0.4250  2.4118  1.3243
 8019SOL    HW235520   2.745   2.609   6.640  0.5698 -2.4902 -2.4950
 8020SOL     OW35521   0.738   3.694   8.278 -0.3885 -0.3750  0.1745
 8020SOL    HW135522   0.785   3.655   8.205 -1.1025  0.4737 -0.7291
 8020SOL    HW235523   0.675   3.625   8.302 -0.5301 -0.4940 -0.5358
 8021SOL     OW35524   1.174   1.579  10.082  0.4391 -0.4341  0.4604
 8021SOL    HW135525   1.193   1.491  10.117  0.8356 -1.3272 -1.9750
 8021SOL    HW235526   1.241   1.573  10.014 -3.1590 -1.0312 -3.0006
 8022SOL     OW35527   2.873   2.675   6.164 -0.0652  0.5137 -0.5903
 8022SOL    HW135528   2.844   2.723   6.242 -1.6102  0.2899 -1.0241
 8022SOL    HW235529   2.814   2.600   6.169  0.7486 -0.0053  1.2572
 8023SOL     OW35530   0.241   4.346   7.914  0.6773 -0.1023  0.7801
 8023SOL    HW135531   0.212   4.427   7.872  2.7060  0.7461  1.0514
 8023SOL    HW235532   0.274   4.366   8.001 -3.2804  0.8183  2.0508
 8024SOL     OW35533   1.880   0.701   8.429 -0.3583  0.6190  0.1240
 8024SOL    HW135534   1.878   0.739   8.341  1.4300 -0.4326 -0.3783
 8024SOL    HW235535   1.796   0.655   8.425  0.2957 -0.4327 -1.8013
 8025SOL     OW35536   4.088   2.695   2.356 -0.0330 -0.1028 -0.3027
 8025SOL    HW135537   4.143   2.667   2.429  0.7509 -3.0632 -2.0652
 8025SOL    HW235538   4.142   2.754   2.304  0.2106  1.2781  1.5070
 8026SOL     OW35539   1.795   1.566   9.569 -0.2644 -0.5478 -0.0625
 8026SOL    HW135540   1.782   1.476   9.601  0.4125 -0.5717  0.1387
 8026SOL    HW235541   1.794   1.614   9.651  1.4481 -1.6493  0.5954
 8027SOL     OW35542   2.163   1.586   7.904  0.5128  0.4148  0.6398
 8027SOL    HW135543   2.076   1.575   7.941  0.3901  4.3642  1.5990
 8027SOL    HW235544   2.144   1.645   7.830 -2.0254  0.9969  1.7664
 8028SOL     OW35545   3.391   4.050   9.019  0.1508 -0.0668  0.1682
 8028SOL    HW135546   3.414   4.077   9.108  0.5716 -1.8068  0.5970
 8028SOL    HW235547   3.478   4.032   8.983 -0.1669  3.3259 -2.2990
 8029SOL     OW35548   3.456   2.610   4.537 -0.6248 -0.6985  0.3744
 8029SOL    HW135549   3.545   2.640   4.555 -0.7095 -0.5936  0.6093
 8029SOL    HW235550   3.422   2.688   4.493  1.2370 -0.6366 -0.9676
 8030SOL     OW35551   3.246   2.588  12.458 -0.2731 -0.3048 -0.0403
 8030SOL    HW135552   3.172   2.618  12.405  0.7495 -0.2233 -1.4124
 8030SOL    HW235553   3.210   2.552  12.539 -0.1792 -1.1057 -0.3618
 8031SOL     OW35554   3.526   0.778  15.522  0.1212 -0.0877  0.3366
 8031SOL    HW135555   3.573   0.838  15.465  0.7307 -0.4253  0.4898
 8031SOL    HW235556   3.603   0.771  15.578  0.1770  1.1432  0.4125
 8032SOL     OW35557   2.361   3.859   3.460 -0.2674  0.4431  0.6797
 8032SOL    HW135558   2.316   3.905   3.531  0.2567  1.0967  0.5839
 8032SOL    HW235559   2.375   3.774   3.502 -0.7577 -0.8743 -1.8131
 8033SOL     OW35560   2.143   4.525  17.236 -0.4349 -0.2673  0.4247
 8033SOL    HW135561   2.057   4.566  17.230  0.4550  1.8655  2.2501
 8033SOL    HW235562   2.167   4.511  17.145  1.4628 -2.3780  1.2373
 8034SOL     OW35563   4.419   2.651   8.214  0.0648 -0.3387 -0.1098
 8034SOL    HW135564   4.429   2.564   8.176 -2.3779 -1.2956  1.4090
 8034SOL    HW235565   4.361   2.695   8.152 -0.5184 -2.4495 -1.0347
 8035SOL     OW35566   4.107   1.394   1.660  0.3016  0.0391 -0.2060
 8035SOL    HW135567   4.122   1.488   1.653 -1.1413  0.3130  0.5089
 8035SOL    HW235568   4.018   1.380   1.691 -0.5898  2.6124 -1.5983
 8036SOL     OW35569   0.107   1.208   2.872  0.9121 -0.3070 -0.0568
 8036SOL    HW135570   0.193   1.171   2.851  2.3068  1.6672  2.2821
 8036SOL    HW235571   0.090   1.187   2.963 -1.2693 -2.1909 -0.9042
 8037SOL     OW35572   4.234   0.848   3.568  0.8437  0.3008  0.0448
 8037SOL    HW135573   4.307   0.909   3.573  1.4660 -0.4996  0.7850
 8037SOL    HW235574   4.258   0.789   3.639  3.8735  1.9962  0.4015
 8038SOL     OW35575   0.797   1.045  14.194  0.9060  0.5463 -0.0879
 8038SOL    HW135576   0.770   0.959  14.225  3.1196  0.1215  0.7068
 8038SOL    HW235577   0.887   1.046  14.227  0.7226 -0.6797  0.4477
 8039SOL     OW35578   4.378   2.358   4.450  0.3643 -0.0579  0.0490
 8039SOL    HW135579   4.318   2.360   4.376  0.8562  0.2381 -0.3427
 8039SOL    HW235580   4.363   2.435   4.505 -0.9868 -0.0534 -0.3238
 8040SOL     OW35581   2.510   0.919   3.265  0.1389  0.0625  0.0469
 8040SOL    HW135582   2.431   0.877   3.231  0.8821 -1.5844  0.3722
 8040SOL    HW235583   2.524   0.989   3.201 -1.5045  1.7274  1.5317
 8041SOL     OW35584   2.555   4.368   6.003  0.1537  0.0117  0.0517
 8041SOL    HW135585   2.545   4.320   5.920  0.5984  1.1924 -0.6864
 8041SOL    HW235586   2.644   4.402   6.002  0.6668 -1.2512  1.7105
 8042SOL     OW35587   4.533   0.049   1.293 -0.0864 -0.3993  0.2508
 8042SOL    HW135588   4.457   0.105   1.274  1.1069  0.4042 -2.1997
 8042SOL    HW235589   4.494   4.702   1.240 -0.1892 -0.6702  0.6773
 8043SOL     OW35590   4.319   3.992   7.923  0.5722  0.3832  0.0443
 8043SOL    HW135591   4.390   4.051   7.900  0.7186 -0.4521 -1.6503
 8043SOL    HW235592   4.351   3.903   7.907 -1.8301 -0.5639  0.4900
 8044SOL     OW35593   2.208   3.475  11.950 -0.2851  0.6845  0.3013
 8044SOL    HW135594   2.277   3.443  12.008 -1.9584  0.6865  2.3121
 8044SOL    HW235595   2.211   3.414  11.876  0.1850 -0.0339  0.9151
 8045SOL     OW35596   0.614   0.353  14.513 -0.7065  0.4883 -0.6489
 8045SOL    HW135597   0.626   0.447  14.529  2.1638 -0.5594  3.4697
 8045SOL    HW235598   0.519   0.354  14.504 -0.7158  1.6917 -0.3621
 8046SOL     OW35599   0.095   0.325   8.301 -0.2667  0.1366 -0.4758
 8046SOL    HW135600   0.068   0.379   8.227  0.8435 -0.5114 -1.3435
 8046SOL    HW235601   0.135   0.254   8.252  1.4622  0.7147  0.0967
 8047SOL     OW35602   3.024   0.165   6.378  0.3965  0.0345 -0.0074
 8047SOL    HW135603   3.016   0.197   6.468  0.8518 -2.1756  0.8196
 8047SOL    HW235604   2.941   0.172   6.330  2.0513 -0.0740 -2.9150
 8048SOL     OW35605   0.736   1.572   3.255  0.3465  0.1147  0.4422
 8048SOL    HW135606   0.720   1.666   3.262 -0.5571  0.0741 -1.0851
 8048SOL    HW235607   0.811   1.564   3.314  0.9237 -1.0054 -0.4353
 8049SOL     OW35608   0.993   2.371   2.678  0.0835 -0.8417 -0.2087
 8049SOL    HW135609   1.076   2.358   2.723 -0.1753  2.0095  1.1145
 8049SOL    HW235610   1.034   2.421   2.607  0.2333  1.0829  1.2474
 8050SOL     OW35611   4.060   0.664   6.082 -0.0357 -0.9043 -0.4100
 8050SOL    HW135612   4.145   0.685   6.121 -0.4438  0.6973 -0.3883
 8050SOL    HW235613   4.067   0.724   6.007  1.1632  0.5994  0.8919
 8051SOL     OW35614   4.318   0.622   4.920  0.0126  0.0092 -0.2935
 8051SOL    HW135615   4.376   0.691   4.955 -0.3704 -0.5799  1.4678
 8051SOL    HW235616   4.361   0.602   4.837  1.3659 -0.2204  0.4598
 8052SOL     OW35617   1.781   3.047  17.462  0.7618 -0.3119 -0.4185
 8052SOL    HW135618   1.810   2.970  17.413 -2.0122 -0.9901 -0.9759
 8052SOL    HW235619   1.847   3.103  17.422  2.2002 -1.6885  0.0354
 8053SOL     OW35620   0.824   3.615   0.894  0.0679  0.3430  0.1619
 8053SOL    HW135621   0.913   3.628   0.927  0.5954 -2.6306 -0.0187
 8053SOL    HW235622   0.776   3.622   0.977 -0.8445 -1.4979 -0.2121
 8054SOL     OW35623   3.284   3.139   2.668 -0.2848 -0.1261  0.0509
 8054SOL    HW135624   3.337   3.069   2.630  0.8167  2.0722 -2.4035
 8054SOL    HW235625   3.340   3.171   2.739 -2.6731  1.0118  1.4622
 8055SOL     OW35626   0.959   3.679  12.663  0.0711  0.0613 -0.3257
 8055SOL    HW135627   1.038   3.653  12.615  0.3657  1.7248 -0.7542
 8055SOL    HW235628   0.937   3.592  12.694  1.1082  0.8982  2.8061
 8056SOL     OW35629   3.519   3.375   6.381  0.3501  0.2371  0.3564
 8056SOL    HW135630   3.495   3.304   6.439  1.4150  0.1382  0.6840
 8056SOL    HW235631   3.600   3.353   6.334 -0.5492  0.3505 -1.2494
 8057SOL     OW35632   0.246   0.796  16.817 -0.9574  0.3031 -0.0678
 8057SOL    HW135633   0.329   0.755  16.791 -0.8685  0.7898 -0.5479
 8057SOL    HW235634   0.277   0.884  16.794 -1.3106  0.5645  0.4777
 8058SOL     OW35635   2.685   2.872   4.022 -0.3152  0.5425  0.3672
 8058SOL    HW135636   2.647   2.956   4.047  1.7574  0.4749  3.8082
 8058SOL    HW235637   2.614   2.807   4.023  2.8762 -2.9326 -0.4373
 8059SOL     OW35638   3.261   3.633  10.121  0.2096 -0.1408 -0.0010
 8059SOL    HW135639   3.219   3.552  10.148  0.8624 -0.5165 -0.0944
 8059SOL    HW235640   3.189   3.691  10.143  0.3677 -0.9233  2.5319
 8060SOL     OW35641   0.661   2.101   7.291  0.5917 -0.0769  0.1809
 8060SOL    HW135642   0.678   2.157   7.367  1.6704  1.7984 -1.4373
 8060SOL    HW235643   0.658   2.168   7.222  0.4204 -1.3380 -1.0286
 8061SOL     OW35644   2.722   1.118   5.191  0.1092 -0.0156  0.0602
 8061SOL    HW135645   2.642   1.163   5.218 -0.0662 -1.6698  2.2634
 8061SOL    HW235646   2.785   1.161   5.248 -1.5737  1.2048  0.9998
 8062SOL     OW35647   2.759   3.228   4.597 -0.3916  0.0022 -0.1088
 8062SOL    HW135648   2.706   3.280   4.656 -3.4768  0.5175 -3.3353
 8062SOL    HW235649   2.829   3.293   4.590  0.2151 -0.5993  0.3606
 8063SOL     OW35650   4.406   2.056   7.033  0.3246 -0.2154 -0.4414
 8063SOL    HW135651   4.464   2.059   6.957 -0.4599  0.9361 -0.9856
 8063SOL    HW235652   4.330   2.101   6.996  0.2973 -0.3203 -0.5133
 8064SOL     OW35653   2.597   2.326   5.392 -0.7878  0.6487  0.4386
 8064SOL    HW135654   2.658   2.372   5.335  0.4570 -2.3534 -0.6330
 8064SOL    HW235655   2.597   2.246   5.340 -1.4904 -0.5724  2.3055
 8065SOL     OW35656   0.439   0.163   3.392  0.2964  0.0597 -0.2624
 8065SOL    HW135657   0.406   0.169   3.482  1.8895 -1.0096  0.3800
 8065SOL    HW235658   0.517   0.217   3.396  0.2973 -0.0955  1.6081
 8066SOL     OW35659   2.101   3.266   4.791  0.7146  0.6019 -0.3992
 8066SOL    HW135660   2.091   3.172   4.810  1.0816  0.3773 -1.3152
 8066SOL    HW235661   2.149   3.259   4.708 -0.4634  0.6898 -1.0866
 8067SOL     OW35662   3.886   2.227   6.584  0.0343 -0.2353  0.4126
 8067SOL    HW135663   3.881   2.222   6.679 -0.9983 -0.8599  0.3190
 8067SOL    HW235664   3.939   2.150   6.563  0.3921 -0.2971  1.5654
 8068SOL     OW35665   3.357   2.574  16.482  0.7644  0.0253 -0.7697
 8068SOL    HW135666   3.283   2.589  16.423 -0.1246 -0.4214  0.2349
 8068SOL    HW235667   3.414   2.644  16.451 -0.2940  1.7298  1.1104
 8069SOL     OW35668   4.355   1.146  10.691  0.3231 -0.5452  0.4599
 8069SOL    HW135669   4.293   1.119  10.623  0.9347 -1.6361  0.3334
 8069SOL    HW235670   4.313   1.095  10.760 -1.0341  0.5089  0.4063
 8070SOL     OW35671   1.901   4.470  13.494  0.7382 -0.6144  0.1357
 8070SOL    HW135672   1.830   4.459  13.430 -0.4592 -2.0820  1.7121
 8070SOL    HW235673   1.969   4.506  13.437  0.4882  3.0052  2.1260
 8071SOL     OW35674   2.452   3.786   5.396  0.0416 -0.0930 -0.0688
 8071SOL    HW135675   2.404   3.713   5.355 -0.1122  0.6013 -1.1473
 8071SOL    HW235676   2.542   3.756   5.390  0.2708  0.6519 -0.3495
 8072SOL     OW35677   1.125   3.788  12.982  0.0234 -0.3378  0.3341
 8072SOL    HW135678   1.092   3.743  13.060  1.1135  1.7781  2.0431
 8072SOL    HW235679   1.184   3.727  12.939  2.4624  0.8349  2.0113
 8073SOL     OW35680   1.433   3.416   3.899  0.6493  0.6540  0.2217
 8073SOL    HW135681   1.429   3.512   3.897 -1.3978  0.5790  0.6695
 8073SOL    HW235682   1.427   3.408   3.994  0.3155  2.1270  0.3322
 8074SOL     OW35683   3.527   2.610   1.169 -0.0436  0.1330 -0.2360
 8074SOL    HW135684   3.544   2.653   1.085 -0.0640  0.2953 -0.1573
 8074SOL    HW235685   3.612   2.572   1.190 -0.6316 -0.6572  0.7113
 8075SOL     OW35686   1.717   0.156   8.874  0.1049  0.2568  0.4804
 8075SOL    HW135687   1.696   0.250   8.881 -2.7033 -0.4356  1.5874
 8075SOL    HW235688   1.663   0.136   8.798  1.1165 -2.5537  0.5345
 8076SOL     OW35689   0.855   2.504   6.097  0.3005  0.1422  0.0624
 8076SOL    HW135690   0.920   2.464   6.155 -3.4849 -1.2113  3.4056
 8076SOL    HW235691   0.791   2.434   6.091  0.1026  0.4375 -1.3145
 8077SOL     OW35692   0.252   4.011   1.043 -0.2364  0.1288  0.4321
 8077SOL    HW135693   0.290   3.926   1.063  0.2391 -0.0642 -1.2286
 8077SOL    HW235694   0.285   4.027   0.954 -0.4845 -0.5276  0.2183
 8078SOL     OW35695   0.978   0.547  11.075 -0.3218  0.3250 -0.2025
 8078SOL    HW135696   0.892   0.563  11.114 -0.8104  1.5024 -1.7182
 8078SOL    HW235697   0.941   0.515  10.992  0.0574  0.3354 -0.3760
 8079SOL     OW35698   2.742   1.381   0.490 -0.4700  0.0882 -0.6625
 8079SOL    HW135699   2.679   1.426   0.547 -0.4740 -2.0352  1.0245
 8079SOL    HW235700   2.720   1.433   0.413 -0.8349  0.5744 -0.2326
 8080SOL     OW35701   3.227   2.904   9.980  0.1013  0.4618 -0.5181
 8080SOL    HW135702   3.263   2.977  10.030  0.1255  0.7053 -0.8965
 8080SOL    HW235703   3.179   2.859  10.050 -0.0879 -0.6391 -1.3576
 8081SOL     OW35704   4.161   3.384   7.162 -0.4934 -0.9544  0.0307
 8081SOL    HW135705   4.133   3.474   7.178 -0.4240 -0.9967  0.4031
 8081SOL    HW235706   4.112   3.334   7.228  1.1195 -1.8411  0.5601
 8082SOL     OW35707   2.481   4.085   4.286 -0.2167  0.3461  0.2218
 8082SOL    HW135708   2.391   4.105   4.311 -0.4864  0.0406 -0.5031
 8082SOL    HW235709   2.534   4.165   4.288 -0.0541  0.1854  1.8738
 8083SOL     OW35710   3.375   3.822   3.759 -0.4528  0.6357 -0.0655
 8083SOL    HW135711   3.313   3.749   3.747  1.8065 -1.7330  2.8239
 8083SOL    HW235712   3.433   3.772   3.816 -1.6989 -0.9470 -0.1894
 8084SOL     OW35713   2.153   3.429   7.885  0.1019  0.1519  0.4151
 8084SOL    HW135714   2.242   3.437   7.851  0.2392 -2.8140  0.0196
 8084SOL    HW235715   2.099   3.431   7.806  0.2209 -0.1068  0.3268
 8085SOL     OW35716   1.165   0.361   7.528 -0.7601 -0.3043  0.3682
 8085SOL    HW135717   1.072   0.358   7.507 -0.2757 -0.0190 -1.9001
 8085SOL    HW235718   1.164   0.419   7.604 -1.4018  0.7696 -0.4554
 8086SOL     OW35719   0.313   1.101   6.586 -0.4683  0.3101  0.2390
 8086SOL    HW135720   0.286   1.137   6.502 -1.6456  0.8800  0.8657
 8086SOL    HW235721   0.302   1.177   6.643 -0.2674  0.5608 -0.0592
 8087SOL     OW35722   0.724   0.975   4.027  0.1258  0.0961  0.2554
 8087SOL    HW135723   0.789   1.038   3.997 -0.4404 -1.0107 -3.2309
 8087SOL    HW235724   0.657   0.977   3.959 -0.2068  2.1671  0.6324
 8088SOL     OW35725   4.153   2.654   4.006  0.7720 -0.1443 -0.0941
 8088SOL    HW135726   4.110   2.573   3.978 -1.9010  0.2364  2.9723
 8088SOL    HW235727   4.185   2.627   4.092  1.5524 -1.7225 -0.8826
 8089SOL     OW35728   2.508   1.914  16.450 -0.0308 -0.3801  0.4945
 8089SOL    HW135729   2.561   1.925  16.529 -1.7691 -0.5965  1.6818
 8089SOL    HW235730   2.473   1.825  16.451 -0.6870 -0.1131  2.2273
 8090SOL     OW35731   4.662   2.623  17.689 -0.0616  0.4264 -0.9848
 8090SOL    HW135732   4.611   2.579   0.066  0.5223  1.6720  0.2601
 8090SOL    HW235733   4.703   2.687   0.056  1.1602  1.3902 -2.9251
 8091SOL     OW35734   2.484   2.304   4.037  0.0521  0.1999 -0.1409
 8091SOL    HW135735   2.547   2.233   4.046 -0.0425  0.1694  0.2990
 8091SOL    HW235736   2.481   2.339   4.126  0.0359 -0.2633  0.0385
 8092SOL     OW35737   2.656   1.770   2.984  0.5955 -0.1309 -0.4698
 8092SOL    HW135738   2.708   1.824   2.924 -0.3264  1.5861  0.2744
 8092SOL    HW235739   2.720   1.761   3.054  1.3717  4.4914 -0.6302
 8093SOL     OW35740   2.829   3.831   8.769 -0.2144 -0.0379  0.4299
 8093SOL    HW135741   2.761   3.897   8.784 -1.0858 -0.4646 -1.5030
 8093SOL    HW235742   2.903   3.856   8.824  1.6600 -2.3065 -1.0310
 8094SOL     OW35743   3.953   4.322   4.915 -0.3548  0.5240 -0.1998
 8094SOL    HW135744   4.030   4.273   4.942 -0.1316  1.3900  0.7284
 8094SOL    HW235745   3.957   4.402   4.967 -2.9525  0.4585  0.1094
 8095SOL     OW35746   0.055   2.706   5.312  0.3032  0.6976  0.1030
 8095SOL    HW135747   0.138   2.682   5.352  0.1909  2.7949  1.6114
 8095SOL    HW235748   0.071   2.800   5.306 -0.1245  0.6657 -1.5267
 8096SOL     OW35749   0.604   4.409   9.491  0.6444  0.3534 -0.0829
 8096SOL    HW135750   0.511   4.432   9.496  0.5305 -0.6063  2.1761
 8096SOL    HW235751   0.629   4.381   9.579  0.8392  0.6498 -0.0446
 8097SOL     OW35752   2.325   4.353   5.573 -0.1328 -0.1209  0.6218
 8097SOL    HW135753   2.268   4.345   5.496 -0.2448 -0.5989  0.7524
 8097SOL    HW235754   2.412   4.367   5.535  0.4029 -0.7653  1.6252
 8098SOL     OW35755   4.204   4.416   6.113 -0.2982 -0.2039 -0.1004
 8098SOL    HW135756   4.217   4.497   6.162  1.3438 -0.0920 -0.7461
 8098SOL    HW235757   4.279   4.364   6.142  0.0219  0.4526  0.2457
 8099SOL     OW35758   2.963   3.807   3.538 -0.0835  0.4024  0.5998
 8099SOL    HW135759   2.878   3.844   3.512  0.0315  1.7443  2.1476
 8099SOL    HW235760   2.998   3.764   3.460 -1.9597 -0.2584  0.1093
 8100SOL     OW35761   1.335   4.620   7.900  0.1152  0.3725 -0.5194
 8100SOL    HW135762   1.413   4.617   7.956 -2.1086 -1.1041  2.5357
 8100SOL    HW235763   1.368   4.683   7.836  1.3505  0.4827  0.2118
 8101SOL     OW35764   2.545   0.734   8.458 -0.4962  0.1459 -0.3029
 8101SOL    HW135765   2.641   0.736   8.460 -0.5145 -0.7710  2.0944
 8101SOL    HW235766   2.513   0.744   8.368  1.1330  0.7595 -0.8095
 8102SOL     OW35767   3.886   1.300  14.676 -0.1196 -0.1331 -0.2373
 8102SOL    HW135768   3.922   1.310  14.764  0.9622 -1.1581 -0.5494
 8102SOL    HW235769   3.797   1.273  14.696  0.0551 -0.8875 -0.4796
 8103SOL     OW35770   2.554   2.831   7.784  0.1693  0.0620 -0.1960
 8103SOL    HW135771   2.598   2.762   7.834 -2.9935 -1.3205  0.7113
 8103SOL    HW235772   2.526   2.884   7.859 -1.7610 -0.4955 -0.5198
 8104SOL     OW35773   3.250   0.932   6.798  0.5505  0.5483  0.3185
 8104SOL    HW135774   3.321   0.911   6.859  0.4317  1.7901  0.8772
 8104SOL    HW235775   3.292   1.001   6.745  1.9683  0.1971  0.9888
 8105SOL     OW35776   0.758   4.451  13.626  0.5144 -0.1597  0.1934
 8105SOL    HW135777   0.834   4.462  13.569 -0.1884 -2.7042 -1.2577
 8105SOL    HW235778   0.727   4.367  13.592  0.6243  0.6449 -1.9012
 8106SOL     OW35779   2.541   2.815   6.955  0.7778 -0.1493 -0.1344
 8106SOL    HW135780   2.486   2.747   6.915 -1.6297  1.2846  0.6790
 8106SOL    HW235781   2.481   2.848   7.023  0.7876  0.9146 -0.6371
 8107SOL     OW35782   0.668   4.692   2.194  0.0431 -0.2862  0.1860
 8107SOL    HW135783   0.689   4.620   2.253 -0.2353 -0.0317  0.5931
 8107SOL    HW235784   0.611   0.021   2.252  0.8452 -0.1409  0.8505
 8108SOL     OW35785   2.405   0.915   7.325  0.1774  0.4421  0.2479
 8108SOL    HW135786   2.419   0.956   7.411 -2.5605  3.3443 -0.6946
 8108SOL    HW235787   2.480   0.856   7.320 -0.8670 -0.9745  1.5118
 8109SOL     OW35788   0.436   4.505   6.052 -0.5591  0.0294 -0.2604
 8109SOL    HW135789   0.530   4.520   6.062 -0.5416 -1.6508  1.9869
 8109SOL    HW235790   0.426   4.473   5.962  0.3151 -1.2810  0.1051
 8110SOL     OW35791   3.888   3.020   3.308  0.3681 -0.2996 -0.2278
 8110SOL    HW135792   3.915   3.096   3.360  1.3521 -0.6594 -0.2138
 8110SOL    HW235793   3.794   3.035   3.312 -0.0025 -2.6144 -0.4017
 8111SOL     OW35794   0.944   0.949   3.545  0.2306  0.0455  0.0775
 8111SOL    HW135795   1.018   0.890   3.551  0.8312  0.7342 -0.4696
 8111SOL    HW235796   0.869   0.902   3.581 -0.2913  0.8083 -0.0004
 8112SOL     OW35797   1.034   0.059   8.822 -0.0962  0.2988  0.0008
 8112SOL    HW135798   1.090   0.101   8.887  1.0823 -0.6429 -0.3968
 8112SOL    HW235799   0.997   4.712   8.877 -1.1427  0.8841  0.0250
 8113SOL     OW35800   3.899   4.015   4.394 -0.0577  0.0263  0.5699
 8113SOL    HW135801   3.956   3.982   4.325 -0.2252  0.1825  0.3604
 8113SOL    HW235802   3.867   4.097   4.357 -0.3966 -0.4383 -0.1548
 8114SOL     OW35803   4.093   4.225   1.342 -0.0092  1.1912  0.3292
 8114SOL    HW135804   4.006   4.258   1.324 -0.6394 -0.7419 -0.1629
 8114SOL    HW235805   4.137   4.224   1.257 -2.7327 -1.0454 -1.0611
 8115SOL     OW35806   1.179   2.164  12.911 -0.4760 -0.1811  0.0923
 8115SOL    HW135807   1.239   2.124  12.848  0.2565  1.2631 -0.1293
 8115SOL    HW235808   1.149   2.087  12.959 -2.4904  0.7914  0.4366
 8116SOL     OW35809   0.814   4.592   9.142  0.5321  0.6188  0.2451
 8116SOL    HW135810   0.768   4.676   9.136  0.8809  0.6857 -1.7794
 8116SOL    HW235811   0.906   4.617   9.137  0.9775 -1.2913 -0.9889
 8117SOL     OW35812   2.615   3.604  11.968 -0.1550 -0.0256  0.6187
 8117SOL    HW135813   2.707   3.597  11.994  1.1378  0.1108 -3.8400
 8117SOL    HW235814   2.588   3.690  12.000 -1.3402 -1.2671  2.9179
 8118SOL     OW35815   3.616   1.962   3.517  0.1659  0.0159 -0.5972
 8118SOL    HW135816   3.689   2.017   3.489 -1.2558  1.5803 -1.2233
 8118SOL    HW235817   3.581   2.023   3.581  0.2062  1.3461 -1.8448
 8119SOL     OW35818   3.544   3.677  10.593 -0.0491 -0.4047 -0.2215
 8119SOL    HW135819   3.592   3.650  10.515  1.3989 -1.0447  0.9043
 8119SOL    HW235820   3.457   3.637  10.585  0.8034 -2.1521 -0.5008
 8120SOL     OW35821   3.189   2.763   5.520 -0.5532 -0.5315  0.6458
 8120SOL    HW135822   3.169   2.852   5.549 -1.0421  0.7168 -3.5364
 8120SOL    HW235823   3.144   2.711   5.587 -1.4897 -0.3579  0.1431
 8121SOL     OW35824   2.192   2.708   1.677  0.5439  0.2129 -0.5864
 8121SOL    HW135825   2.182   2.774   1.608 -1.3631 -0.3902 -0.8668
 8121SOL    HW235826   2.116   2.652   1.666  0.5027  0.1443  0.0348
 8122SOL     OW35827   2.997   3.977   8.941  0.0962 -0.4582 -0.4340
 8122SOL    HW135828   2.951   3.967   9.024 -0.1679  1.0234 -0.3946
 8122SOL    HW235829   3.083   3.950   8.973  0.5283  1.7592  0.3242
 8123SOL     OW35830   4.237   1.522  11.551 -0.5749 -0.0312  0.6686
 8123SOL    HW135831   4.250   1.590  11.617  0.5380  0.2302  0.1914
 8123SOL    HW235832   4.327   1.507  11.523 -1.3529 -2.4068 -0.5903
 8124SOL     OW35833   4.429   3.752   1.421  0.2153  0.3778 -0.4795
 8124SOL    HW135834   4.360   3.810   1.387  1.0462  1.9831  0.5846
 8124SOL    HW235835   4.373   3.682   1.454 -1.4073  0.9054 -2.0933
 8125SOL     OW35836   2.749   0.010  10.748  0.1902 -0.1543  0.0467
 8125SOL    HW135837   2.773   4.658  10.804 -0.6197 -0.0446  0.5351
 8125SOL    HW235838   2.827   0.064  10.746 -0.0156  0.1832  1.7400
 8126SOL     OW35839   2.744   0.914  14.080 -0.5299  0.3708  0.3348
 8126SOL    HW135840   2.734   1.009  14.068  0.9077  0.5729  0.6637
 8126SOL    HW235841   2.727   0.902  14.174  0.6194 -1.4539  0.3018
 8127SOL     OW35842   1.577   0.330   8.070 -0.6176  0.5642  1.3594
 8127SOL    HW135843   1.625   0.412   8.087 -1.7199  2.1320 -3.0467
 8127SOL    HW235844   1.529   0.361   7.993  0.7818  2.2375  1.1559
 8128SOL     OW35845   0.034   1.199   4.164  0.2299  0.4071 -0.2788
 8128SOL    HW135846   0.082   1.232   4.088  1.2895  0.3572  0.3738
 8128SOL    HW235847   4.673   1.247   4.162 -1.3791 -2.3321  0.7828
 8129SOL     OW35848   2.189   0.174  15.435 -0.9409 -0.4335 -0.5843
 8129SOL    HW135849   2.211   0.212  15.350  0.0495  1.3600  0.4721
 8129SOL    HW235850   2.108   0.127  15.412 -0.6037 -1.2883 -0.0041
 8130SOL     OW35851   2.739   3.687   8.159 -0.2190 -0.1837  0.2396
 8130SOL    HW135852   2.819   3.635   8.154  1.3512  2.5981 -3.3525
 8130SOL    HW235853   2.724   3.695   8.253 -1.5205  2.8966 -0.2157
 8131SOL     OW35854   0.488   4.688   4.989 -0.3064  0.0426  0.7800
 8131SOL    HW135855   0.462   4.672   5.080 -1.1028 -0.4558  0.4607
 8131SOL    HW235856   0.479   0.061   4.979  0.8899  0.1545  0.6623
 8132SOL     OW35857   3.442   2.851  12.029 -0.2084  0.5280 -0.1953
 8132SOL    HW135858   3.470   2.910  12.098  2.2359  0.0263 -0.7542
 8132SOL    HW235859   3.388   2.780  12.065  1.3265 -0.9280 -0.7550
 8133SOL     OW35860   4.373   1.854   8.784  0.6085 -0.2934 -0.2817
 8133SOL    HW135861   4.406   1.892   8.702 -0.2607  0.7056 -0.1731
 8133SOL    HW235862   4.457   1.843   8.827  0.3400 -0.7726  0.1136
 8134SOL     OW35863   2.535   4.059   5.303 -0.9727 -0.5933  0.4072
 8134SOL    HW135864   2.483   3.989   5.343  0.2453 -0.9751  1.3150
 8134SOL    HW235865   2.624   4.036   5.329 -0.5117  0.4553 -0.2838
 8135SOL     OW35866   0.084   3.494  10.435  0.1828  0.1767 -0.1200
 8135SOL    HW135867   0.008   3.478  10.491  1.0371  0.5954  1.1691
 8135SOL    HW235868   0.054   3.432  10.369  1.1878 -0.4432 -0.0002
 8136SOL     OW35869   4.232   2.471   0.875  0.1667  0.1771  0.2176
 8136SOL    HW135870   4.300   2.414   0.840  0.2241  0.4256 -0.0684
 8136SOL    HW235871   4.264   2.552   0.834 -2.1468  1.9942  2.0211
 8137SOL     OW35872   4.345   2.278  11.635  0.7432 -0.1011 -0.8089
 8137SOL    HW135873   4.340   2.238  11.548 -0.2962  0.4651 -0.9993
 8137SOL    HW235874   4.403   2.214  11.678 -1.4985  0.5368  3.1412
 8138SOL     OW35875   0.028   2.732   2.581  0.6508  0.3411 -0.0779
 8138SOL    HW135876   4.662   2.764   2.566  1.3403  1.0367 -2.7261
 8138SOL    HW235877   0.012   2.645   2.619  0.6986  0.4181  0.1196
 8139SOL     OW35878   1.737   2.070   6.979  0.1651  0.0090 -0.3625
 8139SOL    HW135879   1.797   2.097   6.909  0.8388  0.7220  0.4945
 8139SOL    HW235880   1.709   1.994   6.928 -0.0848  0.2532 -0.5923
 8140SOL     OW35881   1.424   1.279  12.010  0.9455  0.5435 -0.3735
 8140SOL    HW135882   1.402   1.195  12.052 -0.1321  0.6663 -0.6759
 8140SOL    HW235883   1.454   1.248  11.924 -2.9476  2.3615 -2.3890
 8141SOL     OW35884   2.136   2.292   1.494 -0.0104 -0.2425  0.3196
 8141SOL    HW135885   2.084   2.300   1.414  1.3173  0.9019 -0.4265
 8141SOL    HW235886   2.105   2.364   1.549 -1.8032 -0.2744 -0.6809
 8142SOL     OW35887   3.174   0.065   7.659  0.0711  0.0681 -0.3988
 8142SOL    HW135888   3.100   0.020   7.619 -1.1359  2.9811 -1.4354
 8142SOL    HW235889   3.197   0.127   7.589 -2.2713  0.7610 -0.5315
 8143SOL     OW35890   2.783   0.224  12.587 -0.0890  0.3129 -0.0161
 8143SOL    HW135891   2.809   0.270  12.667  3.1040 -1.1855 -0.1928
 8143SOL    HW235892   2.873   0.208  12.558 -0.4743  1.2992 -1.7780
 8144SOL     OW35893   1.215   0.649  10.844 -0.1334 -0.4011  0.2401
 8144SOL    HW135894   1.129   0.639  10.803  0.1487  1.0497 -0.7130
 8144SOL    HW235895   1.270   0.598  10.785  0.5864 -1.7857  2.1146
 8145SOL     OW35896   0.035   3.148  10.893  0.1440  0.0293 -0.3412
 8145SOL    HW135897   0.032   3.241  10.916 -0.6353 -0.2128  0.5427
 8145SOL    HW235898   0.076   3.110  10.971 -1.6759 -1.7991 -0.2925
 8146SOL     OW35899   1.202   1.035   2.360  0.4707 -0.1400  0.0782
 8146SOL    HW135900   1.275   0.992   2.315 -0.2538 -1.2238 -0.0445
 8146SOL    HW235901   1.208   1.127   2.333  3.3138  0.1010  1.5528
 8147SOL     OW35902   4.681   1.730   2.758 -0.9262 -0.4175  0.0003
 8147SOL    HW135903   0.032   1.733   2.696 -1.7581 -3.4753 -1.1298
 8147SOL    HW235904   4.649   1.642   2.739  0.4560 -1.2627  1.6063
 8148SOL     OW35905   4.527   0.792   4.976  0.1694  0.1187  0.2926
 8148SOL    HW135906   4.543   0.868   5.031 -2.6003  0.3922  0.7139
 8148SOL    HW235907   4.619   0.768   4.966  0.6680  0.4651  4.0875
 8149SOL     OW35908   3.602   1.010   0.011  0.0923 -0.8760 -0.0980
 8149SOL    HW135909   3.529   1.046  17.651  1.1738  0.3204 -0.8258
 8149SOL    HW235910   3.576   0.919   0.023  1.1442 -1.3169 -1.2103
 8150SOL     OW35911   0.266   4.634   6.974 -0.0478 -0.0771  0.0294
 8150SOL    HW135912   0.316   4.603   7.049 -0.2565  0.1635  0.2692
 8150SOL    HW235913   0.227   4.713   7.013 -0.3749  0.4582 -1.3514
 8151SOL     OW35914   4.143   2.797   4.813  0.2448  0.4519 -0.1170
 8151SOL    HW135915   4.128   2.803   4.719 -0.2471 -2.3495 -0.2175
 8151SOL    HW235916   4.115   2.706   4.828  0.5208  0.1376 -1.5021
 8152SOL     OW35917   0.436   2.876  14.656  0.5272 -0.0284  0.4869
 8152SOL    HW135918   0.414   2.820  14.731 -0.1651  0.4825  0.6735
 8152SOL    HW235919   0.355   2.891  14.607  1.5597 -1.6248 -1.7211
 8153SOL     OW35920   2.980   3.139  10.387  0.3044 -0.4384  0.4452
 8153SOL    HW135921   3.000   3.124  10.295 -0.5955  1.5654 -0.0884
 8153SOL    HW235922   3.062   3.135  10.437  0.5316  1.6487  0.2527
 8154SOL     OW35923   0.382   2.028   4.233 -0.1330  1.1924 -0.3105
 8154SOL    HW135924   0.464   2.077   4.231  0.2694  0.5737  1.4596
 8154SOL    HW235925   0.389   1.974   4.154 -0.2520  1.3345 -0.4191
 8155SOL     OW35926   1.381   1.079   1.031  0.7025 -0.0839  0.1345
 8155SOL    HW135927   1.406   0.998   0.986  2.5125  0.5919 -0.0617
 8155SOL    HW235928   1.360   1.045   1.118  1.7250 -1.2180 -0.0626
 8156SOL     OW35929   4.359   4.103   1.037  0.0893  0.3571 -0.5143
 8156SOL    HW135930   4.385   4.131   1.125  0.8314  0.7107 -0.8533
 8156SOL    HW235931   4.431   4.047   1.007 -0.5582  0.3794 -2.1055
 8157SOL     OW35932   1.070   3.464   8.258 -0.3314 -0.4105 -0.4461
 8157SOL    HW135933   0.983   3.428   8.276 -0.0632 -0.1161  1.3793
 8157SOL    HW235934   1.119   3.384   8.272 -0.1215 -0.7913 -3.3578
 8158SOL     OW35935   1.535   2.260   4.892  0.1746 -0.5689 -0.1317
 8158SOL    HW135936   1.510   2.353   4.890 -5.0393 -1.9821  0.3176
 8158SOL    HW235937   1.615   2.255   4.944 -0.7671 -0.0765  1.3647
 8159SOL     OW35938   3.044   2.723   2.425  0.8195 -0.4612 -0.1007
 8159SOL    HW135939   3.012   2.657   2.363 -2.4340  0.8858  0.1039
 8159SOL    HW235940   3.136   2.727   2.401  0.6431 -0.1582 -0.7330
 8160SOL     OW35941   0.878   0.801   4.692 -0.0435 -0.6900  0.4004
 8160SOL    HW135942   0.947   0.775   4.631  0.2353 -0.9440  0.8252
 8160SOL    HW235943   0.877   0.897   4.698  1.3959 -0.5928 -0.8598
 8161SOL     OW35944   1.902   2.792  14.487  0.0441 -0.1742 -0.1764
 8161SOL    HW135945   1.829   2.730  14.490 -0.1590  0.0602 -0.1913
 8161SOL    HW235946   1.940   2.772  14.401  1.0162  1.8445 -0.2339
 8162SOL     OW35947   2.862   0.217   4.450 -0.0943  0.3449  0.1333
 8162SOL    HW135948   2.884   0.226   4.357  1.8650 -1.7118  0.3965
 8162SOL    HW235949   2.895   0.128   4.459 -0.6012  0.2895  1.4622
 8163SOL     OW35950   4.418   1.867   2.763 -0.1355 -0.0596  0.4922
 8163SOL    HW135951   4.391   1.840   2.675  1.8493 -1.8065  0.4206
 8163SOL    HW235952   4.510   1.843   2.768 -0.7492 -2.2916  0.9176
 8164SOL     OW35953   4.056   4.499  11.714 -0.4454  0.5823  0.4843
 8164SOL    HW135954   3.980   4.511  11.771  0.0609  0.9437  1.0912
 8164SOL    HW235955   4.039   4.580  11.665 -2.8115 -1.4078 -1.9282
 8165SOL     OW35956   3.475   4.327  16.343 -0.1093 -0.6388 -0.0213
 8165SOL    HW135957   3.548   4.378  16.377  0.4686 -1.0633 -0.6211
 8165SOL    HW235958   3.398   4.383  16.351  1.0284  1.3757 -3.2182
 8166SOL     OW35959   1.219   1.108   2.613  0.4238  0.0734 -0.5400
 8166SOL    HW135960   1.134   1.145   2.588  1.1356  2.1182  0.0634
 8166SOL    HW235961   1.245   1.069   2.529  2.9631 -0.5352  0.5321
 8167SOL     OW35962   3.750   2.554   4.701 -0.1637  0.5004 -0.2076
 8167SOL    HW135963   3.716   2.467   4.722 -0.1389  0.5000 -0.1697
 8167SOL    HW235964   3.818   2.566   4.768 -0.7965 -1.6180  0.8108
 8168SOL     OW35965   3.865   3.091   5.704  0.1430  0.1612  0.2716
 8168SOL    HW135966   3.908   3.122   5.624  0.9901 -0.8434  0.3409
 8168SOL    HW235967   3.931   3.130   5.761  0.6675 -1.6256  0.8637
 8169SOL     OW35968   3.437   4.010   6.048 -0.2807  0.6108 -0.0823
 8169SOL    HW135969   3.511   4.064   6.021 -0.8926  0.8168 -1.3516
 8169SOL    HW235970   3.465   3.920   6.036 -0.1518  1.1456 -3.6362
 8170SOL     OW35971   0.093   3.444  14.754 -0.0449 -0.0468  0.0873
 8170SOL    HW135972   0.037   3.452  14.677  1.2969 -1.5267 -1.0522
 8170SOL    HW235973   0.175   3.410  14.718  1.0011  0.4173  2.0244
 8171SOL     OW35974   1.817   4.147   4.598 -0.1511 -0.2885 -0.8755
 8171SOL    HW135975   1.769   4.209   4.652 -0.1395  0.2347 -1.4735
 8171SOL    HW235976   1.770   4.065   4.613 -0.1070 -0.1028  0.2906
 8172SOL     OW35977   3.143   3.384   4.391  0.1053 -0.1890  0.4759
 8172SOL    HW135978   3.208   3.446   4.357  1.7198 -1.9993  0.2391
 8172SOL    HW235979   3.173   3.294   4.379 -0.9710 -0.7668  2.0800
 8173SOL     OW35980   2.846   0.708   6.537 -0.4970 -0.4025  0.0390
 8173SOL    HW135981   2.916   0.746   6.590  0.9715 -1.2254 -1.3087
 8173SOL    HW235982   2.768   0.727   6.590 -1.2207  0.9105 -1.4733
 8174SOL     OW35983   3.999   1.057   3.698 -1.0986  0.1006  0.3473
 8174SOL    HW135984   3.983   0.963   3.692 -0.4094  0.1159 -1.7921
 8174SOL    HW235985   3.940   1.097   3.634 -1.7193  0.0396  0.8792
 8175SOL     OW35986   3.557   1.271   3.463 -0.5405  0.1447  0.0976
 8175SOL    HW135987   3.587   1.281   3.373  3.0740 -1.6633  1.1125
 8175SOL    HW235988   3.487   1.336   3.468  0.1649  1.0936 -2.5475
 8176SOL     OW35989   4.256   4.495   2.957  0.4703 -0.3298  0.1559
 8176SOL    HW135990   4.172   4.531   2.926 -0.2651 -1.5115  0.7941
 8176SOL    HW235991   4.306   4.508   2.877  0.0277  1.4075  0.1407
 8177SOL     OW35992   3.344   3.399   2.227  0.1563 -0.3359 -0.1468
 8177SOL    HW135993   3.354   3.491   2.251  2.5844 -0.8273  0.7664
 8177SOL    HW235994   3.346   3.354   2.312  1.5116 -2.2344 -1.1895
 8178SOL     OW35995   1.519   4.528   6.929  0.6422 -0.5915  0.0023
 8178SOL    HW135996   1.535   4.501   7.019 -0.6145 -0.2404  0.3345
 8178SOL    HW235997   1.594   4.588   6.926  0.0452  0.0443 -2.7777
 8179SOL     OW35998   3.614   4.189   6.748  0.0840  0.2558 -0.1524
 8179SOL    HW135999   3.587   4.103   6.779  0.4871  0.9184  2.0362
 8179SOL    HW236000   3.539   4.205   6.690  0.4267 -0.3243 -0.7406
 8180SOL     OW36001   0.085   4.436   4.563 -0.0138 -0.4189  0.4038
 8180SOL    HW136002   0.169   4.405   4.595 -0.7014 -2.5870  0.1123
 8180SOL    HW236003   0.113   4.522   4.534  0.4562 -0.8825 -0.5005
 8181SOL     OW36004   3.845   1.432   2.453  0.5614  0.6807  0.8641
 8181SOL    HW136005   3.903   1.392   2.388 -1.4787 -0.5533 -0.1891
 8181SOL    HW236006   3.833   1.361   2.516 -0.3272 -1.0587 -1.2859
 8182SOL     OW36007   0.520   0.902   3.513 -0.3774 -0.1501 -0.3824
 8182SOL    HW136008   0.454   0.961   3.548  0.3667 -0.1851  1.1053
 8182SOL    HW236009   0.593   0.957   3.485 -1.5794  0.5707 -2.0798
 8183SOL     OW36010   0.271   2.061   3.236  0.4761 -0.1809  0.0478
 8183SOL    HW136011   0.268   2.047   3.141 -1.9142 -0.1009  0.1002
 8183SOL    HW236012   0.180   2.039   3.258  0.3273  1.4209  1.0087
 8184SOL     OW36013   1.720   3.553  10.615  0.3091 -0.2378  0.6488
 8184SOL    HW136014   1.753   3.641  10.629 -1.7840  0.4164  1.5405
 8184SOL    HW236015   1.674   3.530  10.696  1.4792  0.8357  1.6155
 8185SOL     OW36016   4.291   3.627  15.210 -0.0472  0.3633 -0.1668
 8185SOL    HW136017   4.269   3.718  15.189 -0.8952 -0.0570 -1.1300
 8185SOL    HW236018   4.301   3.602  15.118  0.4241 -2.0108  0.5309
 8186SOL     OW36019   4.210   0.474   1.282 -0.2887 -0.0856  0.2699
 8186SOL    HW136020   4.154   0.428   1.344 -0.6752  0.6278  0.4533
 8186SOL    HW236021   4.193   0.424   1.203  1.7689  0.4393 -0.5086
 8187SOL     OW36022   1.458   3.702   6.021  0.3763 -0.0978 -0.2239
 8187SOL    HW136023   1.459   3.634   6.088 -0.5768 -0.7316 -0.8676
 8187SOL    HW236024   1.550   3.727   6.030  1.4257 -3.1940 -2.1256
 8188SOL     OW36025   0.085   3.986   6.296  0.0478 -0.4049 -0.0977
 8188SOL    HW136026   0.141   3.933   6.239  1.8176  0.6966  0.6071
 8188SOL    HW236027   0.156   4.040   6.332 -0.0993  0.1950 -0.7008
 8189SOL     OW36028   1.684   2.951  11.846  0.0161  0.3633  0.2494
 8189SOL    HW136029   1.655   3.040  11.865  1.8807  1.1729 -0.6732
 8189SOL    HW236030   1.679   2.942  11.751  0.4023 -1.0234  0.3680
 8190SOL     OW36031   4.640   2.518   4.028  0.1181  0.4413 -0.4050
 8190SOL    HW136032   4.587   2.558   4.097 -0.8555 -1.2206 -0.1935
 8190SOL    HW236033   4.585   2.442   4.014 -1.2405  1.2232  0.7763
 8191SOL     OW36034   0.510   0.562   6.315 -0.3866  0.6706 -0.4799
 8191SOL    HW136035   0.464   0.599   6.391 -1.9269 -0.5465 -0.8136
 8191SOL    HW236036   0.486   0.469   6.312 -1.4191  0.9505 -1.1086
 8192SOL     OW36037   0.633   0.700   5.806 -0.1550 -0.2002 -0.3456
 8192SOL    HW136038   0.618   0.644   5.882  2.1033 -0.4867 -0.1178
 8192SOL    HW236039   0.727   0.715   5.798  0.3501 -2.9172  0.9307
 8193SOL     OW36040   4.691   4.480  15.673  0.3121 -0.6550  0.2313
 8193SOL    HW136041   4.629   4.411  15.651 -0.9512  1.3482 -2.4709
 8193SOL    HW236042   4.665   4.551  15.613  1.3983 -0.6726 -0.2524
 8194SOL     OW36043   2.009   3.965   5.700  0.0232  0.2644 -0.3860
 8194SOL    HW136044   2.035   3.895   5.640 -0.3927 -1.0005  0.8929
 8194SOL    HW236045   2.090   4.015   5.709 -1.3184  2.3152  0.1511
 8195SOL     OW36046   0.103   0.376   6.873 -0.1750  0.1518  0.0492
 8195SOL    HW136047   0.199   0.382   6.871 -0.2262  0.9107  0.0738
 8195SOL    HW236048   0.088   0.323   6.952 -1.2554  1.3823  0.6584
 8196SOL     OW36049   2.183   0.642   6.855 -0.4155 -0.1128  0.2411
 8196SOL    HW136050   2.214   0.662   6.767  0.1006 -1.8323  0.0283
 8196SOL    HW236051   2.150   0.554   6.841  0.3373 -0.0123 -2.1502
 8197SOL     OW36052   0.663   0.106   9.177  0.2047  0.5443  0.2781
 8197SOL    HW136053   0.698   0.141   9.259 -2.1019 -0.3125  1.6218
 8197SOL    HW236054   0.588   0.056   9.209  0.0160  2.0446  2.2099
 8198SOL     OW36055   2.939   4.613   1.449  0.2669  0.6510  0.2675
 8198SOL    HW136056   3.019   4.626   1.499  0.0936  1.7064  0.2765
 8198SOL    HW236057   2.903   4.538   1.496  2.4338 -1.5003 -1.5066
 8199SOL     OW36058   2.318   0.064   9.477  0.6156 -0.0768 -0.3011
 8199SOL    HW136059   2.315   0.054   9.572 -0.7053  0.1707 -0.3106
 8199SOL    HW236060   2.254   0.134   9.461  2.6956  2.0856  0.7163
 8200SOL     OW36061   4.322   1.728   8.313  0.3036 -0.1322 -0.3453
 8200SOL    HW136062   4.388   1.750   8.378  2.3033 -0.4342 -2.2852
 8200SOL    HW236063   4.319   1.633   8.311 -1.7019 -0.0878  0.9543
 8201SOL     OW36064   2.933   1.901   9.275  0.2005  0.4319 -0.1741
 8201SOL    HW136065   2.997   1.943   9.218 -2.5750  2.7799 -1.5366
 8201SOL    HW236066   2.971   1.826   9.322  1.4894  0.9804 -0.3330
 8202SOL     OW36067   3.966   1.743   6.216  0.5630 -0.2822  0.1226
 8202SOL    HW136068   3.959   1.657   6.257  3.1568 -0.4237  0.2810
 8202SOL    HW236069   4.050   1.772   6.251  0.1529 -2.3681  2.8054
 8203SOL     OW36070   4.246   0.356   0.330 -0.5203 -0.2796  0.2995
 8203SOL    HW136071   4.263   0.330   0.420  0.7723  0.9510  0.4142
 8203SOL    HW236072   4.337   0.367   0.302  0.2452 -0.9508  2.5787
 8204SOL     OW36073   0.128   0.726   5.096  0.3064 -0.4716 -1.1874
 8204SOL    HW136074   0.207   0.696   5.141 -0.8014 -0.7587  0.5375
 8204SOL    HW236075   0.085   0.645   5.068 -1.5062 -0.1524  0.6991
 8205SOL     OW36076   1.282   4.579   8.453  0.2083  0.0456 -0.1513
 8205SOL    HW136077   1.249   4.537   8.374 -2.0997  0.1548  0.7846
 8205SOL    HW236078   1.370   4.604   8.423  0.8867 -0.9347  0.9905
 8206SOL     OW36079   1.714   3.971   1.552  0.2688  0.1686 -0.0533
 8206SOL    HW136080   1.736   3.925   1.471 -0.9536 -0.4924 -0.0203
 8206SOL    HW236081   1.630   4.004   1.519  0.4190  0.3398 -0.2608
 8207SOL     OW36082   4.645   1.459  11.265  0.1935  0.6388  0.2864
 8207SOL    HW136083   4.631   1.367  11.289 -0.8375  0.6689 -0.2014
 8207SOL    HW236084   4.640   1.455  11.169  2.6591 -1.3321  0.2499
 8208SOL     OW36085   3.582   1.688  13.337  0.0651 -0.0369 -0.3617
 8208SOL    HW136086   3.561   1.761  13.279  0.9766  1.7397  1.5545
 8208SOL    HW236087   3.613   1.725  13.419 -0.0287  1.5271 -1.0438
 8209SOL     OW36088   4.479   3.001   6.385 -0.1077 -0.3590 -0.4183
 8209SOL    HW136089   4.414   3.003   6.456  1.7902  1.1476  1.3000
 8209SOL    HW236090   4.432   2.970   6.308  2.1620 -1.3481 -1.3744
 8210SOL     OW36091   1.123   3.610   5.185 -0.2912  1.1831  0.1114
 8210SOL    HW136092   1.116   3.520   5.217  0.7770  0.7271 -0.9432
 8210SOL    HW236093   1.079   3.658   5.255  1.3662  2.3731  0.3492
 8211SOL     OW36094   1.798   0.643  15.297  0.6677  0.2019  0.0522
 8211SOL    HW136095   1.721   0.606  15.340  1.5378 -0.2105  1.2425
 8211SOL    HW236096   1.807   0.563  15.246 -1.0369 -1.1175  1.8128
 8212SOL     OW36097   3.919   1.853   0.342  0.0666 -0.0918 -0.2784
 8212SOL    HW136098   3.986   1.794   0.376 -0.0997 -0.6419 -0.8896
 8212SOL    HW236099   3.946   1.872   0.252  0.3237  0.3010 -0.1181
 8213SOL     OW36100   3.814   2.804   1.650 -0.2912  0.3508 -0.0992
 8213SOL    HW136101   3.798   2.808   1.555  1.2652 -1.5514 -0.4506
 8213SOL    HW236102   3.812   2.892   1.685  3.5509 -1.0147  3.5273
 8214SOL     OW36103   0.955   3.037   1.205 -0.3015 -0.4686 -0.1406
 8214SOL    HW136104   0.977   3.112   1.150  0.9383 -0.2891  0.5904
 8214SOL    HW236105   0.968   2.968   1.140  0.2886  1.6026 -2.2126
 8215SOL     OW36106   1.128   0.721   7.604  0.1408  0.0264  0.7950
 8215SOL    HW136107   1.153   0.740   7.694  2.6588  0.4892 -0.0029
 8215SOL    HW236108   1.150   0.631   7.579 -2.6896 -0.7211  0.9503
 8216SOL     OW36109   2.631   2.271   1.450 -0.1160 -0.2256  0.3774
 8216SOL    HW136110   2.562   2.245   1.389 -1.3781  1.3078  1.1715
 8216SOL    HW236111   2.582   2.287   1.531  1.0462  1.4714  0.7526
 8217SOL     OW36112   0.231   2.803   5.736 -0.2311 -0.2536 -0.6844
 8217SOL    HW136113   0.233   2.772   5.646  0.8093  0.9917 -1.0974
 8217SOL    HW236114   0.298   2.748   5.776 -1.8183 -0.3271  1.9077
 8218SOL     OW36115   2.057   1.218  12.086 -0.2566 -0.8027  0.3470
 8218SOL    HW136116   2.023   1.221  11.996 -0.5437  0.6838  0.5063
 8218SOL    HW236117   2.045   1.305  12.123  0.4923  0.2413 -1.8308
 8219SOL     OW36118   1.370   2.223   6.563 -0.0091  0.2719 -0.5774
 8219SOL    HW136119   1.426   2.253   6.492  2.1611 -2.2748  0.0494
 8219SOL    HW236120   1.359   2.128   6.552 -1.0257  0.0569  2.2777
 8220SOL     OW36121   1.115   2.751   4.382 -0.2687 -0.1930 -0.3737
 8220SOL    HW136122   1.027   2.714   4.383 -0.0783 -0.6448  0.9997
 8220SOL    HW236123   1.165   2.710   4.311  1.0145 -1.3789  1.1856
 8221SOL     OW36124   1.360   3.439  14.047  0.2397 -0.9207  0.0707
 8221SOL    HW136125   1.391   3.376  14.111 -0.8535  0.3301  1.8438
 8221SOL    HW236126   1.265   3.438  14.063  0.1873  0.2717 -0.1576
 8222SOL     OW36127   1.290   1.065   4.150 -0.0253  0.2241  0.0522
 8222SOL    HW136128   1.304   1.000   4.081  0.0880  0.0545  0.2367
 8222SOL    HW236129   1.205   1.104   4.129 -0.5219 -0.7178  0.3253
 8223SOL     OW36130   4.701   3.060   7.537  0.0750 -0.1891  0.5775
 8223SOL    HW136131   4.622   3.006   7.531  0.1595 -0.2053 -0.4048
 8223SOL    HW236132   4.660   3.147   7.529  0.4280  0.0416  1.2860
 8224SOL     OW36133   1.578   3.114  12.294  0.2347 -0.0385  0.2173
 8224SOL    HW136134   1.661   3.109  12.247  1.6597  1.6611  2.5328
 8224SOL    HW236135   1.583   3.033  12.345  1.9652 -1.2886 -1.9187
 8225SOL     OW36136   3.324   0.716  16.628 -0.3206 -0.4788 -0.0279
 8225SOL    HW136137   3.297   0.732  16.718  2.0966  1.5951  0.3114
 8225SOL    HW236138   3.240   0.732  16.585 -0.6038  0.6691  0.9594
 8226SOL     OW36139   3.961   2.303   6.912 -0.1751  0.4533  0.2700
 8226SOL    HW136140   3.890   2.284   6.973 -0.0143 -0.5286  0.1531
 8226SOL    HW236141   3.920   2.368   6.855  0.7555 -0.2288 -1.1765
 8227SOL     OW36142   4.613   1.578   8.178  0.3264  0.1764 -0.2994
 8227SOL    HW136143   4.695   1.556   8.221 -0.4045 -0.3194  0.8438
 8227SOL    HW236144   4.593   1.654   8.233  1.1876  0.0301  0.2119
 8228SOL     OW36145   2.383   1.942  10.319 -0.5945  0.5375  0.1575
 8228SOL    HW136146   2.318   1.983  10.375 -2.3098 -1.0632 -0.6392
 8228SOL    HW236147   2.351   1.979  10.237 -2.2999  0.2132  0.6897
 8229SOL     OW36148   0.575   3.866  12.376 -0.2990  0.9073  0.4369
 8229SOL    HW136149   0.631   3.793  12.403 -0.4940  0.7915  0.5269
 8229SOL    HW236150   0.622   3.941  12.414 -1.0614  1.7936 -0.3782
 8230SOL     OW36151   0.256   2.849   9.901  0.4859  0.7480 -0.0131
 8230SOL    HW136152   0.209   2.825   9.822  0.6485 -1.7567  0.6770
 8230SOL    HW236153   0.283   2.766   9.940 -1.2740  0.1034 -0.1695
 8231SOL     OW36154   3.555   4.358  12.766  0.1168 -0.3319 -0.9465
 8231SOL    HW136155   3.646   4.381  12.751 -0.1331  2.0234  1.0129
 8231SOL    HW236156   3.524   4.381  12.678 -0.1079  0.7136 -0.5962
 8232SOL     OW36157   2.030   4.274   4.522  0.2784 -0.2007 -0.2408
 8232SOL    HW136158   1.949   4.232   4.552  1.1104 -0.4122  1.6769
 8232SOL    HW236159   2.094   4.204   4.531 -0.2503 -0.7521 -0.7034
 8233SOL     OW36160   3.996   0.028   6.310  0.3455 -0.3477 -0.7412
 8233SOL    HW136161   3.990   0.123   6.321  1.7515 -0.1049 -2.0821
 8233SOL    HW236162   4.051   0.029   6.232  0.3865 -2.6477 -0.7156
 8234SOL     OW36163   0.242   3.986  10.962 -0.4241 -0.7009 -0.3259
 8234SOL    HW136164   0.287   3.902  10.974 -0.2627 -0.6767 -0.7978
 8234SOL    HW236165   0.164   3.969  11.014 -0.6382  0.9160 -0.1138
 8235SOL     OW36166   2.339   2.611   3.202 -0.5029  0.4209 -0.4266
 8235SOL    HW136167   2.277   2.559   3.151  1.0756 -1.1183 -0.7813
 8235SOL    HW236168   2.338   2.702   3.174  3.1417  0.9779  1.2980
 8236SOL     OW36169   4.068   1.382   7.607  0.4929  0.2065 -0.3775
 8236SOL    HW136170   4.118   1.393   7.688 -0.9181 -0.4468  0.5874
 8236SOL    HW236171   4.029   1.295   7.615 -0.9159  0.9705  1.0752
 8237SOL     OW36172   2.783   2.756   7.065 -0.0630  0.3322  0.0543
 8237SOL    HW136173   2.842   2.814   7.018 -1.0073  0.1669 -1.3473
 8237SOL    HW236174   2.702   2.787   7.025 -0.9398  0.3931  1.8462
 8238SOL     OW36175   2.826   2.720   5.873 -0.0146  0.8972  0.9929
 8238SOL    HW136176   2.855   2.732   5.964  1.5221  1.6291  0.4088
 8238SOL    HW236177   2.748   2.775   5.864 -0.8250 -0.4707 -0.3130
 8239SOL     OW36178   1.835   1.340   7.031  0.2721  0.3735 -0.7066
 8239SOL    HW136179   1.833   1.245   7.042 -0.4884  0.2661 -1.7843
 8239SOL    HW236180   1.928   1.358   7.019  0.1259  0.3796 -1.8649
 8240SOL     OW36181   1.893   4.404   8.585  0.5452  0.3613 -0.1151
 8240SOL    HW136182   1.930   4.316   8.596 -0.4768  0.3284  2.9707
 8240SOL    HW236183   1.820   4.390   8.524  0.1225 -1.3824  0.7882
 8241SOL     OW36184   3.747   1.679   5.548  0.0685 -0.0938  0.2064
 8241SOL    HW136185   3.719   1.669   5.457  1.2561 -0.8012 -0.0819
 8241SOL    HW236186   3.664   1.701   5.591 -0.8556  0.7954 -2.0365
 8242SOL     OW36187   3.698   3.392  12.299  0.5075  0.1378 -0.2555
 8242SOL    HW136188   3.746   3.309  12.293 -0.6816 -0.5451 -0.2795
 8242SOL    HW236189   3.605   3.371  12.295  0.6023 -0.1456 -1.0198
 8243SOL     OW36190   1.209   1.551  13.381  0.3592  0.3555 -0.0129
 8243SOL    HW136191   1.128   1.512  13.350  1.0118 -0.7477 -0.3339
 8243SOL    HW236192   1.225   1.509  13.465  0.2762 -2.2305 -1.2968
 8244SOL     OW36193   2.561   1.791   6.985 -0.3258  0.5595  0.2061
 8244SOL    HW136194   2.501   1.744   7.043 -0.4275  0.6136  0.1450
 8244SOL    HW236195   2.642   1.742   6.996 -0.9990 -0.5932  0.0189
 8245SOL     OW36196   4.677   0.804   0.284  0.2469 -0.6832  0.1749
 8245SOL    HW136197   4.623   0.748   0.340  1.7029 -2.0257  0.2500
 8245SOL    HW236198   4.614   0.866   0.246 -1.2119 -0.9307  2.1863
 8246SOL     OW36199   2.825   2.057  13.931  0.1947 -0.7742 -0.2023
 8246SOL    HW136200   2.899   1.997  13.917  1.0398  0.0969  0.4923
 8246SOL    HW236201   2.809   2.094  13.844  0.0937  1.9129  0.9412
 8247SOL     OW36202   0.529   2.166   3.242 -0.2313  0.6445 -0.8599
 8247SOL    HW136203   0.527   2.256   3.275 -1.7132 -0.1173  1.1778
 8247SOL    HW236204   0.438   2.137   3.236  0.0774 -0.5831  0.4818
 8248SOL     OW36205   2.256   0.920   4.725 -0.1148  0.0157 -0.4627
 8248SOL    HW136206   2.319   0.904   4.795 -1.2703  3.5362  1.3860
 8248SOL    HW236207   2.254   1.016   4.721  1.2109 -0.0371 -2.4588
 8249SOL     OW36208   2.027   0.259   4.519 -0.1110 -0.3790 -0.0782
 8249SOL    HW136209   2.052   0.340   4.475 -1.8169  0.0907 -0.1832
 8249SOL    HW236210   2.068   0.267   4.606 -0.6280 -1.6828  0.2803
 8250SOL     OW36211   2.273   2.379   5.767 -0.4841 -0.6257 -0.2338
 8250SOL    HW136212   2.203   2.436   5.736 -0.6828 -0.8267 -0.1547
 8250SOL    HW236213   2.352   2.426   5.743 -0.8019 -1.1235 -2.2385
 8251SOL     OW36214   4.416   0.882   7.261  0.0597 -0.2647  0.6540
 8251SOL    HW136215   4.445   0.948   7.324  2.2963 -0.7404  0.1029
 8251SOL    HW236216   4.321   0.888   7.271  0.1658  0.3219  1.3584
 8252SOL     OW36217   4.458   2.277   6.430 -0.1100 -0.0794 -0.3533
 8252SOL    HW136218   4.520   2.209   6.459  0.8198 -0.2674 -2.8048
 8252SOL    HW236219   4.468   2.340   6.501 -1.5133 -1.4955  1.0987
 8253SOL     OW36220   2.502   0.026  15.188 -0.5363 -0.3474 -0.3183
 8253SOL    HW136221   2.432   0.057  15.130 -0.9093 -0.6359 -0.0241
 8253SOL    HW236222   2.532   4.669  15.143 -3.3647 -0.5401 -1.9217
 8254SOL     OW36223   0.482   4.649   7.956 -0.2530 -0.0434  0.0905
 8254SOL    HW136224   0.458   0.018   7.940  0.0202  0.4431  2.4112
 8254SOL    HW236225   0.500   4.625   7.865  1.9335 -1.0248  0.7818
 8255SOL     OW36226   1.625   2.516  11.174  0.8084 -0.8108 -0.1766
 8255SOL    HW136227   1.540   2.497  11.213  0.3965 -0.2573 -0.7963
 8255SOL    HW236228   1.643   2.605  11.204  1.3403 -0.2185 -2.2621
 8256SOL     OW36229   2.958   1.483  16.467 -0.1448  0.1523 -0.1075
 8256SOL    HW136230   2.902   1.548  16.423 -1.1014 -0.9624 -0.5328
 8256SOL    HW236231   3.028   1.480  16.402 -2.7147 -1.3563 -2.8055
 8257SOL     OW36232   0.269   0.163   8.539  0.2566 -0.4066  0.3732
 8257SOL    HW136233   0.261   0.140   8.446  0.7219 -1.3131  0.5595
 8257SOL    HW236234   0.248   0.079   8.579 -0.4635 -0.0023  0.8445
 8258SOL     OW36235   2.090   2.035   1.138  0.1590  0.5371 -0.1909
 8258SOL    HW136236   2.084   1.980   1.216 -1.4597 -1.1279 -1.4899
 8258SOL    HW236237   2.124   1.982   1.066 -1.6666 -0.0234 -0.6278
 8259SOL     OW36238   2.412   1.631  13.520  0.0432 -0.4918 -0.3551
 8259SOL    HW136239   2.489   1.595  13.476 -0.3539 -1.4363 -0.2746
 8259SOL    HW236240   2.444   1.718  13.541 -1.7346  0.1197 -0.1755
 8260SOL     OW36241   2.835   4.376  17.330  0.5767  0.0166  0.1275
 8260SOL    HW136242   2.785   4.458  17.323  1.1236  0.3942  0.6409
 8260SOL    HW236243   2.907   4.395  17.269 -0.0751  1.8876 -0.0509
 8261SOL     OW36244   3.843   2.451  12.185 -0.4833 -0.6122  0.1326
 8261SOL    HW136245   3.880   2.501  12.112  0.5560 -3.8258 -1.5680
 8261SOL    HW236246   3.788   2.384  12.144 -1.2625  0.3781 -0.4292
 8262SOL     OW36247   3.764   1.119  15.582 -0.3041  0.5960 -0.1599
 8262SOL    HW136248   3.709   1.179  15.633 -1.0800 -0.3289  0.0855
 8262SOL    HW236249   3.780   1.059  15.654  1.3960  0.2868 -0.7904
 8263SOL     OW36250   4.157   0.056   2.844  0.2213 -0.4022  0.1907
 8263SOL    HW136251   4.212   0.134   2.847 -1.1131  0.5019  1.2616
 8263SOL    HW236252   4.176   0.028   2.754 -0.9855 -0.8397  0.0613
 8264SOL     OW36253   2.463   3.186   5.452 -0.2560 -0.2759 -0.0264
 8264SOL    HW136254   2.494   3.208   5.364 -1.7139  0.2873 -0.3929
 8264SOL    HW236255   2.368   3.186   5.441  0.0646  2.1532 -2.8875
 8265SOL     OW36256   0.378   1.525  11.369 -0.7271 -0.0455 -0.0996
 8265SOL    HW136257   0.451   1.507  11.427  0.0925 -3.1798 -2.0915
 8265SOL    HW236258   0.409   1.515  11.279 -0.3579 -2.3039  0.2643
 8266SOL     OW36259   4.101   4.317   9.435 -0.2433  0.5368  0.3086
 8266SOL    HW136260   4.142   4.329   9.350 -0.2260  0.5446  0.3180
 8266SOL    HW236261   4.139   4.390   9.486  0.6416 -0.3266  0.8822
 8267SOL     OW36262   1.790   4.259   4.252  0.5029 -0.0104 -0.8977
 8267SOL    HW136263   1.829   4.344   4.230 -1.7169  0.8058 -1.6361
 8267SOL    HW236264   1.850   4.237   4.323  0.8113 -0.7857 -1.4046
 8268SOL     OW36265   0.501   0.993   7.809 -0.2314 -0.1210  0.2917
 8268SOL    HW136266   0.430   1.003   7.873  0.0098 -0.8195  0.6565
 8268SOL    HW236267   0.575   1.007   7.867  0.5082  0.1328 -0.7115
 8269SOL     OW36268   2.036   4.453   4.217 -0.0550 -0.3356 -0.1334
 8269SOL    HW136269   2.058   4.363   4.195 -0.5679 -0.6550  0.6558
 8269SOL    HW236270   2.124   4.478   4.246  0.6674 -1.5766 -1.2896
 8270SOL     OW36271   4.707   2.032  11.797 -0.3092 -0.5204 -0.3265
 8270SOL    HW136272   4.623   1.989  11.812  0.3791 -1.6021  0.4060
 8270SOL    HW236273   4.722   2.023  11.703 -0.5934  0.8027 -0.5019
 8271SOL     OW36274   1.346   0.270   3.876 -0.0431 -0.2515  0.1955
 8271SOL    HW136275   1.320   0.306   3.791  0.1277 -2.3397 -0.7315
 8271SOL    HW236276   1.364   0.179   3.853 -1.2050 -0.5342  0.4029
 8272SOL     OW36277   3.754   1.971   1.889  0.0622  0.1701  0.1834
 8272SOL    HW136278   3.748   1.988   1.795  1.8533 -0.6535 -0.0712
 8272SOL    HW236279   3.748   1.876   1.886 -1.3681  0.2923 -0.7158
 8273SOL     OW36280   0.328   3.156   3.309 -0.1802 -0.0773  0.0537
 8273SOL    HW136281   0.388   3.221   3.272  1.9272 -1.5066  0.9622
 8273SOL    HW236282   0.284   3.125   3.230 -3.1636  0.0784  1.6344
 8274SOL     OW36283   3.357   0.844   8.886  0.6497 -0.5845  0.4066
 8274SOL    HW136284   3.419   0.827   8.957  0.9632  0.1778  0.3161
 8274SOL    HW236285   3.329   0.932   8.912 -0.5523 -1.2961  1.5371
 8275SOL     OW36286   3.874   0.413  10.425  0.1086 -0.2773 -0.3854
 8275SOL    HW136287   3.900   0.447  10.340 -2.6574 -1.6417 -1.7579
 8275SOL    HW236288   3.786   0.382  10.404 -0.7798  1.1786  1.1476
 8276SOL     OW36289   0.219   0.839   4.110  0.3344 -0.7106 -0.6052
 8276SOL    HW136290   0.143   0.862   4.164  0.6467 -0.8221 -0.1234
 8276SOL    HW236291   0.170   0.769   4.067 -0.1699 -1.0251  0.4618
 8277SOL     OW36292   0.417   0.782   1.388  0.4132  0.0730 -0.1264
 8277SOL    HW136293   0.404   0.688   1.378  2.6060 -0.1711 -0.5730
 8277SOL    HW236294   0.504   0.781   1.428  1.0608  3.5648 -1.4719
 8278SOL     OW36295   4.482   0.607   4.647 -0.2100 -0.0988  0.0519
 8278SOL    HW136296   4.445   0.695   4.641 -2.6387 -1.0247  1.5071
 8278SOL    HW236297   4.571   0.640   4.634 -0.1975 -0.2830 -0.3242
 8279SOL     OW36298   2.599   3.073  13.266 -0.4071  0.4921  0.4378
 8279SOL    HW136299   2.616   3.162  13.298  1.6988  0.4715 -0.6424
 8279SOL    HW236300   2.539   3.106  13.198  1.5295 -1.2873 -2.1285
 8280SOL     OW36301   1.078   0.334   4.503 -0.0615  0.4564  0.1171
 8280SOL    HW136302   1.143   0.281   4.550 -0.2418  1.7165  1.8113
 8280SOL    HW236303   1.008   0.357   4.565 -2.4125 -1.5348 -1.7935
 8281SOL     OW36304   2.553   0.878   1.436  0.9750 -0.0509 -0.5550
 8281SOL    HW136305   2.561   0.970   1.461  1.8178  0.1236 -1.4384
 8281SOL    HW236306   2.583   0.889   1.345  2.8120  1.9545  0.2963
 8282SOL     OW36307   2.112   1.489   4.023  0.5001  0.7451  0.5647
 8282SOL    HW136308   2.052   1.454   4.089  0.4704  0.6253  0.4740
 8282SOL    HW236309   2.066   1.570   4.000 -1.6596 -0.4714  0.5858
 8283SOL     OW36310   2.615   3.265  14.625  0.2732 -0.2114 -0.3253
 8283SOL    HW136311   2.650   3.354  14.627 -1.7761  0.6098 -1.3009
 8283SOL    HW236312   2.593   3.250  14.533  0.8085 -0.2401 -0.4466
 8284SOL     OW36313   1.685   1.297  15.998 -0.1601  0.2121 -0.3150
 8284SOL    HW136314   1.664   1.206  16.018 -1.0153  0.1547 -1.4855
 8284SOL    HW236315   1.763   1.285  16.051  1.5175  1.7943 -2.4128
 8285SOL     OW36316   4.564   3.660   2.576 -0.1973 -0.1816 -0.3497
 8285SOL    HW136317   4.597   3.711   2.502  2.8262  0.6017  1.5446
 8285SOL    HW236318   4.526   3.732   2.628 -0.1657 -1.3755  1.3298
 8286SOL     OW36319   3.033   2.076  12.613  0.4253  0.0762 -0.2298
 8286SOL    HW136320   2.964   2.049  12.553  0.1037  1.0713 -0.3169
 8286SOL    HW236321   3.068   1.995  12.650  3.5120  0.1712 -2.9801
 8287SOL     OW36322   0.719   0.302   5.966 -0.3023 -0.1700  0.3536
 8287SOL    HW136323   0.767   0.358   6.027  1.5096 -1.2262 -0.1215
 8287SOL    HW236324   0.700   0.224   6.019  0.3338 -0.9557 -0.5834
 8288SOL     OW36325   2.341   3.142   8.443  0.0750 -0.0984 -0.0624
 8288SOL    HW136326   2.390   3.218   8.475 -2.0574  1.1808  0.1616
 8288SOL    HW236327   2.391   3.073   8.485  2.5772  1.3349 -0.6616
 8289SOL     OW36328   0.541   2.077   2.475  0.3299  0.1507 -0.6300
 8289SOL    HW136329   0.610   2.129   2.434  0.1125 -0.1092 -1.3226
 8289SOL    HW236330   0.577   2.074   2.564 -2.4210  2.2496  0.5321
 8290SOL     OW36331   0.203   4.553   6.176 -0.4608 -0.1077 -0.2207
 8290SOL    HW136332   0.269   4.550   6.106 -0.1341 -0.8801  0.1202
 8290SOL    HW236333   0.257   4.604   6.238 -0.3628 -2.1885  1.3868
 8291SOL     OW36334   3.972   0.787   2.989  0.2333  0.6210  0.1519
 8291SOL    HW136335   3.938   0.817   3.073  0.1035  1.5532 -0.2364
 8291SOL    HW236336   3.892   0.771   2.939  1.0773  0.2379 -1.0933
 8292SOL     OW36337   0.445   4.547   6.766  0.0948  0.1174  0.2588
 8292SOL    HW136338   0.510   4.612   6.790  2.0271 -0.4085 -3.4794
 8292SOL    HW236339   0.392   4.553   6.845 -0.0811  0.1182  0.1408
 8293SOL     OW36340   2.363   0.457   4.926  0.1342 -0.0473 -0.0553
 8293SOL    HW136341   2.280   0.411   4.935 -0.4837  0.7459 -1.5190
 8293SOL    HW236342   2.352   0.482   4.834 -1.9821  2.0184  0.7433
 8294SOL     OW36343   1.499   0.720   3.340 -0.0385 -0.2912  0.0127
 8294SOL    HW136344   1.525   0.741   3.250  0.0810  2.5133  0.6911
 8294SOL    HW236345   1.497   0.811   3.371  0.3222 -0.8504  1.6736
 8295SOL     OW36346   1.454   2.515   4.802 -0.0492  0.0250  0.5712
 8295SOL    HW136347   1.377   2.544   4.850 -0.5656 -2.7419  1.3883
 8295SOL    HW236348   1.478   2.584   4.740  1.6082 -1.7621 -0.7927
 8296SOL     OW36349   0.186   4.384   2.135  0.0331 -0.6687  0.2773
 8296SOL    HW136350   0.126   4.310   2.143 -1.0300  0.5063  3.3844
 8296SOL    HW236351   0.270   4.346   2.111  0.7251  0.8781  0.2681
 8297SOL     OW36352   0.944   1.030   5.571 -0.4336  0.8106 -0.3342
 8297SOL    HW136353   0.977   1.085   5.500 -0.1978 -0.0075 -0.8531
 8297SOL    HW236354   0.883   0.978   5.519 -1.2102  0.7095  0.6795
 8298SOL     OW36355   4.369   1.045   6.318  0.7941  0.4654 -0.2624
 8298SOL    HW136356   4.394   0.997   6.239  0.4171  0.8484 -0.6123
 8298SOL    HW236357   4.294   0.998   6.354  2.8849 -2.7755 -0.1092
 8299SOL     OW36358   4.558   2.361   3.698 -0.0868 -0.1427  0.0742
 8299SOL    HW136359   4.542   2.380   3.791  1.5382 -0.8911  0.5066
 8299SOL    HW236360   4.483   2.302   3.692  0.4322 -0.9166  1.3110
 8300SOL     OW36361   3.383   1.682   9.043  0.2715 -0.0193 -0.1182
 8300SOL    HW136362   3.464   1.633   9.033  2.2037  2.7319  2.1306
 8300SOL    HW236363   3.321   1.621   9.003 -1.6831 -0.3012  3.3459
 8301SOL     OW36364   0.914   0.196   6.264 -0.0163 -0.3093  0.0160
 8301SOL    HW136365   0.963   0.122   6.299  0.7948 -0.1048 -0.6631
 8301SOL    HW236366   0.948   0.265   6.321  0.1632  0.1012 -0.5825
 8302SOL     OW36367   4.611   3.787   2.296  0.5453  0.4525 -0.3483
 8302SOL    HW136368   4.522   3.812   2.321  0.0059 -1.5443 -0.2940
 8302SOL    HW236369   4.590   3.714   2.237 -1.9949  0.4255  0.5979
 8303SOL     OW36370   1.762   0.653   2.634  0.0613 -0.3376  0.3632
 8303SOL    HW136371   1.848   0.640   2.593 -0.9367  0.0896 -1.8165
 8303SOL    HW236372   1.762   0.579   2.695 -0.3575  0.3223  1.1721
 8304SOL     OW36373   1.216   0.397   8.962 -0.0283 -0.0974 -0.0582
 8304SOL    HW136374   1.280   0.333   8.933  2.1805  1.1801  1.9175
 8304SOL    HW236375   1.245   0.474   8.914 -1.0117 -0.0814 -0.6354
 8305SOL     OW36376   1.671   4.018   1.804  0.0441 -0.6131 -0.1541
 8305SOL    HW136377   1.681   4.005   1.710 -2.3188 -2.9651 -0.0730
 8305SOL    HW236378   1.722   4.099   1.812 -0.9806 -0.1793  2.1671
 8306SOL     OW36379   0.592   1.781   5.599  0.3933  0.2648  0.2072
 8306SOL    HW136380   0.650   1.722   5.648 -1.8636  0.3047  2.8933
 8306SOL    HW236381   0.539   1.730   5.537 -1.7394  1.8988  0.7131
 8307SOL     OW36382   2.952   2.337   4.079  0.1285 -0.1037  0.0334
 8307SOL    HW136383   3.002   2.399   4.132 -0.5493 -0.2045  0.7944
 8307SOL    HW236384   2.987   2.250   4.098  0.9462 -0.2399 -2.1336
 8308SOL     OW36385   2.976   4.628   8.757  0.8696  0.3816 -0.0504
 8308SOL    HW136386   2.908   4.598   8.817 -0.8384  2.1741 -1.0813
 8308SOL    HW236387   2.986   4.552   8.700 -1.6393 -1.0882  1.4867
 8309SOL     OW36388   1.192   0.084   8.587  0.1297  0.3613  0.3152
 8309SOL    HW136389   1.142   0.053   8.663  1.1900 -3.0235 -0.3691
 8309SOL    HW236390   1.213   4.722   8.546  0.6250  0.7114 -0.1360
 8310SOL     OW36391   3.883   4.401   7.815 -0.2719  0.2759  0.1246
 8310SOL    HW136392   3.855   4.311   7.832  0.9940 -0.7381 -3.1869
 8310SOL    HW236393   3.838   4.450   7.884  1.9960  0.8591  1.2214
 8311SOL     OW36394   3.512   1.487   4.669 -0.2149 -0.1861  0.2341
 8311SOL    HW136395   3.495   1.499   4.575  0.1839 -0.4799  0.1225
 8311SOL    HW236396   3.596   1.532   4.670 -0.5951  0.5411 -0.3459
 8312SOL     OW36397   2.859   0.241   2.746 -0.1550  0.7688 -0.5537
 8312SOL    HW136398   2.929   0.276   2.801 -0.7458 -0.4980  1.0068
 8312SOL    HW236399   2.908   0.192   2.681  0.6708  0.4998  0.2763
 8313SOL     OW36400   2.354   2.819   4.619  0.8069 -0.1778  0.2383
 8313SOL    HW136401   2.397   2.884   4.563 -0.8760  0.8826  0.1858
 8313SOL    HW236402   2.414   2.747   4.598  2.7142  0.8511  2.1611
 8314SOL     OW36403   3.611   1.107   7.176  0.1547  0.2973  0.3261
 8314SOL    HW136404   3.610   1.054   7.255 -1.1691 -2.2994 -1.4380
 8314SOL    HW236405   3.586   1.193   7.211 -2.9470 -0.0618 -1.0139
 8315SOL     OW36406   3.211   2.367   5.493  0.0812  0.3349  0.5435
 8315SOL    HW136407   3.215   2.283   5.448 -1.4802  1.3188 -1.4393
 8315SOL    HW236408   3.258   2.347   5.574  0.6628  0.8013  0.3203
 8316SOL     OW36409   4.324   3.876   2.047  0.5492 -0.1379  0.2745
 8316SOL    HW136410   4.399   3.818   2.041  1.2514  0.7979 -0.0957
 8316SOL    HW236411   4.318   3.899   2.140  1.7776  0.9350  0.0907
 8317SOL     OW36412   4.530   1.832   4.399 -0.3345 -0.2227 -0.2836
 8317SOL    HW136413   4.548   1.738   4.402 -2.5833 -0.5971  1.4070
 8317SOL    HW236414   4.616   1.872   4.394 -0.9100  1.0844  0.1819
 8318SOL     OW36415   1.617   2.151   9.546  0.1910 -0.2211  0.3356
 8318SOL    HW136416   1.522   2.141   9.539  0.4389 -1.5087 -1.3209
 8318SOL    HW236417   1.657   2.065   9.537  0.1801  0.0200 -2.1316
 8319SOL     OW36418   0.604   3.638   4.757  0.1504 -0.7584  0.6460
 8319SOL    HW136419   0.518   3.617   4.793  1.1126 -2.0472  2.2351
 8319SOL    HW236420   0.611   3.734   4.757 -2.0407 -0.5903 -3.1068
 8320SOL     OW36421   3.011   0.949   3.674 -0.4935 -0.3450  0.0413
 8320SOL    HW136422   3.014   0.991   3.587  0.6569  1.6240  1.0392
 8320SOL    HW236423   2.977   0.861   3.658 -1.5100  0.1963 -0.8623
 8321SOL     OW36424   0.767   2.833   4.823  0.1863  0.1247 -0.3363
 8321SOL    HW136425   0.799   2.767   4.761  1.0703  2.2205 -2.0915
 8321SOL    HW236426   0.847   2.859   4.868 -0.5887  2.7588 -0.4960
 8322SOL     OW36427   0.664   3.891   4.788  0.3000 -0.0623  0.5477
 8322SOL    HW136428   0.700   3.964   4.737  0.6813  0.3359  1.3932
 8322SOL    HW236429   0.647   3.932   4.873  0.6704  2.1957 -0.4542
 8323SOL     OW36430   3.731   1.382  15.342 -0.3444  0.2166  0.0107
 8323SOL    HW136431   3.663   1.434  15.385 -1.3697 -0.8975 -0.2628
 8323SOL    HW236432   3.810   1.415  15.385 -1.2713 -0.2518  2.0435
 8324SOL     OW36433   3.735   1.976   4.138  0.6725 -0.6930 -0.0429
 8324SOL    HW136434   3.819   1.931   4.149  0.5860 -0.8614 -0.0748
 8324SOL    HW236435   3.743   2.049   4.199 -0.5016 -1.0244  0.5014
 8325SOL     OW36436   4.575   3.274   2.291  0.5799  0.0066 -0.0335
 8325SOL    HW136437   4.647   3.245   2.235 -0.6876 -0.7510 -1.2890
 8325SOL    HW236438   4.610   3.332   2.358 -1.3606  0.5777  0.5004
 8326SOL     OW36439   3.281   3.847   2.764  0.0812 -0.6219 -0.0743
 8326SOL    HW136440   3.354   3.787   2.749  0.4239 -0.8017  2.3089
 8326SOL    HW236441   3.244   3.851   2.675  0.5626 -1.2999 -0.2989
 8327SOL     OW36442   1.389   1.193   6.019 -0.0346 -0.1227 -0.2366
 8327SOL    HW136443   1.335   1.206   6.096  0.8826 -2.9983  0.9301
 8327SOL    HW236444   1.334   1.146   5.956 -1.4808 -0.2891  1.1499
 8328SOL     OW36445   1.291   4.005   5.372 -0.4155  0.2601  0.7414
 8328SOL    HW136446   1.228   4.030   5.439 -0.0393  1.5616  0.6078
 8328SOL    HW236447   1.374   4.020   5.417 -0.1166  0.0034  0.2773
 8329SOL     OW36448   0.937   3.669   7.152  0.1545  0.3035 -0.4394
 8329SOL    HW136449   1.018   3.644   7.108  0.2642 -1.0212  0.5028
 8329SOL    HW236450   0.920   3.749   7.103 -1.5211  0.0602 -0.2785
 8330SOL     OW36451   3.550   0.423  10.354 -0.3835 -0.3024  0.0165
 8330SOL    HW136452   3.497   0.487  10.308 -0.6024 -2.0826 -2.2055
 8330SOL    HW236453   3.522   0.336  10.327  2.0127 -0.7355 -1.0921
 8331SOL     OW36454   4.428   4.407   6.963 -0.3773 -0.4282 -0.3548
 8331SOL    HW136455   4.400   4.376   6.877  2.5773 -0.5978 -1.2352
 8331SOL    HW236456   4.522   4.392   6.971 -0.1708  0.4314 -1.2198
 8332SOL     OW36457   2.063   0.851   5.633 -0.1768  0.2609 -0.1816
 8332SOL    HW136458   2.116   0.835   5.712  0.5017 -0.3070 -0.7567
 8332SOL    HW236459   1.999   0.781   5.643  0.9408 -0.8749 -1.0455
 8333SOL     OW36460   0.747   2.426  11.011  0.0461  0.0989  0.7367
 8333SOL    HW136461   0.801   2.501  11.037  0.2011  0.0148  0.6532
 8333SOL    HW236462   0.785   2.393  10.930 -0.2909  2.0572 -0.2447
 8334SOL     OW36463   3.500   4.444   6.018 -0.4460 -0.2795  0.8395
 8334SOL    HW136464   3.420   4.479   5.977 -0.0369 -0.5595 -0.2165
 8334SOL    HW236465   3.463   4.386   6.084 -0.2008 -2.8620 -1.2975
 8335SOL     OW36466   0.041   4.352  10.650  0.6520  0.3441  0.5036
 8335SOL    HW136467   0.044   4.283  10.716 -0.2519  0.2412  0.4293
 8335SOL    HW236468   0.133   4.376  10.635  0.8595 -1.0830 -0.5839
 8336SOL     OW36469   2.917   4.212  10.875 -0.5832 -0.2935  0.1668
 8336SOL    HW136470   2.824   4.190  10.872 -0.4875 -0.6465 -0.2465
 8336SOL    HW236471   2.957   4.197  10.961 -0.6844 -0.2318  0.2249
 8337SOL     OW36472   3.276   0.701  13.629  0.1632  0.5052 -0.1429
 8337SOL    HW136473   3.228   0.647  13.692  1.1833  0.6225  0.7249
 8337SOL    HW236474   3.287   0.645  13.552  0.6525 -0.5451  0.6898
 8338SOL     OW36475   3.422   3.573   6.780  0.1163  0.2509 -0.0288
 8338SOL    HW136476   3.409   3.661   6.816 -1.2703  0.7595 -1.7687
 8338SOL    HW236477   3.472   3.533   6.852  0.9707 -3.2447 -2.5658
 8339SOL     OW36478   3.393   3.292   9.524 -0.4560  0.0777  0.0596
 8339SOL    HW136479   3.382   3.314   9.616 -0.4145  1.3732 -0.2520
 8339SOL    HW236480   3.379   3.198   9.513  1.1010 -0.2628  1.0019
 8340SOL     OW36481   1.283   3.271   8.558 -0.3572 -0.1181  0.3977
 8340SOL    HW136482   1.333   3.304   8.484 -0.2439  0.3636  0.6938
 8340SOL    HW236483   1.249   3.194   8.513  1.1842 -0.1564 -0.6892
 8341SOL     OW36484   4.273   2.078   3.023 -0.3183  0.4334  0.4678
 8341SOL    HW136485   4.311   1.990   3.021  0.0417  0.6293 -1.0246
 8341SOL    HW236486   4.225   2.081   3.105 -2.0886 -0.5700 -0.5180
 8342SOL     OW36487   2.353   0.366   2.671 -0.7444  0.4863  1.0420
 8342SOL    HW136488   2.445   0.392   2.678 -0.8122  0.4026  2.2252
 8342SOL    HW236489   2.349   0.282   2.715 -1.5238  0.8988  1.7548
 8343SOL     OW36490   2.012   4.716   4.817  0.3074  0.1979  0.6404
 8343SOL    HW136491   2.104   0.000   4.792  0.7778 -2.8486  1.5641
 8343SOL    HW236492   1.985   4.663   4.743 -0.2524 -1.6454  2.1660
 8344SOL     OW36493   0.980   3.815   2.110  0.2481  0.4990 -0.4652
 8344SOL    HW136494   0.893   3.835   2.143 -0.1987 -1.5111 -0.4533
 8344SOL    HW236495   0.957   3.817   2.017  2.7849  0.9158 -1.0947
 8345SOL     OW36496   3.570   3.702   1.030  0.1594  0.0408  0.3468
 8345SOL    HW136497   3.623   3.625   1.051 -0.9067 -1.1454 -1.3296
 8345SOL    HW236498   3.629   3.758   0.979  0.7058 -0.4889  0.3892
 8346SOL     OW36499   2.726   0.508   8.099 -0.1030  0.0757 -0.0232
 8346SOL    HW136500   2.743   0.553   8.182 -0.3043 -1.1327  0.6815
 8346SOL    HW236501   2.792   0.542   8.038  0.3880 -1.6345 -0.4604
 8347SOL     OW36502   3.623   2.398   2.937 -0.6586 -0.6264  0.6666
 8347SOL    HW136503   3.530   2.383   2.955 -0.8199 -1.4570 -0.8766
 8347SOL    HW236504   3.643   2.452   3.013 -0.7110 -1.7043  1.4320
 8348SOL     OW36505   3.101   4.631  11.098 -0.6050 -0.5522 -0.3445
 8348SOL    HW136506   3.091   4.615  11.192  0.7038 -2.6265 -0.5523
 8348SOL    HW236507   3.143   4.548  11.074  0.5784 -1.0726  3.4510
 8349SOL     OW36508   3.557   4.325   5.559 -0.2151  0.1488 -0.3720
 8349SOL    HW136509   3.584   4.272   5.484 -0.7307 -1.3609  0.5129
 8349SOL    HW236510   3.514   4.403   5.526  2.2633  1.5357 -0.2686
 8350SOL     OW36511   2.268   1.444   7.616 -0.6049 -0.1464 -0.1737
 8350SOL    HW136512   2.277   1.450   7.711 -1.0167 -0.9025 -0.0853
 8350SOL    HW236513   2.174   1.454   7.600 -0.5356 -0.1535 -0.6073
 8351SOL     OW36514   2.664   2.747   3.717 -0.2976 -0.5074  0.5605
 8351SOL    HW136515   2.570   2.765   3.716  0.3172  2.6012  0.9855
 8351SOL    HW236516   2.668   2.711   3.629 -0.1194  0.6090  0.1167
 8352SOL     OW36517   3.536   2.073  17.643 -0.1000 -0.3024  0.6838
 8352SOL    HW136518   3.556   1.980  17.642  3.1701  0.4001  0.1091
 8352SOL    HW236519   3.459   2.080   0.009  0.4441  0.5042  1.3243
 8353SOL     OW36520   3.625   2.339   0.573 -0.5389  0.7933 -0.2439
 8353SOL    HW136521   3.531   2.327   0.587 -0.8780  1.8366 -1.7168
 8353SOL    HW236522   3.652   2.252   0.604 -0.0765  0.9518 -0.2048
 8354SOL     OW36523   0.642   1.186   6.323 -0.5048 -0.0152 -0.6142
 8354SOL    HW136524   0.703   1.182   6.249 -0.2569 -0.1697 -0.4015
 8354SOL    HW236525   0.562   1.178   6.271 -0.0822  0.0942 -1.2853
 8355SOL     OW36526   1.688   4.426   6.263  0.0483  0.1246  0.7365
 8355SOL    HW136527   1.700   4.348   6.209 -0.7171  0.4170  0.1533
 8355SOL    HW236528   1.657   4.371   6.336 -0.8075 -2.5305 -1.6267
 8356SOL     OW36529   4.260   2.582   7.534 -0.6972  0.3983  0.0868
 8356SOL    HW136530   4.190   2.629   7.489 -1.2354 -0.1520  0.3539
 8356SOL    HW236531   4.301   2.549   7.454  2.4223  0.1253  1.7865
 8357SOL     OW36532   1.442   2.330   6.804  0.1089 -0.0246 -0.0233
 8357SOL    HW136533   1.427   2.289   6.718  1.3282  0.0678 -0.2785
 8357SOL    HW236534   1.498   2.405   6.787 -3.2927  2.6458  0.6427
 8358SOL     OW36535   2.082   0.394   7.397  0.3118 -0.4778  0.2094
 8358SOL    HW136536   2.091   0.465   7.460  0.0883 -0.0532 -0.2358
 8358SOL    HW236537   2.065   0.320   7.456 -0.8433 -0.5742 -0.2471
 8359SOL     OW36538   3.173   4.108  14.211 -0.0695 -0.1977 -0.0199
 8359SOL    HW136539   3.117   4.036  14.240  0.8390 -1.6141 -1.7597
 8359SOL    HW236540   3.177   4.081  14.119  0.2136  0.8802 -0.3217
 8360SOL     OW36541   3.390   0.452   3.698  0.7040  0.6641 -0.8572
 8360SOL    HW136542   3.428   0.371   3.732  2.5629  1.0472 -2.0449
 8360SOL    HW236543   3.297   0.433   3.711  1.1807 -0.4184  1.0189
 8361SOL     OW36544   2.248   4.551   5.804 -0.4051 -0.1635 -0.3200
 8361SOL    HW136545   2.183   4.509   5.861  1.1603  0.0503  1.6558
 8361SOL    HW236546   2.279   4.474   5.757 -1.5003 -0.7517 -0.0712
 8362SOL     OW36547   4.360   1.253   9.023 -0.2443 -0.2434 -0.0812
 8362SOL    HW136548   4.392   1.328   8.972  0.9809 -1.7958 -1.6174
 8362SOL    HW236549   4.360   1.292   9.110 -2.0134 -0.8461  0.1787
 8363SOL     OW36550   3.620   0.221   6.846  0.0396 -0.2805 -0.7694
 8363SOL    HW136551   3.555   0.164   6.887 -2.6939  2.2972 -1.4843
 8363SOL    HW236552   3.604   0.299   6.900  1.5272  0.2508 -1.0828
 8364SOL     OW36553   2.559   1.021  11.411 -0.6869 -0.1957  0.5398
 8364SOL    HW136554   2.478   1.071  11.402 -0.3384  0.0335 -1.4772
 8364SOL    HW236555   2.537   0.937  11.451 -2.3625 -0.2406 -0.4714
 8365SOL     OW36556   2.971   2.126   2.733  0.1463  0.9091  0.2121
 8365SOL    HW136557   2.974   2.213   2.772 -1.7721  0.6805  0.8940
 8365SOL    HW236558   3.063   2.124   2.707 -0.0638 -1.0531 -0.4373
 8366SOL     OW36559   1.588   2.148  12.537  0.1119  0.0796  0.3875
 8366SOL    HW136560   1.653   2.175  12.602  2.9115 -0.3360 -2.2819
 8366SOL    HW236561   1.632   2.085  12.481 -0.6845  0.5150 -0.7418
 8367SOL     OW36562   2.147   4.514   6.237  0.2199  1.2673 -0.2975
 8367SOL    HW136563   2.224   4.459   6.220  0.6195  2.2960 -1.7839
 8367SOL    HW236564   2.189   4.587   6.282  0.7875  0.9164 -0.2518
 8368SOL     OW36565   2.619   2.299   8.672 -0.2036  0.1832 -0.3179
 8368SOL    HW136566   2.616   2.350   8.753 -2.5149 -2.2336  1.1369
 8368SOL    HW236567   2.697   2.246   8.683  1.2841  2.1949 -1.2376
 8369SOL     OW36568   2.690   3.621   2.645  0.6956  0.3928  0.1075
 8369SOL    HW136569   2.634   3.581   2.579 -0.8271 -0.4838  1.9129
 8369SOL    HW236570   2.636   3.700   2.654  0.2217  0.0629  0.1915
 8370SOL     OW36571   1.405   1.517   2.484 -0.4038  0.1272 -0.1384
 8370SOL    HW136572   1.438   1.429   2.504 -0.2047  0.4150  0.7737
 8370SOL    HW236573   1.343   1.534   2.554  0.4087  1.6225  0.2182
 8371SOL     OW36574   1.701   3.480   4.519  0.2339 -0.0042 -0.5125
 8371SOL    HW136575   1.660   3.527   4.592 -1.9046 -1.8550 -0.5449
 8371SOL    HW236576   1.782   3.528   4.501 -0.1400  0.3738 -1.1850
 8372SOL     OW36577   3.795   3.982   2.011 -0.0230  0.5365  0.0080
 8372SOL    HW136578   3.830   4.004   1.924 -1.6441  0.5245 -0.6439
 8372SOL    HW236579   3.703   3.998   1.994  0.2736  2.2622  0.0282
 8373SOL     OW36580   1.901   2.563   8.627 -0.6453  0.1142 -0.0530
 8373SOL    HW136581   1.877   2.476   8.660 -0.6300 -0.1324 -0.6772
 8373SOL    HW236582   1.959   2.541   8.553 -1.8355 -2.6977 -0.1508
 8374SOL     OW36583   1.380   1.071   5.093 -0.3020  0.4475 -0.5092
 8374SOL    HW136584   1.389   0.984   5.052 -1.9194 -0.0629  0.2243
 8374SOL    HW236585   1.466   1.085   5.133 -1.2310 -1.6281  2.2391
 8375SOL     OW36586   4.218   2.595   6.499  0.0629  0.2474  0.3291
 8375SOL    HW136587   4.151   2.557   6.443  0.1244  1.3902 -0.5296
 8375SOL    HW236588   4.157   2.623   6.567 -0.7612  0.9346 -0.6923
 8376SOL     OW36589   1.132   4.027   7.941 -0.3406 -0.1922 -0.0980
 8376SOL    HW136590   1.088   3.948   7.910  0.6540 -1.4652  1.7478
 8376SOL    HW236591   1.065   4.062   8.001 -0.1459 -0.7800  0.4513
 8377SOL     OW36592   0.286   1.901  13.463 -0.2568 -0.3914 -0.2434
 8377SOL    HW136593   0.376   1.882  13.491  1.0556  0.5752 -3.7397
 8377SOL    HW236594   0.303   1.956  13.386  1.1691  0.1666  0.4612
 8378SOL     OW36595   3.564   3.105   5.042  0.1778  0.2852 -0.5442
 8378SOL    HW136596   3.523   3.018   5.045  1.8914 -0.5344 -0.6838
 8378SOL    HW236597   3.605   3.105   5.128 -1.2817  1.5501  0.1453
 8379SOL     OW36598   0.915   2.791   7.258 -0.0415 -0.1359  0.1733
 8379SOL    HW136599   0.858   2.819   7.330  0.1263 -1.5194  0.8429
 8379SOL    HW236600   0.908   2.696   7.261  0.9014 -0.2322 -0.5593
 8380SOL     OW36601   2.128   2.323  17.337  0.6542 -0.7810 -0.4112
 8380SOL    HW136602   2.148   2.255  17.401 -0.2020 -0.6451  0.0107
 8380SOL    HW236603   2.076   2.273  17.274 -1.1936 -0.4846  0.8834
 8381SOL     OW36604   4.194   4.240   8.864 -0.7195  0.2799  0.1417
 8381SOL    HW136605   4.218   4.271   8.777  1.7847  1.2812  1.1735
 8381SOL    HW236606   4.249   4.162   8.870 -0.3537  0.6548  1.9029
 8382SOL     OW36607   3.211   4.006   2.519 -0.3866  0.4148  0.4224
 8382SOL    HW136608   3.131   3.955   2.527 -0.0106 -0.4549 -1.4610
 8382SOL    HW236609   3.202   4.036   2.428 -0.2446  3.5475  1.4332
 8383SOL     OW36610   2.946   2.676   7.289 -0.2732  0.1045  0.5104
 8383SOL    HW136611   2.973   2.751   7.342  1.4550  0.3073 -0.6772
 8383SOL    HW236612   2.867   2.705   7.244 -0.1453  0.8739  0.7938
 8384SOL     OW36613   3.874   0.432  10.692  0.3387 -0.2385  0.2759
 8384SOL    HW136614   3.805   0.495  10.713 -0.8203 -0.6369 -2.3741
 8384SOL    HW236615   3.863   0.436  10.597 -0.0946 -1.4114  0.2881
 8385SOL     OW36616   2.746   3.822  11.650  0.0063  0.6773  0.3556
 8385SOL    HW136617   2.772   3.912  11.628 -0.4926  0.8567  0.5102
 8385SOL    HW236618   2.821   3.809  11.707 -1.0846  0.7827  1.8141
 8386SOL     OW36619   0.525   4.309   3.221  0.5047  0.4109  0.2074
 8386SOL    HW136620   0.456   4.247   3.195 -0.5280  0.7613  2.0655
 8386SOL    HW236621   0.577   4.311   3.141 -1.1254  0.2149 -0.8627
 8387SOL     OW36622   0.333   2.576   4.239  0.0289  0.1960  0.1893
 8387SOL    HW136623   0.402   2.530   4.193 -0.6771 -1.6908  1.0261
 8387SOL    HW236624   0.320   2.636   4.166 -4.3964 -0.9741  0.0538
 8388SOL     OW36625   1.282   4.160   4.786 -0.0948 -0.1537  0.2561
 8388SOL    HW136626   1.310   4.153   4.877 -1.9955 -1.3882  0.7481
 8388SOL    HW236627   1.195   4.200   4.784 -0.0461 -0.0532  0.1445
 8389SOL     OW36628   0.869   0.432   4.368 -0.3225  0.7067 -0.1816
 8389SOL    HW136629   0.955   0.402   4.397 -1.3455  0.6127  2.8447
 8389SOL    HW236630   0.903   0.507   4.321  0.0823 -1.6995 -3.7490
 8390SOL     OW36631   4.083   1.842   7.759  0.6028 -0.3866  0.1765
 8390SOL    HW136632   4.138   1.790   7.817  1.1236  0.2492  0.2554
 8390SOL    HW236633   4.161   1.880   7.719 -0.8098  0.2899 -1.9360
 8391SOL     OW36634   3.407   2.194  15.818  0.4381 -0.3896 -0.2798
 8391SOL    HW136635   3.441   2.237  15.739 -1.8421  0.3056 -0.8648
 8391SOL    HW236636   3.396   2.102  15.791  2.8384 -0.5759 -0.6532
 8392SOL     OW36637   2.213   3.281   4.551 -0.0845 -0.3324  0.1095
 8392SOL    HW136638   2.210   3.354   4.489 -0.5077 -0.9720 -0.6341
 8392SOL    HW236639   2.279   3.222   4.514  1.0296  1.2327 -0.4035
 8393SOL     OW36640   2.828   3.122   6.901  0.9952 -0.2820  0.4171
 8393SOL    HW136641   2.745   3.116   6.949  0.1422  0.5572 -0.9406
 8393SOL    HW236642   2.801   3.186   6.835 -1.3635 -1.6426  0.0441
 8394SOL     OW36643   0.072   3.167   1.349  0.4519  0.6189  0.2923
 8394SOL    HW136644   0.094   3.257   1.323  0.9772  0.0728 -1.1253
 8394SOL    HW236645   0.004   3.143   1.286 -0.1112  1.8017  0.4584
 8395SOL     OW36646   2.896   1.624   3.137 -0.0044  0.4109 -0.4879
 8395SOL    HW136647   2.887   1.715   3.166  0.8956  0.4690 -0.4077
 8395SOL    HW236648   2.881   1.572   3.216  2.6576  0.1089 -0.1825
 8396SOL     OW36649   3.186   0.494   8.630  0.3102  0.0505 -0.1791
 8396SOL    HW136650   3.187   0.453   8.544  0.1086 -0.2638 -0.0297
 8396SOL    HW236651   3.099   0.468   8.657  0.2663  0.6323  0.2394
 8397SOL     OW36652   4.547   4.492   2.538 -0.1581  0.5779  0.5676
 8397SOL    HW136653   4.626   4.544   2.524  1.3284 -1.4230  1.6088
 8397SOL    HW236654   4.543   4.432   2.463  2.1500  2.1307 -0.8126
 8398SOL     OW36655   3.192   2.284   6.735 -0.6242 -0.6770  0.6051
 8398SOL    HW136656   3.151   2.366   6.709  0.0632  0.3601  2.7469
 8398SOL    HW236657   3.216   2.302   6.826  3.9453 -1.2398 -0.4845
 8399SOL     OW36658   2.581   4.722   9.156 -0.0547 -0.2128  0.3162
 8399SOL    HW136659   2.598   0.083   9.201 -1.8417  0.3859 -0.1242
 8399SOL    HW236660   2.498   0.006   9.109 -1.7471 -1.3324  3.1596
 8400SOL     OW36661   3.913   3.798   4.064  0.0672 -0.0342  0.2541
 8400SOL    HW136662   3.990   3.761   4.108 -1.0685 -1.6529  0.8952
 8400SOL    HW236663   3.842   3.769   4.120  0.1587  0.0165  0.3963
 8401SOL     OW36664   0.926   3.004   7.750  0.6422 -0.2812  0.6646
 8401SOL    HW136665   0.948   3.072   7.687 -1.8151  1.2251  1.4587
 8401SOL    HW236666   1.007   2.954   7.755  0.1376 -1.2446 -0.8268
 8402SOL     OW36667   3.737   2.190   0.985 -0.5727  0.1847  0.0032
 8402SOL    HW136668   3.682   2.227   1.054  1.1507  2.3866  0.2072
 8402SOL    HW236669   3.802   2.261   0.989 -2.0820  1.5364  0.5938
 8403SOL     OW36670   0.474   4.106   8.409 -0.4243 -0.3549  0.0792
 8403SOL    HW136671   0.382   4.089   8.392 -0.8609 -1.4936  3.4056
 8403SOL    HW236672   0.512   4.027   8.449 -0.8674 -0.0182  1.1785
 8404SOL     OW36673   3.088   4.387  13.448 -0.7244 -0.4496  0.1634
 8404SOL    HW136674   3.072   4.480  13.461  0.7142 -0.2833  0.7595
 8404SOL    HW236675   3.012   4.341  13.484 -1.7650 -1.1088 -2.8689
 8405SOL     OW36676   3.931   2.339   0.683 -0.2030 -0.9399  0.0266
 8405SOL    HW136677   3.877   2.273   0.640 -0.7920 -0.1626 -0.4436
 8405SOL    HW236678   3.994   2.285   0.730  1.7040  1.1997 -0.0694
 8406SOL     OW36679   0.783   0.572   3.290  0.6664 -0.2323  0.0806
 8406SOL    HW136680   0.703   0.623   3.289 -0.7221 -2.4354 -2.1369
 8406SOL    HW236681   0.837   0.597   3.215 -0.2494 -0.8944 -0.8002
 8407SOL     OW36682   4.223   3.155   3.439  0.0069 -0.2735  0.0890
 8407SOL    HW136683   4.293   3.116   3.491  0.6644  1.4975  0.5438
 8407SOL    HW236684   4.152   3.149   3.504  0.2898 -0.3369  0.3940
 8408SOL     OW36685   4.279   1.421  17.127 -0.4136 -0.1532 -0.1863
 8408SOL    HW136686   4.328   1.502  17.142 -1.5742  0.2626  1.3168
 8408SOL    HW236687   4.322   1.363  17.189 -3.2849 -1.7881  0.2491
 8409SOL     OW36688   2.415   4.584   7.337  0.0160 -0.1118  0.3049
 8409SOL    HW136689   2.482   4.521   7.311 -1.4128 -2.0611  1.3670
 8409SOL    HW236690   2.426   4.586   7.432  0.3467  1.9243  0.2349
 8410SOL     OW36691   4.534   3.914   2.697 -0.6309  0.0188 -0.4673
 8410SOL    HW136692   4.472   3.935   2.767  0.4517 -2.8288  1.2978
 8410SOL    HW236693   4.521   3.992   2.642  0.5326 -1.0561 -2.2399
 8411SOL     OW36694   4.102   3.496   5.803  0.1295  0.2982  0.0063
 8411SOL    HW136695   4.123   3.492   5.710 -0.0100  0.3628 -0.0267
 8411SOL    HW236696   4.185   3.490   5.850  1.3821 -2.2310 -2.5166
 8412SOL     OW36697   2.815   4.217   2.443  0.2920  0.2261 -0.1469
 8412SOL    HW136698   2.737   4.193   2.492  0.4595  0.7448  0.3786
 8412SOL    HW236699   2.782   4.284   2.383  1.1473  0.0364 -0.8370
 8413SOL     OW36700   2.838   2.262  13.738 -0.2937  0.0654  0.1259
 8413SOL    HW136701   2.921   2.300  13.768  1.0311  0.7120 -4.3818
 8413SOL    HW236702   2.786   2.338  13.761  1.3260  0.6302  1.8978
 8414SOL     OW36703   2.946   1.742   8.296  0.5953  0.3163 -0.1615
 8414SOL    HW136704   2.980   1.696   8.373  2.2743  0.7136 -0.6728
 8414SOL    HW236705   2.856   1.708   8.293  0.8948 -0.5060  0.3374
 8415SOL     OW36706   1.644   3.798  10.884  0.0097  0.1302 -0.3007
 8415SOL    HW136707   1.618   3.725  10.940 -0.4240 -0.0977 -0.7996
 8415SOL    HW236708   1.639   3.875  10.941  1.1021 -0.3726  0.4703
 8416SOL     OW36709   2.305   2.904  12.490 -0.0499  0.6767  0.2217
 8416SOL    HW136710   2.229   2.889  12.547  0.0532 -2.2616 -0.4289
 8416SOL    HW236711   2.295   2.825  12.436 -1.9712  0.9148  0.2375
 8417SOL     OW36712   0.872   0.196  11.225  0.2220  0.4043 -0.2241
 8417SOL    HW136713   0.847   0.171  11.136  0.2870 -1.8472  0.3815
 8417SOL    HW236714   0.788   0.187  11.271  0.3551 -0.6954 -0.1874
 8418SOL     OW36715   0.818   0.160   7.489  0.5112 -0.3892  0.3380
 8418SOL    HW136716   0.835   0.120   7.403 -0.1675  1.3466 -0.6007
 8418SOL    HW236717   0.758   0.097   7.528  0.2311  0.6717  1.6135
 8419SOL     OW36718   2.738   1.039  12.308  0.2577  0.8039 -0.4781
 8419SOL    HW136719   2.671   1.058  12.242  0.3907  0.3486 -0.7441
 8419SOL    HW236720   2.721   0.945  12.322  1.4354  0.2757 -2.6189
 8420SOL     OW36721   1.708   3.712  12.177 -0.4582  0.6785 -0.2196
 8420SOL    HW136722   1.615   3.731  12.172 -0.7440 -0.2669  1.6476
 8420SOL    HW236723   1.739   3.802  12.174  0.0198  0.5425  0.7078
 8421SOL     OW36724   0.655   0.090   8.308 -0.1171 -0.2144  0.7150
 8421SOL    HW136725   0.615   0.165   8.263 -2.2978 -2.0542 -0.3706
 8421SOL    HW236726   0.698   0.138   8.379 -0.4707 -0.4784  1.1044
 8422SOL     OW36727   2.599   3.492   5.534 -0.6626 -0.5066 -0.0952
 8422SOL    HW136728   2.542   3.525   5.603 -0.1632  2.2302 -0.9720
 8422SOL    HW236729   2.599   3.399   5.557  1.6391 -0.1266  1.4597
 8423SOL     OW36730   2.348   2.038   6.029  0.1507 -0.4244 -0.0866
 8423SOL    HW136731   2.343   2.132   6.010 -0.2430  0.0267  2.2912
 8423SOL    HW236732   2.258   2.022   5.998  0.4166  1.2191 -1.6994
 8424SOL     OW36733   1.422   4.575   2.330 -0.3030 -1.2105 -0.2125
 8424SOL    HW136734   1.515   4.555   2.341 -0.0968 -0.4822 -0.5870
 8424SOL    HW236735   1.412   4.603   2.239 -0.6649  0.7641  0.4348
 8425SOL     OW36736   0.726   1.843  17.554  0.0900 -0.3004  0.6606
 8425SOL    HW136737   0.784   1.918  17.568 -0.3108  0.0352  0.5112
 8425SOL    HW236738   0.795   1.780  17.535 -0.0133 -0.1609 -0.1460
 8426SOL     OW36739   3.401   2.458  11.281 -0.1195  0.5132 -0.2420
 8426SOL    HW136740   3.403   2.477  11.375 -0.4608 -1.1392  0.0942
 8426SOL    HW236741   3.461   2.527  11.254 -0.6742  0.4175 -1.7045
 8427SOL     OW36742   0.514   0.721   3.308 -0.3149  0.3537 -0.2303
 8427SOL    HW136743   0.496   0.654   3.374  0.2122  0.2201 -0.2162
 8427SOL    HW236744   0.515   0.795   3.369  3.2060 -0.0263  0.2023
 8428SOL     OW36745   4.392   4.465  14.286  0.2016  0.0688  0.3065
 8428SOL    HW136746   4.424   4.525  14.354  2.0536  0.2536 -0.7346
 8428SOL    HW236747   4.430   4.384  14.319 -0.5826 -1.6194 -3.0243
 8429SOL     OW36748   0.324   4.248  13.149 -0.2713 -0.1252 -0.1760
 8429SOL    HW136749   0.351   4.225  13.238  1.3532 -1.9521 -1.1574
 8429SOL    HW236750   0.229   4.253  13.158 -0.3118 -1.2405 -0.0358
 8430SOL     OW36751   1.853   2.845   1.858  0.0569 -0.8073  0.3146
 8430SOL    HW136752   1.774   2.821   1.906  0.0011 -1.7571 -0.2370
 8430SOL    HW236753   1.923   2.812   1.915  2.5339  1.9466 -1.1067
 8431SOL     OW36754   3.598   0.826   5.964  0.4036  0.3838  0.0773
 8431SOL    HW136755   3.569   0.783   5.884 -0.4151  0.9372  0.0820
 8431SOL    HW236756   3.560   0.775   6.036  1.6578  0.2180  0.6317
 8432SOL     OW36757   4.414   3.520   8.567  0.1094 -0.0813 -0.3273
 8432SOL    HW136758   4.380   3.609   8.573 -2.4297 -1.1159  0.5253
 8432SOL    HW236759   4.474   3.517   8.493  1.1276 -0.7976  0.5207
 8433SOL     OW36760   0.996   1.253  11.297  0.0766  0.1916  0.3648
 8433SOL    HW136761   1.005   1.264  11.392  1.2734  0.5522  0.2061
 8433SOL    HW236762   0.982   1.159  11.308  0.4679  0.2781  1.6298
 8434SOL     OW36763   4.423   3.078   1.288 -0.1503  0.1283 -0.0220
 8434SOL    HW136764   4.413   2.983   1.293 -0.2690  0.1077 -0.7607
 8434SOL    HW236765   4.495   3.094   1.228  0.6264  0.7898  1.1001
 8435SOL     OW36766   1.149   1.382   6.863  0.7208 -0.4438 -0.1071
 8435SOL    HW136767   1.199   1.432   6.798 -0.7459  2.0385  0.7030
 8435SOL    HW236768   1.215   1.319   6.892  1.0167  1.0544  2.4813
 8436SOL     OW36769   2.074   3.317   4.195  0.5438 -0.1396  0.2706
 8436SOL    HW136770   2.092   3.233   4.239 -0.7015 -0.2976  0.4926
 8436SOL    HW236771   1.985   3.335   4.227  0.4109 -1.0536  0.4280
 8437SOL     OW36772   1.893   0.093  14.956  0.4447  0.3830 -0.1406
 8437SOL    HW136773   1.920   0.096  14.864 -0.5207 -1.2370 -0.4783
 8437SOL    HW236774   1.806   0.056  14.947  0.3612  1.0505 -2.0892
 8438SOL     OW36775   1.443   4.290  13.381  0.3536  0.2102  0.6959
 8438SOL    HW136776   1.478   4.371  13.345 -0.4446  0.7091  1.0354
 8438SOL    HW236777   1.521   4.245  13.413  0.9932  0.5099 -0.4383
 8439SOL     OW36778   0.575   2.655  14.247 -0.5630  0.0901  0.0491
 8439SOL    HW136779   0.505   2.674  14.309 -0.9999 -0.1292 -0.3799
 8439SOL    HW236780   0.512   2.637  14.177 -1.0836 -1.6125  0.9330
 8440SOL     OW36781   4.299   3.562   5.142 -0.2387  0.3884 -0.4003
 8440SOL    HW136782   4.357   3.498   5.183 -0.3541  0.3792 -0.2540
 8440SOL    HW236783   4.362   3.634   5.136 -0.6412  0.7473 -0.3034
 8441SOL     OW36784   0.448   0.254   5.039 -0.1433  0.0784 -0.2643
 8441SOL    HW136785   0.480   0.315   5.105  1.5446 -1.3594  0.2109
 8441SOL    HW236786   0.354   0.251   5.059  0.2674  2.2012  1.9766
 8442SOL     OW36787   0.548   2.274  11.314 -0.0684  0.4134  0.5807
 8442SOL    HW136788   0.613   2.225  11.365  1.2131  0.2538 -1.2093
 8442SOL    HW236789   0.583   2.361  11.332  0.5904  0.5731 -1.4528
 8443SOL     OW36790   1.671   2.156   6.570  0.3890  0.3652  0.4739
 8443SOL    HW136791   1.701   2.101   6.498  0.5975 -0.8091  1.4477
 8443SOL    HW236792   1.635   2.231   6.523  1.4916  1.2908  1.0959
 8444SOL     OW36793   1.876   0.100   7.167 -0.2218  0.1681 -0.3598
 8444SOL    HW136794   1.965   0.132   7.151 -0.1494  0.6912  1.0725
 8444SOL    HW236795   1.892   0.015   7.207  0.1906 -0.2653 -1.4688
 8445SOL     OW36796   4.436   4.348   3.156 -0.2091  0.0208 -0.0971
 8445SOL    HW136797   4.505   4.316   3.098 -1.4642 -1.8415 -0.5367
 8445SOL    HW236798   4.385   4.400   3.093  0.9030  3.2110  1.5974
 8446SOL     OW36799   0.711   0.356   1.257 -0.0757 -0.3046 -0.2678
 8446SOL    HW136800   0.673   0.270   1.238 -0.8314 -0.5073  2.1302
 8446SOL    HW236801   0.706   0.352   1.353 -0.3424  0.4435 -0.2545
 8447SOL     OW36802   0.924   1.456  11.748 -0.1431  0.1130  0.2793
 8447SOL    HW136803   1.019   1.448  11.737  0.1771  4.9123 -0.3212
 8447SOL    HW236804   0.887   1.394  11.685 -3.4468  3.3557 -0.9592
 8448SOL     OW36805   3.978   3.718   3.607 -0.2413 -0.4653 -0.1019
 8448SOL    HW136806   3.974   3.706   3.512 -0.4024  2.3502 -0.4531
 8448SOL    HW236807   4.063   3.675   3.615  0.2501  0.6314  0.4843
 8449SOL     OW36808   3.820   3.134   7.851  0.3421 -0.3768  0.3754
 8449SOL    HW136809   3.836   3.206   7.912 -3.5318 -0.7216  1.7700
 8449SOL    HW236810   3.909   3.109   7.824  0.1708  1.0867 -1.5546
 8450SOL     OW36811   3.189   3.512   5.428  0.3655 -0.0287 -0.5676
 8450SOL    HW136812   3.235   3.586   5.468  0.3920 -1.1567  1.4828
 8450SOL    HW236813   3.199   3.527   5.334  0.9646 -2.8577 -0.9510
 8451SOL     OW36814   1.164   2.644   4.829  0.5270  0.4228 -0.0564
 8451SOL    HW136815   1.206   2.657   4.914  1.4390 -0.2941 -0.3959
 8451SOL    HW236816   1.157   2.549   4.845  0.2740  0.7262  1.6303
 8452SOL     OW36817   0.998   1.299  15.736 -0.2230 -0.2699 -0.0644
 8452SOL    HW136818   1.011   1.389  15.767  0.1607 -0.1269 -0.6407
 8452SOL    HW236819   1.067   1.290  15.670  0.0397 -0.2219  0.2041
 8453SOL     OW36820   4.071   1.226   9.994 -0.0363  0.7141  0.2643
 8453SOL    HW136821   4.144   1.192   9.943 -0.6506 -1.3199  0.7368
 8453SOL    HW236822   4.069   1.169  10.071 -1.0230 -1.8496 -1.6274
 8454SOL     OW36823   3.065   2.883   7.911 -0.1913 -0.3031 -0.2831
 8454SOL    HW136824   3.046   2.964   7.863 -0.7730 -0.7359 -0.7787
 8454SOL    HW236825   3.133   2.852   7.851 -0.2038 -0.6310 -0.1260
 8455SOL     OW36826   4.079   1.472   6.024 -0.0651  0.3637  0.1823
 8455SOL    HW136827   4.061   1.452   5.932 -1.1424  4.0034 -0.4102
 8455SOL    HW236828   4.000   1.524   6.040 -0.1514  0.1325  0.5058
 8456SOL     OW36829   3.821   2.262   7.421  0.1302  0.1227  0.4342
 8456SOL    HW136830   3.752   2.259   7.487 -1.7143  0.4573 -1.4792
 8456SOL    HW236831   3.771   2.282   7.342 -1.8843  1.5310  2.0786
 8457SOL     OW36832   2.015   2.461   3.335 -0.4431  0.1683  0.0430
 8457SOL    HW136833   1.930   2.421   3.319  0.5393 -1.4582 -1.1313
 8457SOL    HW236834   2.065   2.389   3.297  0.0552  1.0066 -0.9020
 8458SOL     OW36835   4.014   1.968   4.109  0.0624 -0.4565  0.4047
 8458SOL    HW136836   4.104   1.941   4.094  0.6427  1.9468 -0.3527
 8458SOL    HW236837   4.000   2.005   4.022  2.2238 -0.3440  0.1090
 8459SOL     OW36838   3.362   3.986   6.382  0.0121  0.1049  0.5213
 8459SOL    HW136839   3.358   3.896   6.350  0.0204  0.8179 -1.4609
 8459SOL    HW236840   3.455   4.005   6.390 -0.1547  0.2056  2.3897
 8460SOL     OW36841   2.448   2.862   4.326 -0.6367 -0.0588 -0.0166
 8460SOL    HW136842   2.541   2.870   4.347 -0.8735 -0.7741  1.3324
 8460SOL    HW236843   2.434   2.929   4.259  1.6325 -1.7060 -2.1316
 8461SOL     OW36844   3.095   2.742   8.873  0.6402  0.2826 -0.3899
 8461SOL    HW136845   3.100   2.650   8.900  3.0175  0.8346  1.0452
 8461SOL    HW236846   3.004   2.762   8.894  1.4616 -0.0689  3.4904
 8462SOL     OW36847   1.459   2.157  10.534  0.5403  0.3295 -0.2563
 8462SOL    HW136848   1.413   2.232  10.497  1.5831  0.7990 -0.6158
 8462SOL    HW236849   1.543   2.158  10.488  1.2245  3.4261  1.0493
 8463SOL     OW36850   3.315   1.752   6.292 -0.7371 -0.2952  0.5689
 8463SOL    HW136851   3.279   1.665   6.273 -1.5847  0.2667 -0.3627
 8463SOL    HW236852   3.269   1.766   6.375  2.6322  1.7915  2.0850
 8464SOL     OW36853   4.678   3.365   3.351 -0.0951  0.2160  0.4143
 8464SOL    HW136854   0.026   3.412   3.307 -0.7249 -2.1284 -3.0979
 8464SOL    HW236855   4.662   3.430   3.420 -3.3370  0.0060 -0.1491
 8465SOL     OW36856   1.307   0.028   4.644 -0.1386 -0.1612  0.2725
 8465SOL    HW136857   1.303   4.677   4.706 -1.1427  0.1119  0.5282
 8465SOL    HW236858   1.356   0.085   4.704  0.2476  0.9074 -1.0618
 8466SOL     OW36859   1.071   2.617  12.865 -0.0858 -0.3383  0.8061
 8466SOL    HW136860   1.056   2.526  12.891 -0.5607 -0.2418  0.8708
 8466SOL    HW236861   1.164   2.609  12.887  0.4887  0.8603 -1.2371
 8467SOL     OW36862   3.634   1.821   8.172  0.7582 -0.5665  0.1424
 8467SOL    HW136863   3.684   1.755   8.220 -1.0765 -2.4836 -0.6056
 8467SOL    HW236864   3.703   1.881   8.145  0.5638 -0.5647 -0.3566
 8468SOL     OW36865   4.337   1.061   5.129 -0.6053  0.3239 -0.2789
 8468SOL    HW136866   4.432   1.048   5.137 -0.7804 -0.1291  1.1453
 8468SOL    HW236867   4.334   1.157   5.132  2.8707  0.4418 -0.0584
 8469SOL     OW36868   2.743   3.082  14.775  0.3896 -0.1101 -0.6549
 8469SOL    HW136869   2.673   3.031  14.817 -0.1452  0.4153 -0.9002
 8469SOL    HW236870   2.691   3.143  14.723  3.1464  0.6425 -2.5253
 8470SOL     OW36871   2.740   2.059   6.375 -0.3970  0.2444  0.1336
 8470SOL    HW136872   2.673   2.060   6.443  0.2859  2.0494  0.7937
 8470SOL    HW236873   2.688   2.046   6.296 -2.3731 -0.0546  1.4972
 8471SOL     OW36874   4.660   0.246   3.130 -0.2091  0.8404  0.5657
 8471SOL    HW136875   0.020   0.200   3.147  0.1346  1.3944  0.3669
 8471SOL    HW236876   4.658   0.247   3.035 -1.4238 -0.7395  0.5636
 8472SOL     OW36877   3.262   2.106   3.079 -0.4072 -0.5552 -0.5558
 8472SOL    HW136878   3.318   2.083   3.153  2.3880  1.3960 -2.0432
 8472SOL    HW236879   3.311   2.179   3.040  1.7110 -0.7132  1.8010
 8473SOL     OW36880   1.168   1.004   9.914 -0.1479  0.3151  0.1702
 8473SOL    HW136881   1.250   1.006   9.964 -0.2997 -0.3916  0.4408
 8473SOL    HW236882   1.200   1.029   9.828 -2.4658 -1.0063 -1.0577
 8474SOL     OW36883   1.147   4.401   5.095  0.0618  0.5386 -0.1259
 8474SOL    HW136884   1.055   4.424   5.103 -0.6212 -1.7795 -1.3471
 8474SOL    HW236885   1.174   4.396   5.186 -0.1776  1.6175  0.0061
 8475SOL     OW36886   0.638   4.708   2.521  0.2142 -0.1868  0.0722
 8475SOL    HW136887   0.683   4.682   2.601 -0.2430  1.9722  1.0571
 8475SOL    HW236888   0.649   4.632   2.465  0.3071 -1.0360  1.2297
 8476SOL     OW36889   1.517   3.271   4.625 -0.2390 -0.1856 -0.0028
 8476SOL    HW136890   1.603   3.279   4.583  0.1983 -1.5591  0.6534
 8476SOL    HW236891   1.543   3.289   4.715  0.9080 -0.9297 -0.1917
 8477SOL     OW36892   3.087   0.992  10.709  0.4585 -0.5098  0.8318
 8477SOL    HW136893   3.126   0.910  10.677 -1.8970 -1.3181  0.0111
 8477SOL    HW236894   3.159   1.054  10.708 -1.6723  1.9401 -1.1968
 8478SOL     OW36895   0.304   0.500   4.910 -0.1847 -0.5260 -0.0044
 8478SOL    HW136896   0.238   0.431   4.898 -1.0400  1.0276 -4.1362
 8478SOL    HW236897   0.369   0.475   4.845  0.6463  1.2065  0.1729
 8479SOL     OW36898   3.411   2.881   4.952  0.4382  0.3820  0.4237
 8479SOL    HW136899   3.348   2.903   4.883 -1.5930 -3.3796  1.0724
 8479SOL    HW236900   3.487   2.848   4.904  0.7202  0.0582  1.0992
 8480SOL     OW36901   3.050   1.479   4.020 -0.0685  0.3870  0.3633
 8480SOL    HW136902   2.973   1.532   4.000  0.5021  0.8219 -0.6590
 8480SOL    HW236903   3.106   1.545   4.062  1.5134 -0.6081 -0.2029
 8481SOL     OW36904   2.523   2.217  12.706 -0.3500 -0.0201 -0.0688
 8481SOL    HW136905   2.460   2.157  12.748 -1.2265  1.5045  0.7785
 8481SOL    HW236906   2.484   2.234  12.621  2.6414  0.2060 -1.3876
 8482SOL     OW36907   1.927   1.775  11.945 -0.0577 -0.5374  0.1854
 8482SOL    HW136908   1.852   1.815  11.988 -0.4657  0.7541 -1.6848
 8482SOL    HW236909   1.998   1.836  11.966 -0.7019  0.2237  0.1493
 8483SOL     OW36910   2.047   0.745   5.121 -0.2374 -0.3245  0.0305
 8483SOL    HW136911   2.015   0.772   5.207  0.1619 -1.4606  0.5483
 8483SOL    HW236912   2.053   0.830   5.078  1.1774 -1.3083 -1.7119
 8484SOL     OW36913   1.868   4.114   6.648 -0.7990  0.2528  0.1768
 8484SOL    HW136914   1.799   4.051   6.667 -2.4710  1.5891 -1.3554
 8484SOL    HW236915   1.898   4.087   6.561  2.3726  4.1183  0.0550
 8485SOL     OW36916   2.141   0.596   2.092  0.2219 -0.0857 -0.0291
 8485SOL    HW136917   2.150   0.691   2.098 -0.2866 -0.1986  2.7408
 8485SOL    HW236918   2.148   0.571   2.000  1.5740 -2.2666  0.6582
 8486SOL     OW36919   1.638   0.123   3.654  0.3214 -0.1291 -0.0232
 8486SOL    HW136920   1.609   0.046   3.702 -1.4741  0.9132  0.5704
 8486SOL    HW236921   1.732   0.107   3.648  0.6291  3.0519 -3.6741
 8487SOL     OW36922   1.354   2.001   5.776 -0.4630 -0.1157 -0.6963
 8487SOL    HW136923   1.265   2.018   5.807 -0.5429 -0.8442 -0.5143
 8487SOL    HW236924   1.366   1.911   5.807  1.2560 -0.5185 -2.5112
 8488SOL     OW36925   4.130   4.518   4.037 -0.2874 -0.3467 -0.1249
 8488SOL    HW136926   4.098   4.530   4.127  2.2086 -1.1270  0.8489
 8488SOL    HW236927   4.053   4.503   3.982  0.3416  0.3779 -1.1850
 8489SOL     OW36928   4.378   4.633   2.261  0.1109 -0.3162 -0.3745
 8489SOL    HW136929   4.356   4.560   2.203  1.3150 -2.0633  1.3672
 8489SOL    HW236930   4.344   4.599   2.344 -0.1455  0.7221 -0.0585
 8490SOL     OW36931   0.132   0.008   4.635  0.6855  0.5363 -0.0728
 8490SOL    HW136932   0.180   4.696   4.711  1.8543 -1.0823 -1.5541
 8490SOL    HW236933   0.181   4.692   4.563 -1.3927  0.5302 -1.4987
 8491SOL     OW36934   3.776   2.176  17.682  0.1018  0.2327 -0.6614
 8491SOL    HW136935   3.762   2.246  17.619  3.3128  1.2152 -0.3288
 8491SOL    HW236936   3.689   2.137  17.682  0.2468 -0.0866  1.2630
 8492SOL     OW36937   3.091   2.827   6.174  0.8310 -0.2480  0.1997
 8492SOL    HW136938   3.163   2.772   6.143  0.0793 -2.4263  2.2923
 8492SOL    HW236939   3.014   2.773   6.161  0.7108  0.5824 -2.6959
 8493SOL     OW36940   1.394   2.953   4.460  0.5022 -0.2381 -0.1919
 8493SOL    HW136941   1.472   2.995   4.496 -0.5530  0.8738  0.8320
 8493SOL    HW236942   1.406   2.976   4.368 -0.2699  2.1662  0.3022
 8494SOL     OW36943   1.470   4.062   6.060  0.0368  0.8177  0.4753
 8494SOL    HW136944   1.507   4.015   5.985 -0.1032 -0.6756  1.3330
 8494SOL    HW236945   1.470   4.153   6.031 -1.7510  0.2663 -1.1946
 8495SOL     OW36946   3.519   4.401   6.569  0.1680 -0.3494 -0.2122
 8495SOL    HW136947   3.458   4.474   6.560 -1.9720 -2.2743 -1.5831
 8495SOL    HW236948   3.451   4.337   6.591  0.9418 -1.2035 -0.2775
 8496SOL     OW36949   2.074   0.276   6.026  0.3944 -0.0014  0.5354
 8496SOL    HW136950   1.982   0.251   6.027  0.1365  0.9132 -1.1031
 8496SOL    HW236951   2.105   0.200   5.977 -0.7846  0.4811 -0.9323
 8497SOL     OW36952   3.944   1.175  12.597  0.1571  0.5903 -0.3916
 8497SOL    HW136953   3.987   1.143  12.677  3.5505 -0.4123 -2.6131
 8497SOL    HW236954   3.950   1.268  12.618  0.0867  0.3397  0.7794
 8498SOL     OW36955   3.724   4.695   5.147  0.6974  0.1760 -0.0160
 8498SOL    HW136956   3.654   0.006   5.091 -0.8790 -0.6331  1.4748
 8498SOL    HW236957   3.770   0.057   5.156  0.0069  0.5937 -0.4139
 8499SOL     OW36958   0.239   1.043   7.485  0.3254 -0.3618 -0.3950
 8499SOL    HW136959   0.195   0.992   7.417 -3.0201  1.9487  0.0536
 8499SOL    HW236960   0.223   1.130   7.449 -0.9937 -0.4676 -0.0640
 8500SOL     OW36961   2.385   0.889   7.962  0.1744  0.1930  0.4577
 8500SOL    HW136962   2.314   0.825   7.958 -0.5389  0.9115  1.5178
 8500SOL    HW236963   2.464   0.841   7.937  0.6227 -0.0266  2.3450
 8501SOL     OW36964   0.063   4.426   6.856  0.0212  0.1483  0.3103
 8501SOL    HW136965   0.143   4.476   6.872 -0.4430  1.2349 -0.8043
 8501SOL    HW236966   0.079   4.369   6.781 -0.8183 -0.5669  0.6724
 8502SOL     OW36967   3.498   3.981   2.919  0.2367 -0.3917 -0.6406
 8502SOL    HW136968   3.435   4.001   2.988  0.0750  2.3205 -1.5905
 8502SOL    HW236969   3.444   3.944   2.850 -0.4761  0.2664 -0.4454
 8503SOL     OW36970   4.021   2.543   8.674 -0.3160 -0.0678  0.1266
 8503SOL    HW136971   4.045   2.463   8.628  2.8837  0.7846  0.3608
 8503SOL    HW236972   4.092   2.538   8.737 -1.4674  2.9948  1.6926
 8504SOL     OW36973   4.671   2.327  11.763  0.0867  0.3694  0.3048
 8504SOL    HW136974   4.587   2.328  11.810 -1.5245  3.7222 -2.6700
 8504SOL    HW236975   4.692   2.234  11.767 -0.6438  0.1955  0.1768
 8505SOL     OW36976   0.625   3.021   6.209 -0.7075  0.0121 -0.5893
 8505SOL    HW136977   0.663   3.066   6.134  0.5172 -0.1021 -0.0230
 8505SOL    HW236978   0.647   2.930   6.189 -0.5665 -0.0296 -0.2528
 8506SOL     OW36979   2.310   0.985  12.828 -0.1710  0.0594 -0.2608
 8506SOL    HW136980   2.401   0.985  12.858  0.4257  1.8583 -2.0491
 8506SOL    HW236981   2.296   1.077  12.849 -1.5867 -0.4078  0.7861
 8507SOL     OW36982   2.364   1.146   9.772  0.1598  0.2978  0.7147
 8507SOL    HW136983   2.308   1.077   9.809  0.3075  1.6390  3.4476
 8507SOL    HW236984   2.336   1.141   9.681  2.4098  1.0126 -0.0147
 8508SOL     OW36985   2.474   0.261  15.442 -0.2115 -0.1945 -0.0901
 8508SOL    HW136986   2.409   0.312  15.490 -2.2512 -0.5695 -2.4896
 8508SOL    HW236987   2.482   0.322  15.369  2.2843  0.5870  0.8358
 8509SOL     OW36988   3.937   1.729   5.949  0.2737 -0.3504 -0.4145
 8509SOL    HW136989   3.956   1.751   6.040 -2.3285  2.9401 -0.6755
 8509SOL    HW236990   4.024   1.750   5.915 -0.8437  1.1760 -2.3272
 8510SOL     OW36991   1.370   1.316   7.284 -0.4630 -0.8367  0.4511
 8510SOL    HW136992   1.348   1.288   7.373 -0.7055  0.6033  0.8404
 8510SOL    HW236993   1.318   1.251   7.237 -2.1361 -1.6814  3.4286
 8511SOL     OW36994   4.396   1.178   7.181  0.0422 -0.0575 -0.2752
 8511SOL    HW136995   4.321   1.120   7.165  0.7107 -0.4862 -1.8822
 8511SOL    HW236996   4.364   1.217   7.262  0.6471 -0.1455  0.0094
 8512SOL     OW36997   2.907   2.841   4.963 -0.5618 -0.0399 -0.1042
 8512SOL    HW136998   2.986   2.894   4.978 -0.4912  0.2627 -1.5212
 8512SOL    HW236999   2.858   2.852   5.044 -1.0015  1.0849 -0.5290
 8513SOL     OW37000   0.727   1.147   6.060  0.0437  0.2481 -0.0722
 8513SOL    HW137001   0.763   1.059   6.046 -1.2510 -0.6886  2.5253
 8513SOL    HW237002   0.697   1.161   5.971 -1.6943 -1.3644  0.2674
 8514SOL     OW37003   2.375   3.676   6.977  0.3842  0.4537 -0.7401
 8514SOL    HW137004   2.438   3.615   6.940 -1.1819 -1.3543 -0.4165
 8514SOL    HW237005   2.336   3.714   6.898  0.4698  0.6620 -0.6844
 8515SOL     OW37006   1.656   2.736   5.976  0.5729 -0.1103 -0.7568
 8515SOL    HW137007   1.710   2.786   6.036  1.6005 -1.2772 -0.7031
 8515SOL    HW237008   1.657   2.650   6.019 -0.2761 -0.6974 -1.9056
 8516SOL     OW37009   4.098   0.927   8.865 -0.6118  0.6367  0.1364
 8516SOL    HW137010   4.153   1.001   8.837  0.1086 -0.1479 -0.5008
 8516SOL    HW237011   4.157   0.855   8.886 -1.5086 -0.3646 -0.7724
 8517SOL     OW37012   1.391   4.419  10.157 -0.2101 -0.3433  0.2299
 8517SOL    HW137013   1.485   4.418  10.170 -0.0699 -0.1353 -0.7413
 8517SOL    HW237014   1.351   4.399  10.241 -2.3619  0.4649 -0.5786
 8518SOL     OW37015   2.773   1.017   8.958  0.6882 -0.1066  0.0736
 8518SOL    HW137016   2.865   0.996   8.972  0.3318 -0.3288  1.9693
 8518SOL    HW237017   2.771   1.109   8.985  0.7111  1.0251 -3.7466
 8519SOL     OW37018   3.318   2.201   2.108  0.2487 -0.0519 -0.3775
 8519SOL    HW137019   3.387   2.219   2.171  0.6248  0.8631 -1.0386
 8519SOL    HW237020   3.355   2.128   2.058  1.3256  0.1344  0.1608
 8520SOL     OW37021   3.216   0.105   8.372 -0.5843  0.3230 -0.3111
 8520SOL    HW137022   3.207   0.013   8.350  0.7266  0.7053 -2.4846
 8520SOL    HW237023   3.228   0.150   8.288  0.0513  1.1408  0.2116
 8521SOL     OW37024   3.565   3.773  16.626 -0.3581  0.0098  0.1165
 8521SOL    HW137025   3.640   3.758  16.683 -0.6421  0.2874  0.5616
 8521SOL    HW237026   3.573   3.864  16.598  1.4417  0.2229  1.3252
 8522SOL     OW37027   1.396   4.048   7.094 -0.2924  0.4593  0.0243
 8522SOL    HW137028   1.391   4.083   7.005  0.8886  0.8498  0.1100
 8522SOL    HW237029   1.346   4.116   7.140  0.6098  1.8852 -1.1220
 8523SOL     OW37030   3.044   0.098  10.885 -0.8331  0.4577  0.6212
 8523SOL    HW137031   3.107   0.049  10.938 -0.7491 -0.0534  0.0568
 8523SOL    HW237032   3.090   0.119  10.803 -1.0315  2.8415  1.1310
 8524SOL     OW37033   1.291   1.566   7.580 -0.0245 -0.0516 -0.6968
 8524SOL    HW137034   1.273   1.635   7.516 -0.3147 -0.5134 -1.1211
 8524SOL    HW237035   1.386   1.564   7.571 -0.1553 -4.2009 -1.2042
 8525SOL     OW37036   0.963   3.763   6.382 -0.1182 -0.6928  1.2294
 8525SOL    HW137037   0.986   3.813   6.460 -1.2238 -0.5138  1.4449
 8525SOL    HW237038   0.876   3.797   6.361 -0.7528 -1.5426  2.4890
 8526SOL     OW37039   1.020   4.674   4.393 -0.2179  0.3970  0.1685
 8526SOL    HW137040   1.032   4.684   4.487 -1.4639 -2.2553  0.6156
 8526SOL    HW237041   1.097   4.713   4.350 -0.8175 -1.4867 -2.5956
 8527SOL     OW37042   4.213   0.403   6.041 -0.0563  0.2756  0.5819
 8527SOL    HW137043   4.221   0.469   5.972 -0.6104 -0.3232 -0.0622
 8527SOL    HW237044   4.120   0.405   6.064 -0.4799  3.0765 -1.3626
 8528SOL     OW37045   2.628   1.428   4.760 -0.8818 -0.0245 -0.4345
 8528SOL    HW137046   2.651   1.337   4.777 -1.1852  0.1677  1.0250
 8528SOL    HW237047   2.711   1.467   4.734 -1.0085  0.0856 -0.6807
 8529SOL     OW37048   3.980   4.405   1.535  0.8214  0.0459 -0.0068
 8529SOL    HW137049   3.940   4.334   1.485  0.3993 -0.2380  0.7242
 8529SOL    HW237050   4.066   4.390   1.495 -0.0418 -1.9638 -1.1313
 8530SOL     OW37051   2.494   2.893   8.759  0.3457  0.2872 -0.1146
 8530SOL    HW137052   2.401   2.881   8.777  0.2913  1.0644  0.0872
 8530SOL    HW237053   2.527   2.849   8.837 -2.6346 -0.0915  0.9071
 8531SOL     OW37054   0.866   1.388   5.228 -0.2586  0.6142 -0.3174
 8531SOL    HW137055   0.827   1.455   5.172  1.1269  1.2183 -0.5602
 8531SOL    HW237056   0.786   1.336   5.236  0.1154  0.1971  0.6414
 8532SOL     OW37057   3.161   3.329   9.909 -0.3934  0.3252  0.3092
 8532SOL    HW137058   3.240   3.383   9.906 -1.1695  1.3365 -1.3899
 8532SOL    HW237059   3.176   3.270   9.836  0.8285 -0.3745  1.1212
 8533SOL     OW37060   2.292   4.143   3.142 -0.3689 -0.7615  0.4120
 8533SOL    HW137061   2.373   4.183   3.109  0.9064 -3.7016 -0.0954
 8533SOL    HW237062   2.222   4.184   3.092 -0.3082 -3.1232 -1.5951
 8534SOL     OW37063   2.417   4.567   8.765 -0.0860  0.3482  0.0876
 8534SOL    HW137064   2.384   4.653   8.740  0.4503  1.0267  1.7250
 8534SOL    HW237065   2.397   4.558   8.858 -0.7609 -2.7210 -0.3529
 8535SOL     OW37066   0.729   1.351  10.646 -0.0337 -0.3678 -0.1206
 8535SOL    HW137067   0.669   1.379  10.577 -0.8525 -0.3025  0.6146
 8535SOL    HW237068   0.782   1.430  10.648 -1.7335  0.7559  0.3168
 8536SOL     OW37069   3.934   2.846  10.838 -0.1151 -0.9873 -0.3356
 8536SOL    HW137070   3.981   2.776  10.792  0.4262 -0.4948 -0.5312
 8536SOL    HW237071   3.891   2.897  10.769  0.7556  0.1135 -0.0503
 8537SOL     OW37072   1.168   2.438  12.485  0.3091 -0.1800  0.0249
 8537SOL    HW137073   1.217   2.457  12.405  0.1933 -0.0146 -0.0068
 8537SOL    HW237074   1.103   2.379  12.446  0.0674 -0.4189  0.7937
 8538SOL     OW37075   1.922   1.136   6.268 -0.1647  0.5521 -0.4107
 8538SOL    HW137076   1.860   1.095   6.327 -0.4215  2.0941  0.3918
 8538SOL    HW237077   1.972   1.187   6.331  0.8783 -2.4604  1.1970
 8539SOL     OW37078   1.860   1.560   1.373  0.3239 -0.0674  0.8367
 8539SOL    HW137079   1.910   1.556   1.455  1.4929 -0.5587  0.0979
 8539SOL    HW237080   1.789   1.498   1.383  0.5282 -0.2877  0.9100
 8540SOL     OW37081   2.363   2.583  16.604  0.1620  0.1283 -0.3043
 8540SOL    HW137082   2.332   2.592  16.695  1.6919 -0.7759  0.3080
 8540SOL    HW237083   2.449   2.623  16.597  0.7269 -0.6577  2.0155
 8541SOL     OW37084   1.043   1.276   2.883  0.1886  0.3132 -0.4251
 8541SOL    HW137085   1.014   1.202   2.829 -1.2511 -0.0928  0.9310
 8541SOL    HW237086   1.122   1.307   2.838 -0.2897 -1.5446 -2.5333
 8542SOL     OW37087   2.525   1.187   4.965  0.1338  0.1087  0.4343
 8542SOL    HW137088   2.519   1.192   5.061  1.8559  1.5936  0.4697
 8542SOL    HW237089   2.474   1.107   4.955 -0.1931  0.6018 -1.8065
 8543SOL     OW37090   1.434   1.193   8.104 -0.2249 -0.0103  0.0029
 8543SOL    HW137091   1.392   1.215   8.187  1.9839 -2.2173  1.7003
 8543SOL    HW237092   1.375   1.226   8.036  0.7639 -2.8192 -2.2066
 8544SOL     OW37093   2.114   3.598   8.685  0.0231  0.1025 -0.4375
 8544SOL    HW137094   2.097   3.671   8.625 -2.1549 -0.7935 -0.9176
 8544SOL    HW237095   2.055   3.537   8.640 -0.9882 -0.6273  1.8614
 8545SOL     OW37096   4.306   2.736   7.970  0.0991 -0.2050 -0.0243
 8545SOL    HW137097   4.306   2.668   7.903 -1.8693  0.2030 -0.4113
 8545SOL    HW237098   4.315   2.811   7.911 -1.0483  0.3323  0.4961
 8546SOL     OW37099   3.443   3.683   7.265 -0.1168 -0.2485 -0.2549
 8546SOL    HW137100   3.475   3.661   7.177 -4.2629 -1.1174 -1.5688
 8546SOL    HW237101   3.436   3.778   7.269 -0.1427 -0.3203  1.3590
 8547SOL     OW37102   0.142   1.172   6.987  0.5145 -0.3861 -0.2667
 8547SOL    HW137103   0.123   1.152   6.895  1.1867 -1.4816 -0.1703
 8547SOL    HW237104   0.066   1.130   7.025 -0.9537  1.5531 -1.0452
 8548SOL     OW37105   4.628   2.621  11.315  0.5074 -0.0070 -0.1169
 8548SOL    HW137106   4.569   2.593  11.384  0.0734  1.8367  0.2714
 8548SOL    HW237107   4.613   2.552  11.251  3.8296  0.5668 -1.4959
 8549SOL     OW37108   0.829   2.880  10.691 -0.4712  0.1964  0.3032
 8549SOL    HW137109   0.913   2.851  10.654  0.3246 -1.4015  3.3764
 8549SOL    HW237110   0.765   2.835  10.636  0.1199 -0.5388  0.2176
 8550SOL     OW37111   0.315   4.260  17.493 -0.1103  0.1002  0.0422
 8550SOL    HW137112   0.282   4.346  17.521  0.0288 -0.0785  0.7673
 8550SOL    HW237113   0.377   4.236  17.563 -0.4602  0.1722  0.3750
 8551SOL     OW37114   3.661   0.703   2.449 -0.0266 -0.1910  0.0141
 8551SOL    HW137115   3.616   0.787   2.458 -1.6702 -0.9682 -0.7943
 8551SOL    HW237116   3.614   0.643   2.508  2.0169 -1.1448  0.6503
 8552SOL     OW37117   0.590   4.423   3.984 -0.6842 -0.3342 -0.2094
 8552SOL    HW137118   0.649   4.492   4.014  0.1154 -0.3527 -1.7594
 8552SOL    HW237119   0.539   4.475   3.921 -1.1737 -1.3755 -0.6865
 8553SOL     OW37120   2.222   0.669  16.637 -0.0552  0.4477  0.8793
 8553SOL    HW137121   2.208   0.601  16.703  0.2577 -0.3681  0.1117
 8553SOL    HW237122   2.304   0.704  16.672  0.9751  0.5085 -1.5998
 8554SOL     OW37123   2.817   2.968   5.696  0.4965 -0.2298 -0.3601
 8554SOL    HW137124   2.838   3.061   5.701 -0.1017 -0.1772  1.1615
 8554SOL    HW237125   2.893   2.928   5.737 -0.4258  0.3499  1.9605
 8555SOL     OW37126   3.878   0.859   3.275  0.3709 -0.4416 -0.4947
 8555SOL    HW137127   3.873   0.779   3.327 -3.6921 -0.0458 -0.3055
 8555SOL    HW237128   3.973   0.874   3.277  0.0812  0.8474  2.7699
 8556SOL     OW37129   2.658   4.665  12.934 -0.4403  0.0632  0.4474
 8556SOL    HW137130   2.644   4.704  12.848  0.1089 -0.3281  0.1828
 8556SOL    HW237131   2.566   4.659  12.961  0.4940 -0.9225  3.3837
 8557SOL     OW37132   4.396   0.416   5.110  0.0787  0.0177  0.3352
 8557SOL    HW137133   4.375   0.488   5.051  1.9862 -1.7751 -2.5126
 8557SOL    HW237134   4.491   0.425   5.110 -0.0756  1.6407  0.8758
 8558SOL     OW37135   2.557   1.568   1.832  0.1015  0.0183 -0.1949
 8558SOL    HW137136   2.555   1.598   1.741 -1.1336  2.1821  0.5337
 8558SOL    HW237137   2.474   1.605   1.862  0.4495  0.9242 -0.3455
 8559SOL     OW37138   3.592   2.807   4.286 -0.1048 -0.3663  0.5278
 8559SOL    HW137139   3.526   2.872   4.310  2.0564  1.0225  2.7981
 8559SOL    HW237140   3.653   2.859   4.234 -2.5230 -0.8124 -2.7154
 8560SOL     OW37141   2.977   3.696  14.008 -0.8041 -0.2209 -0.8299
 8560SOL    HW137142   3.025   3.614  14.004 -0.6212 -0.2436  1.8352
 8560SOL    HW237143   2.913   3.678  13.939  0.3490  0.9671 -2.2046
 8561SOL     OW37144   3.469   3.632   9.961 -0.0830  0.3097  0.1986
 8561SOL    HW137145   3.418   3.712   9.953 -0.5577  0.0395  0.4911
 8561SOL    HW237146   3.410   3.596  10.027  2.7744 -2.3690  1.3064
 8562SOL     OW37147   2.359   0.275   5.560  0.4670 -0.4379  0.0493
 8562SOL    HW137148   2.276   0.263   5.513  0.7441  2.7323 -1.2592
 8562SOL    HW237149   2.371   0.181   5.571  1.7158 -0.0996  1.5532
 8563SOL     OW37150   2.709   2.298  14.409  0.6911 -0.6388  0.8339
 8563SOL    HW137151   2.690   2.367  14.474  1.1784 -1.2425  1.6193
 8563SOL    HW237152   2.734   2.225  14.466  2.5004  0.0728  0.9510
 8564SOL     OW37153   3.938   1.124   7.381  0.3786  0.1803 -0.5634
 8564SOL    HW137154   3.966   1.116   7.472 -0.0120 -2.4263 -0.6748
 8564SOL    HW237155   3.843   1.123   7.394  0.4118  1.4102 -0.2502
 8565SOL     OW37156   0.777   1.178   7.718 -1.0098  0.3071  0.5189
 8565SOL    HW137157   0.849   1.239   7.735 -0.5092  0.1295 -0.9324
 8565SOL    HW237158   0.817   1.103   7.674  0.5352  1.4474 -0.0132
 8566SOL     OW37159   3.772   4.680   7.666  0.5055 -0.2158  0.5283
 8566SOL    HW137160   3.727   4.703   7.747  0.2347 -1.4949  0.7475
 8566SOL    HW237161   3.834   0.028   7.646  0.6067 -0.1206  1.1576
 8567SOL     OW37162   2.123   2.505   0.102  0.1317 -0.4454  0.6610
 8567SOL    HW137163   2.176   2.571   0.057 -0.6526 -0.9881 -1.0488
 8567SOL    HW237164   2.177   2.427   0.090  0.6836  0.4767 -3.1010
 8568SOL     OW37165   1.079   3.132  17.281  0.1229  0.0929  0.2796
 8568SOL    HW137166   1.105   3.092  17.198 -0.0270 -0.6645  0.6020
 8568SOL    HW237167   0.999   3.083  17.303  1.0430 -0.7190  1.8318
 8569SOL     OW37168   3.058   0.123   6.814  0.4925  0.5699  0.2072
 8569SOL    HW137169   3.067   0.188   6.745  1.2285  0.5301  0.2684
 8569SOL    HW237170   2.970   0.138   6.848  0.8296  0.8476  0.9626
 8570SOL     OW37171   1.515   4.655   7.674  0.4802  0.4658  0.0147
 8570SOL    HW137172   1.587   4.670   7.736  1.5718 -2.6985 -0.5037
 8570SOL    HW237173   1.515   0.012   7.621  0.2489  0.3728 -0.1238
 8571SOL     OW37174   0.548   0.947   0.457  0.3633 -0.3167 -0.2162
 8571SOL    HW137175   0.550   0.924   0.550 -2.1060  0.2624 -0.0124
 8571SOL    HW237176   0.461   0.986   0.452  0.4893  0.0023  0.0901
 8572SOL     OW37177   4.175   4.631   7.192 -0.5254  0.2227  0.2728
 8572SOL    HW137178   4.146   4.616   7.102 -2.2746  3.5052  0.2690
 8572SOL    HW237179   4.255   4.680   7.171 -0.1993  1.0439  3.4159
 8573SOL     OW37180   2.225   3.030   6.034  0.0086  0.7554  0.1528
 8573SOL    HW137181   2.160   3.090   6.069  0.0416  1.1440 -0.4451
 8573SOL    HW237182   2.206   2.963   6.099 -0.3542 -0.1194 -0.8441
 8574SOL     OW37183   1.408   1.317   8.602  0.0994 -0.5039 -0.0676
 8574SOL    HW137184   1.366   1.403   8.600 -1.0923 -1.0732  0.1817
 8574SOL    HW237185   1.379   1.284   8.687 -5.0977  0.1346 -1.5884
 8575SOL     OW37186   0.028   1.243   8.637  0.0874  0.5485  0.1878
 8575SOL    HW137187   4.696   1.258   8.558 -0.8771 -2.7333  0.1921
 8575SOL    HW237188   0.116   1.215   8.611 -0.9700 -0.2463 -2.6318
 8576SOL     OW37189   3.168   0.611  14.249 -0.5407 -0.6353  0.0167
 8576SOL    HW137190   3.224   0.541  14.215 -0.6102 -0.9642  0.5940
 8576SOL    HW237191   3.086   0.606  14.200 -2.3713 -0.0947  3.0272
 8577SOL     OW37192   3.144   2.687  11.353  0.1207 -0.0491  0.7309
 8577SOL    HW137193   3.227   2.663  11.394  0.2382 -0.7298  0.0945
 8577SOL    HW237194   3.088   2.705  11.428 -1.6949 -0.8356 -0.4334
 8578SOL     OW37195   4.448   3.707   9.050 -0.0331  0.2150 -0.8175
 8578SOL    HW137196   4.416   3.691   8.962 -0.5608  1.0970 -0.7902
 8578SOL    HW237197   4.482   3.794   9.030  1.8877 -0.6074 -1.0713
 8579SOL     OW37198   2.709   2.161   8.246 -0.1867  0.6029 -0.2842
 8579SOL    HW137199   2.801   2.139   8.231  0.4774  1.9562  1.8077
 8579SOL    HW237200   2.677   2.194   8.162  1.7954  1.7853 -0.5862
 8580SOL     OW37201   3.733   1.626   8.647  0.2185 -0.4490 -0.7366
 8580SOL    HW137202   3.770   1.600   8.731 -1.1891  0.4052  0.1565
 8580SOL    HW237203   3.759   1.718   8.652  0.7750 -0.6488 -0.0954
 8581SOL     OW37204   1.460   1.567   4.521  0.0103  0.2214 -0.3263
 8581SOL    HW137205   1.407   1.491   4.498  1.8450 -0.5033 -2.1363
 8581SOL    HW237206   1.393   1.636   4.518 -0.2371  0.1121  2.4573
 8582SOL     OW37207   0.879   4.174   8.457 -0.8385 -0.4310  0.0799
 8582SOL    HW137208   0.885   4.103   8.521 -0.9831  0.6136  1.2577
 8582SOL    HW237209   0.892   4.121   8.378  0.1569 -0.8612  0.5231
 8583SOL     OW37210   3.273   2.986   5.839  0.1439 -0.1615  0.1613
 8583SOL    HW137211   3.210   2.981   5.767  0.3171  0.5187 -0.0294
 8583SOL    HW237212   3.279   2.893   5.864 -0.4891  0.4594  2.6424
 8584SOL     OW37213   0.582   0.505   2.826 -0.1426 -0.1300 -0.1420
 8584SOL    HW137214   0.605   0.566   2.756 -0.3311 -0.7035 -0.7040
 8584SOL    HW237215   0.533   0.560   2.887 -1.7065 -0.5773 -0.9964
 8585SOL     OW37216   2.772   1.569   9.197  0.2943 -0.2249 -0.3562
 8585SOL    HW137217   2.825   1.530   9.267 -0.2223  0.7574  0.5898
 8585SOL    HW237218   2.713   1.624   9.249  2.0738 -0.0428  1.5061
 8586SOL     OW37219   0.661   1.224   2.966 -0.1690  0.3103  0.2215
 8586SOL    HW137220   0.736   1.196   3.018  1.6145  0.2585 -2.3720
 8586SOL    HW237221   0.679   1.180   2.883 -0.3244  1.5084 -0.4553
 8587SOL     OW37222   3.833   1.057   3.470  0.6873 -0.2837  0.2945
 8587SOL    HW137223   3.869   1.011   3.394 -0.3855 -0.1423 -0.3021
 8587SOL    HW237224   3.756   1.006   3.491 -0.4456  1.8974  1.4344
 8588SOL     OW37225   0.220   2.952   8.004 -0.0363  0.3947 -0.0284
 8588SOL    HW137226   0.237   2.858   8.001  0.7628  0.5178  0.4609
 8588SOL    HW237227   0.204   2.976   7.913 -3.2847  1.1953  0.7380
 8589SOL     OW37228   1.946   3.160  17.161  0.0179 -0.7476  0.1577
 8589SOL    HW137229   2.032   3.155  17.120  0.3638 -0.0432  0.7984
 8589SOL    HW237230   1.954   3.254  17.174 -2.8330 -0.6188  1.0657
 8590SOL     OW37231   2.391   3.126   3.217  0.4337  0.4636  0.3295
 8590SOL    HW137232   2.486   3.129   3.208  0.5559  2.4394  2.4954
 8590SOL    HW237233   2.382   3.127   3.312 -1.7087 -0.9343  0.1337
 8591SOL     OW37234   2.987   2.858  10.487  0.6558  0.0790 -0.2735
 8591SOL    HW137235   3.001   2.952  10.497 -2.2483  0.4204  0.6576
 8591SOL    HW237236   2.895   2.871  10.464  0.5587 -1.5144 -0.7621
 8592SOL     OW37237   2.972   3.356   8.556 -0.1427 -0.1690  0.1199
 8592SOL    HW137238   2.943   3.435   8.601  1.9953 -1.2726  3.4281
 8592SOL    HW237239   3.064   3.377   8.541  0.3246 -2.3670 -0.1025
 8593SOL     OW37240   2.279   1.365  13.951  0.6770  0.0883  0.1157
 8593SOL    HW137241   2.273   1.416  13.870 -1.7587 -2.0408 -1.0396
 8593SOL    HW237242   2.220   1.292  13.931  0.8323 -0.3665  1.3548
 8594SOL     OW37243   3.689   3.246   9.025  0.5372  0.0770  0.2135
 8594SOL    HW137244   3.632   3.286   8.959  0.5904  2.0022  1.3300
 8594SOL    HW237245   3.749   3.208   8.961 -0.2702  1.2226 -1.2148
 8595SOL     OW37246   3.068   1.245  17.505 -0.5568 -0.1392 -0.6209
 8595SOL    HW137247   3.092   1.309  17.438  0.3022 -2.2535 -2.3462
 8595SOL    HW237248   3.008   1.295  17.560 -0.0072 -0.9964  0.7712
 8596SOL     OW37249   3.612   3.117  11.699  0.0407  0.1097 -0.5950
 8596SOL    HW137250   3.544   3.050  11.694  0.9852 -0.9050  0.0840
 8596SOL    HW237251   3.683   3.071  11.745  0.1509  1.3864  0.5024
 8597SOL     OW37252   2.015   1.133   1.905 -0.6628  0.0889 -0.3131
 8597SOL    HW137253   2.060   1.134   1.990 -3.0863  2.6782  0.9098
 8597SOL    HW237254   1.996   1.041   1.884 -0.6728  0.5859 -2.4106
 8598SOL     OW37255   4.705   2.112  10.418 -0.0806 -0.0727 -0.4661
 8598SOL    HW137256   0.064   2.071  10.449 -0.9150 -0.6042  1.0050
 8598SOL    HW237257   4.706   2.201  10.452  1.2468  0.0993 -0.9727
 8599SOL     OW37258   2.661   0.765  17.512 -0.0029  0.0875  0.4391
 8599SOL    HW137259   2.736   0.799  17.463 -0.3064 -0.7440 -0.6183
 8599SOL    HW237260   2.698   0.722  17.589  0.0477 -0.2239  0.2424
 8600SOL     OW37261   4.663   3.008   3.104  0.1422 -0.3703 -0.0432
 8600SOL    HW137262   4.632   3.026   3.193 -3.3013  1.6029 -1.6964
 8600SOL    HW237263   4.710   2.924   3.108 -0.8216 -0.9020  0.0237
 8601SOL     OW37264   2.065   3.095  14.463 -0.0547 -0.0791 -0.4103
 8601SOL    HW137265   2.042   3.031  14.395  0.0569  0.4257 -0.9266
 8601SOL    HW237266   2.148   3.124  14.425  0.5246  1.6952  2.2459
 8602SOL     OW37267   2.660   1.656  12.162 -0.1556 -0.0892 -0.3152
 8602SOL    HW137268   2.718   1.635  12.088  1.2189  3.7843 -0.3104
 8602SOL    HW237269   2.678   1.581  12.219  0.7303 -0.9042 -1.6701
 8603SOL     OW37270   3.455   1.478   2.657  0.5678  0.0238  0.0126
 8603SOL    HW137271   3.368   1.483   2.617 -0.2900 -2.3278  1.5590
 8603SOL    HW237272   3.511   1.477   2.579  0.2750 -0.1374 -0.1984
 8604SOL     OW37273   4.309   2.068   2.434 -0.2760 -0.1868 -1.1576
 8604SOL    HW137274   4.344   1.990   2.477  0.3789 -0.7180 -2.6522
 8604SOL    HW237275   4.242   2.024   2.381 -1.5565  0.7312 -0.2988
 8605SOL     OW37276   2.607   2.525   7.221  0.0643  0.0767  0.5648
 8605SOL    HW137277   2.673   2.578   7.177  0.5497  0.8135  2.1620
 8605SOL    HW237278   2.533   2.579   7.248 -1.2952 -0.6665 -1.7252
 8606SOL     OW37279   3.562   2.256   6.811 -0.2135  0.2947  0.0097
 8606SOL    HW137280   3.630   2.195   6.784  0.7804  1.5588 -0.3236
 8606SOL    HW237281   3.568   2.249   6.906 -0.4563 -0.8346 -0.0597
 8607SOL     OW37282   0.649   3.933  12.878  0.4135  0.1817 -0.5633
 8607SOL    HW137283   0.624   3.846  12.910 -1.6994  1.3908  1.0844
 8607SOL    HW237284   0.744   3.929  12.888  0.2721 -0.1231  0.7039
 8608SOL     OW37285   2.979   4.592   7.994  0.5892  0.4706  0.5276
 8608SOL    HW137286   2.902   4.538   8.010  1.0019 -0.7798 -1.7186
 8608SOL    HW237287   2.995   4.563   7.904  1.2052 -2.7094  1.6673
 8609SOL     OW37288   4.072   2.383   1.389 -0.0541  0.5149 -0.2874
 8609SOL    HW137289   4.064   2.287   1.387 -0.7135  0.5727 -0.4139
 8609SOL    HW237290   4.022   2.399   1.310 -1.1998 -0.1385  0.3115
 8610SOL     OW37291   3.751   0.635   3.750  0.3375  0.2547 -0.3633
 8610SOL    HW137292   3.745   0.658   3.657 -0.3201 -2.3591 -0.9808
 8610SOL    HW237293   3.692   0.699   3.791  1.8919 -0.0386  2.3078
 8611SOL     OW37294   4.023   0.281   5.663  0.3597  0.3348  0.1597
 8611SOL    HW137295   4.064   0.314   5.743 -1.8899  1.7804  0.7021
 8611SOL    HW237296   4.002   0.195   5.701  0.6224 -0.2610 -1.0474
 8612SOL     OW37297   1.066   1.901  10.475 -0.1363 -0.1202  0.1761
 8612SOL    HW137298   1.035   1.845  10.404 -3.5307 -1.2141  2.4758
 8612SOL    HW237299   1.159   1.880  10.476 -0.8418 -3.2933 -2.2642
 8613SOL     OW37300   2.805   3.856  14.149 -0.2465 -0.1196 -0.1058
 8613SOL    HW137301   2.876   3.897  14.199  0.4698 -0.8729 -0.5052
 8613SOL    HW237302   2.848   3.789  14.096  0.6746  0.3768  0.0116
 8614SOL     OW37303   4.677   0.257   8.530  0.6771  0.8352 -0.0922
 8614SOL    HW137304   0.008   0.197   8.581 -0.4207  0.7222  0.9180
 8614SOL    HW237305   4.719   0.259   8.444  0.8493  2.1434  0.0224
 8615SOL     OW37306   0.384   1.340   0.376  0.9306  0.5240 -0.1440
 8615SOL    HW137307   0.430   1.366   0.296 -0.2026 -0.5787 -1.1551
 8615SOL    HW237308   0.293   1.361   0.352  0.1718  0.6174  2.7854
 8616SOL     OW37309   1.395   1.971   3.001  0.0257 -0.0079 -0.4209
 8616SOL    HW137310   1.361   2.059   3.019  1.7361  0.8911 -1.6445
 8616SOL    HW237311   1.489   1.985   3.014 -0.6255  2.7851  1.5131
 8617SOL     OW37312   2.720   1.913   8.461  0.2757  0.2109 -0.2805
 8617SOL    HW137313   2.715   1.904   8.366  0.1682 -0.1041 -0.2430
 8617SOL    HW237314   2.801   1.870   8.490  0.3664  0.5477 -0.0225
 8618SOL     OW37315   2.211   2.327   3.564  0.3487  0.1546  0.2285
 8618SOL    HW137316   2.126   2.361   3.538  0.3865 -0.7668 -1.0673
 8618SOL    HW237317   2.222   2.392   3.634 -1.2370  1.0700 -0.3813
 8619SOL     OW37318   2.205   1.683   2.510  0.1380 -0.3385 -0.7655
 8619SOL    HW137319   2.143   1.658   2.579 -1.3698 -2.4237 -2.8647
 8619SOL    HW237320   2.283   1.663   2.560 -1.7673 -2.1445  1.4849
 8620SOL     OW37321   2.619   3.340   2.528 -0.3717  0.1793  0.1525
 8620SOL    HW137322   2.580   3.252   2.531  0.1334 -0.0042  1.3583
 8620SOL    HW237323   2.678   3.341   2.603  0.6293 -0.4043 -0.6383
 8621SOL     OW37324   3.401   4.621   9.824 -0.1991  0.0602 -0.1706
 8621SOL    HW137325   3.464   4.614   9.754  0.7124 -0.8873  0.7466
 8621SOL    HW237326   3.332   4.568   9.784  0.5747 -0.6247 -0.5955
 8622SOL     OW37327   3.462   1.017   3.292 -0.2521  0.1284  0.4351
 8622SOL    HW137328   3.485   1.110   3.283 -0.6380 -0.0385 -2.5451
 8622SOL    HW237329   3.484   0.990   3.203  1.4252  2.2326  0.1975
 8623SOL     OW37330   2.969   4.498   6.995 -0.4909 -0.5504 -0.3846
 8623SOL    HW137331   2.929   4.549   7.065  0.9193  1.2430 -0.8840
 8623SOL    HW237332   2.916   4.528   6.921 -0.4379 -0.3989 -0.3618
 8624SOL     OW37333   3.889   0.665   2.236  0.0563 -0.8236 -0.5080
 8624SOL    HW137334   3.934   0.638   2.316  0.7497 -0.4004 -0.7537
 8624SOL    HW237335   3.922   0.606   2.169  0.1840  1.4880 -2.4810
 8625SOL     OW37336   1.299   2.178  16.680 -0.4616  0.8585  0.0594
 8625SOL    HW137337   1.342   2.245  16.627 -0.9803  0.0964 -1.3283
 8625SOL    HW237338   1.222   2.222  16.716 -0.5796 -0.0328  0.8803
 8626SOL     OW37339   2.063   2.654   2.356 -0.5557  0.3586 -0.4704
 8626SOL    HW137340   2.095   2.680   2.442  0.2074  0.0309 -0.6533
 8626SOL    HW237341   1.971   2.671   2.375 -0.0303 -0.2153  2.5751
 8627SOL     OW37342   0.064   3.325   1.885  0.3988 -0.1728  0.4453
 8627SOL    HW137343   0.035   3.392   1.822  1.4981  0.4069  0.5481
 8627SOL    HW237344   0.157   3.326   1.860  0.3296 -0.7298  0.1592
 8628SOL     OW37345   3.378   1.608   0.280 -0.1602 -0.1349 -0.3820
 8628SOL    HW137346   3.394   1.575   0.192 -0.9949  1.8548 -1.2748
 8628SOL    HW237347   3.403   1.527   0.324 -2.1157 -0.1214  0.7521
 8629SOL     OW37348   0.758   1.948   5.441 -0.0878 -0.7762  0.1127
 8629SOL    HW137349   0.699   1.891   5.490 -1.3147  0.4544  0.0621
 8629SOL    HW237350   0.697   1.970   5.371  1.4096  0.4693 -0.8008
 8630SOL     OW37351   1.748   3.438  13.000  0.3447 -0.6071 -0.6526
 8630SOL    HW137352   1.655   3.434  13.018  0.8907 -0.9193  2.0559
 8630SOL    HW237353   1.747   3.444  12.904 -1.1914  1.4774 -0.4983
 8631SOL     OW37354   1.482   1.671   1.706 -0.3002 -0.4616  0.4846
 8631SOL    HW137355   1.554   1.653   1.766 -2.2331 -3.0637  2.0209
 8631SOL    HW237356   1.510   1.758   1.678 -0.4047 -0.3801  0.6356
 8632SOL     OW37357   1.471   2.220  14.897 -0.1427 -0.3326 -0.9359
 8632SOL    HW137358   1.376   2.207  14.890  0.0524 -1.3188 -1.7805
 8632SOL    HW237359   1.498   2.171  14.975 -0.0867  1.5717  0.2318
 8633SOL     OW37360   3.979   3.510  13.889  0.0771  0.0384 -0.9641
 8633SOL    HW137361   4.028   3.568  13.947 -3.7131 -0.0822  2.4225
 8633SOL    HW237362   3.971   3.563  13.810 -3.2596  2.3479  0.9045
 8634SOL     OW37363   1.943   0.023  15.354  0.0481 -0.7976 -0.4953
 8634SOL    HW137364   1.937   4.661  15.399 -0.6609  1.0786  2.9416
 8634SOL    HW237365   1.877   0.030  15.285 -1.4387  0.3540  1.0451
 8635SOL     OW37366   1.427   4.679   2.068  0.4243 -0.2899  0.0867
 8635SOL    HW137367   1.501   0.018   2.067  0.9334 -0.9246 -0.5663
 8635SOL    HW237368   1.360   0.013   2.029 -0.0878  0.0623  1.4733
 8636SOL     OW37369   3.601   3.293   4.431 -0.4649 -0.1178 -0.1359
 8636SOL    HW137370   3.578   3.225   4.495 -1.4166  1.4137  1.1463
 8636SOL    HW237371   3.683   3.330   4.465  0.8376 -2.7068 -0.3971
 8637SOL     OW37372   2.456   2.735  17.400  0.0527  0.2268 -0.3228
 8637SOL    HW137373   2.380   2.789  17.383 -1.6708 -1.8109  0.9602
 8637SOL    HW237374   2.408   2.652  17.407 -0.4310  0.5013 -0.4057
 8638SOL     OW37375   1.522   0.270   4.485  0.2951 -0.8019 -0.2490
 8638SOL    HW137376   1.518   0.323   4.565  1.5197 -1.8605  0.5015
 8638SOL    HW237377   1.512   0.182   4.520 -2.4754 -0.6465 -0.6270
 8639SOL     OW37378   0.138   1.541  13.750 -0.0188  0.4411 -0.0836
 8639SOL    HW137379   0.141   1.585  13.665  0.0708  0.4726 -0.0641
 8639SOL    HW237380   0.114   1.622  13.796 -0.4596  0.4007 -0.2425
 8640SOL     OW37381   4.646   1.526   4.326 -0.0080 -0.2001  0.6526
 8640SOL    HW137382   4.590   1.483   4.390 -0.2308  0.1141  0.6709
 8640SOL    HW237383   4.722   1.550   4.379 -1.0178 -1.1180  2.5145
 8641SOL     OW37384   4.344   0.957   2.315 -0.0356 -0.4697  0.4322
 8641SOL    HW137385   4.390   1.029   2.358  0.6231 -0.8263  0.3348
 8641SOL    HW237386   4.376   0.973   2.226 -1.8701  1.0809  0.0420
 8642SOL     OW37387   2.410   2.632   5.138 -0.3882 -0.1988 -0.1837
 8642SOL    HW137388   2.474   2.682   5.188 -1.7462  1.4067 -0.0779
 8642SOL    HW237389   2.422   2.690   5.063  0.9579 -0.2428 -0.0030
 8643SOL     OW37390   4.204   0.182   5.463 -0.1942 -0.3944 -0.1352
 8643SOL    HW137391   4.175   0.210   5.550 -0.0536  0.3909 -0.3411
 8643SOL    HW237392   4.127   0.203   5.411  0.2308 -0.9184 -0.9742
 8644SOL     OW37393   4.286   1.919   1.406  0.3405  0.5920  0.1586
 8644SOL    HW137394   4.347   1.925   1.480 -0.2721 -0.7409  0.7806
 8644SOL    HW237395   4.305   1.997   1.355 -3.3475 -0.1934 -2.4129
 8645SOL     OW37396   3.500   0.688   2.798  0.3066 -0.1967 -0.2256
 8645SOL    HW137397   3.420   0.651   2.762  0.4532 -2.1935  1.5229
 8645SOL    HW237398   3.509   0.631   2.874  2.0809  1.3217  0.7081
 8646SOL     OW37399   4.350   2.745  14.277 -0.2538  0.3351 -0.3544
 8646SOL    HW137400   4.354   2.836  14.248 -1.8014 -0.1561 -2.1153
 8646SOL    HW237401   4.315   2.754  14.366 -1.3561 -0.6537 -0.6882
 8647SOL     OW37402   2.476   0.214   4.581 -0.5713 -0.2488 -0.2571
 8647SOL    HW137403   2.556   0.204   4.529 -1.5489  1.7158 -2.1190
 8647SOL    HW237404   2.486   0.286   4.644  0.0482 -0.6054  0.0519
 8648SOL     OW37405   3.325   1.333  13.306  0.5068  0.1656 -0.8947
 8648SOL    HW137406   3.275   1.300  13.380  2.9728  1.1489  1.2093
 8648SOL    HW237407   3.406   1.359  13.350  0.4264 -1.0919  0.0102
 8649SOL     OW37408   2.826   1.385  14.814 -0.6477 -0.4187 -0.3108
 8649SOL    HW137409   2.761   1.455  14.824 -0.5790 -0.0106 -2.5324
 8649SOL    HW237410   2.901   1.436  14.844  0.5873 -2.2761 -0.2641
 8650SOL     OW37411   2.365   0.019  12.959  0.3295 -0.4004 -0.0265
 8650SOL    HW137412   2.399   0.106  12.980 -0.7285  0.7311 -2.9962
 8650SOL    HW237413   2.271   0.030  12.978  0.0370 -0.0159 -1.7118
 8651SOL     OW37414   3.820   2.997   4.823 -0.3132  0.1789 -0.7322
 8651SOL    HW137415   3.906   3.037   4.836  0.2571 -0.9505 -1.0551
 8651SOL    HW237416   3.827   2.949   4.741  3.0281 -0.8330  0.1509
 8652SOL     OW37417   2.822   1.162   7.556 -0.4861  0.4450 -0.2887
 8652SOL    HW137418   2.776   1.226   7.610  1.0131 -0.4463  2.0517
 8652SOL    HW237419   2.798   1.089   7.613 -1.7084  0.1016 -1.2434
 8653SOL     OW37420   2.350   0.184   2.925  0.3858  0.3907 -0.1077
 8653SOL    HW137421   2.399   0.105   2.899  2.6041  1.5288  0.5576
 8653SOL    HW237422   2.278   0.185   2.862 -1.0175  2.0078  1.5379
 8654SOL     OW37423   2.815   1.690  14.835 -0.1496  0.3370 -0.3737
 8654SOL    HW137424   2.904   1.725  14.829 -0.5321  0.9919 -2.2069
 8654SOL    HW237425   2.776   1.743  14.766 -0.1372 -0.6093 -1.1087
 8655SOL     OW37426   3.688   3.380   3.615  0.5281  0.4837 -0.4428
 8655SOL    HW137427   3.698   3.417   3.527  0.3231 -1.1209 -1.1453
 8655SOL    HW237428   3.593   3.365   3.611  0.5101 -0.0865  2.4910
 8656SOL     OW37429   1.180   2.950   5.426 -0.4336 -0.1003 -0.1975
 8656SOL    HW137430   1.179   3.038   5.387 -0.8304 -1.4011 -3.1590
 8656SOL    HW237431   1.238   2.964   5.501 -1.4927  1.0268  0.4109
 8657SOL     OW37432   1.958   0.785  10.172 -0.0332 -0.3205 -0.7919
 8657SOL    HW137433   1.907   0.709  10.145 -1.0989  0.5474 -1.2212
 8657SOL    HW237434   2.041   0.738  10.176 -1.2096 -2.1596  1.6065
 8658SOL     OW37435   3.899   4.381   6.877 -0.2751  0.0139 -0.3711
 8658SOL    HW137436   3.835   4.380   6.805  1.4442 -0.2479 -1.8909
 8658SOL    HW237437   3.875   4.452   6.936  0.8758 -0.8567  1.1154
 8659SOL     OW37438   4.538   4.379   8.881  0.2253 -0.6446  0.5934
 8659SOL    HW137439   4.594   4.385   8.804  1.5248  1.1805  1.6667
 8659SOL    HW237440   4.448   4.383   8.849 -0.2665  1.6190  2.2188
 8660SOL     OW37441   4.701   3.877  11.424 -0.0448  0.3464  0.5703
 8660SOL    HW137442   4.613   3.906  11.450 -1.4967 -1.8379 -1.7910
 8660SOL    HW237443   0.024   3.892  11.506  1.4455  0.1524 -0.2098
 8661SOL     OW37444   2.445   3.479  14.767 -0.3522 -0.2301 -0.4124
 8661SOL    HW137445   2.383   3.500  14.697  0.0224  0.8413 -0.4273
 8661SOL    HW237446   2.528   3.509  14.731 -0.4652 -0.2637 -0.6953
 8662SOL     OW37447   1.383   0.838   8.023  0.1067 -0.4466 -0.8052
 8662SOL    HW137448   1.464   0.882   7.996  1.4917 -2.8507 -0.5654
 8662SOL    HW237449   1.318   0.908   8.026  0.2163 -0.3624 -0.3925
 8663SOL     OW37450   1.301   2.570   6.048  0.1348 -0.0513 -0.0543
 8663SOL    HW137451   1.327   2.662   6.042 -0.6916  0.0801 -1.6345
 8663SOL    HW237452   1.252   2.552   5.968  0.9481 -1.6316 -0.2094
 8664SOL     OW37453   1.688   3.165   3.467 -0.4316 -0.0628 -0.4648
 8664SOL    HW137454   1.611   3.109   3.480  1.6132 -2.5601  1.0477
 8664SOL    HW237455   1.646   3.250   3.477 -0.9580 -0.5654  1.6669
 8665SOL     OW37456   2.107   0.287   2.026 -0.1501 -0.6006 -0.6062
 8665SOL    HW137457   2.130   0.339   1.949  0.3652 -1.0247 -0.7370
 8665SOL    HW237458   2.034   0.340   2.057  0.3010 -0.0479 -0.4979
 8666SOL     OW37459   1.515   2.915   7.950  0.0795  0.2114 -0.7936
 8666SOL    HW137460   1.552   3.001   7.930 -1.2171  1.1151  0.6826
 8666SOL    HW237461   1.549   2.872   7.872  3.6223 -1.4288  1.6339
 8667SOL     OW37462   4.115   1.065   1.737  0.7361 -0.0463 -0.6071
 8667SOL    HW137463   4.093   1.020   1.818 -0.6624  0.3395 -0.7709
 8667SOL    HW237464   4.059   1.016   1.676  1.0054 -1.2088  0.1022
 8668SOL     OW37465   3.352   0.917   2.688  0.8814 -0.0075  0.3673
 8668SOL    HW137466   3.391   1.003   2.703 -0.3604 -0.1711  4.5544
 8668SOL    HW237467   3.421   0.856   2.715 -0.6680 -0.8444  2.4914
 8669SOL     OW37468   2.815   1.237   2.226 -0.5479  0.3532 -0.1170
 8669SOL    HW137469   2.849   1.174   2.289 -2.0538 -1.6356 -1.3030
 8669SOL    HW237470   2.890   1.288   2.198  1.1645 -0.8164  2.3660
 8670SOL     OW37471   3.265   2.035   6.407  0.2754 -0.3992 -0.6016
 8670SOL    HW137472   3.285   2.121   6.445  0.4869 -0.2078 -1.1424
 8670SOL    HW237473   3.170   2.037   6.422  0.1161 -0.1356 -1.6352
 8671SOL     OW37474   0.328   2.491  15.015  0.5015 -0.3795 -0.0547
 8671SOL    HW137475   0.340   2.480  15.109  2.7700  3.3116  0.0631
 8671SOL    HW237476   0.240   2.459  14.998 -0.1590  1.3344  0.1602
 8672SOL     OW37477   4.482   0.898   1.439 -0.7517 -0.1291 -0.2597
 8672SOL    HW137478   4.445   0.938   1.361 -0.2915 -0.2348 -0.5341
 8672SOL    HW237479   4.571   0.932   1.433 -1.2457  1.1515 -0.3656
 8673SOL     OW37480   1.622   0.600   6.727 -0.2657 -0.0646  0.2236
 8673SOL    HW137481   1.552   0.664   6.741  0.0917  0.6679 -1.3438
 8673SOL    HW237482   1.688   0.635   6.787 -1.2276 -2.1202  2.4632
 8674SOL     OW37483   0.314   3.162  14.927  0.6196 -0.0995 -0.1110
 8674SOL    HW137484   0.245   3.222  14.957  0.8240 -0.1206  0.3961
 8674SOL    HW237485   0.316   3.095  14.996  0.3912 -0.1347 -0.1389
 8675SOL     OW37486   3.103   1.308  13.114 -0.4101  0.0616  0.1738
 8675SOL    HW137487   3.177   1.293  13.173 -2.3735 -0.2793  2.5375
 8675SOL    HW237488   3.147   1.328  13.031  1.9080 -0.0920  1.3776
 8676SOL     OW37489   1.752   3.384  16.787  0.0140  0.6021  0.1078
 8676SOL    HW137490   1.775   3.311  16.729  0.4701 -0.4293  1.5925
 8676SOL    HW237491   1.702   3.437  16.725  0.1914  0.1325 -0.4446
 8677SOL     OW37492   3.367   0.656   5.214 -0.5368 -0.2077  0.2165
 8677SOL    HW137493   3.344   0.695   5.129  0.0577 -2.9080 -1.1863
 8677SOL    HW237494   3.420   0.584   5.180  0.6262 -0.0657  1.7394
 8678SOL     OW37495   3.596   0.475  10.639  0.3063  0.1114  0.2157
 8678SOL    HW137496   3.600   0.452  10.547  1.2750  1.4535 -0.0588
 8678SOL    HW237497   3.507   0.444  10.655 -0.6222  4.0060  2.6180
 8679SOL     OW37498   2.044   0.827  13.666  0.2821 -0.0857  0.3195
 8679SOL    HW137499   1.986   0.858  13.736  0.4755 -0.2750  0.5648
 8679SOL    HW237500   1.995   0.856  13.589 -0.5965  0.1300  0.9647
 8680SOL     OW37501   1.288   1.744   1.152 -0.4894 -0.8108  0.1900
 8680SOL    HW137502   1.231   1.764   1.227  2.7356 -0.8116  2.6223
 8680SOL    HW237503   1.264   1.652   1.154 -1.3228 -0.5830  0.7908
 8681SOL     OW37504   2.094   2.576  10.601  0.1302 -0.0330  0.0933
 8681SOL    HW137505   2.173   2.628  10.618  0.2451 -0.3932  0.6575
 8681SOL    HW237506   2.111   2.527  10.521 -0.0877  0.4432 -0.2493
 8682SOL     OW37507   0.898   3.964   3.593 -0.1652 -0.3768  0.3712
 8682SOL    HW137508   0.915   3.914   3.672  0.7714  1.5482  1.3716
 8682SOL    HW237509   0.926   3.904   3.523  0.3626  1.0459 -0.6417
 8683SOL     OW37510   3.639   2.768   4.837 -0.1355 -0.0005  0.0903
 8683SOL    HW137511   3.675   2.691   4.793  0.8669  0.9115 -0.6669
 8683SOL    HW237512   3.713   2.828   4.843  1.5808 -2.0148 -0.7841
 8684SOL     OW37513   1.705   0.897  14.253 -0.0504  1.0423  0.2184
 8684SOL    HW137514   1.791   0.912  14.214 -1.1890 -0.5734 -2.9734
 8684SOL    HW237515   1.725   0.917  14.344 -1.8482 -4.1987  1.7362
 8685SOL     OW37516   1.730   0.363   5.893  0.7854  0.2560  0.1988
 8685SOL    HW137517   1.716   0.407   5.809  1.0035  1.4557  0.8019
 8685SOL    HW237518   1.791   0.427   5.929 -0.5970  1.7871 -0.2224
 8686SOL     OW37519   4.386   3.455  11.262 -0.0695 -0.7257  0.3018
 8686SOL    HW137520   4.425   3.473  11.347 -1.1568  0.2442  0.5908
 8686SOL    HW237521   4.366   3.540  11.224 -1.8751 -1.3800 -0.2263
 8687SOL     OW37522   2.810   0.930   4.426 -0.6504  0.5264  0.0490
 8687SOL    HW137523   2.867   0.965   4.358  0.3227 -0.7773  0.2088
 8687SOL    HW237524   2.849   0.843   4.429 -2.5643 -0.3350  0.3522
 8688SOL     OW37525   2.525   3.837   3.771  0.5657 -0.2115 -0.0936
 8688SOL    HW137526   2.435   3.861   3.746  0.4132 -1.6238 -0.8920
 8688SOL    HW237527   2.536   3.879   3.856 -0.6070 -2.8144  1.3244
 8689SOL     OW37528   1.623   3.418   0.812  0.3824 -0.0057 -0.2894
 8689SOL    HW137529   1.675   3.351   0.855  0.9256  0.5525 -0.0701
 8689SOL    HW237530   1.682   3.442   0.741 -1.0014 -0.7245 -1.6923
 8690SOL     OW37531   1.352   3.173   0.929 -0.3438 -0.0226 -0.2450
 8690SOL    HW137532   1.329   3.141   0.842  1.7049 -1.9086 -0.0870
 8690SOL    HW237533   1.386   3.260   0.904 -0.7917 -0.0147 -0.8263
 8691SOL     OW37534   4.381   3.391  10.882 -0.7521 -0.0624  0.2022
 8691SOL    HW137535   4.452   3.447  10.916 -0.6212  2.0413 -3.5338
 8691SOL    HW237536   4.404   3.306  10.920  1.5745  0.3539 -0.2501
 8692SOL     OW37537   1.845   2.317   8.745 -0.2900  0.1656 -0.0138
 8692SOL    HW137538   1.869   2.277   8.661  3.9866  0.3183  1.1551
 8692SOL    HW237539   1.835   2.241   8.802 -1.4467  1.4468  1.4943
 8693SOL     OW37540   0.691   4.149  16.539  0.5278  0.1755 -0.0399
 8693SOL    HW137541   0.716   4.127  16.629 -0.8545  1.5748  0.6817
 8693SOL    HW237542   0.670   4.242  16.550 -0.2662 -0.0443  0.2514
 8694SOL     OW37543   3.690   2.119   0.729 -0.6147 -0.5363 -0.0428
 8694SOL    HW137544   3.595   2.118   0.740 -0.9504  0.6851 -2.8934
 8694SOL    HW237545   3.705   2.114   0.824  0.4496  4.4745  0.0779
 8695SOL     OW37546   2.208   4.610   9.291  0.5943  0.1855  0.5075
 8695SOL    HW137547   2.244   4.684   9.242 -0.5726  1.0078  0.9098
 8695SOL    HW237548   2.263   4.637   9.365  4.7353 -2.8506 -1.4209
 8696SOL     OW37549   0.229   3.078  14.682  0.3949 -0.0546 -0.1156
 8696SOL    HW137550   0.236   3.174  14.678 -3.8584  0.2650  0.4275
 8696SOL    HW237551   0.224   3.070  14.777  4.1711  1.1642  0.1752
 8697SOL     OW37552   4.043   2.105   2.726  0.0060 -0.0668 -0.0423
 8697SOL    HW137553   4.127   2.151   2.733 -0.2021  0.5636 -1.7640
 8697SOL    HW237554   4.075   2.025   2.768 -0.7789 -1.0760 -1.3441
 8698SOL     OW37555   0.578   0.560  15.420 -0.2340 -0.3260 -0.9252
 8698SOL    HW137556   0.639   0.541  15.349 -0.6213 -2.2429 -0.7511
 8698SOL    HW237557   0.562   0.468  15.444  1.5761  0.1936  2.2651
 8699SOL     OW37558   1.596   0.167   7.202 -0.2852 -0.1692 -0.0175
 8699SOL    HW137559   1.691   0.153   7.195 -0.4271 -1.8879  1.4596
 8699SOL    HW237560   1.576   0.186   7.110 -0.3778  1.5423  0.3664
 8700SOL     OW37561   1.199   2.002  17.448 -0.9912 -0.1890 -0.6887
 8700SOL    HW137562   1.132   1.942  17.414 -0.3708 -1.3028  0.0298
 8700SOL    HW237563   1.221   1.964  17.534 -0.3934  0.1689 -0.6848
 8701SOL     OW37564   0.715   0.274   0.492  0.0459  0.1824  0.0464
 8701SOL    HW137565   0.698   0.254   0.584 -0.8860  0.0584 -0.1492
 8701SOL    HW237566   0.787   0.337   0.492 -2.7058  3.3789 -0.7431
 8702SOL     OW37567   0.148   3.259   5.816  0.2236 -0.6526 -0.3088
 8702SOL    HW137568   0.200   3.196   5.766  2.1137  0.7385 -0.1097
 8702SOL    HW237569   0.092   3.204   5.871  1.4633 -1.7159 -0.1258
 8703SOL     OW37570   3.783   1.216   4.471  0.1588  0.3247  0.0508
 8703SOL    HW137571   3.797   1.131   4.513 -1.5709  0.2185  0.4206
 8703SOL    HW237572   3.739   1.187   4.391 -0.4369  0.3312  0.3707
 8704SOL     OW37573   2.068   1.610  12.798 -0.0051 -0.3122 -0.1126
 8704SOL    HW137574   2.038   1.627  12.709 -1.1222 -1.1136  0.1017
 8704SOL    HW237575   2.151   1.657  12.793  0.2921 -0.6222  2.0749
 8705SOL     OW37576   3.789   3.706   2.689 -0.1463 -0.3672  0.3616
 8705SOL    HW137577   3.863   3.663   2.732  0.1575  0.3512  0.5645
 8705SOL    HW237578   3.808   3.692   2.596 -0.5259  1.7704 -0.0338
 8706SOL     OW37579   2.308   1.743   8.115 -0.0436  0.5249  0.9992
 8706SOL    HW137580   2.269   1.715   8.033 -1.2813 -0.1574  1.8129
 8706SOL    HW237581   2.356   1.818   8.082 -1.4600  1.3040  0.7058
 8707SOL     OW37582   1.007   1.107  14.356 -0.4358  0.1406  0.4139
 8707SOL    HW137583   1.036   1.049  14.426  0.4229 -0.0431 -0.0909
 8707SOL    HW237584   1.093   1.114  14.314 -0.8764 -0.6387 -0.6071
 8708SOL     OW37585   2.263   0.633   9.465 -0.2322 -0.2119 -0.0711
 8708SOL    HW137586   2.286   0.712   9.416 -0.4777  0.3513  0.7053
 8708SOL    HW237587   2.178   0.654   9.505  0.0211 -0.9931  0.8663
 8709SOL     OW37588   1.229   4.548   7.123 -0.4935 -0.0994  0.3336
 8709SOL    HW137589   1.310   4.591   7.152 -0.7703  1.3203 -1.0287
 8709SOL    HW237590   1.174   4.571   7.198 -2.1932 -0.2433 -0.8888
 8710SOL     OW37591   0.701   0.180  14.694  0.1452  0.0507  0.0746
 8710SOL    HW137592   0.626   0.132  14.660  0.0026  1.5124 -1.6667
 8710SOL    HW237593   0.693   0.258  14.640  0.5559  1.3184  1.8355
 8711SOL     OW37594   3.717   0.658  11.542 -0.0295  0.0370  0.3113
 8711SOL    HW137595   3.775   0.589  11.576 -1.7949 -1.9041 -0.6838
 8711SOL    HW237596   3.776   0.693  11.475  1.1128 -2.9985 -0.2708
 8712SOL     OW37597   3.631   2.040   6.074 -0.1199 -0.3326  0.0729
 8712SOL    HW137598   3.539   2.049   6.098 -0.1304  0.2316 -0.1750
 8712SOL    HW237599   3.663   1.975   6.137 -1.6908 -1.2723 -0.0969
 8713SOL     OW37600   2.334   1.269   2.885 -0.3901  0.1618  0.1139
 8713SOL    HW137601   2.370   1.357   2.884  0.3662 -0.1442  0.3986
 8713SOL    HW237602   2.356   1.230   2.800 -1.5800 -0.5707  0.1396
 8714SOL     OW37603   1.462   2.359   7.960  0.1170  0.1928  0.4910
 8714SOL    HW137604   1.442   2.268   7.937  0.3002  0.3248 -0.2003
 8714SOL    HW237605   1.442   2.354   8.053  1.8414  1.8495  0.9483
 8715SOL     OW37606   0.407   3.252  16.316 -0.0261 -0.0826  0.4106
 8715SOL    HW137607   0.411   3.157  16.314 -0.3120 -0.0781 -0.4068
 8715SOL    HW237608   0.502   3.265  16.308 -0.2957  2.8292  1.8380
 8716SOL     OW37609   2.076   1.369   6.367 -0.1809  0.0456  0.5605
 8716SOL    HW137610   2.038   1.433   6.307  1.4335  0.7056  0.2486
 8716SOL    HW237611   2.171   1.376   6.353 -0.5122  1.0485 -1.1657
 8717SOL     OW37612   2.815   3.796   2.064 -0.1572  0.6857  0.7307
 8717SOL    HW137613   2.780   3.753   1.987  0.5800  0.6932  0.3946
 8717SOL    HW237614   2.910   3.781   2.066 -0.7462 -2.9398  0.8057
 8718SOL     OW37615   2.662   0.818   7.089 -0.0280 -0.1109 -0.3227
 8718SOL    HW137616   2.623   0.780   7.167  2.4564 -2.9348 -0.4325
 8718SOL    HW237617   2.752   0.826   7.122  1.1939 -0.6859 -3.4616
 8719SOL     OW37618   4.665   0.358  12.768  0.0810 -0.2014  0.2900
 8719SOL    HW137619   4.618   0.441  12.761 -0.5573 -0.3896  2.4217
 8719SOL    HW237620   4.626   0.300  12.703  0.8268  1.6291 -1.7918
 8720SOL     OW37621   0.715   4.137  16.103  0.2285  0.5294 -0.2255
 8720SOL    HW137622   0.770   4.178  16.036  1.4963 -1.0130 -0.1178
 8720SOL    HW237623   0.667   4.071  16.054  0.1431  0.7219 -0.4018
 8721SOL     OW37624   1.923   2.136   5.313 -0.2779 -0.5298  0.2838
 8721SOL    HW137625   1.928   2.190   5.391 -0.8465 -1.0664  0.6885
 8721SOL    HW237626   1.967   2.197   5.253 -1.7169  0.1427 -0.0667
 8722SOL     OW37627   0.824   1.074   4.744 -0.2867  0.2236 -0.1985
 8722SOL    HW137628   0.844   1.043   4.832 -1.3084 -0.4880 -0.2165
 8722SOL    HW237629   0.751   1.135   4.759 -3.1668 -3.2092 -0.2806
 8723SOL     OW37630   1.734   0.468  11.545 -0.7525  0.2818  0.1566
 8723SOL    HW137631   1.643   0.489  11.565 -0.5270  1.4599 -0.0996
 8723SOL    HW237632   1.760   0.530  11.478  1.4209  0.6100  1.3012
 8724SOL     OW37633   3.416   4.686   2.419 -0.5716  0.0262  0.0480
 8724SOL    HW137634   3.347   4.662   2.481  0.2495 -0.0064  0.9573
 8724SOL    HW237635   3.376   4.670   2.334  0.4463 -0.0790 -0.4163
 8725SOL     OW37636   1.324   1.473   6.387  0.4975  0.1357  0.3480
 8725SOL    HW137637   1.370   1.531   6.327 -0.7680 -0.4055 -1.1649
 8725SOL    HW237638   1.387   1.410   6.422 -1.0812 -0.8512  1.4433
 8726SOL     OW37639   0.465   2.169  14.492 -0.0178 -0.0755  0.3540
 8726SOL    HW137640   0.381   2.188  14.450  0.4446  0.0057 -0.5411
 8726SOL    HW237641   0.451   2.084  14.533 -0.5661 -0.4330 -0.5593
 8727SOL     OW37642   1.016   1.994   4.770  0.0263 -0.3960  0.0642
 8727SOL    HW137643   0.922   1.992   4.790 -0.0728 -0.7979 -0.4525
 8727SOL    HW237644   1.063   1.989   4.853 -2.9299  2.4554  1.8860
 8728SOL     OW37645   1.724   0.839   4.819  0.3945  0.4248 -0.0598
 8728SOL    HW137646   1.667   0.903   4.777 -0.5364  0.9565  2.0049
 8728SOL    HW237647   1.754   0.800   4.737  1.4259 -0.1409  0.5828
 8729SOL     OW37648   1.610   3.281   5.647  0.0971 -0.0920 -0.2635
 8729SOL    HW137649   1.684   3.308   5.592 -1.1238  0.6199 -1.5601
 8729SOL    HW237650   1.626   3.186   5.645  0.3872 -0.0468 -0.1434
 8730SOL     OW37651   1.850   1.613   7.944  1.1879  0.0621 -0.3334
 8730SOL    HW137652   1.807   1.692   7.978  2.8436  0.8818 -0.1665
 8730SOL    HW237653   1.843   1.557   8.021  0.4592 -0.4098 -0.7375
 8731SOL     OW37654   2.757   2.070   7.839 -0.2247 -0.0403 -0.9041
 8731SOL    HW137655   2.843   2.108   7.820 -0.0254  0.3670  0.8252
 8731SOL    HW237656   2.731   2.129   7.910  1.3863 -0.8928  0.4081
 8732SOL     OW37657   4.484   4.693  14.428 -0.3480 -0.2898  0.1809
 8732SOL    HW137658   4.397   4.716  14.461  0.2060  0.7876  0.8776
 8732SOL    HW237659   4.548   0.017  14.482  1.7567 -0.0913 -2.4487
 8733SOL     OW37660   0.705   2.733  14.674  0.4305  0.2524  0.1078
 8733SOL    HW137661   0.632   2.778  14.632 -1.2482 -1.5432  1.0909
 8733SOL    HW237662   0.744   2.679  14.605  0.9617  0.7355  0.0274
 8734SOL     OW37663   1.501   2.131  14.047 -0.1790  0.0262  0.5553
 8734SOL    HW137664   1.457   2.177  14.118 -1.3611  0.3851 -0.4207
 8734SOL    HW237665   1.507   2.202  13.984  2.1044 -1.4969 -0.9525
 8735SOL     OW37666   2.808   2.377  13.045 -0.6662 -0.5164 -0.2819
 8735SOL    HW137667   2.867   2.332  12.984  0.2557  0.6696 -0.2530
 8735SOL    HW237668   2.727   2.384  12.994 -0.4198  0.5628 -0.5161
 8736SOL     OW37669   2.558   0.901   6.480 -0.0549  0.5606 -0.1600
 8736SOL    HW137670   2.502   0.939   6.548 -1.7627  0.3368 -1.4284
 8736SOL    HW237671   2.534   0.810   6.496  0.4499  0.5104  0.3085
 8737SOL     OW37672   4.069   2.656   6.731 -0.1294  0.0183  0.2025
 8737SOL    HW137673   3.991   2.600   6.733  1.7716 -2.6024 -0.2358
 8737SOL    HW237674   4.081   2.677   6.823  2.0170 -0.9517  0.1317
 8738SOL     OW37675   1.023   2.160   7.994 -0.0188 -0.5949 -0.3447
 8738SOL    HW137676   1.092   2.131   8.053 -1.0110  0.0654  1.1314
 8738SOL    HW237677   1.061   2.149   7.907  0.5799  0.1801 -0.1863
 8739SOL     OW37678   2.983   3.593  11.437  0.2462 -0.3944  0.0052
 8739SOL    HW137679   2.934   3.537  11.378 -2.2776 -0.1639  1.8994
 8739SOL    HW237680   3.065   3.597  11.388  0.1591 -1.0012 -0.1871
 8740SOL     OW37681   3.613   1.283   1.014 -0.0178  0.0392 -0.0516
 8740SOL    HW137682   3.621   1.296   1.108 -1.3261 -1.1475  0.2273
 8740SOL    HW237683   3.548   1.351   0.996 -1.0405 -0.2807  2.4259
 8741SOL     OW37684   1.094   3.610   0.096 -0.1937  0.5381  0.3593
 8741SOL    HW137685   1.171   3.614   0.153 -0.6081 -0.3579  0.9852
 8741SOL    HW237686   1.037   3.679   0.130 -0.6306 -0.2507  1.2347
 8742SOL     OW37687   1.076   2.842   9.192 -0.2960 -0.2501 -0.6362
 8742SOL    HW137688   1.164   2.811   9.216  0.1517  1.1774 -0.4267
 8742SOL    HW237689   1.091   2.912   9.128 -0.6025 -0.4317 -0.9034
 8743SOL     OW37690   1.688   4.244   3.148  0.5767  0.5400  0.3073
 8743SOL    HW137691   1.737   4.327   3.150 -0.6693  1.2434  2.1984
 8743SOL    HW237692   1.753   4.187   3.106 -0.0113 -1.0402  1.5222
 8744SOL     OW37693   4.718   1.376   4.601 -0.4986  0.2513 -0.2311
 8744SOL    HW137694   4.633   1.419   4.588 -0.7997 -0.8259 -1.8937
 8744SOL    HW237695   0.041   1.447   4.647  0.2220  2.1363 -3.8179
 8745SOL     OW37696   3.533   2.182   8.573  0.5871 -0.0843  0.0644
 8745SOL    HW137697   3.524   2.109   8.511 -2.4033  0.1036  0.2584
 8745SOL    HW237698   3.567   2.134   8.649 -0.6537  0.0649  0.7213
 8746SOL     OW37699   2.152   3.474  14.037 -0.1458 -0.5906  0.4094
 8746SOL    HW137700   2.080   3.533  14.013  0.7195  0.2998  0.0032
 8746SOL    HW237701   2.126   3.409  13.972  1.0082 -0.3451 -0.2961
 8747SOL     OW37702   3.960   0.350  17.652 -0.0231  0.5437  0.2386
 8747SOL    HW137703   4.012   0.281   0.003 -2.4071 -2.3014 -1.5070
 8747SOL    HW237704   3.993   0.425   0.011 -1.5663  1.2739  0.1454
 8748SOL     OW37705   0.467   0.670   3.006  0.6726 -1.0259 -0.1528
 8748SOL    HW137706   0.473   0.765   3.005  0.3392 -1.0158 -1.5374
 8748SOL    HW237707   0.475   0.661   3.101  0.1174  0.9558  0.0703
 8749SOL     OW37708   3.708   3.659   4.644  0.1890 -0.4595 -0.2238
 8749SOL    HW137709   3.634   3.697   4.597 -0.4584  0.2714  1.3669
 8749SOL    HW237710   3.693   3.678   4.737  0.4744  2.4777 -0.7612
 8750SOL     OW37711   1.616   4.432  15.813  0.0739 -0.2308  0.6382
 8750SOL    HW137712   1.581   4.364  15.870  0.2153  0.2595  1.3039
 8750SOL    HW237713   1.699   4.397  15.782  0.2980  2.0915 -1.4697
 8751SOL     OW37714   3.604   1.505  15.553  0.3616  0.1678  0.1197
 8751SOL    HW137715   3.572   1.480  15.640  1.9724  0.3006  0.7523
 8751SOL    HW237716   3.603   1.600  15.564 -1.2268  0.2602 -0.8373
 8752SOL     OW37717   3.132   3.787   0.392 -0.2882 -0.0355 -0.2933
 8752SOL    HW137718   3.198   3.808   0.458  0.3640 -0.4283 -0.8253
 8752SOL    HW237719   3.088   3.871   0.377 -0.1562  0.2299  0.8187
 8753SOL     OW37720   1.264   4.575   4.837 -0.2148 -0.2789  0.1935
 8753SOL    HW137721   1.202   4.525   4.889 -0.7932 -0.1667 -0.3914
 8753SOL    HW237722   1.345   4.526   4.848  0.2331  0.0676 -1.6093
 8754SOL     OW37723   3.806   1.266   9.908 -0.4324 -0.0894 -0.0324
 8754SOL    HW137724   3.805   1.355   9.874 -0.9834 -0.6088 -1.4033
 8754SOL    HW237725   3.900   1.255   9.919 -0.3823  0.7677  0.4235
 8755SOL     OW37726   0.440   2.786   2.424  0.0998 -0.4391  0.4431
 8755SOL    HW137727   0.452   2.734   2.504  0.4086 -0.5788  0.3036
 8755SOL    HW237728   0.410   2.719   2.363  3.0699  0.0130 -1.4730
 8756SOL     OW37729   4.494   4.720   3.503 -0.6214 -0.4654  0.2119
 8756SOL    HW137730   4.539   4.645   3.542  0.0826  0.3403  0.9397
 8756SOL    HW237731   4.568   0.044   3.463 -0.3954  0.2169  1.4113
 8757SOL     OW37732   4.721   4.038  14.348  0.3858  0.1226 -0.3228
 8757SOL    HW137733   4.641   3.988  14.334 -1.3547  2.5580  0.8703
 8757SOL    HW237734   0.025   4.071  14.262 -1.5631  1.9825 -0.2100
 8758SOL     OW37735   3.110   4.661   9.379 -0.2195  0.0230  0.2375
 8758SOL    HW137736   3.078   0.015   9.330  0.6485 -0.4972 -1.1330
 8758SOL    HW237737   3.195   4.693   9.409 -0.0933  0.9488 -1.1023
 8759SOL     OW37738   4.663   2.430   0.774  0.1934  0.3257 -0.0528
 8759SOL    HW137739   4.707   2.505   0.814 -2.2176  0.6909  1.9372
 8759SOL    HW237740   4.692   2.443   0.684 -0.0265 -1.1328 -0.3329
 8760SOL     OW37741   1.998   0.257  14.484 -0.1564  0.3913  0.1742
 8760SOL    HW137742   2.057   0.251  14.408  1.0448 -1.8905  1.2963
 8760SOL    HW237743   1.920   0.233  14.435  0.2874 -0.5281 -0.0670
 8761SOL     OW37744   0.770   1.893   1.326  0.3385  0.0734 -0.3469
 8761SOL    HW137745   0.805   1.807   1.303  0.8812  0.1271  0.2637
 8761SOL    HW237746   0.834   1.953   1.288 -0.0684 -1.0958 -2.8762
 8762SOL     OW37747   0.229   2.339  10.136 -0.0944  0.4181  0.6078
 8762SOL    HW137748   0.137   2.314  10.141  0.3097 -0.4314  3.8976
 8762SOL    HW237749   0.207   2.428  10.162  0.5815  0.4752  1.0052
 8763SOL     OW37750   4.498   3.949  12.382 -0.1697  0.0701  0.1390
 8763SOL    HW137751   4.561   3.885  12.348 -0.1015  0.9264 -1.3558
 8763SOL    HW237752   4.560   3.997  12.438 -0.8329  1.6271 -0.4546
 8764SOL     OW37753   3.383   3.678   7.581 -0.0117 -0.8067 -0.1595
 8764SOL    HW137754   3.325   3.723   7.643  0.5924  0.3720 -0.4432
 8764SOL    HW237755   3.428   3.754   7.544 -0.1681 -0.2906  0.7083
 8765SOL     OW37756   0.334   1.836  13.124 -0.0261  0.1746  0.3660
 8765SOL    HW137757   0.369   1.896  13.059  1.5008 -3.2687 -1.9353
 8765SOL    HW237758   0.374   1.755  13.095  0.6203  0.6628 -0.1099
 8766SOL     OW37759   4.471   0.680   7.516  0.3242  0.4593 -0.1008
 8766SOL    HW137760   4.389   0.730   7.513 -0.8052 -1.4677 -1.5635
 8766SOL    HW237761   4.533   0.749   7.538  0.2545  1.2956 -2.5674
 8767SOL     OW37762   1.536   2.702   4.197  0.1608 -0.4628 -0.0778
 8767SOL    HW137763   1.572   2.697   4.109  0.0699 -0.9777 -0.0831
 8767SOL    HW237764   1.524   2.797   4.196  0.4817 -0.4272 -1.0854
 8768SOL     OW37765   0.151   1.583   4.489  0.3704  0.4965 -0.0036
 8768SOL    HW137766   0.217   1.564   4.422  1.1012 -0.0635  0.8808
 8768SOL    HW237767   0.177   1.673   4.508 -2.5047  1.7177 -1.9541
 8769SOL     OW37768   3.639   3.105   3.302 -0.2377  0.3789  0.4283
 8769SOL    HW137769   3.584   3.181   3.320 -1.8043 -0.2670 -1.5452
 8769SOL    HW237770   3.577   3.055   3.249  3.1840 -0.5241 -2.7064
 8770SOL     OW37771   3.282   2.977   1.951  0.1432  0.2652 -0.8202
 8770SOL    HW137772   3.327   2.978   1.867  3.1126 -1.8709  0.7148
 8770SOL    HW237773   3.306   3.061   1.991  0.2314  1.5342 -3.5804
 8771SOL     OW37774   4.332   4.470   8.365  0.0073  0.6911  0.4313
 8771SOL    HW137775   4.327   4.566   8.366  1.8690  0.8004 -0.5896
 8771SOL    HW237776   4.286   4.463   8.281  1.5985  0.9403 -0.4626
 8772SOL     OW37777   4.454   2.096  14.407  0.0810 -0.0664 -0.3561
 8772SOL    HW137778   4.396   2.116  14.333 -0.0377  1.9145  0.2751
 8772SOL    HW237779   4.537   2.099  14.359 -0.7367  0.8213 -1.7420
 8773SOL     OW37780   0.543   2.132  17.075 -0.6537  0.1630  0.1595
 8773SOL    HW137781   0.609   2.099  17.014  0.7089  0.3878  1.4825
 8773SOL    HW237782   0.486   2.056  17.085  1.1729 -1.3758 -0.9826
 8774SOL     OW37783   3.053   0.089   5.275  0.3710 -0.2288 -0.3230
 8774SOL    HW137784   3.052   0.011   5.221  4.2458 -0.0430 -0.6765
 8774SOL    HW237785   2.959   0.101   5.287  0.2320 -0.8751 -0.8236
 8775SOL     OW37786   3.247   4.551  11.993  0.3965  0.1403  0.8582
 8775SOL    HW137787   3.263   4.629  12.047  2.5990 -0.8535  1.6674
 8775SOL    HW237788   3.316   4.489  12.018 -1.8233 -1.4388  3.1234
 8776SOL     OW37789   3.643   3.506   7.439  0.5492 -0.4831 -0.0635
 8776SOL    HW137790   3.680   3.429   7.481  0.5043 -0.2394  0.4228
 8776SOL    HW237791   3.707   3.567   7.477 -0.1883  1.2815 -1.6742
 8777SOL     OW37792   0.528   2.132   5.320 -0.6194  0.5780  0.2732
 8777SOL    HW137793   0.435   2.117   5.340 -1.0966  1.9867 -0.8700
 8777SOL    HW237794   0.553   2.135   5.412  0.3389  0.1987  0.0179
 8778SOL     OW37795   4.502   1.274   3.929  0.4820 -0.0128  0.0810
 8778SOL    HW137796   4.551   1.272   3.847 -0.6121 -2.6385 -0.4987
 8778SOL    HW237797   4.511   1.366   3.953  2.8172 -0.5486  1.2960
 8779SOL     OW37798   0.343   0.671   5.255 -0.5868 -0.2886 -0.5451
 8779SOL    HW137799   0.404   0.744   5.261  0.2113 -0.7890 -2.5763
 8779SOL    HW237800   0.402   0.597   5.272  0.4902  0.0743 -2.7887
 8780SOL     OW37801   1.184   1.307   7.974  0.1264 -0.2232 -0.0173
 8780SOL    HW137802   1.168   1.262   8.057  1.6930 -1.9805 -0.6787
 8780SOL    HW237803   1.101   1.350   7.952  0.5088  0.6895  0.3060
 8781SOL     OW37804   4.424   2.518   5.022  0.0342 -0.0008  0.2210
 8781SOL    HW137805   4.376   2.600   5.010 -0.6176 -0.2245  1.2525
 8781SOL    HW237806   4.500   2.554   5.067  0.1577 -2.0013  1.6006
 8782SOL     OW37807   3.269   2.691   6.558  0.3669 -0.1466  0.1077
 8782SOL    HW137808   3.244   2.777   6.593  2.1000  1.0562 -1.5581
 8782SOL    HW237809   3.363   2.708   6.546 -0.0170 -0.3437 -3.1472
 8783SOL     OW37810   1.133   2.615  10.287 -0.1374 -0.3121 -0.1229
 8783SOL    HW137811   1.083   2.534  10.293 -0.8105  0.1098  0.0229
 8783SOL    HW237812   1.172   2.603  10.373 -2.1701 -0.4148  0.7993
 8784SOL     OW37813   0.939   2.271  17.045  0.5572 -0.0205  0.1873
 8784SOL    HW137814   0.961   2.329  16.972 -1.2243  1.1304  0.5739
 8784SOL    HW237815   0.843   2.274  17.044  0.5070 -1.6652 -1.9298
 8785SOL     OW37816   1.824   4.383   5.903 -0.2300 -0.5603  0.1804
 8785SOL    HW137817   1.751   4.440   5.927  0.9634  0.8283  0.5178
 8785SOL    HW237818   1.814   4.330   5.981 -1.0803  1.6559  1.5829
 8786SOL     OW37819   2.649   4.627   7.686 -0.1351 -0.7115  0.0187
 8786SOL    HW137820   2.566   4.597   7.722 -0.7536  4.0826  2.5506
 8786SOL    HW237821   2.715   4.579   7.738 -0.2331 -0.6344  0.2150
 8787SOL     OW37822   0.028   0.563   8.597  0.2964  0.0859 -0.2290
 8787SOL    HW137823   0.011   0.577   8.690 -1.0138 -0.6216 -0.3666
 8787SOL    HW237824   0.097   0.498   8.588 -0.6688 -1.2631  2.0575
 8788SOL     OW37825   3.221   0.026   4.335 -0.0111 -0.0618  0.3779
 8788SOL    HW137826   3.293   0.047   4.395  0.0384 -0.2200  0.3729
 8788SOL    HW237827   3.267   4.700   4.266 -0.5012  1.0758 -0.7347
 8789SOL     OW37828   4.090   3.060   6.132  0.1221 -0.7333 -0.3348
 8789SOL    HW137829   4.126   3.104   6.209  1.9642 -2.8253  0.0095
 8789SOL    HW237830   4.075   2.971   6.164 -0.5817 -0.5721 -0.2091
 8790SOL     OW37831   1.886   3.082  14.958 -0.2196  0.0568  0.1228
 8790SOL    HW137832   1.969   3.074  15.006 -0.4346  0.2018  0.5228
 8790SOL    HW237833   1.886   3.012  14.894  2.8668 -0.2690  0.4958
 8791SOL     OW37834   1.073   2.337  16.740  0.6756  0.1202  0.5383
 8791SOL    HW137835   1.099   2.372  16.825  0.0301 -0.1776  0.8576
 8791SOL    HW237836   0.996   2.393  16.731  1.2060  0.5966 -1.0993
 8792SOL     OW37837   2.774   0.153  14.237 -0.7640 -0.0941 -0.1200
 8792SOL    HW137838   2.762   0.248  14.227 -2.0295 -0.1528  0.7349
 8792SOL    HW237839   2.868   0.142  14.250 -0.5188  1.4389 -0.6374
 8793SOL     OW37840   1.654   1.980   2.665  0.6265  0.1981  0.1304
 8793SOL    HW137841   1.621   2.028   2.589 -0.8756  0.0376  0.6647
 8793SOL    HW237842   1.647   1.889   2.637 -1.0607  0.1115  0.8176
 8794SOL     OW37843   2.607   4.143  14.480 -0.4177 -0.0928 -0.0030
 8794SOL    HW137844   2.590   4.049  14.490  0.1436 -0.2141 -0.1800
 8794SOL    HW237845   2.701   4.147  14.496 -0.4657 -1.5612  0.7164
 8795SOL     OW37846   2.787   3.204   3.826 -0.1416 -0.1309 -0.2956
 8795SOL    HW137847   2.811   3.268   3.759  1.3855 -0.9923 -0.5528
 8795SOL    HW237848   2.843   3.131   3.802 -0.7237 -1.1176  1.3558
 8796SOL     OW37849   0.334   2.081  15.345 -0.0977  0.2319 -0.4604
 8796SOL    HW137850   0.341   2.024  15.421 -1.1777  2.8393  1.5819
 8796SOL    HW237851   0.340   2.165  15.391  2.6440 -1.3903  2.1123
 8797SOL     OW37852   4.416   1.520   7.452 -0.2221  0.0786  0.6896
 8797SOL    HW137853   4.442   1.574   7.378 -1.7691 -0.0981  0.0160
 8797SOL    HW237854   4.366   1.453   7.405 -2.7869  1.2243  1.7247
 8798SOL     OW37855   0.379   0.500   1.406  0.2595 -0.4531 -0.3451
 8798SOL    HW137856   0.309   0.441   1.380  1.1287 -1.0947 -1.2337
 8798SOL    HW237857   0.443   0.435   1.436 -1.5700 -1.3457  1.6290
 8799SOL     OW37858   3.312   2.934  13.213 -0.1171 -0.1448  0.6012
 8799SOL    HW137859   3.404   2.910  13.196  0.5831  2.3922  0.8915
 8799SOL    HW237860   3.270   2.911  13.130  0.7430  0.4025  0.0095
 8800SOL     OW37861   4.298   3.798   3.335  0.1886  0.2440 -0.1706
 8800SOL    HW137862   4.274   3.888   3.355  0.7352 -0.6058  4.4040
 8800SOL    HW237863   4.321   3.774   3.425 -0.4967 -0.7462 -0.2603
 8801SOL     OW37864   3.951   2.408   1.111 -0.6515 -0.0610 -0.4557
 8801SOL    HW137865   3.876   2.412   1.170 -0.5530  0.3401 -0.3516
 8801SOL    HW237866   3.951   2.496   1.071 -1.1479 -0.7646 -1.9949
 8802SOL     OW37867   1.133   3.070   4.470 -0.3498  0.1414 -0.6020
 8802SOL    HW137868   1.216   3.024   4.470 -1.4044 -1.7085  1.1011
 8802SOL    HW237869   1.148   3.145   4.528 -0.2543 -0.0040 -0.4397
 8803SOL     OW37870   0.488   0.396   6.611  0.2297  0.1344  0.1745
 8803SOL    HW137871   0.490   0.333   6.539  0.2061 -1.7547  1.8013
 8803SOL    HW237872   0.580   0.388   6.637  0.5778  0.3407 -1.0026
 8804SOL     OW37873   2.666   0.319   7.254 -0.1362  0.1410  0.0293
 8804SOL    HW137874   2.583   0.354   7.287  0.4547  2.1006 -0.5952
 8804SOL    HW237875   2.635   0.262   7.184  0.7098  0.8078 -0.8768
 8805SOL     OW37876   4.678   3.087   1.677 -0.1689 -0.0974 -0.2283
 8805SOL    HW137877   0.005   3.094   1.595  0.7831  0.1338  0.3669
 8805SOL    HW237878   4.707   3.167   1.721  1.5397 -2.0449  2.1847
 8806SOL     OW37879   3.860   3.081  13.356  0.0255 -0.0210 -0.0876
 8806SOL    HW137880   3.900   3.082  13.269 -0.2954 -1.9732 -0.2462
 8806SOL    HW237881   3.936   3.110  13.406  0.4778 -0.3901 -0.5587
 8807SOL     OW37882   0.927   2.244  11.962  0.8172 -0.5147  0.4214
 8807SOL    HW137883   0.945   2.271  11.872 -0.6189  0.7095  0.5115
 8807SOL    HW237884   0.867   2.171  11.948 -0.4956  0.8709 -1.2087
 8808SOL     OW37885   4.590   3.283   7.677  1.1538  0.2281 -0.2418
 8808SOL    HW137886   4.609   3.373   7.654  1.7221  1.0113  3.2192
 8808SOL    HW237887   4.623   3.277   7.767 -0.9352  0.4154  0.5491
 8809SOL     OW37888   2.447   3.581   7.485 -0.4104 -0.4230  0.5587
 8809SOL    HW137889   2.459   3.676   7.491 -1.9103 -0.4073  3.4648
 8809SOL    HW237890   2.458   3.567   7.391 -1.5283  3.9587 -0.2283
 8810SOL     OW37891   3.446   3.389  10.138 -0.3375  0.2390  0.1460
 8810SOL    HW137892   3.365   3.361  10.181  0.2112 -1.5443  0.0164
 8810SOL    HW237893   3.464   3.313  10.082 -0.0369  1.0652 -0.8699
 8811SOL     OW37894   0.069   3.079   3.803  0.4224 -0.0607 -0.1174
 8811SOL    HW137895   0.035   3.152   3.750 -1.3089  0.1353  1.2681
 8811SOL    HW237896   0.133   3.039   3.745 -0.3524  0.5065 -1.3739
 8812SOL     OW37897   3.152   4.026   3.983  0.5440  0.1570 -0.0656
 8812SOL    HW137898   3.150   4.099   3.922 -0.5103  0.3693  0.2399
 8812SOL    HW237899   3.114   3.952   3.935  1.7429 -0.6128  0.1402
 8813SOL     OW37900   1.453   4.367   2.109  0.5536 -0.0874  0.0762
 8813SOL    HW137901   1.436   4.460   2.096 -2.3523 -0.8256 -1.4935
 8813SOL    HW237902   1.538   4.370   2.067  0.7440 -2.2693  0.2826
 8814SOL     OW37903   1.867   1.918   8.328 -0.3082  0.8665 -0.6914
 8814SOL    HW137904   1.948   1.869   8.316 -2.0680 -1.6242 -2.4064
 8814SOL    HW237905   1.880   2.010   8.304  0.8732  1.2776  1.5276
 8815SOL     OW37906   4.142   0.868   5.537 -0.1144  0.1320 -0.1816
 8815SOL    HW137907   4.121   0.778   5.516 -1.6796  0.1675  1.2505
 8815SOL    HW237908   4.237   0.875   5.525 -0.3990  1.5032 -1.7330
 8816SOL     OW37909   2.280   2.034   3.289 -0.2272 -0.2023 -0.4972
 8816SOL    HW137910   2.205   1.983   3.318  0.4851 -0.8537  0.1663
 8816SOL    HW237911   2.304   1.999   3.203  0.5226 -1.7096  0.3453
 8817SOL     OW37912   0.507   1.425   5.534 -0.2010 -0.0801  0.2260
 8817SOL    HW137913   0.602   1.416   5.525 -0.2706  1.8458 -2.3831
 8817SOL    HW237914   0.481   1.499   5.479  0.1122 -0.5028 -0.4976
 8818SOL     OW37915   0.101   2.386   7.461 -0.4005 -0.4862  0.5407
 8818SOL    HW137916   0.142   2.300   7.457 -1.0715 -0.6489 -2.8889
 8818SOL    HW237917   0.012   2.373   7.493 -0.7668  0.4243 -0.1010
 8819SOL     OW37918   2.746   4.608   3.665 -0.0124 -0.0209 -0.2483
 8819SOL    HW137919   2.781   4.539   3.610  0.8736  0.2650 -0.0314
 8819SOL    HW237920   2.704   4.557   3.735 -1.6689 -1.8132 -2.5579
 8820SOL     OW37921   3.401   3.090   6.269 -0.1302  0.1002  0.0022
 8820SOL    HW137922   3.364   3.141   6.197 -1.3815  0.0082  0.5780
 8820SOL    HW237923   3.482   3.067   6.222 -1.2204 -1.5611 -1.0401
 8821SOL     OW37924   2.663   1.001  16.949 -0.5020 -0.1947  0.4006
 8821SOL    HW137925   2.637   0.909  16.950  2.1550 -0.9502  1.0858
 8821SOL    HW237926   2.592   1.038  16.896  1.5917  0.0644 -2.2598
 8822SOL     OW37927   3.617   0.034   7.895  0.3429 -0.4915 -0.0850
 8822SOL    HW137928   3.533   4.719   7.923  0.9955 -0.9515  1.2511
 8822SOL    HW237929   3.623   0.123   7.929 -0.6618 -0.5894  0.3646
 8823SOL     OW37930   4.184   1.143   5.726 -0.4130  0.4017  0.2027
 8823SOL    HW137931   4.196   1.088   5.648  1.0570 -0.2847  0.9179
 8823SOL    HW237932   4.240   1.216   5.700  0.4690  0.2356  1.6349
 8824SOL     OW37933   3.096   1.152   6.908  0.3010  0.3173  0.5586
 8824SOL    HW137934   3.149   1.097   6.966 -0.5965 -0.2877  0.8034
 8824SOL    HW237935   3.124   1.113   6.825  0.4217  0.5645  0.4845
 8825SOL     OW37936   3.164   1.381  15.240  0.1044 -0.3128 -0.3708
 8825SOL    HW137937   3.097   1.450  15.243  0.7591  0.2265  1.7290
 8825SOL    HW237938   3.098   1.319  15.209 -1.7360  1.8433 -0.8045
 8826SOL     OW37939   2.259   3.447  12.515 -0.4763  0.4610  0.0656
 8826SOL    HW137940   2.274   3.367  12.566  0.2692  0.2574 -0.4657
 8826SOL    HW237941   2.344   3.464  12.474 -1.0489 -1.1507 -1.7810
 8827SOL     OW37942   1.330   3.445   6.538  0.3361  0.3167  0.3830
 8827SOL    HW137943   1.346   3.498   6.616  1.1392  1.1078 -0.3239
 8827SOL    HW237944   1.236   3.432   6.551  0.3570 -0.2566 -0.0207
 8828SOL     OW37945   4.426   0.177   4.235  0.3341 -0.5095 -0.2454
 8828SOL    HW137946   4.466   0.263   4.230 -0.6994  0.0189  0.4619
 8828SOL    HW237947   4.505   0.126   4.253 -1.1364 -1.2347  4.2851
 8829SOL     OW37948   0.409   3.258   3.641 -0.6753 -0.3553  0.1884
 8829SOL    HW137949   0.424   3.289   3.730  2.8370  0.4062 -0.6934
 8829SOL    HW237950   0.413   3.334   3.584  0.6906 -1.5811 -1.3472
 8830SOL     OW37951   4.354   3.806   8.470  0.3192  0.5313  0.0081
 8830SOL    HW137952   4.292   3.755   8.417 -2.9345  4.1273  0.3060
 8830SOL    HW237953   4.393   3.854   8.398  0.1894 -0.4325 -0.7094
 8831SOL     OW37954   3.647   4.212   5.327 -0.1516 -0.6823 -0.1623
 8831SOL    HW137955   3.730   4.204   5.280 -0.1878  0.3937 -0.4157
 8831SOL    HW237956   3.592   4.266   5.271  2.7791  2.6377  0.1357
 8832SOL     OW37957   0.008   4.540   1.563  0.0752 -0.4801  0.1513
 8832SOL    HW137958   0.084   4.484   1.550 -0.2127 -0.8597  0.1255
 8832SOL    HW237959   0.033   4.627   1.532 -0.1690  0.7056  3.2611
 8833SOL     OW37960   2.361   4.683   7.988  0.2786 -0.2263  0.4015
 8833SOL    HW137961   2.364   0.053   8.011 -2.8524  0.4580 -1.9754
 8833SOL    HW237962   2.386   4.644   8.072 -0.2976  1.4205  1.3166
 8834SOL     OW37963   3.035   4.475  17.160 -0.4899 -0.5181  0.3966
 8834SOL    HW137964   3.123   4.463  17.197  0.3832  2.4161 -0.7578
 8834SOL    HW237965   3.029   4.570  17.167  2.3779 -0.1701 -1.7121
 8835SOL     OW37966   2.974   4.285   4.649 -0.1577 -0.1212 -0.4926
 8835SOL    HW137967   2.950   4.198   4.681  0.6400 -0.7276 -1.5263
 8835SOL    HW237968   3.009   4.269   4.561 -0.0432  2.0294 -0.8477
 8836SOL     OW37969   3.909   2.068   3.675  0.4102  0.3228  0.5216
 8836SOL    HW137970   3.932   2.100   3.588 -0.7123 -1.8377 -0.5860
 8836SOL    HW237971   3.992   2.058   3.723  1.1521 -1.3811 -1.1113
 8837SOL     OW37972   0.622   3.471   5.482  0.2495  0.4351 -0.3158
 8837SOL    HW137973   0.619   3.375   5.479  0.4289  0.4377 -0.5195
 8837SOL    HW237974   0.541   3.481   5.532  0.3151  0.0850 -0.1373
 8838SOL     OW37975   3.211   1.755  15.066 -0.1047  0.3692  0.0169
 8838SOL    HW137976   3.270   1.682  15.047  0.6508  0.3311  2.4177
 8838SOL    HW237977   3.156   1.704  15.127  0.3772 -1.5029 -1.1011
 8839SOL     OW37978   0.398   2.743   4.750  0.1464  0.7202 -0.0531
 8839SOL    HW137979   0.429   2.728   4.661 -0.9455 -1.7715 -0.0261
 8839SOL    HW237980   0.416   2.658   4.790  0.7631  0.9437  0.1398
 8840SOL     OW37981   0.060   3.374   3.022  0.1155 -0.4677  0.1374
 8840SOL    HW137982   4.690   3.377   2.996 -0.0294  0.3293  0.7561
 8840SOL    HW237983   0.114   3.386   2.944 -0.1499 -1.2384 -0.1698
 8841SOL     OW37984   4.699   4.222   4.402  0.5473  0.3506 -0.2377
 8841SOL    HW137985   0.009   4.275   4.475  0.4283 -0.3050  0.2896
 8841SOL    HW237986   4.674   4.290   4.340 -0.2081  1.1497  0.9411
 8842SOL     OW37987   4.502   0.038   7.902  0.4007  0.0892 -0.0972
 8842SOL    HW137988   4.518   4.715   7.819 -0.0362  0.2424 -0.2650
 8842SOL    HW237989   4.591   0.069   7.920  0.2945  0.1642  0.3009
 8843SOL     OW37990   0.550   3.964   5.808  0.1268 -0.1546  0.4819
 8843SOL    HW137991   0.621   3.929   5.754  0.4657  1.1682  0.0702
 8843SOL    HW237992   0.601   4.018   5.868  0.9215  0.7233 -0.9780
 8844SOL     OW37993   2.906   2.045   5.845  0.2684 -0.0920  0.0536
 8844SOL    HW137994   2.860   2.103   5.904  0.9259 -0.0762  0.5539
 8844SOL    HW237995   2.837   2.020   5.784  1.4887  0.4406 -1.5428
 8845SOL     OW37996   3.717   1.012   5.571  0.4590 -0.0029  0.2932
 8845SOL    HW137997   3.645   1.007   5.507 -1.5273  0.3854  2.5119
 8845SOL    HW237998   3.789   0.984   5.514  0.4375 -0.1460  0.3347
 8846SOL     OW37999   1.135   3.339  16.419  0.6962 -0.1787  0.1079
 8846SOL    HW138000   1.140   3.243  16.415 -0.9384 -0.1800 -1.9433
 8846SOL    HW238001   1.089   3.363  16.339  1.8554  1.5040 -0.0463
 8847SOL     OW38002   3.641   4.272   2.268 -0.4124  0.0853  0.1028
 8847SOL    HW138003   3.712   4.227   2.313  1.7214  2.1477 -1.1421
 8847SOL    HW238004   3.701   4.328   2.219 -1.1840  1.2252  0.4619
 8848SOL     OW38005   1.048   1.192   4.091 -0.3475  0.4077  0.0886
 8848SOL    HW138006   1.043   1.285   4.113  0.6930  0.5087 -0.0884
 8848SOL    HW238007   0.998   1.156   4.164  0.0036  0.5599  0.4053
 8849SOL     OW38008   0.430   3.821   3.777 -0.7889  0.4210 -0.5323
 8849SOL    HW138009   0.496   3.889   3.793 -1.2446  0.5641  0.7363
 8849SOL    HW238010   0.483   3.748   3.746 -2.8144 -0.5829 -1.6051
 8850SOL     OW38011   2.355   2.749   6.588 -0.2403 -0.1015 -0.0862
 8850SOL    HW138012   2.360   2.718   6.679 -0.7885 -0.3417 -0.1359
 8850SOL    HW238013   2.396   2.673   6.546  1.2842  0.9304 -0.4420
 8851SOL     OW38014   1.081   2.282  14.812 -0.3125  0.1408 -0.6204
 8851SOL    HW138015   1.087   2.301  14.906  0.7110  0.2397 -0.7083
 8851SOL    HW238016   1.151   2.337  14.777 -0.8069 -0.0607 -1.9330
 8852SOL     OW38017   2.822   3.061   1.240  0.6495 -0.3460 -0.3011
 8852SOL    HW138018   2.811   3.119   1.165  0.5882  1.6204  1.2192
 8852SOL    HW238019   2.738   3.060   1.287  1.0860  0.0224  0.4902
 8853SOL     OW38020   2.369   2.440   5.473 -0.7734  0.4516 -0.1128
 8853SOL    HW138021   2.454   2.397   5.472 -0.3932  1.2369 -1.5458
 8853SOL    HW238022   2.387   2.519   5.524  0.3037  1.7276 -2.4551
 8854SOL     OW38023   4.102   4.593   9.514 -0.1345  0.2820 -0.0963
 8854SOL    HW138024   4.138   4.681   9.504  0.6105 -0.0197 -0.0806
 8854SOL    HW238025   4.031   4.605   9.451 -1.2742 -0.1912  1.1198
 8855SOL     OW38026   2.176   4.336  15.335 -0.6568 -0.0616 -0.2021
 8855SOL    HW138027   2.267   4.325  15.305 -1.4236 -0.3328 -2.4367
 8855SOL    HW238028   2.200   4.348  15.427 -0.3198  2.5922 -0.6297
 8856SOL     OW38029   0.541   3.223   2.269  0.1567 -0.0413 -0.0763
 8856SOL    HW138030   0.627   3.257   2.292 -0.5632  1.2840  0.6885
 8856SOL    HW238031   0.520   3.180   2.352  0.4734  0.5313  0.3046
 8857SOL     OW38032   1.276   4.481   3.890 -0.3603  0.4728 -0.1011
 8857SOL    HW138033   1.212   4.419   3.924  2.0708 -1.9269  0.1271
 8857SOL    HW238034   1.306   4.511   3.976  0.7678  0.3183 -0.4368
 8858SOL     OW38035   3.433   0.404   5.150 -0.0877 -0.4167  0.1408
 8858SOL    HW138036   3.451   0.320   5.108 -1.9356 -1.0203  0.5460
 8858SOL    HW238037   3.474   0.394   5.235 -0.1508  2.8817  0.5743
 8859SOL     OW38038   1.057   3.019  14.143 -0.3827 -0.0915  0.1370
 8859SOL    HW138039   1.059   3.026  14.238  1.7273  0.6789  0.0434
 8859SOL    HW238040   1.040   3.112  14.128 -0.7825 -0.4035 -1.3127
 8860SOL     OW38041   3.807   4.611   8.051 -0.1629  0.4510  0.0672
 8860SOL    HW138042   3.876   4.676   8.068 -1.3919  1.5382  0.8492
 8860SOL    HW238043   3.748   4.670   8.005 -2.6810 -1.0759  1.3716
 8861SOL     OW38044   0.211   0.761   3.330 -0.1027  0.9253 -0.3545
 8861SOL    HW138045   0.249   0.839   3.290 -0.3119  1.2110 -0.0018
 8861SOL    HW238046   0.169   0.722   3.254  3.0437 -1.4281 -0.8853
 8862SOL     OW38047   3.302   2.749   5.969  0.2409  0.1281  0.1974
 8862SOL    HW138048   3.237   2.680   5.953  0.8111 -0.4322  0.3007
 8862SOL    HW238049   3.372   2.726   5.908 -1.9426 -1.2648 -1.7775
 8863SOL     OW38050   1.646   3.413   3.694  0.2416  0.2101  0.0239
 8863SOL    HW138051   1.576   3.369   3.743 -1.2042  1.6035 -0.7793
 8863SOL    HW238052   1.721   3.402   3.752 -0.3609  1.4844  1.0472
 8864SOL     OW38053   1.208   1.045  17.351 -0.4640  1.2088 -0.3020
 8864SOL    HW138054   1.121   1.075  17.377 -0.4631 -0.3024  1.4678
 8864SOL    HW238055   1.219   1.069  17.259  0.9974  0.6614 -0.2757
 8865SOL     OW38056   2.076   0.905   6.625  0.2009 -0.1498 -0.0182
 8865SOL    HW138057   2.010   0.962   6.663 -0.0399  1.5632 -2.9884
 8865SOL    HW238058   2.154   0.944   6.664 -1.1364  1.3684  1.0731
 8866SOL     OW38059   2.824   3.478   6.494 -0.4571  0.5887  0.1040
 8866SOL    HW138060   2.896   3.434   6.450  0.1732  0.4561  1.2729
 8866SOL    HW238061   2.760   3.489   6.424 -0.5048 -0.3764 -0.0131
 8867SOL     OW38062   4.408   1.363   9.272 -0.6029 -0.0613  0.1405
 8867SOL    HW138063   4.479   1.408   9.227  0.9147 -1.8885  0.7247
 8867SOL    HW238064   4.437   1.384   9.361 -1.2933  1.8866 -0.0977
 8868SOL     OW38065   3.250   2.088   3.904 -0.1626  0.1217 -0.3376
 8868SOL    HW138066   3.188   2.127   3.843  0.5450 -2.3756 -2.6664
 8868SOL    HW238067   3.290   2.165   3.945  0.9142 -0.8028  0.3587
 8869SOL     OW38068   0.360   3.757   1.170 -0.3631 -1.0229  0.6524
 8869SOL    HW138069   0.313   3.794   1.245  0.4084  1.5577 -0.1451
 8869SOL    HW238070   0.444   3.793   1.199 -1.8765  2.2075  1.0794
 8870SOL     OW38071   1.145   3.534   2.594 -0.2133 -0.7607 -0.6671
 8870SOL    HW138072   1.195   3.540   2.513 -0.9029  1.5072 -0.9037
 8870SOL    HW238073   1.057   3.505   2.572 -1.0651 -0.4332  2.3437
 8871SOL     OW38074   4.361   3.660   9.992  0.1978  0.0709  0.2683
 8871SOL    HW138075   4.438   3.665   9.936 -1.0275 -1.3097 -1.5347
 8871SOL    HW238076   4.307   3.733   9.961  1.5995  1.3084  0.7472
 8872SOL     OW38077   2.712   2.170   4.958 -0.1743  0.3512  0.2439
 8872SOL    HW138078   2.805   2.168   4.935  0.2550  3.0114  1.7372
 8872SOL    HW238079   2.675   2.132   4.878  1.2151 -0.2740 -0.0985
 8873SOL     OW38080   1.163   2.362   4.829 -0.5767  0.1333 -0.1925
 8873SOL    HW138081   1.193   2.284   4.876  0.0959  0.8382  0.5509
 8873SOL    HW238082   1.072   2.339   4.810 -0.1254 -0.9557 -0.9825
 8874SOL     OW38083   3.243   3.288  12.137  0.3143  0.2652  0.0755
 8874SOL    HW138084   3.211   3.222  12.199  1.5974 -1.4693 -1.1242
 8874SOL    HW238085   3.334   3.284  12.166  0.5320 -2.0726 -0.8987
 8875SOL     OW38086   2.517   0.469  14.499  0.0555  0.3302 -0.3084
 8875SOL    HW138087   2.456   0.480  14.427 -1.3304 -2.3609  0.4525
 8875SOL    HW238088   2.587   0.531  14.477 -0.3873  1.2160  0.7204
 8876SOL     OW38089   3.097   3.448   6.107 -0.2541 -0.5972 -0.2142
 8876SOL    HW138090   3.095   3.386   6.034  0.8139 -0.3696 -0.4412
 8876SOL    HW238091   3.079   3.530   6.061  1.3975  0.0045  0.1753
 8877SOL     OW38092   4.059   3.696   7.177  0.4579 -0.3883  0.0145
 8877SOL    HW138093   4.037   3.753   7.251 -1.6761 -0.8063 -0.2984
 8877SOL    HW238094   3.996   3.711   7.106 -0.5350  0.4829  1.0827
 8878SOL     OW38095   1.107   3.115   2.735 -0.2824  0.6436 -0.1813
 8878SOL    HW138096   1.068   3.176   2.797  0.6640 -0.8835  1.9229
 8878SOL    HW238097   1.031   3.101   2.678 -2.6307  1.5859  2.7481
 8879SOL     OW38098   2.010   3.474  12.381 -0.1108  0.5023 -0.1294
 8879SOL    HW138099   2.089   3.528  12.387  0.6199 -0.9191  2.8729
 8879SOL    HW238100   2.042   3.389  12.414  1.0708  1.1201  0.3188
 8880SOL     OW38101   2.376   4.288   5.134 -0.1070 -0.0771 -0.2856
 8880SOL    HW138102   2.453   4.337   5.164  0.1219 -0.6589  0.0774
 8880SOL    HW238103   2.393   4.218   5.197  2.9368  0.3991 -0.6035
 8881SOL     OW38104   2.359   2.118   5.720 -0.6109  0.3565 -0.7397
 8881SOL    HW138105   2.304   2.196   5.721 -0.8358  0.1925  0.1195
 8881SOL    HW238106   2.439   2.169   5.734 -1.1698  1.0742 -0.1699
 8882SOL     OW38107   2.286   1.548   5.578  0.5434  0.0643  0.3157
 8882SOL    HW138108   2.358   1.550   5.641 -1.3650  3.1034  2.4336
 8882SOL    HW238109   2.255   1.637   5.594 -1.1498 -0.4266 -0.2835
 8883SOL     OW38110   2.306   0.253   3.480 -0.3704 -0.3031  0.0426
 8883SOL    HW138111   2.271   0.168   3.507  0.1926 -1.1498 -1.9339
 8883SOL    HW238112   2.252   0.315   3.530  1.1545  1.9079 -1.0083
 8884SOL     OW38113   3.901   2.484   8.386  0.2196 -0.3051  0.1255
 8884SOL    HW138114   3.893   2.503   8.479 -2.5944 -0.1609 -0.1497
 8884SOL    HW238115   3.824   2.428   8.374 -0.4880  0.5469  0.6966
 8885SOL     OW38116   1.626   3.162   8.542 -0.3300  0.3151  0.1401
 8885SOL    HW138117   1.584   3.211   8.613 -1.7937  1.0979 -1.2652
 8885SOL    HW238118   1.590   3.075   8.557  3.6771 -0.9973  2.0645
 8886SOL     OW38119   2.182   0.672  10.287 -0.4608 -0.0580 -0.3063
 8886SOL    HW138120   2.260   0.721  10.262  0.4047 -2.0918 -1.6310
 8886SOL    HW238121   2.204   0.649  10.377 -0.0556  0.8082 -0.1889
 8887SOL     OW38122   2.920   0.153   3.308 -0.2206  0.1967 -0.4198
 8887SOL    HW138123   2.969   0.088   3.258  0.2114  1.8114 -2.1060
 8887SOL    HW238124   2.907   0.215   3.236  1.3869 -0.4324 -1.2541
 8888SOL     OW38125   4.012   0.347  17.037  0.1267 -0.4510 -0.3669
 8888SOL    HW138126   4.004   0.379  17.126 -1.2478 -1.0616 -0.2776
 8888SOL    HW238127   4.016   0.433  16.996  3.6493  0.1563  1.2160
 8889SOL     OW38128   2.103   2.794   8.510 -0.2342  0.2088 -0.1247
 8889SOL    HW138129   2.133   2.864   8.567 -0.8796 -1.4715  2.2760
 8889SOL    HW238130   2.078   2.731   8.578 -0.3209 -0.7818 -1.0620
 8890SOL     OW38131   4.700   3.826   4.726  0.0216  0.3129  0.2841
 8890SOL    HW138132   0.020   3.905   4.760 -2.6625  0.5863  2.8699
 8890SOL    HW238133   0.035   3.759   4.764 -0.9779 -0.2193  0.8453
 8891SOL     OW38134   0.503   4.580   3.774 -0.1979 -0.1939 -0.0754
 8891SOL    HW138135   0.536   4.670   3.779  0.8510 -0.5314 -0.9687
 8891SOL    HW238136   0.549   4.548   3.696  0.4715  1.7569 -0.4948
 8892SOL     OW38137   1.479   3.290   8.738  0.0005  0.4615  0.5202
 8892SOL    HW138138   1.495   3.379   8.770  0.6284  0.1009  1.2195
 8892SOL    HW238139   1.423   3.309   8.663 -1.7526  0.6784  1.8836
 8893SOL     OW38140   3.669   0.841  12.862 -0.3572  0.1094  0.4452
 8893SOL    HW138141   3.643   0.927  12.893  0.1663  0.9410 -1.4244
 8893SOL    HW238142   3.747   0.829  12.917  0.2905  0.0241 -0.4852
 8894SOL     OW38143   1.753   1.927   5.220 -0.4977  0.1219  0.0085
 8894SOL    HW138144   1.726   1.973   5.299 -0.5184 -0.3920  0.2993
 8894SOL    HW238145   1.809   1.995   5.183  0.1171  0.7856  2.2007
 8895SOL     OW38146   3.856   0.608   9.150 -0.2316  0.2128 -0.6080
 8895SOL    HW138147   3.816   0.652   9.225 -2.3900 -2.1315 -0.3656
 8895SOL    HW238148   3.890   0.685   9.105  0.6980 -0.0752 -0.3940
 8896SOL     OW38149   3.235   1.272  15.964 -0.2218  0.0438  0.1230
 8896SOL    HW138150   3.200   1.284  15.876  0.4000 -1.0484 -0.2761
 8896SOL    HW238151   3.321   1.230  15.954 -0.2866 -0.3974  1.5271
 8897SOL     OW38152   4.709   3.570  10.112  0.0756  0.3782  0.0145
 8897SOL    HW138153   0.081   3.584  10.115  0.1065  0.4612 -1.5029
 8897SOL    HW238154   4.694   3.537  10.024  1.6020 -0.7058  0.1809
 8898SOL     OW38155   3.438   1.840   0.720  0.2250  0.0322 -0.0343
 8898SOL    HW138156   3.426   1.918   0.774  0.7883  0.8131 -1.0380
 8898SOL    HW238157   3.405   1.875   0.637 -0.2323  0.3872  0.2945
 8899SOL     OW38158   3.848   1.963  13.938 -0.3093  0.0570  0.1836
 8899SOL    HW138159   3.800   1.946  14.020 -0.5450  0.2334  0.0827
 8899SOL    HW238160   3.890   2.045  13.962 -0.5558 -0.0324  0.9307
 8900SOL     OW38161   0.536   3.844   8.913  1.1769  0.4536  0.0805
 8900SOL    HW138162   0.460   3.887   8.953  0.7320  0.3306 -0.6380
 8900SOL    HW238163   0.535   3.756   8.952  0.6802 -1.4237 -4.1322
 8901SOL     OW38164   2.771   3.165   7.749 -0.3291  0.1319 -0.4342
 8901SOL    HW138165   2.739   3.161   7.839 -0.4814 -0.7808 -0.5363
 8901SOL    HW238166   2.829   3.239   7.768 -3.6593  2.4551  0.8146
 8902SOL     OW38167   1.644   0.704  14.549  0.5253  0.1192 -0.1828
 8902SOL    HW138168   1.690   0.684  14.468 -1.8942 -0.6551 -1.3710
 8902SOL    HW238169   1.658   0.616  14.585 -0.3474 -0.8180 -2.1315
 8903SOL     OW38170   2.878   1.275   4.968 -0.1254  0.7722 -0.3756
 8903SOL    HW138171   2.894   1.181   4.960 -1.5644  0.6224 -1.4289
 8903SOL    HW238172   2.793   1.271   5.011  1.4736 -2.5432  2.5090
 8904SOL     OW38173   4.621   1.259   8.397 -0.0552  0.4133 -0.5168
 8904SOL    HW138174   4.625   1.225   8.308 -0.5796  1.7573 -1.0433
 8904SOL    HW238175   4.527   1.268   8.413 -0.0827 -1.0793  0.1739
 8905SOL     OW38176   2.639   1.580   6.580 -0.2189 -0.6309  0.1000
 8905SOL    HW138177   2.644   1.619   6.492  1.9913  0.4702  0.7131
 8905SOL    HW238178   2.716   1.523   6.580 -0.3613 -0.8225 -0.3528
 8906SOL     OW38179   4.251   3.699   4.715 -0.9272  0.4938  0.4110
 8906SOL    HW138180   4.219   3.621   4.761 -2.2184  1.0014  0.3653
 8906SOL    HW238181   4.258   3.663   4.626 -1.8483  0.7105  0.2566
 8907SOL     OW38182   3.832   3.382   4.595 -0.3073 -0.1877 -0.6022
 8907SOL    HW138183   3.802   3.363   4.684 -2.3169 -3.2755 -1.9332
 8907SOL    HW238184   3.817   3.476   4.591  0.3470  0.1147  3.9280
 8908SOL     OW38185   2.945   3.443  17.313 -0.3508 -0.2778  0.0122
 8908SOL    HW138186   2.910   3.417  17.228 -0.9609 -0.4690  0.3195
 8908SOL    HW238187   3.001   3.521  17.308  0.6426 -0.8935  1.5539
 8909SOL     OW38188   4.036   3.748   1.986  0.0282  0.0027 -0.4665
 8909SOL    HW138189   4.059   3.664   2.025 -1.6027  0.0466  0.5407
 8909SOL    HW238190   4.109   3.808   2.002  0.3216 -0.4615 -0.0605
 8910SOL     OW38191   2.832   1.272  13.179 -0.4349  0.2170 -0.0667
 8910SOL    HW138192   2.922   1.295  13.157 -0.7369  0.3628 -1.1677
 8910SOL    HW238193   2.794   1.357  13.204  0.9004  1.3252 -1.8033
 8911SOL     OW38194   1.198   3.083  11.885 -0.5467  0.1621 -0.1009
 8911SOL    HW138195   1.183   3.018  11.816  1.4021  1.4154 -1.6971
 8911SOL    HW238196   1.126   3.049  11.938 -0.9150 -2.4315 -2.2597
 8912SOL     OW38197   3.610   1.377   0.113  0.1527 -0.2384 -0.4484
 8912SOL    HW138198   3.654   1.322   0.179  0.4798  0.3738 -0.1471
 8912SOL    HW238199   3.680   1.420   0.064  1.0402  1.7103  2.4643
 8913SOL     OW38200   1.388   0.738   1.341  0.2453 -0.1427 -0.1352
 8913SOL    HW138201   1.445   0.708   1.271  1.9610  0.5688  0.9758
 8913SOL    HW238202   1.418   0.694   1.421  1.3585  1.9163  0.5585
 8914SOL     OW38203   0.535   3.016   3.438  0.0973  0.0659 -0.6676
 8914SOL    HW138204   0.474   3.075   3.393 -2.0296 -1.2089  0.5195
 8914SOL    HW238205   0.624   3.046   3.418  0.4344  0.4597  1.3916
 8915SOL     OW38206   4.714   2.907   2.265 -0.5065 -0.1909 -0.0220
 8915SOL    HW138207   0.087   2.893   2.257 -0.5188  0.3501 -1.0827
 8915SOL    HW238208   4.719   3.002   2.279 -0.4724 -0.2564  0.4193
 8916SOL     OW38209   2.765   0.269   1.828 -0.2612  0.0578  0.3843
 8916SOL    HW138210   2.779   0.357   1.794  1.2394  1.0524  3.5218
 8916SOL    HW238211   2.670   0.276   1.832 -0.2027  0.6517  0.8021
 8917SOL     OW38212   1.771   0.630   0.766  0.1384  0.1471  0.2544
 8917SOL    HW138213   1.722   0.557   0.729  0.7770 -0.7760  1.2531
 8917SOL    HW238214   1.856   0.588   0.771  1.7247  3.1591 -1.6347
 8918SOL     OW38215   2.093   2.016   6.553 -0.4165 -0.3137  0.1582
 8918SOL    HW138216   2.023   1.956   6.580 -1.6412  0.3253 -1.5862
 8918SOL    HW238217   2.118   1.979   6.469  0.9291 -2.1513  1.3710
 8919SOL     OW38218   1.198   2.808   3.978  0.0417  0.1208  0.0616
 8919SOL    HW138219   1.190   2.887   4.030 -0.6255 -1.1210  1.8274
 8919SOL    HW238220   1.214   2.741   4.044 -1.7204 -1.0926 -0.7537
 8920SOL     OW38221   3.625   2.259  16.533 -0.1778 -0.2749  0.1088
 8920SOL    HW138222   3.579   2.176  16.522  1.8249 -1.6171  1.9331
 8920SOL    HW238223   3.643   2.277  16.440 -0.6961 -2.2154 -0.3736
 8921SOL     OW38224   2.171   2.220   0.732 -0.4271 -0.8633 -0.1268
 8921SOL    HW138225   2.109   2.289   0.709  0.2735 -0.5801 -1.1385
 8921SOL    HW238226   2.249   2.254   0.690 -1.3633  2.3263  0.6906
 8922SOL     OW38227   2.348   1.561  10.219 -0.0963  1.4702  0.1463
 8922SOL    HW138228   2.294   1.618  10.274 -0.0647  1.5247  0.1207
 8922SOL    HW238229   2.285   1.553  10.147 -0.4938  2.2053  0.4071
 8923SOL     OW38230   2.084   1.581   4.450 -0.8155 -0.1338  0.0121
 8923SOL    HW138231   2.074   1.526   4.373 -2.1429 -2.6145  1.9435
 8923SOL    HW238232   1.993   1.609   4.461 -0.0230  2.7074 -0.6010
 8924SOL     OW38233   0.138   4.045  10.555 -0.1888  0.0815  0.1298
 8924SOL    HW138234   0.119   4.093  10.636 -0.0804  2.1501 -1.0581
 8924SOL    HW238235   0.053   4.053  10.513  0.4219 -0.5029 -1.2033
 8925SOL     OW38236   3.708   3.587  10.065  0.1755  0.2392 -0.2545
 8925SOL    HW138237   3.619   3.593  10.029  0.4501 -0.9842 -1.1273
 8925SOL    HW238238   3.696   3.661  10.125 -0.4292  0.4298 -0.6134
 8926SOL     OW38239   1.872   1.615   9.872  0.5039  0.0789  0.4248
 8926SOL    HW138240   1.784   1.595   9.906 -0.4870  2.0572 -0.9801
 8926SOL    HW238241   1.875   1.708   9.895  3.5591  0.1638 -0.3211
 8927SOL     OW38242   1.771   0.732   8.947  0.0923 -0.1092  0.3239
 8927SOL    HW138243   1.806   0.743   9.036  0.0224 -2.1541  0.6134
 8927SOL    HW238244   1.688   0.688   8.967 -0.1195  0.3687  0.4976
 8928SOL     OW38245   0.222   4.579   2.849  0.1699 -0.0456  0.2767
 8928SOL    HW138246   0.251   4.513   2.786 -1.1521  0.0021 -0.3741
 8928SOL    HW238247   0.298   4.636   2.837 -1.4402  2.3695  1.3585
 8929SOL     OW38248   4.145   4.370  13.200 -0.7309 -0.4299 -0.2995
 8929SOL    HW138249   4.195   4.394  13.122 -0.9991  1.9177  0.2554
 8929SOL    HW238250   4.178   4.432  13.264 -1.4955  0.6317 -0.9271
 8930SOL     OW38251   3.912   3.421   9.675 -0.2242 -0.5971 -0.4567
 8930SOL    HW138252   3.849   3.363   9.719  2.3892 -1.8133  1.7224
 8930SOL    HW238253   3.970   3.361   9.628  1.5272  1.5637 -1.0289
 8931SOL     OW38254   1.809   3.606   3.089 -0.1356  0.5883  0.2172
 8931SOL    HW138255   1.756   3.635   3.014 -1.0455  0.6822  0.9093
 8931SOL    HW238256   1.893   3.650   3.077 -0.6533  1.6018  0.3149
 8932SOL     OW38257   4.662   4.527   8.079 -0.1715  0.6780  0.2275
 8932SOL    HW138258   4.677   4.450   8.134 -1.2041 -0.2653 -0.8178
 8932SOL    HW238259   4.576   4.513   8.039  0.5903 -1.7262 -0.6066
 8933SOL     OW38260   1.496   0.585   6.452  0.6021 -0.1289 -0.6674
 8933SOL    HW138261   1.545   0.600   6.533  1.1023  2.1523 -1.4107
 8933SOL    HW238262   1.426   0.648   6.470  1.6240  0.7525  0.2131
 8934SOL     OW38263   4.299   4.491   1.813  0.0976  0.1675  0.1173
 8934SOL    HW138264   4.394   4.490   1.799  0.5251 -0.2341  2.9974
 8934SOL    HW238265   4.277   4.462   1.725  2.6180 -0.8108 -0.1909
 8935SOL     OW38266   2.728   1.164   6.682 -0.4012 -0.7953  0.4483
 8935SOL    HW138267   2.751   1.132   6.595  1.1952  2.9051 -0.4897
 8935SOL    HW238268   2.723   1.078   6.724  2.5835 -0.2968  1.8412
 8936SOL     OW38269   2.164   1.254   8.137 -0.2082 -0.2806 -0.2922
 8936SOL    HW138270   2.078   1.222   8.111 -0.1579 -1.3067  0.8077
 8936SOL    HW238271   2.211   1.240   8.055  1.3893  0.4466  0.4984
 8937SOL     OW38272   0.323   4.228  10.417 -0.3451  0.2252 -0.0274
 8937SOL    HW138273   0.322   4.301  10.480  2.4072  0.2644 -0.0469
 8937SOL    HW238274   0.292   4.156  10.472  0.2590  0.6300  0.8470
 8938SOL     OW38275   1.018   3.043  16.150 -0.0054 -0.2899  0.4527
 8938SOL    HW138276   1.027   2.991  16.070 -0.8697  0.8097 -0.3563
 8938SOL    HW238277   1.035   2.973  16.213 -0.3798  1.2647  2.2615
 8939SOL     OW38278   3.740   2.932  10.643  0.4054  0.3035  0.1550
 8939SOL    HW138279   3.653   2.907  10.675  0.4143  0.4008  0.2567
 8939SOL    HW238280   3.730   3.027  10.639  0.8029  0.3985  1.4900
 8940SOL     OW38281   1.127   0.886  11.574  0.4443 -0.2312 -0.7197
 8940SOL    HW138282   1.188   0.938  11.626  1.3468 -2.0939  0.0971
 8940SOL    HW238283   1.127   0.936  11.492 -2.4510 -0.8403 -1.0823
 8941SOL     OW38284   2.293   3.037   3.980 -0.2419 -0.0517  0.2904
 8941SOL    HW138285   2.280   3.083   4.063 -0.6234 -0.1757  0.3020
 8941SOL    HW238286   2.355   2.967   3.998  0.1339  0.2150  0.0255
 8942SOL     OW38287   1.814   3.094  16.200  0.5472  0.1422 -0.0124
 8942SOL    HW138288   1.814   3.161  16.132 -1.4941 -1.1878 -1.3237
 8942SOL    HW238289   1.766   3.133  16.272  0.4970  1.3179 -0.6868
 8943SOL     OW38290   0.934   1.348  17.116  0.3357  0.0880  0.0057
 8943SOL    HW138291   0.979   1.291  17.053 -1.8483 -1.5155 -0.1037
 8943SOL    HW238292   0.999   1.362  17.185  0.6691 -3.1266  0.3446
 8944SOL     OW38293   1.465   1.158   2.070 -0.5306  0.6038 -0.2666
 8944SOL    HW138294   1.551   1.184   2.038 -0.0082 -1.0848 -0.2586
 8944SOL    HW238295   1.468   1.206   2.153  2.5074 -0.8875  0.4783
 8945SOL     OW38296   3.004   1.528   5.121  0.2476 -1.0140 -0.1536
 8945SOL    HW138297   2.912   1.550   5.139  0.2938 -1.4032  0.5761
 8945SOL    HW238298   3.008   1.565   5.033  2.2810 -1.4527 -0.2384
 8946SOL     OW38299   1.371   2.175   3.790 -0.6200 -0.7656  0.2745
 8946SOL    HW138300   1.457   2.217   3.797 -0.8401 -0.2929  0.0821
 8946SOL    HW238301   1.359   2.119   3.867 -3.5689  1.3108  1.2780
 8947SOL     OW38302   3.724   2.329   5.111  0.0081  0.8885 -0.0882
 8947SOL    HW138303   3.655   2.317   5.177  1.1159 -0.3803  0.8456
 8947SOL    HW238304   3.804   2.301   5.155 -0.3008  3.3482  2.0581
 8948SOL     OW38305   2.659   1.701   0.008  0.3027 -0.4338  0.1436
 8948SOL    HW138306   2.583   1.750  17.667  1.5451  0.1085 -2.0266
 8948SOL    HW238307   2.638   1.617  17.657  0.2128 -0.1960 -0.2906
 8949SOL     OW38308   1.014   0.840   5.111  0.3251 -0.1066  0.7311
 8949SOL    HW138309   0.995   0.768   5.171 -1.7532 -1.9348 -2.1146
 8949SOL    HW238310   1.080   0.802   5.053 -0.5522 -1.9735  0.9527
 8950SOL     OW38311   0.301   0.680   2.545  0.6665 -0.4284  0.0957
 8950SOL    HW138312   0.254   0.761   2.528  1.1156 -0.2183 -0.1393
 8950SOL    HW238313   0.378   0.707   2.594 -1.1684 -0.1480  2.8109
 8951SOL     OW38314   2.366   3.614  13.283  0.4564  0.3170 -0.5694
 8951SOL    HW138315   2.320   3.561  13.218  0.3344  0.2992 -0.4697
 8951SOL    HW238316   2.315   3.693  13.296 -0.9499 -1.1423  2.9181
 8952SOL     OW38317   1.581   2.658   0.280 -0.4747 -0.2061  0.0474
 8952SOL    HW138318   1.494   2.691   0.259  0.4346  2.6633  0.7596
 8952SOL    HW238319   1.578   2.566   0.252 -0.6172  0.6199 -2.6426
 8953SOL     OW38320   4.095   2.159   4.329  0.2514 -0.2426 -0.4094
 8953SOL    HW138321   4.102   2.089   4.264  2.7704  0.7784 -1.2225
 8953SOL    HW238322   4.018   2.202   4.294 -0.6161 -0.4052  1.2596
 8954SOL     OW38323   3.021   3.762   9.227  0.3666  0.3556 -0.2339
 8954SOL    HW138324   3.105   3.733   9.193  0.6171  1.3854 -0.4600
 8954SOL    HW238325   3.048   3.788   9.315  0.8129 -0.2674 -0.1882
 8955SOL     OW38326   4.138   0.678   7.430  0.0169  0.2328  0.5358
 8955SOL    HW138327   4.137   0.630   7.512  2.6092  2.2088  1.7385
 8955SOL    HW238328   4.192   0.752   7.456  0.5716  0.5933 -1.5815
 8956SOL     OW38329   0.731   3.657  12.939 -0.3197 -0.2940 -0.3930
 8956SOL    HW138330   0.771   3.702  13.014  1.5933 -2.3066 -0.1906
 8956SOL    HW238331   0.664   3.607  12.986 -0.3973 -0.7651 -1.0095
 8957SOL     OW38332   2.467   2.688   9.255  0.4033  0.2237 -0.9405
 8957SOL    HW138333   2.487   2.727   9.170 -0.7698 -0.2094 -1.4189
 8957SOL    HW238334   2.441   2.770   9.297  0.9377  1.2333 -2.5789
 8958SOL     OW38335   3.674   4.172  16.394  0.9522  0.4133 -0.0561
 8958SOL    HW138336   3.597   4.216  16.358 -0.8888 -2.0470  0.8976
 8958SOL    HW238337   3.736   4.222  16.340 -0.2841  1.4185 -0.5327
 8959SOL     OW38338   2.914   2.137   8.832 -0.2846  0.1195  0.5427
 8959SOL    HW138339   3.004   2.169   8.836 -0.9188  1.9036  0.6191
 8959SOL    HW238340   2.903   2.155   8.739  1.5736 -0.4333  0.2361
 8960SOL     OW38341   0.044   3.855  11.073  0.3275  0.1891 -0.3813
 8960SOL    HW138342   0.047   3.802  11.154  0.6253  1.1597  0.2452
 8960SOL    HW238343   4.683   3.824  11.037  0.7597  0.4703 -1.6083
 8961SOL     OW38344   3.326   1.062  17.204 -0.1681  0.9327 -0.3598
 8961SOL    HW138345   3.276   1.130  17.251  1.9495  3.5663 -1.9653
 8961SOL    HW238346   3.412   1.090  17.237 -0.4958  1.5784 -0.0425
 8962SOL     OW38347   2.404   2.460   6.556  0.0227  0.0337 -0.1061
 8962SOL    HW138348   2.403   2.438   6.463  2.1934 -0.1715 -0.0739
 8962SOL    HW238349   2.456   2.385   6.585 -1.8738 -0.8442  1.0743
 8963SOL     OW38350   3.991   2.122   7.834  0.1545 -0.0292 -0.1979
 8963SOL    HW138351   3.996   2.095   7.926  1.1809  0.7620 -0.0297
 8963SOL    HW238352   4.008   2.043   7.782 -0.1909  1.2929 -2.3041
 8964SOL     OW38353   3.381   0.767   0.535  0.4042  0.1013  0.1192
 8964SOL    HW138354   3.437   0.732   0.467  1.3610  0.4787  0.7121
 8964SOL    HW238355   3.355   0.687   0.580  2.2559 -0.8001 -0.4340
 8965SOL     OW38356   1.519   4.080   5.525 -0.0764 -0.1016 -0.1835
 8965SOL    HW138357   1.610   4.060   5.545 -0.1917  0.1821  0.6292
 8965SOL    HW238358   1.490   4.130   5.601 -1.3451 -0.1275 -0.6457
 8966SOL     OW38359   4.271   3.424  15.721  0.4488  0.4350 -0.3081
 8966SOL    HW138360   4.276   3.341  15.673 -1.8433  1.3707 -2.2112
 8966SOL    HW238361   4.201   3.412  15.785 -0.0777  0.4910 -0.8736
 8967SOL     OW38362   1.597   0.563  12.622  0.0292  0.8761 -0.0161
 8967SOL    HW138363   1.536   0.634  12.641 -0.2878  0.8447 -0.9452
 8967SOL    HW238364   1.623   0.547  12.713 -0.4006  1.2417  0.1689
 8968SOL     OW38365   0.012   4.364  12.018 -0.1311  0.3923 -0.4952
 8968SOL    HW138366   0.009   4.289  12.078  0.6489  1.0243  0.3278
 8968SOL    HW238367   4.649   4.364  11.976  0.2957  0.8347 -1.3564
 8969SOL     OW38368   3.351   4.625   6.561  0.0766 -0.0200  0.3398
 8969SOL    HW138369   3.321   4.655   6.475  1.1884  0.4161  0.0980
 8969SOL    HW238370   3.412   4.697   6.580  1.5811 -0.6044 -2.2524
 8970SOL     OW38371   0.598   4.508   8.765  0.6455  0.2804  0.2064
 8970SOL    HW138372   0.527   4.571   8.751 -0.3848 -1.1786 -1.0174
 8970SOL    HW238373   0.632   4.497   8.676 -0.7624 -0.8709 -0.1854
 8971SOL     OW38374   1.696   3.499   6.064  0.0657  0.8259  0.0261
 8971SOL    HW138375   1.633   3.469   5.998 -0.9660 -2.5963  2.5479
 8971SOL    HW238376   1.685   3.442   6.140 -2.3398  0.6835 -0.4104
 8972SOL     OW38377   3.145   4.630   2.950 -0.6023 -0.0247 -0.0130
 8972SOL    HW138378   3.240   4.635   2.944 -0.4535 -3.5639 -0.9858
 8972SOL    HW238379   3.137   4.548   2.900  1.7119  0.0899 -0.5504
 8973SOL     OW38380   2.446   2.871   6.343  0.2844 -0.1661  0.3427
 8973SOL    HW138381   2.394   2.849   6.421 -2.5567  0.3581 -1.4095
 8973SOL    HW238382   2.396   2.946   6.310  3.2744  1.0870 -1.2975
 8974SOL     OW38383   1.861   1.694   7.160  0.2202 -0.0822 -0.4216
 8974SOL    HW138384   1.911   1.636   7.217 -1.3708  2.3839  3.4827
 8974SOL    HW238385   1.775   1.703   7.201  0.8174  2.0502  0.3868
 8975SOL     OW38386   1.466   1.592   8.099 -0.3996 -0.7783  0.3553
 8975SOL    HW138387   1.558   1.604   8.073 -0.3586 -1.6236  0.1050
 8975SOL    HW238388   1.434   1.531   8.033 -0.2810  1.0852 -1.4310
 8976SOL     OW38389   1.171   1.419  14.021 -0.0159  0.1093 -0.3666
 8976SOL    HW138390   1.158   1.330  13.986  3.0971 -0.1999 -0.7080
 8976SOL    HW238391   1.080   1.447  14.023 -0.5860 -1.6850 -0.8607
 8977SOL     OW38392   0.283   2.090   6.369 -0.0045 -0.0894  0.4259
 8977SOL    HW138393   0.296   2.165   6.311 -1.1760 -0.5584 -0.4378
 8977SOL    HW238394   0.283   2.020   6.303 -0.4276  0.3878 -0.0843
 8978SOL     OW38395   0.845   4.342   6.636 -0.1446  0.2912  0.0320
 8978SOL    HW138396   0.870   4.278   6.569  1.4741 -0.8720  1.7589
 8978SOL    HW238397   0.840   4.282   6.710  0.8014  0.0961 -0.0708
 8979SOL     OW38398   4.281   0.743   4.108 -0.3371  0.0662  0.4111
 8979SOL    HW138399   4.219   0.671   4.124  2.0370 -1.0935  4.3238
 8979SOL    HW238400   4.317   0.708   4.027 -1.6358 -0.4611  0.0510
 8980SOL     OW38401   2.745   1.189  17.534 -0.4486 -0.0845  0.1668
 8980SOL    HW138402   2.674   1.147  17.582 -0.6169 -0.2834 -0.2610
 8980SOL    HW238403   2.796   1.208  17.613  0.0754 -1.3726  0.1459
 8981SOL     OW38404   4.675   0.283  10.427  0.3650  0.0062 -0.0686
 8981SOL    HW138405   0.033   0.298  10.377  0.1051 -1.2413 -0.8446
 8981SOL    HW238406   4.670   0.188  10.432 -1.4096  0.0921  0.0444
 8982SOL     OW38407   2.963   3.761  10.447  0.2624 -0.3403 -0.4247
 8982SOL    HW138408   2.994   3.674  10.471 -0.4750 -1.2444 -2.7480
 8982SOL    HW238409   2.927   3.798  10.527 -1.1412 -2.0159 -0.2576
 8983SOL     OW38410   3.529   0.612   0.339 -0.2108  0.0847  0.1738
 8983SOL    HW138411   3.462   0.544   0.352 -0.9794  0.9405  0.6969
 8983SOL    HW238412   3.602   0.552   0.327  0.3207  0.6409  0.6788
 8984SOL     OW38413   0.272   3.194  12.538 -0.1136  0.0625  0.5541
 8984SOL    HW138414   0.326   3.115  12.537 -2.7795 -1.7989  2.2878
 8984SOL    HW238415   0.253   3.205  12.445  0.5574  0.0111  0.4093
 8985SOL     OW38416   0.430   3.013   3.946 -0.2979  0.6238  0.5117
 8985SOL    HW138417   0.475   3.073   4.007 -0.2458  1.4720 -0.3683
 8985SOL    HW238418   0.491   2.999   3.874 -0.5904  0.7828  0.2354
 8986SOL     OW38419   1.847   3.555   5.691  0.2235 -0.5730 -0.1142
 8986SOL    HW138420   1.923   3.612   5.702  1.1961 -2.3679  2.3729
 8986SOL    HW238421   1.846   3.555   5.595  1.1492 -0.6192 -0.1214
 8987SOL     OW38422   1.357   3.922  12.032 -0.5492  0.0659 -0.0435
 8987SOL    HW138423   1.310   3.866  11.971  0.2752  0.3651 -0.9431
 8987SOL    HW238424   1.291   3.991  12.033 -0.4684  0.1667 -2.1084
 8988SOL     OW38425   0.392   3.708   0.683  0.1156 -0.6986  0.0143
 8988SOL    HW138426   0.395   3.696   0.777 -2.3204  1.0041  0.3031
 8988SOL    HW238427   0.334   3.638   0.652  0.4941 -0.2566 -1.7284
 8989SOL     OW38428   2.028   3.756  14.174  0.1040 -0.2369  0.2655
 8989SOL    HW138429   2.112   3.764  14.219  0.1345  1.3420 -0.0781
 8989SOL    HW238430   1.981   3.827  14.218 -2.3850 -1.1577 -0.9318
 8990SOL     OW38431   1.460   0.692  12.233  0.0670 -0.2610  0.3148
 8990SOL    HW138432   1.460   0.757  12.303 -0.2340 -1.3416  1.3138
 8990SOL    HW238433   1.441   0.754  12.162  3.6117 -0.1212 -0.5145
 8991SOL     OW38434   2.258   1.469  15.339  0.4655  0.0692 -0.0921
 8991SOL    HW138435   2.309   1.410  15.394  0.2136  0.8031  0.9418
 8991SOL    HW238436   2.183   1.412  15.324  2.2273 -1.1417 -4.2134
 8992SOL     OW38437   1.979   2.814   5.009 -0.3340 -0.3010  0.3937
 8992SOL    HW138438   1.914   2.758   4.966  0.2191  0.0608 -0.9171
 8992SOL    HW238439   1.925   2.836   5.084 -0.3851  2.5966 -0.5064
 8993SOL     OW38440   0.932   1.426   7.917  0.0624  0.1972 -0.0296
 8993SOL    HW138441   0.895   1.434   7.829  1.4196  1.3338 -0.4939
 8993SOL    HW238442   0.963   1.516   7.929 -0.5200  0.1260  1.9276
 8994SOL     OW38443   3.345   1.344   8.660  0.3696  0.1179  0.7962
 8994SOL    HW138444   3.259   1.311   8.686  0.7697 -1.6944 -0.1960
 8994SOL    HW238445   3.411   1.278   8.676  0.5975  0.0698 -0.3422
 8995SOL     OW38446   4.511   0.415   1.590 -0.9575  0.4666 -0.0943
 8995SOL    HW138447   4.446   0.465   1.540  0.4815  1.5915 -0.8277
 8995SOL    HW238448   4.587   0.473   1.598  0.4983 -1.5943  0.8834
 8996SOL     OW38449   4.624   2.317   2.360  0.1334 -0.1163 -0.4112
 8996SOL    HW138450   4.694   2.377   2.334  0.6531 -0.7502 -0.4865
 8996SOL    HW238451   4.674   2.235   2.367  0.2821  0.1667  1.7889
 8997SOL     OW38452   2.606   2.779  12.214  0.5256  0.1363 -0.1425
 8997SOL    HW138453   2.570   2.861  12.180 -3.1953 -0.2908  2.7720
 8997SOL    HW238454   2.679   2.753  12.157  1.4375  0.9917  0.6211
 8998SOL     OW38455   4.459   3.473   0.540  0.3774  0.0451  0.1098
 8998SOL    HW138456   4.505   3.526   0.604  1.3954  1.9980 -2.2189
 8998SOL    HW238457   4.461   3.393   0.593 -0.3318 -0.4347 -0.5834
 8999SOL     OW38458   3.644   3.772  10.241  0.1660  0.7248 -0.5224
 8999SOL    HW138459   3.557   3.767  10.281  0.4903 -0.8345 -0.0298
 8999SOL    HW238460   3.678   3.851  10.282  0.8023  0.5490 -0.7079
 9000SOL     OW38461   0.247   0.746   9.583 -0.2013 -0.9963  0.1655
 9000SOL    HW138462   0.200   0.662   9.583  1.9947 -2.2120  0.5011
 9000SOL    HW238463   0.179   0.802   9.544  0.3705 -1.1372 -1.0499
 9001SOL     OW38464   3.091   4.690   7.240 -0.1626  0.3903 -0.1556
 9001SOL    HW138465   3.177   4.662   7.273 -2.0100 -1.6993  2.8248
 9001SOL    HW238466   3.110   0.023   7.163 -1.0384 -0.8981 -1.2865
 9002SOL     OW38467   1.788   0.931   8.570  0.3772 -0.0653 -0.5532
 9002SOL    HW138468   1.798   0.870   8.496 -0.1071  0.4538 -1.0512
 9002SOL    HW238469   1.797   1.014   8.522 -3.2217  0.3844 -0.4663
 9003SOL     OW38470   0.070   3.335   4.137 -0.0630 -0.0165 -0.2564
 9003SOL    HW138471   0.009   3.294   4.076  1.5966 -1.1362 -1.1629
 9003SOL    HW238472   0.076   3.261   4.198  1.1644 -0.4023 -0.8511
 9004SOL     OW38473   2.705   1.612   8.375 -0.3769  0.2656 -0.6497
 9004SOL    HW138474   2.659   1.621   8.459 -2.5525 -0.6144 -1.7438
 9004SOL    HW238475   2.634   1.587   8.316  1.3026 -2.0257 -1.6966
 9005SOL     OW38476   0.490   0.473   3.772  0.1785  0.4547 -0.2623
 9005SOL    HW138477   0.564   0.519   3.734  0.3846 -0.4939 -1.0238
 9005SOL    HW238478   0.471   0.539   3.838  1.2248  1.4893 -0.9943
 9006SOL     OW38479   2.137   2.080   7.933  0.0631 -0.3637 -0.0767
 9006SOL    HW138480   2.110   2.105   8.022  0.7422 -0.7347  0.2269
 9006SOL    HW238481   2.103   2.151   7.878 -1.7101  0.4805  2.1376
 9007SOL     OW38482   3.078   1.940   3.579 -0.5712  0.7811  0.0671
 9007SOL    HW138483   3.165   1.955   3.616  0.2746 -1.2248 -1.1267
 9007SOL    HW238484   3.105   1.903   3.495 -1.8707 -1.2619  0.5526
 9008SOL     OW38485   2.679   2.868  17.295  0.4693  0.0395  0.1021
 9008SOL    HW138486   2.605   2.833  17.346  0.3392 -0.9314 -0.7611
 9008SOL    HW238487   2.652   2.841  17.208  2.1267 -2.6540  0.4452
 9009SOL     OW38488   4.257   1.312  15.975 -0.2855  0.6571 -0.1140
 9009SOL    HW138489   4.346   1.346  15.967  0.2324 -1.4905 -3.6411
 9009SOL    HW238490   4.205   1.392  15.964  1.0070  1.4922 -0.0227
 9010SOL     OW38491   0.425   3.625   7.887 -0.4667 -0.2828  0.0578
 9010SOL    HW138492   0.511   3.668   7.881 -1.3307  1.4827  0.3867
 9010SOL    HW238493   0.430   3.577   7.970 -2.4529 -3.1311 -1.4966
 9011SOL     OW38494   2.956   3.030   6.043  0.1501  0.1481 -0.0503
 9011SOL    HW138495   3.005   2.972   6.102  2.3825  1.7704 -0.3300
 9011SOL    HW238496   3.021   3.096   6.020 -1.4304  1.2503 -1.3301
 9012SOL     OW38497   1.260   0.299  16.139 -0.0007 -1.1525  0.0190
 9012SOL    HW138498   1.254   0.206  16.163 -0.3391 -1.1838 -0.1851
 9012SOL    HW238499   1.183   0.307  16.082 -1.1224 -0.0058  1.6928
 9013SOL     OW38500   3.713   1.495  12.669 -0.6327  0.3808 -0.1455
 9013SOL    HW138501   3.770   1.458  12.736  0.6961  3.6020  0.4874
 9013SOL    HW238502   3.735   1.588  12.673 -0.8574  0.5435 -2.6176
 9014SOL     OW38503   3.829   2.746   1.117  0.2090 -0.2079 -0.0704
 9014SOL    HW138504   3.903   2.706   1.072 -1.0346 -2.4979 -0.1094
 9014SOL    HW238505   3.757   2.728   1.056 -0.3795  1.8569  0.0165
 9015SOL     OW38506   0.280   3.325  15.820  0.1672  0.3406 -0.2994
 9015SOL    HW138507   0.362   3.276  15.816 -0.0290  0.0221 -0.4344
 9015SOL    HW238508   0.270   3.346  15.913 -0.9395 -2.1453  0.1583
 9016SOL     OW38509   1.608   2.185   7.671 -0.2423 -0.1800  0.0864
 9016SOL    HW138510   1.621   2.244   7.745 -1.6332  0.4557 -0.1786
 9016SOL    HW238511   1.656   2.231   7.602 -0.9902 -0.4997 -0.6444
 9017SOL     OW38512   1.866   0.557  10.054 -0.4141 -0.0628 -0.5036
 9017SOL    HW138513   1.909   0.534   9.971 -0.2384 -0.4227 -0.3108
 9017SOL    HW238514   1.774   0.545  10.034 -0.8017 -2.1933  2.5192
 9018SOL     OW38515   1.196   4.712   2.470 -0.1741  0.6939 -0.4679
 9018SOL    HW138516   1.146   4.678   2.396 -1.1400 -0.3605  0.6526
 9018SOL    HW238517   1.278   4.675   2.437 -1.1541 -0.7068 -1.3329
 9019SOL     OW38518   3.969   1.704   5.257  0.4329  0.3735 -0.2197
 9019SOL    HW138519   3.999   1.720   5.167 -3.2509  1.2726 -1.2841
 9019SOL    HW238520   3.909   1.779   5.263 -1.1596 -0.8595 -0.8067
 9020SOL     OW38521   1.519   1.537   6.187  0.4234 -0.6319  0.4899
 9020SOL    HW138522   1.512   1.509   6.096  2.6719  0.3285  0.0228
 9020SOL    HW238523   1.593   1.484   6.217  1.6424 -0.2739 -1.9088
 9021SOL     OW38524   1.420   0.429  16.320  0.2696  0.4880 -0.5858
 9021SOL    HW138525   1.360   0.503  16.326  0.0507  0.6493 -4.4353
 9021SOL    HW238526   1.372   0.375  16.257 -0.1142  0.2067 -0.0574
 9022SOL     OW38527   2.486   1.480   9.122 -0.0239 -0.5235 -0.4843
 9022SOL    HW138528   2.428   1.554   9.101 -1.4126 -1.1487  1.1886
 9022SOL    HW238529   2.424   1.418   9.159  2.3844 -1.2820  2.2861
 9023SOL     OW38530   2.901   2.357   2.039 -0.3970 -0.2446  0.1667
 9023SOL    HW138531   2.872   2.287   2.098  0.6457 -0.2103  0.7245
 9023SOL    HW238532   2.980   2.330   1.993 -1.0569  1.0195 -1.6836
 9024SOL     OW38533   3.139   0.127   8.764 -0.0973  0.3854 -0.0722
 9024SOL    HW138534   3.087   0.047   8.778  1.4868 -0.5966  0.2068
 9024SOL    HW238535   3.136   0.170   8.850 -3.9602 -2.5509  1.3033
 9025SOL     OW38536   1.472   1.776   6.309 -0.0277 -0.2171  0.1464
 9025SOL    HW138537   1.393   1.744   6.353  0.3148 -1.2411  0.0009
 9025SOL    HW238538   1.503   1.692   6.276 -0.6854  0.6714 -2.7575
 9026SOL     OW38539   1.072   1.793   4.155 -0.3203  0.0990  0.1328
 9026SOL    HW138540   1.092   1.742   4.234 -0.9749  0.1255  0.3149
 9026SOL    HW238541   1.068   1.883   4.188 -3.8963  0.0076 -0.0488
 9027SOL     OW38542   0.101   2.644   5.951 -0.2907 -0.2229 -0.2672
 9027SOL    HW138543   0.032   2.630   5.886 -1.9432 -1.9929  1.8699
 9027SOL    HW238544   0.164   2.697   5.903  0.9731 -2.5549 -1.1936
 9028SOL     OW38545   0.042   1.167  12.521  0.0319  0.2756  0.3363
 9028SOL    HW138546   0.016   1.094  12.578  0.5634  2.8710  3.9009
 9028SOL    HW238547   0.131   1.191  12.548  0.3542 -1.5825  0.9314
 9029SOL     OW38548   3.500   4.720   4.716  0.0526 -0.0984 -0.5223
 9029SOL    HW138549   3.585   0.040   4.703  0.2373 -0.8252 -1.6594
 9029SOL    HW238550   3.453   4.721   4.632  1.2457  1.1742 -1.1685
 9030SOL     OW38551   4.463   2.078   4.118  0.2923 -0.3163  0.2008
 9030SOL    HW138552   4.388   2.018   4.118 -0.7189  0.9891 -2.9492
 9030SOL    HW238553   4.503   2.043   4.198  0.9467 -2.9533 -1.2527
 9031SOL     OW38554   2.074   2.936  14.109  0.2880  0.7039 -0.3063
 9031SOL    HW138555   2.043   2.979  14.029  0.7398  1.2249 -0.1950
 9031SOL    HW238556   2.160   2.976  14.117 -0.1667  1.4043  1.0291
 9032SOL     OW38557   2.166   4.209   5.715  0.6780  0.0175 -0.6089
 9032SOL    HW138558   2.102   4.278   5.705  0.1955 -0.4505 -0.7475
 9032SOL    HW238559   2.243   4.242   5.668  0.1087  0.3725 -1.2901
 9033SOL     OW38560   2.517   3.171   5.163 -0.7728  0.2213 -0.2049
 9033SOL    HW138561   2.481   3.178   5.075 -0.3903 -1.2640 -0.4824
 9033SOL    HW238562   2.609   3.189   5.147 -0.0685 -2.4554  0.9503
 9034SOL     OW38563   3.115   1.513  16.722  0.0939 -0.9465 -0.0691
 9034SOL    HW138564   3.182   1.566  16.679  0.8432  0.6609  3.0582
 9034SOL    HW238565   3.050   1.505  16.652 -1.4192  1.0975  1.1042
 9035SOL     OW38566   1.143   3.648   3.877 -0.3741 -0.0563 -0.0848
 9035SOL    HW138567   1.236   3.654   3.856 -0.0417 -1.5086  0.9260
 9035SOL    HW238568   1.098   3.726   3.844  2.4728  1.1190 -1.1473
 9036SOL     OW38569   1.719   1.722   5.777  0.2491  0.5555  0.3275
 9036SOL    HW138570   1.790   1.704   5.839  0.4927  0.6023  0.0629
 9036SOL    HW238571   1.765   1.689   5.699 -0.8552  1.7030 -0.8107
 9037SOL     OW38572   1.749   3.787  13.788 -0.0779 -0.2425  0.0521
 9037SOL    HW138573   1.719   3.749  13.870 -0.1908 -2.4565 -0.9981
 9037SOL    HW238574   1.795   3.864  13.822  0.3534 -1.2273  1.6886
 9038SOL     OW38575   1.478   3.849   0.917  0.1800 -0.6625 -0.1065
 9038SOL    HW138576   1.467   3.912   0.845 -0.7350  0.0004  0.6171
 9038SOL    HW238577   1.558   3.875   0.962 -0.4657 -0.2967  0.8300
 9039SOL     OW38578   1.499   2.015  15.151 -0.7289 -0.5864 -0.1389
 9039SOL    HW138579   1.416   2.062  15.162 -0.6321 -0.8925  1.7892
 9039SOL    HW238580   1.554   2.092  15.164 -3.0340  1.1395 -0.5135
 9040SOL     OW38581   4.246   0.078   3.616 -0.3184  0.4490  0.2034
 9040SOL    HW138582   4.336   0.061   3.590  0.8759  3.8318  2.1069
 9040SOL    HW238583   4.234   0.001   3.672 -2.1583  1.0825  0.6704
 9041SOL     OW38584   3.180   4.668   4.660  0.1067 -0.7933 -0.6661
 9041SOL    HW138585   3.182   0.036   4.692  0.0930 -1.2932  0.7420
 9041SOL    HW238586   3.097   4.670   4.612  0.3927  0.7072 -1.0927
 9042SOL     OW38587   2.875   4.126  14.542 -0.1385 -0.0004 -0.6947
 9042SOL    HW138588   2.945   4.184  14.513  1.1691 -1.3698 -0.3186
 9042SOL    HW238589   2.907   4.097  14.628 -0.2831 -2.6234 -1.5199
 9043SOL     OW38590   0.040   0.976   7.302  0.4919  0.0313  0.2746
 9043SOL    HW138591   0.033   0.888   7.264  0.6549  0.0004  0.3122
 9043SOL    HW238592   0.004   1.025   7.229  0.1201 -2.2590 -1.0609
 9044SOL     OW38593   3.281   3.987  15.489  0.5499  0.9525 -0.3174
 9044SOL    HW138594   3.315   4.077  15.488 -0.6739  1.4021 -0.5539
 9044SOL    HW238595   3.339   3.954  15.420 -2.2914 -0.2813 -2.1150
 9045SOL     OW38596   2.438   2.918   7.550 -0.3642  0.4895 -0.2872
 9045SOL    HW138597   2.453   3.013   7.556 -2.3584  0.8341 -0.6317
 9045SOL    HW238598   2.483   2.895   7.631 -1.3139 -0.0493  0.0950
 9046SOL     OW38599   2.072   1.256   4.473  0.1845 -0.3422  0.1557
 9046SOL    HW138600   2.152   1.276   4.425 -1.0950 -1.2138 -2.3248
 9046SOL    HW238601   2.097   1.302   4.553  2.1344 -1.1444  0.0083
 9047SOL     OW38602   0.054   4.374  13.211  0.1211  0.2492  0.1855
 9047SOL    HW138603   4.722   4.453  13.214 -2.2235 -1.2405 -2.3753
 9047SOL    HW238604   0.110   4.391  13.286  2.0385 -0.5050 -1.0788
 9048SOL     OW38605   1.351   2.452   5.284 -0.2992 -0.7242 -0.0209
 9048SOL    HW138606   1.423   2.511   5.261 -2.0574 -0.9418 -5.9608
 9048SOL    HW238607   1.396   2.374   5.250  1.9034  1.6905 -2.5844
 9049SOL     OW38608   3.381   2.976   3.686 -0.4854 -0.2403 -0.4339
 9049SOL    HW138609   3.292   2.940   3.693 -0.8503  0.4183 -1.6893
 9049SOL    HW238610   3.391   2.995   3.779  0.0534  0.8157 -0.7142
 9050SOL     OW38611   0.703   1.571   4.820  0.1274 -0.0728  0.7596
 9050SOL    HW138612   0.765   1.499   4.829  0.2907 -0.0976 -0.5735
 9050SOL    HW238613   0.659   1.562   4.735  1.2017  0.7229  0.1186
 9051SOL     OW38614   2.980   2.140   8.169  0.0564  0.3568  0.7487
 9051SOL    HW138615   3.041   2.100   8.107 -0.5024 -0.7558  0.9215
 9051SOL    HW238616   3.038   2.179   8.234 -0.2574  1.1286  0.5674
 9052SOL     OW38617   2.050   2.271  16.126  0.1370 -0.3626 -0.1987
 9052SOL    HW138618   2.085   2.356  16.097 -0.8596 -0.4346 -1.5824
 9052SOL    HW238619   2.031   2.229  16.043 -2.7683 -2.5483  1.5740
 9053SOL     OW38620   4.686   3.843   1.531  0.4332  0.2051 -0.5139
 9053SOL    HW138621   4.697   3.935   1.509 -2.1223  0.5301 -0.4912
 9053SOL    HW238622   4.591   3.834   1.517  0.1955  1.4195  0.3198
 9054SOL     OW38623   0.387   0.971  12.245  0.2915 -0.1201 -0.3969
 9054SOL    HW138624   0.419   0.900  12.301 -0.8711  0.6147  1.1830
 9054SOL    HW238625   0.400   1.042  12.308  1.3551 -1.1747  0.5642
 9055SOL     OW38626   4.090   2.926   8.242 -0.0644  0.3713 -0.2814
 9055SOL    HW138627   4.094   3.000   8.303  1.1672 -0.4422  0.6263
 9055SOL    HW238628   4.032   2.882   8.303  1.7927 -0.6561  0.7430
 9056SOL     OW38629   4.095   1.864   2.829 -0.3938  0.5275  0.2970
 9056SOL    HW138630   4.065   1.778   2.798 -0.7035  0.6848  0.1670
 9056SOL    HW238631   4.047   1.871   2.912  1.2968  0.1646  1.3241
 9057SOL     OW38632   1.827   3.188   6.166  0.5860 -0.2465  0.1492
 9057SOL    HW138633   1.734   3.200   6.185  1.4052  1.5568  3.0320
 9057SOL    HW238634   1.866   3.176   6.252  0.4826 -0.0684  0.2215
 9058SOL     OW38635   0.754   4.385  12.754  0.0576 -0.3967 -0.2835
 9058SOL    HW138636   0.803   4.343  12.824  0.8776 -0.3111 -0.8075
 9058SOL    HW238637   0.667   4.357  12.782  0.1835  1.3468  1.8244
 9059SOL     OW38638   2.343   2.697   8.010  0.1807  0.5437 -0.2637
 9059SOL    HW138639   2.419   2.747   8.039 -1.3466  2.8054 -0.1725
 9059SOL    HW238640   2.305   2.763   7.953  1.2774  2.4847  1.2297
 9060SOL     OW38641   0.406   0.023   2.033 -0.0752  0.6867  0.4689
 9060SOL    HW138642   0.486   4.702   2.063 -1.3856  0.1747  3.1955
 9060SOL    HW238643   0.340   0.004   2.099 -1.5281  0.2452 -1.0891
 9061SOL     OW38644   2.726   3.622   9.955 -0.4256 -0.3349 -0.2364
 9061SOL    HW138645   2.710   3.629   9.861 -1.5566 -0.2058 -0.0350
 9061SOL    HW238646   2.763   3.710   9.967  1.8077 -1.2851 -0.0943
 9062SOL     OW38647   1.035   3.861  11.695  0.4864 -0.1001 -0.4325
 9062SOL    HW138648   0.959   3.809  11.669 -0.0573 -0.3609  1.6857
 9062SOL    HW238649   1.083   3.883  11.616  0.3180 -3.0809 -1.3641
 9063SOL     OW38650   0.931   0.279   8.682 -0.0565 -0.1036 -0.5180
 9063SOL    HW138651   0.957   0.187   8.692 -0.0407 -0.2011 -1.4647
 9063SOL    HW238652   0.917   0.302   8.774 -1.6146 -0.9121 -0.5442
 9064SOL     OW38653   4.103   3.951   0.250  0.0214 -0.2847 -0.3232
 9064SOL    HW138654   4.064   4.015   0.310 -0.5924  0.7487 -1.8520
 9064SOL    HW238655   4.169   4.007   0.210  0.1662 -1.8591 -2.3049
 9065SOL     OW38656   0.264   2.287   5.269  0.3926  0.5048 -0.4511
 9065SOL    HW138657   0.194   2.352   5.272  0.1641  0.0987  2.6771
 9065SOL    HW238658   0.290   2.282   5.177  1.5874 -1.4363  0.0065
 9066SOL     OW38659   2.112   1.546   2.013 -0.1980 -0.0807 -0.2276
 9066SOL    HW138660   2.042   1.497   1.969 -1.3182  0.2942  1.1376
 9066SOL    HW238661   2.080   1.634   1.991  0.6940 -0.2552 -2.2486
 9067SOL     OW38662   4.555   1.629   3.555  0.2966 -0.7284 -0.5098
 9067SOL    HW138663   4.569   1.553   3.612  4.2555  0.5535  0.2364
 9067SOL    HW238664   4.467   1.651   3.583  0.6762  0.5087 -0.2942
 9068SOL     OW38665   2.600   2.911   8.522  0.2252  0.5577  0.1862
 9068SOL    HW138666   2.560   2.917   8.609  2.1857 -0.1913  1.1262
 9068SOL    HW238667   2.531   2.863   8.476  1.3883  0.9791 -1.9954
 9069SOL     OW38668   1.625   4.662   3.872 -0.3217  0.2970 -0.5457
 9069SOL    HW138669   1.684   4.629   3.940 -0.4784  0.2696 -0.4229
 9069SOL    HW238670   1.597   0.019   3.919 -1.1996 -0.7655  0.7433
 9070SOL     OW38671   4.323   1.346   2.902  1.2225 -0.0211  0.5492
 9070SOL    HW138672   4.339   1.281   2.833 -1.1771  1.1346 -1.0775
 9070SOL    HW238673   4.412   1.338   2.938  1.4721  1.4774  0.2652
 9071SOL     OW38674   1.556   2.596   7.684 -0.3135  0.4806 -0.7442
 9071SOL    HW138675   1.601   2.580   7.602  2.5353 -3.8538  1.6351
 9071SOL    HW238676   1.526   2.685   7.668 -1.0848  0.2414 -0.6302
 9072SOL     OW38677   0.435   3.148   1.508  0.0680 -0.4206  0.5416
 9072SOL    HW138678   0.382   3.223   1.533 -0.1614 -0.3858 -0.0499
 9072SOL    HW238679   0.382   3.070   1.524 -0.7183  0.3461  1.6495
 9073SOL     OW38680   0.231   3.172   5.407 -0.0657 -0.7167  0.0056
 9073SOL    HW138681   0.205   3.089   5.365  0.2991  0.2037 -2.0507
 9073SOL    HW238682   0.265   3.149   5.493  0.7893  0.5899  0.0112
 9074SOL     OW38683   2.712   3.475   4.072  0.1031  0.1077  0.1985
 9074SOL    HW138684   2.781   3.412   4.090 -0.3401 -0.3074  0.4169
 9074SOL    HW238685   2.760   3.557   4.059 -1.5761  0.9075 -1.0647
 9075SOL     OW38686   2.507   1.193   4.195 -0.1467  0.1308  0.7388
 9075SOL    HW138687   2.536   1.105   4.174  2.0139  1.4513 -1.8454
 9075SOL    HW238688   2.524   1.248   4.118 -1.5532  0.4932  0.6777
 9076SOL     OW38689   2.474   2.100   2.602 -0.1471  0.3917 -0.2944
 9076SOL    HW138690   2.422   2.159   2.547 -3.5031 -1.5233  0.7909
 9076SOL    HW238691   2.546   2.160   2.622  2.2917 -2.2368 -1.2556
 9077SOL     OW38692   4.507   2.320   7.506 -0.7754  0.1651  0.7905
 9077SOL    HW138693   4.496   2.408   7.470  0.6467 -0.5306 -1.3665
 9077SOL    HW238694   4.445   2.275   7.448 -0.8780 -1.6592  2.3078
 9078SOL     OW38695   0.430   4.284   6.831  0.2708  0.0206  0.0674
 9078SOL    HW138696   0.472   4.366   6.802 -1.1194  0.6171 -0.2460
 9078SOL    HW238697   0.447   4.222   6.761 -0.7982 -0.7526  0.4948
 9079SOL     OW38698   2.531   0.212   7.848  0.2776  0.0034  0.1673
 9079SOL    HW138699   2.588   0.142   7.817 -0.8532 -1.4084  1.3028
 9079SOL    HW238700   2.555   0.226   7.940 -2.5954 -0.4930  0.9966
 9080SOL     OW38701   2.794   3.455   7.620 -0.3886  0.3282  0.1119
 9080SOL    HW138702   2.873   3.504   7.643  1.1421 -1.5159 -1.1981
 9080SOL    HW238703   2.737   3.527   7.595 -0.4863  0.7288  1.5370
 9081SOL     OW38704   3.529   3.330   8.821 -0.1007 -0.0031 -0.2711
 9081SOL    HW138705   3.440   3.363   8.830 -0.2257 -0.5873  0.6255
 9081SOL    HW238706   3.524   3.246   8.775 -1.6889  1.2590 -2.3944
 9082SOL     OW38707   1.165   2.629  11.291 -0.2673 -0.3540  0.5088
 9082SOL    HW138708   1.240   2.572  11.273  1.7476  2.8008 -1.1701
 9082SOL    HW238709   1.189   2.677  11.370  0.8030  1.2506 -0.7845
 9083SOL     OW38710   1.341   3.813   6.424 -0.4053 -0.4132  0.0358
 9083SOL    HW138711   1.313   3.892   6.470  3.5728 -0.7618  3.0287
 9083SOL    HW238712   1.272   3.795   6.360 -1.5880  0.0935  1.1661
 9084SOL     OW38713   0.164   3.573  17.252 -0.4027 -0.2968  0.1264
 9084SOL    HW138714   0.069   3.582  17.243 -0.4861 -0.3284  0.9732
 9084SOL    HW238715   0.195   3.621  17.175 -1.8873  0.3806 -0.0539
 9085SOL     OW38716   0.579   2.231  13.152 -0.4265 -0.0270 -0.4467
 9085SOL    HW138717   0.623   2.280  13.221 -1.5667 -0.5852  0.6817
 9085SOL    HW238718   0.504   2.196  13.200 -0.3284  0.9936  0.4468
 9086SOL     OW38719   4.241   2.083   4.559 -0.1496 -0.0173 -0.6652
 9086SOL    HW138720   4.195   2.131   4.490 -0.0571  0.3854 -0.4470
 9086SOL    HW238721   4.314   2.140   4.584 -1.7733  0.7045  2.3479
 9087SOL     OW38722   0.479   4.319   2.223  0.2217 -0.6531 -0.1407
 9087SOL    HW138723   0.493   4.231   2.189 -0.7803 -1.1482  0.7027
 9087SOL    HW238724   0.498   4.360   2.139 -0.2311 -0.2690 -0.0550
 9088SOL     OW38725   2.549   3.530   6.836  0.2482 -0.2398 -0.1363
 9088SOL    HW138726   2.632   3.512   6.881  0.2590  2.6104  1.0483
 9088SOL    HW238727   2.506   3.445   6.826  0.8527 -0.3691 -1.5180
 9089SOL     OW38728   1.169   1.066  17.048 -0.2750  0.1750  0.5052
 9089SOL    HW138729   1.082   1.057  17.085 -1.0908  0.6035 -1.3001
 9089SOL    HW238730   1.167   1.152  17.006  0.4331 -1.0028 -1.9350
 9090SOL     OW38731   3.423   3.244   2.007  0.0360 -0.0568 -0.4235
 9090SOL    HW138732   3.496   3.295   1.971 -0.7160  1.1308 -0.2574
 9090SOL    HW238733   3.394   3.293   2.084  0.7867  0.7782 -0.6662
 9091SOL     OW38734   3.510   1.775   4.918  0.4836  0.4568 -0.1602
 9091SOL    HW138735   3.455   1.697   4.910  1.6371 -0.3180 -0.4861
 9091SOL    HW238736   3.474   1.829   4.848  0.0453  1.3274  0.7217
 9092SOL     OW38737   0.599   2.337   7.141 -0.2897  0.0570  0.2074
 9092SOL    HW138738   0.626   2.314   7.052  0.3560 -0.3760  0.5145
 9092SOL    HW238739   0.590   2.432   7.127  1.5737 -0.1572 -2.3952
 9093SOL     OW38740   3.798   1.384   3.756  0.1717 -0.0487  0.1516
 9093SOL    HW138741   3.708   1.409   3.774  0.2518  0.5752 -0.3214
 9093SOL    HW238742   3.797   1.357   3.664 -0.5586  0.6665 -0.0514
 9094SOL     OW38743   1.666   0.017   4.665  0.2749  0.0236 -0.2382
 9094SOL    HW138744   1.711   0.056   4.591  0.9748 -0.2936  0.0225
 9094SOL    HW238745   1.641   4.653   4.633 -0.6184 -1.4698  4.4062
 9095SOL     OW38746   4.703   1.792   9.248  0.0653  0.0332  0.0485
 9095SOL    HW138747   4.656   1.812   9.329  0.9595 -0.7488  0.7676
 9095SOL    HW238748   0.069   1.773   9.282  1.4307  1.8468 -2.4654
 9096SOL     OW38749   2.299   4.126   4.762  0.1825 -0.0802  0.3876
 9096SOL    HW138750   2.247   4.123   4.842  2.1073 -0.3689  1.6519
 9096SOL    HW238751   2.302   4.221   4.750  0.0563 -0.1165  0.0754
 9097SOL     OW38752   0.438   2.273   3.697 -0.3756  0.1003 -0.2096
 9097SOL    HW138753   0.358   2.305   3.655 -0.9573  1.8535  2.2371
 9097SOL    HW238754   0.477   2.347   3.745  0.7981 -2.2089  2.3580
 9098SOL     OW38755   4.054   0.326  11.789  0.7407  0.0819  0.1280
 9098SOL    HW138756   4.009   0.359  11.712 -0.5229 -0.1760  0.7689
 9098SOL    HW238757   4.067   0.410  11.835 -0.0807  0.2806 -0.0029
 9099SOL     OW38758   2.881   0.124   4.945 -0.2444  0.0475  0.2944
 9099SOL    HW138759   2.886   0.053   5.009  0.6945  0.6473  0.8946
 9099SOL    HW238760   2.814   0.095   4.884  0.3689 -1.7287  0.4557
 9100SOL     OW38761   2.994   3.527  11.764 -0.9426  0.3367  0.7719
 9100SOL    HW138762   3.072   3.568  11.800 -0.4924  1.2815 -1.2758
 9100SOL    HW238763   2.969   3.581  11.689  0.0198 -0.5928 -0.2291
 9101SOL     OW38764   0.697   1.270   3.746 -0.0329  0.1810  0.4090
 9101SOL    HW138765   0.782   1.238   3.776  0.3780 -1.0100 -2.0421
 9101SOL    HW238766   0.647   1.189   3.755  0.4506 -0.4254 -2.3866
 9102SOL     OW38767   1.638   2.394   2.216 -0.2355  0.2059  0.6586
 9102SOL    HW138768   1.653   2.488   2.200  0.2966 -0.2453 -1.5777
 9102SOL    HW238769   1.699   2.378   2.288 -0.5431  0.8231  1.0568
 9103SOL     OW38770   3.754   2.692   5.739 -0.3193 -0.0561 -0.0716
 9103SOL    HW138771   3.838   2.729   5.711 -0.7260 -0.3697 -1.7081
 9103SOL    HW238772   3.762   2.605   5.699 -0.0741  0.6085 -1.4661
 9104SOL     OW38773   4.471   2.457  16.851  0.5681 -0.2108  0.2818
 9104SOL    HW138774   4.415   2.412  16.787  0.4550 -1.7768  1.5122
 9104SOL    HW238775   4.422   2.430  16.928 -0.1100  0.6973  0.1863
 9105SOL     OW38776   0.895   1.450   4.354  0.4062 -0.0785  0.3428
 9105SOL    HW138777   0.810   1.462   4.313  0.1630 -1.0647  0.5512
 9105SOL    HW238778   0.948   1.432   4.277  1.3492 -0.5651  1.1047
 9106SOL     OW38779   4.539   4.009   8.390  0.0128 -0.2477 -0.2423
 9106SOL    HW138780   4.630   3.983   8.378 -0.4065 -1.6888 -0.3351
 9106SOL    HW238781   4.547   4.074   8.460 -2.5045  1.3085 -1.4109
 9107SOL     OW38782   2.056   4.597  14.544 -0.3989  0.1134 -0.2323
 9107SOL    HW138783   2.015   4.623  14.626  0.6461  0.8604  0.0458
 9107SOL    HW238784   2.003   4.521  14.519  0.2727 -0.4823  0.1554
 9108SOL     OW38785   0.222   1.197  15.685 -0.3267 -0.5737  0.4101
 9108SOL    HW138786   0.311   1.172  15.663  0.3763  1.4605  0.9460
 9108SOL    HW238787   0.188   1.227  15.600  0.4683  1.1010  0.6909
 9109SOL     OW38788   3.894   0.742   6.470  0.0334 -0.3803 -0.6316
 9109SOL    HW138789   3.925   0.669   6.417  0.9561 -1.3818  1.2790
 9109SOL    HW238790   3.827   0.699   6.523 -1.6940  2.5630 -0.4350
 9110SOL     OW38791   3.304   0.015   4.063  0.0024  0.2127 -0.0152
 9110SOL    HW138792   3.265   4.716   3.979  0.2215  0.5813 -0.2119
 9110SOL    HW238793   3.268   0.102   4.080 -0.4633  0.2739 -1.3655
 9111SOL     OW38794   1.251   4.154   3.179  0.2647  0.1205 -0.0270
 9111SOL    HW138795   1.222   4.243   3.160  1.4447  0.9335  2.0213
 9111SOL    HW238796   1.337   4.149   3.138 -0.0630  0.5408 -0.7705
 9112SOL     OW38797   1.161   1.867   8.860 -0.5286  0.0698 -0.6510
 9112SOL    HW138798   1.086   1.924   8.842  0.9377  0.8275 -4.4546
 9112SOL    HW238799   1.209   1.869   8.777  0.8753  0.1067  0.1758
 9113SOL     OW38800   4.211   1.922   3.464 -0.6587 -0.1288 -0.5417
 9113SOL    HW138801   4.217   1.862   3.390 -1.7312 -3.6671  2.2450
 9113SOL    HW238802   4.241   1.862   3.533 -1.6849 -0.1725 -0.1416
 9114SOL     OW38803   2.769   1.402   3.583 -0.0840 -0.1083 -0.7275
 9114SOL    HW138804   2.849   1.391   3.634  0.9986 -0.7892 -2.5773
 9114SOL    HW238805   2.704   1.385   3.652  1.6155 -0.5538  0.7772
 9115SOL     OW38806   2.599   0.608   4.594  0.0343 -0.3106 -0.2142
 9115SOL    HW138807   2.609   0.700   4.569  0.8701 -0.4318 -0.3049
 9115SOL    HW238808   2.568   0.568   4.513  2.2173  0.0438 -1.2151
 9116SOL     OW38809   0.821   3.948  12.533 -0.2850  0.0680 -0.6277
 9116SOL    HW138810   0.810   3.923  12.625 -0.3333 -0.1483 -0.6933
 9116SOL    HW238811   0.906   3.993  12.527 -0.4057  0.3066 -0.5451
 9117SOL     OW38812   2.668   1.902  11.989  0.1633 -0.7379 -0.7297
 9117SOL    HW138813   2.689   1.989  11.956 -1.1861  0.2175  0.9044
 9117SOL    HW238814   2.726   1.837  11.950 -0.4365 -0.0606 -2.7443
 9118SOL     OW38815   3.402   1.358   6.318 -0.3553 -0.2201  0.3965
 9118SOL    HW138816   3.347   1.357   6.396 -2.8234  2.5520 -1.3344
 9118SOL    HW238817   3.424   1.265   6.306 -2.5723 -0.6734 -0.0566
 9119SOL     OW38818   3.604   0.992  11.573  0.2262  0.7110  0.2083
 9119SOL    HW138819   3.608   0.896  11.577 -1.2414  0.7501  2.4153
 9119SOL    HW238820   3.655   1.015  11.495 -0.2633 -0.3750 -0.4323
 9120SOL     OW38821   3.529   0.324   3.119  0.3867 -0.3429 -0.3084
 9120SOL    HW138822   3.462   0.390   3.134 -1.0389 -1.0422 -3.3489
 9120SOL    HW238823   3.525   0.329   3.023 -1.7727  3.3682  0.0134
 9121SOL     OW38824   4.296   3.997   4.982 -0.0372  0.3124 -0.3163
 9121SOL    HW138825   4.227   3.940   4.948 -1.3328  2.2600 -0.9517
 9121SOL    HW238826   4.370   3.980   4.925 -0.4592 -1.0853 -0.4404
 9122SOL     OW38827   2.630   4.317   4.267 -0.2386  0.1084 -0.4492
 9122SOL    HW138828   2.620   4.342   4.359  0.4711 -1.9742  0.1958
 9122SOL    HW238829   2.620   4.406   4.232 -1.1125  0.6051  1.0609
 9123SOL     OW38830   2.497   3.147   0.360 -0.0782 -0.1253  0.2900
 9123SOL    HW138831   2.558   3.220   0.347 -0.4352  0.1960  0.4455
 9123SOL    HW238832   2.551   3.086   0.410  0.2544 -0.6755 -0.7385
 9124SOL     OW38833   1.409   1.035   3.904  0.0844 -0.1750  0.2949
 9124SOL    HW138834   1.371   1.034   3.816 -0.0316 -1.7875  0.3471
 9124SOL    HW238835   1.414   0.943   3.930  1.6902  0.2092  1.3383
 9125SOL     OW38836   0.105   4.060   8.693 -0.7297  0.6758  0.5087
 9125SOL    HW138837   0.176   4.111   8.654 -0.8593  0.7939  0.4278
 9125SOL    HW238838   0.136   3.970   8.702  1.8064  1.3982 -1.2079
 9126SOL     OW38839   3.056   1.588   8.083 -0.1331 -0.5186  0.2299
 9126SOL    HW138840   3.005   1.646   8.140 -0.5353  0.4147 -1.0757
 9126SOL    HW238841   3.002   1.511   8.100 -0.0776 -0.5994  0.0420
 9127SOL     OW38842   4.328   4.591   3.292  0.3836 -0.8166  0.1179
 9127SOL    HW138843   4.413   4.591   3.250  1.1022  0.3797  1.5612
 9127SOL    HW238844   4.345   4.650   3.366 -1.6657  0.6743 -0.5960
 9128SOL     OW38845   3.208   1.482   2.521  0.2272  0.2665  0.1394
 9128SOL    HW138846   3.229   1.393   2.550 -0.8963  0.3936  1.3186
 9128SOL    HW238847   3.114   1.479   2.536  0.3109  0.9239  0.7437
 9129SOL     OW38848   3.205   0.586  13.859 -0.4006 -0.6011  0.2725
 9129SOL    HW138849   3.222   0.493  13.850  2.7938 -0.0835  0.9879
 9129SOL    HW238850   3.110   0.583  13.873 -0.1618  2.3684  2.5525
 9130SOL     OW38851   2.783   4.183   7.499 -0.1942  0.2554 -0.1594
 9130SOL    HW138852   2.728   4.224   7.566  0.1878 -0.8632  0.8453
 9130SOL    HW238853   2.782   4.257   7.439 -0.5844 -0.7354 -1.3782
 9131SOL     OW38854   3.060   3.994   4.937 -0.2723  0.1684 -0.0792
 9131SOL    HW138855   3.117   4.069   4.954  2.0180 -1.9530  1.4347
 9131SOL    HW238856   2.981   4.039   4.904  0.9900  1.9353 -0.6918
 9132SOL     OW38857   1.442   4.475   5.321 -0.1840 -0.5661 -0.2692
 9132SOL    HW138858   1.483   4.391   5.302 -0.0461 -0.3841 -0.7654
 9132SOL    HW238859   1.355   4.448   5.351 -1.3407  0.8543 -2.3109
 9133SOL     OW38860   1.851   4.704   8.072  0.1326  0.3880 -0.0561
 9133SOL    HW138861   1.860   4.616   8.108  0.0827  0.7187  0.7593
 9133SOL    HW238862   1.915   0.028   8.127  2.0892 -2.6849  0.2744
 9134SOL     OW38863   4.345   3.037   0.851  0.1729  0.0657  0.2748
 9134SOL    HW138864   4.322   2.952   0.811 -2.0155  1.8350 -2.2251
 9134SOL    HW238865   4.281   3.041   0.923 -2.0882  2.3196 -1.8903
 9135SOL     OW38866   0.951   3.136   8.070 -1.1303  0.0208 -0.0877
 9135SOL    HW138867   0.856   3.126   8.077 -1.2766  1.5998  0.1115
 9135SOL    HW238868   0.958   3.082   7.990 -1.3055  0.9060 -0.6977
 9136SOL     OW38869   0.437   0.002   9.289  0.5872 -0.2056  0.3847
 9136SOL    HW138870   0.368   0.034   9.232  0.0728 -1.9736  0.0219
 9136SOL    HW238871   0.401   4.639   9.310 -0.9299 -0.3669 -2.8809
 9137SOL     OW38872   1.664   2.815  11.562 -0.2978  0.5933  0.0661
 9137SOL    HW138873   1.572   2.789  11.571 -0.4543  0.3892 -2.0249
 9137SOL    HW238874   1.659   2.897  11.513  1.2942  1.2258  0.9629
 9138SOL     OW38875   2.495   0.494   5.178 -0.4425  0.8608  0.4067
 9138SOL    HW138876   2.415   0.527   5.220 -0.5669  0.2091  0.6794
 9138SOL    HW238877   2.465   0.493   5.087 -3.2517 -1.9149  1.3598
 9139SOL     OW38878   0.850   1.180   7.067  0.6626 -0.0734 -0.3081
 9139SOL    HW138879   0.791   1.237   7.117 -0.4868  1.5226 -3.4807
 9139SOL    HW238880   0.863   1.233   6.988 -1.7713  1.4754  0.3365
 9140SOL     OW38881   1.103   0.272   4.103  0.7797 -0.2022 -0.0926
 9140SOL    HW138882   1.150   0.347   4.138  2.0743 -0.3929 -1.4505
 9140SOL    HW238883   1.132   0.205   4.165  1.2679 -0.1416 -0.2580
 9141SOL     OW38884   1.307   1.289   9.820  0.1061 -0.5667 -0.2148
 9141SOL    HW138885   1.303   1.384   9.815  0.9273 -0.4581  0.9746
 9141SOL    HW238886   1.284   1.272   9.911 -1.4089  1.0181 -0.3044
 9142SOL     OW38887   3.580   3.767   9.139  0.1576 -0.2975  0.2336
 9142SOL    HW138888   3.557   3.782   9.231 -3.1298  1.4407 -0.8479
 9142SOL    HW238889   3.586   3.672   9.150  1.5310  0.0308  2.2023
 9143SOL     OW38890   1.938   0.495  10.321  0.5377 -0.6878 -0.0951
 9143SOL    HW138891   2.018   0.547  10.325 -0.6728  1.1834  0.2234
 9143SOL    HW238892   1.898   0.538  10.245 -0.1253  0.1841  0.7354
 9144SOL     OW38893   3.722   3.206   3.987  0.5543  0.1588  0.4052
 9144SOL    HW138894   3.697   3.256   3.909  3.2536  1.4897  0.4032
 9144SOL    HW238895   3.815   3.225   3.987  0.5773  0.0478  0.6331
 9145SOL     OW38896   3.600   2.254   9.222  0.1320  0.5250 -0.2700
 9145SOL    HW138897   3.528   2.317   9.216 -2.1408 -1.9805  0.7503
 9145SOL    HW238898   3.563   2.192   9.160 -0.3596 -0.1847  0.7235
 9146SOL     OW38899   4.673   1.241   6.778  0.2015  0.4812  0.1785
 9146SOL    HW138900   4.651   1.333   6.766 -0.9823  0.1173 -0.4034
 9146SOL    HW238901   4.589   1.198   6.794  0.0250  0.5826 -0.5002
 9147SOL     OW38902   0.828   4.064   3.984  0.1642  0.4862 -0.3990
 9147SOL    HW138903   0.864   4.153   3.988  0.3458  0.3963 -0.0446
 9147SOL    HW238904   0.789   4.061   4.071 -3.9749 -0.8023 -2.3340
 9148SOL     OW38905   2.641   3.007   8.231 -0.1707  0.1227  0.7112
 9148SOL    HW138906   2.683   3.033   8.313  2.7175 -1.0699 -0.3814
 9148SOL    HW238907   2.554   3.017   8.269 -0.1481  1.6125  0.3473
 9149SOL     OW38908   0.947   0.283   8.967 -0.2083  0.5425 -0.3172
 9149SOL    HW138909   1.039   0.310   8.974  0.2559 -0.9022 -0.7535
 9149SOL    HW238910   0.932   0.262   9.060 -1.8283 -0.5254 -0.8214
 9150SOL     OW38911   1.419   3.236   5.118 -0.1890 -0.3080 -0.2489
 9150SOL    HW138912   1.425   3.232   5.214 -0.3254 -0.1184 -0.2316
 9150SOL    HW238913   1.329   3.265   5.101  0.1507  0.1809 -1.2026
 9151SOL     OW38914   2.660   3.208  15.074 -0.6603  0.3052  0.4423
 9151SOL    HW138915   2.628   3.130  15.029  1.5860  0.2822 -1.1577
 9151SOL    HW238916   2.715   3.259  15.014 -0.6593  1.0436  1.0728
 9152SOL     OW38917   4.658   1.408  10.964  0.2564  0.2868  0.0527
 9152SOL    HW138918   0.029   1.421  10.946  0.0598  0.5428 -0.7643
 9152SOL    HW238919   4.640   1.352  10.889 -1.4693 -0.1181  0.7678
 9153SOL     OW38920   1.449   1.279   1.640  0.4834 -0.4586 -0.2658
 9153SOL    HW138921   1.522   1.218   1.634  2.0324  1.3276  0.2290
 9153SOL    HW238922   1.403   1.250   1.718 -1.5974 -0.1235 -1.3626
 9154SOL     OW38923   4.329   1.537   7.707 -0.3703  0.0836 -0.3616
 9154SOL    HW138924   4.324   1.633   7.705 -0.7710  0.0585 -0.5101
 9154SOL    HW238925   4.375   1.532   7.623 -1.7863  1.8710 -1.2409
 9155SOL     OW38926   1.824   0.089   8.386 -0.0570 -0.6052 -0.0543
 9155SOL    HW138927   1.875   0.009   8.400 -3.7767 -2.7444  1.4932
 9155SOL    HW238928   1.863   0.120   8.305  0.8919 -1.4981  0.0588
 9156SOL     OW38929   2.868   3.864   9.976 -0.0894  0.3513 -0.3342
 9156SOL    HW138930   2.918   3.935   9.936  1.7479 -2.3019 -2.7757
 9156SOL    HW238931   2.784   3.889   9.937 -0.0541 -1.2959 -1.4647
 9157SOL     OW38932   4.236   0.368   9.565  0.1653 -0.2338 -0.2445
 9157SOL    HW138933   4.186   0.313   9.626  1.3951 -0.7666  0.2690
 9157SOL    HW238934   4.322   0.351   9.603 -0.1733  1.0858  1.1178
 9158SOL     OW38935   0.149   1.679  13.511 -0.2742 -0.1022 -0.5948
 9158SOL    HW138936   0.203   1.758  13.517 -0.6840  0.3051 -2.2724
 9158SOL    HW238937   0.188   1.654  13.427 -1.7927  0.1386 -1.3774
 9159SOL     OW38938   0.653   1.663   3.791  0.2755  0.3272  0.3861
 9159SOL    HW138939   0.587   1.731   3.777 -0.4308 -0.8383 -1.8336
 9159SOL    HW238940   0.684   1.667   3.701 -2.5333  2.3631 -0.4858
 9160SOL     OW38941   2.795   0.234   9.415 -0.8456 -0.5278 -0.4426
 9160SOL    HW138942   2.782   0.194   9.502 -0.8263  1.5082  0.4973
 9160SOL    HW238943   2.707   0.259   9.388 -1.2174  0.7040  1.9018
 9161SOL     OW38944   0.920   4.159   6.438 -0.2116  0.8431  0.1460
 9161SOL    HW138945   0.938   4.139   6.346 -1.2051  0.8081 -0.0359
 9161SOL    HW238946   0.960   4.087   6.487 -2.5725  0.1360  0.9954
 9162SOL     OW38947   1.720   1.144   1.714 -0.9040 -0.1895 -0.6906
 9162SOL    HW138948   1.762   1.212   1.662  1.6581 -0.6813  0.7357
 9162SOL    HW238949   1.783   1.072   1.702  0.2993  0.8186 -0.4263
 9163SOL     OW38950   3.481   2.702   1.481 -0.0662  0.2230 -0.0566
 9163SOL    HW138951   3.522   2.678   1.564 -2.1792  1.0148  1.2011
 9163SOL    HW238952   3.514   2.791   1.477  3.3034 -1.0936 -2.3921
 9164SOL     OW38953   3.748   3.460  16.777  0.1072 -0.0394 -0.2050
 9164SOL    HW138954   3.821   3.399  16.767  1.3244  1.0603  2.1667
 9164SOL    HW238955   3.675   3.402  16.754 -1.4951  1.8260  0.1979
 9165SOL     OW38956   0.399   0.287  16.480 -0.2827  0.0967 -0.2339
 9165SOL    HW138957   0.415   0.335  16.398  0.2335 -2.3749 -1.6034
 9165SOL    HW238958   0.488   0.262  16.505  0.0784 -0.7021 -2.2556
 9166SOL     OW38959   0.718   4.490   6.069 -0.4574  0.0146  0.0166
 9166SOL    HW138960   0.747   4.415   6.016  1.6617  1.2694 -0.5780
 9166SOL    HW238961   0.742   4.461   6.157  2.7365 -1.9759 -1.5205
 9167SOL     OW38962   2.307   3.192   6.300 -0.0904  0.1309  0.1117
 9167SOL    HW138963   2.249   3.233   6.365  0.3409  0.8959  0.0106
 9167SOL    HW238964   2.247   3.194   6.225  0.9112  1.8762 -0.6399
 9168SOL     OW38965   0.661   2.818   0.539 -0.6220  0.5347  0.8127
 9168SOL    HW138966   0.754   2.832   0.526 -0.7156  0.5246  0.1361
 9168SOL    HW238967   0.631   2.907   0.521  1.0157  0.9810  0.3663
 9169SOL     OW38968   2.283   2.579  16.860 -0.1444  0.3612  0.0806
 9169SOL    HW138969   2.188   2.582  16.847 -0.5428  0.3858  2.9625
 9169SOL    HW238970   2.282   2.571  16.955 -1.5301 -0.7575 -0.0224
 9170SOL     OW38971   3.968   2.831   4.057 -0.0321  0.6140 -0.1009
 9170SOL    HW138972   4.045   2.781   4.031  0.0423  0.9217 -0.4667
 9170SOL    HW238973   4.015   2.913   4.070  0.2625  0.4870 -0.3656
 9171SOL     OW38974   0.966   1.314   6.069 -0.1869  0.1008  0.2268
 9171SOL    HW138975   0.909   1.239   6.088  0.2572 -0.5807 -1.1838
 9171SOL    HW238976   1.007   1.285   5.988  2.3782 -0.6782  1.8170
 9172SOL     OW38977   1.434   3.609   0.782  0.0441 -0.2682  0.1086
 9172SOL    HW138978   1.460   3.678   0.843  1.3561 -1.2667  0.6825
 9172SOL    HW238979   1.488   3.535   0.809 -0.7388 -0.5726  0.8484
 9173SOL     OW38980   3.327   4.684   7.856  0.6129  0.3949 -0.8807
 9173SOL    HW138981   3.275   4.704   7.778 -2.6509  0.5705  1.3276
 9173SOL    HW238982   3.328   4.591   7.834 -1.1244 -0.0409  0.9180
 9174SOL     OW38983   3.323   2.498   0.702 -0.0009  0.0818  0.0727
 9174SOL    HW138984   3.284   2.419   0.664  1.8273 -1.0673  0.6355
 9174SOL    HW238985   3.281   2.515   0.786 -0.8748 -1.7667  0.0054
 9175SOL     OW38986   2.154   3.986   1.001  0.4857 -0.0789  0.0820
 9175SOL    HW138987   2.237   3.987   1.048  1.5436  0.4329 -1.8329
 9175SOL    HW238988   2.160   4.050   0.930 -1.5508  0.1263  0.0780
 9176SOL     OW38989   2.681   0.416   7.713  0.3082 -0.2316  0.5096
 9176SOL    HW138990   2.723   0.343   7.667 -1.7004 -0.6783 -0.6383
 9176SOL    HW238991   2.616   0.364   7.761 -0.5151 -1.7022 -2.1509
 9177SOL     OW38992   1.020   1.954   5.128 -0.0658 -0.3899  0.1254
 9177SOL    HW138993   1.081   2.009   5.178  1.7401 -1.0276 -1.3702
 9177SOL    HW238994   1.079   1.911   5.066  0.4027 -2.2546  1.8676
 9178SOL     OW38995   3.369   4.406   7.868 -0.3188  0.6127 -0.0005
 9178SOL    HW138996   3.342   4.368   7.784 -1.8132 -1.0583  1.2364
 9178SOL    HW238997   3.461   4.414   7.841 -0.7987 -0.1022 -1.8719
 9179SOL     OW38998   4.402   3.288   6.806 -0.4091  0.8916  0.4751
 9179SOL    HW138999   4.381   3.197   6.823  0.3426  0.2981 -1.7378
 9179SOL    HW239000   4.498   3.283   6.796 -0.5656 -2.4293  0.7920
 9180SOL     OW39001   0.520   4.296   6.249 -0.3223  0.1346 -0.1440
 9180SOL    HW139002   0.495   4.379   6.208  0.3553  1.8129  2.8304
 9180SOL    HW239003   0.608   4.327   6.271 -0.2711  0.0048 -0.1619
 9181SOL     OW39004   3.905   2.237  10.477  0.4298  0.1851  0.2318
 9181SOL    HW139005   3.892   2.144  10.495  2.2331 -0.6392 -2.7064
 9181SOL    HW239006   3.859   2.284  10.547 -0.8518 -1.5590  0.5497
 9182SOL     OW39007   1.838   2.636   5.736 -0.1064  0.1733 -0.3336
 9182SOL    HW139008   1.762   2.578   5.737 -0.4677  0.6483 -0.1061
 9182SOL    HW239009   1.815   2.700   5.804  1.4904 -0.5148  0.8518
 9183SOL     OW39010   2.476   4.567   8.208  0.4264 -0.2859 -0.2932
 9183SOL    HW139011   2.560   4.525   8.187  0.3447  0.0308 -1.2761
 9183SOL    HW239012   2.502   4.627   8.277 -1.8120  0.0361  0.2692
 9184SOL     OW39013   1.732   3.457  15.660  0.3799  0.2029  0.1424
 9184SOL    HW139014   1.709   3.518  15.730  0.4708  0.2583  0.1245
 9184SOL    HW239015   1.813   3.489  15.619  0.4027  3.4608  2.7833
 9185SOL     OW39016   0.141   0.391   4.127  0.0327  0.0720 -0.1014
 9185SOL    HW139017   0.082   0.403   4.202 -0.7925 -2.1397 -0.3962
 9185SOL    HW239018   0.183   0.477   4.132  2.0057 -0.8008 -1.3934
 9186SOL     OW39019   1.544   4.599   6.553  0.1675 -0.5300  0.4582
 9186SOL    HW139020   1.610   4.570   6.615  0.2367  1.1426  1.1744
 9186SOL    HW239021   1.596   4.665   6.507  0.0883  1.9551  3.9439
 9187SOL     OW39022   2.768   3.639  13.845  0.1585 -0.1552  0.1751
 9187SOL    HW139023   2.753   3.562  13.791 -0.6389 -0.3615  0.6903
 9187SOL    HW239024   2.683   3.680  13.828  0.9718  1.8336  0.8828
 9188SOL     OW39025   3.096   0.992   2.810 -0.5263  0.2742  0.6564
 9188SOL    HW139026   3.168   0.944   2.769 -0.6740 -0.5346  1.3320
 9188SOL    HW239027   3.044   0.920   2.846 -0.0906  0.8457  2.4502
 9189SOL     OW39028   0.586   0.962  17.307 -0.6626  0.1290  0.2962
 9189SOL    HW139029   0.609   0.958  17.214 -0.6230  1.6630  0.2521
 9189SOL    HW239030   0.495   0.991  17.306 -0.5023  0.6311  0.5779
 9190SOL     OW39031   3.257   0.818   4.133 -0.1027 -0.1620 -0.6183
 9190SOL    HW139032   3.175   0.859   4.105 -0.2901  0.5802  1.0543
 9190SOL    HW239033   3.320   0.890   4.132 -0.0311 -0.2387 -1.8146
 9191SOL     OW39034   1.816   3.884   8.699 -0.2426  0.4358 -0.2956
 9191SOL    HW139035   1.777   3.798   8.714 -0.7784  0.2726 -2.7585
 9191SOL    HW239036   1.902   3.874   8.658  0.1791  0.7241  0.5088
 9192SOL     OW39037   0.602   4.565   1.606 -0.4435  0.3191  0.0022
 9192SOL    HW139038   0.632   4.523   1.525  0.0008 -0.4220  0.5470
 9192SOL    HW239039   0.565   4.485   1.643  1.3481  0.1748  1.5008
 9193SOL     OW39040   0.343   3.240  11.229 -0.0004  0.1649  0.7606
 9193SOL    HW139041   0.324   3.282  11.313  1.6988  1.1492  0.6384
 9193SOL    HW239042   0.437   3.256  11.224 -0.1648  0.6425 -0.7236
 9194SOL     OW39043   2.322   2.008   1.436 -0.1729  0.2404 -0.0406
 9194SOL    HW139044   2.304   2.092   1.394  0.2794  0.4959  0.2795
 9194SOL    HW239045   2.261   1.952   1.387  0.9767  1.0757 -2.4141
 9195SOL     OW39046   4.345   2.595   0.463 -1.2125 -0.1914 -0.2856
 9195SOL    HW139047   4.401   2.519   0.449  0.6996  1.3247 -1.0326
 9195SOL    HW239048   4.262   2.557   0.492 -1.2295  0.1351  0.1051
 9196SOL     OW39049   1.770   1.974   7.230  0.6789 -0.0363 -0.1447
 9196SOL    HW139050   1.841   1.917   7.201  0.7172 -1.4133  2.5643
 9196SOL    HW239051   1.760   2.023   7.149  0.6351 -2.4537 -1.6215
 9197SOL     OW39052   3.345   1.346   0.046 -0.1227  0.4531 -0.0604
 9197SOL    HW139053   3.433   1.371   0.074  0.2487 -0.0697 -0.7657
 9197SOL    HW239054   3.376   1.287  17.668  0.7651 -0.5815  1.2369
 9198SOL     OW39055   3.303   2.893   2.930  0.2506 -0.2758 -0.1201
 9198SOL    HW139056   3.319   2.950   2.855  0.5048  1.3810  1.1954
 9198SOL    HW239057   3.237   2.829   2.904 -2.4962  1.2543  3.1085
 9199SOL     OW39058   0.273   4.032   1.770  0.1205 -0.0484 -0.2138
 9199SOL    HW139059   0.295   3.939   1.771  0.9750  0.1402 -2.4191
 9199SOL    HW239060   0.318   4.066   1.693  1.0230  1.5351  0.9936
 9200SOL     OW39061   1.115   3.275   7.891  0.3801  0.3206 -0.5599
 9200SOL    HW139062   1.065   3.256   7.971  0.4401  0.2591 -0.5374
 9200SOL    HW239063   1.168   3.197   7.877 -0.2259 -0.6660  2.5880
 9201SOL     OW39064   4.706   0.989  16.062 -0.6275  0.1513  0.5156
 9201SOL    HW139065   0.027   0.976  15.978 -2.0715  0.4290 -0.2769
 9201SOL    HW239066   4.624   0.953  16.028  0.6586  0.2915 -2.6403
 9202SOL     OW39067   1.292   0.615   8.809 -0.5512 -0.1256  0.0366
 9202SOL    HW139068   1.324   0.618   8.719  0.8668  1.6796  0.6052
 9202SOL    HW239069   1.216   0.668   8.785 -0.1481  0.1905 -0.5306
 9203SOL     OW39070   4.026   1.779   4.338 -0.0840  0.2176  0.1025
 9203SOL    HW139071   3.989   1.793   4.251  1.0442  1.4927 -0.1611
 9203SOL    HW239072   4.110   1.824   4.335  0.7734 -1.3525  0.7588
 9204SOL     OW39073   1.829   1.792   7.572  0.2023  0.2669 -0.8030
 9204SOL    HW139074   1.901   1.802   7.510  2.5028 -0.0690  1.7899
 9204SOL    HW239075   1.864   1.723   7.629  0.3801  0.9393 -0.1117
 9205SOL     OW39076   4.561   0.799   9.090  0.4049 -0.3108 -0.3801
 9205SOL    HW139077   4.491   0.862   9.106  0.8540 -0.5294  2.3468
 9205SOL    HW239078   4.531   0.748   9.014 -0.4587 -1.7706  0.9326
 9206SOL     OW39079   4.546   0.011  10.366 -0.4683  0.2841  0.2179
 9206SOL    HW139080   4.617   0.038  10.308  0.4822  0.7488  1.5838
 9206SOL    HW239081   4.515   4.656  10.319 -0.7762  1.0042 -0.7372
 9207SOL     OW39082   0.209   3.076   8.254 -0.1234  0.6126 -0.1132
 9207SOL    HW139083   0.121   3.113   8.259  0.0173  0.8764  0.5192
 9207SOL    HW239084   0.204   3.020   8.177 -4.1356 -1.1150  1.4104
 9208SOL     OW39085   4.490   2.369   0.415  0.0819 -0.0261 -0.0458
 9208SOL    HW139086   4.558   2.408   0.471  0.7777 -0.6733 -0.4396
 9208SOL    HW239087   4.508   2.275   0.414  1.7944  0.2683  1.0459
 9209SOL     OW39088   2.706   2.731   3.454  0.1961 -0.0965 -0.5539
 9209SOL    HW139089   2.627   2.681   3.436  0.4614 -0.6261 -0.2458
 9209SOL    HW239090   2.702   2.801   3.388  0.5800  0.2776 -0.1833
 9210SOL     OW39091   1.669   2.620  15.591  0.5106  0.1716 -0.3440
 9210SOL    HW139092   1.683   2.637  15.498  0.8516  0.5832 -0.2131
 9210SOL    HW239093   1.651   2.710  15.616  0.1478  0.4769 -1.6711
 9211SOL     OW39094   3.166   1.916  12.804 -0.3070  0.0162  0.6639
 9211SOL    HW139095   3.203   1.856  12.869  2.3700  0.5201 -0.4029
 9211SOL    HW239096   3.214   1.995  12.827  1.8219 -1.1287  0.1311
 9212SOL     OW39097   1.326   0.666   7.807 -0.2589  0.9980  0.1897
 9212SOL    HW139098   1.245   0.617   7.812 -1.2005  2.7784  2.2132
 9212SOL    HW239099   1.335   0.721   7.885  2.0129  1.4097 -0.3551
 9213SOL     OW39100   2.668   0.672   7.618 -0.3339 -0.3856 -0.2767
 9213SOL    HW139101   2.573   0.676   7.611 -0.5054  0.3386  2.6077
 9213SOL    HW239102   2.684   0.578   7.628 -0.9825 -0.5273 -0.5689
 9214SOL     OW39103   4.537   3.678   2.018 -1.1337 -0.1402 -0.5639
 9214SOL    HW139104   4.588   3.666   1.938 -0.5373  0.1350 -0.2284
 9214SOL    HW239105   4.472   3.611   1.997  0.3753 -2.4541  2.1694
 9215SOL     OW39106   1.884   3.245   5.616 -0.0700  0.5410  0.0989
 9215SOL    HW139107   1.893   3.263   5.709 -1.3103  2.4175 -0.1511
 9215SOL    HW239108   1.869   3.151   5.607  0.8292  0.5863 -1.8311
 9216SOL     OW39109   0.834   0.228   2.310  0.4023  0.0664  0.2135
 9216SOL    HW139110   0.831   0.269   2.224 -0.0832  0.4634  0.4191
 9216SOL    HW239111   0.786   0.146   2.304  0.2091  0.4259 -3.2734
 9217SOL     OW39112   4.100   0.187  13.191  0.1631  0.2406 -0.2603
 9217SOL    HW139113   4.033   0.255  13.201 -1.0867 -0.9274 -0.7664
 9217SOL    HW239114   4.180   0.240  13.196  0.6930 -0.6564  0.5534
 9218SOL     OW39115   2.741   2.182   9.037 -0.1561  0.1210  0.0021
 9218SOL    HW139116   2.768   2.274   9.027 -0.6317  0.2583 -0.0197
 9218SOL    HW239117   2.770   2.156   8.950 -2.1834 -0.0492 -0.6088
 9219SOL     OW39118   4.140   0.125   9.362 -0.9105  0.2150 -0.0597
 9219SOL    HW139119   4.064   0.090   9.316  0.7577 -1.6308 -1.4159
 9219SOL    HW239120   4.147   0.219   9.345  0.1147  0.0052 -0.7994
 9220SOL     OW39121   2.847   2.471   3.019  0.0408 -0.7175  0.1150
 9220SOL    HW139122   2.809   2.414   3.086 -1.5022 -0.3645 -0.4474
 9220SOL    HW239123   2.895   2.398   2.981 -0.0306  0.5337 -2.3387
 9221SOL     OW39124   3.680   0.500   4.583  0.3087  0.4590  0.0887
 9221SOL    HW139125   3.598   0.548   4.599  0.1978  0.6122 -0.9109
 9221SOL    HW239126   3.738   0.553   4.529 -0.1044 -1.7302 -2.5661
 9222SOL     OW39127   2.540   2.442   3.130 -0.4383  0.5324  0.5651
 9222SOL    HW139128   2.483   2.415   3.057 -0.2627 -2.0465  1.3886
 9222SOL    HW239129   2.482   2.510   3.162 -1.0644 -0.3255  1.2558
 9223SOL     OW39130   0.756   3.128   2.965  0.5634  0.5760  0.1266
 9223SOL    HW139131   0.668   3.132   3.002 -0.6130  1.6979 -2.7308
 9223SOL    HW239132   0.763   3.036   2.939 -0.2842  0.2607  1.0163
 9224SOL     OW39133   0.193   4.283   5.619 -0.7010 -0.0218  0.0911
 9224SOL    HW139134   0.152   4.209   5.665  0.2309 -2.0706 -2.3709
 9224SOL    HW239135   0.270   4.233   5.591 -1.1816 -0.5917 -0.2057
 9225SOL     OW39136   1.688   1.928  15.509  0.1419  0.4209  0.0561
 9225SOL    HW139137   1.686   1.835  15.486  0.9481  0.4128  0.0107
 9225SOL    HW239138   1.741   1.965  15.438 -1.2081  0.6701 -0.8238
 9226SOL     OW39139   0.773   3.366   1.134 -0.6257 -0.1729  0.2831
 9226SOL    HW139140   0.714   3.293   1.154 -0.0757 -1.0639 -1.3673
 9226SOL    HW239141   0.733   3.440   1.180  1.5027  2.1834 -1.7144
 9227SOL     OW39142   2.778   1.388   1.813  0.1915  0.5354 -0.0679
 9227SOL    HW139143   2.731   1.315   1.854 -1.2121  2.5091  1.8203
 9227SOL    HW239144   2.709   1.455   1.806  0.1676  0.3614 -1.5183
 9228SOL     OW39145   1.006   2.625  12.594  0.2685  0.1277 -0.4730
 9228SOL    HW139146   1.074   2.574  12.551  0.7412  0.8261 -0.5444
 9228SOL    HW239147   1.018   2.629  12.689 -1.1084  1.4963 -0.3608
 9229SOL     OW39148   4.487   2.769   5.441  0.6167 -0.1635 -0.2880
 9229SOL    HW139149   4.563   2.770   5.383 -1.5448  0.6813 -3.0911
 9229SOL    HW239150   4.527   2.808   5.519  2.6774  1.0948 -1.9788
 9230SOL     OW39151   2.168   1.140   1.677 -0.2417  0.6993  0.0032
 9230SOL    HW139152   2.111   1.098   1.613  0.9009 -0.9963  0.1120
 9230SOL    HW239153   2.116   1.137   1.758 -2.0989 -1.7853 -1.3076
 9231SOL     OW39154   0.321   0.170  14.519  0.3197  0.4933  0.2572
 9231SOL    HW139155   0.348   0.129  14.436  1.0766 -1.3794  1.4292
 9231SOL    HW239156   0.248   0.221  14.484  0.3934  1.0931  0.9865
 9232SOL     OW39157   0.222   4.492  13.397 -0.1472  0.2486  0.0705
 9232SOL    HW139158   0.317   4.480  13.409 -0.0828  0.5415 -0.1469
 9232SOL    HW239159   0.200   4.560  13.460  0.0875  0.1614  0.2499
 9233SOL     OW39160   3.291   0.916   4.565 -0.5072  0.1046  0.2159
 9233SOL    HW139161   3.271   0.869   4.484 -0.9270  0.1671  0.2801
 9233SOL    HW239162   3.265   0.846   4.625 -1.8696  1.9328  1.7720
 9234SOL     OW39163   2.807   4.175   8.731 -0.5558 -0.1344 -0.7288
 9234SOL    HW139164   2.740   4.111   8.757 -1.6724  1.6548  0.7783
 9234SOL    HW239165   2.766   4.251   8.772  3.3883  1.8470 -0.5107
 9235SOL     OW39166   1.964   2.361  16.675  0.2578 -1.0351  0.4625
 9235SOL    HW139167   1.884   2.364  16.622  0.6601 -1.1984 -0.1585
 9235SOL    HW239168   2.020   2.300  16.626  2.2499  0.6867  0.5816
 9236SOL     OW39169   2.624   4.701   0.605 -0.2563  0.2417 -0.6940
 9236SOL    HW139170   2.547   4.706   0.662 -0.3187 -2.3735 -0.5614
 9236SOL    HW239171   2.617   4.607   0.591 -0.5943  0.2335 -0.4754
 9237SOL     OW39172   2.583   1.047   0.011 -0.0743 -0.4413 -0.0768
 9237SOL    HW139173   2.498   1.039   0.054 -0.3769 -1.4928 -0.8702
 9237SOL    HW239174   2.603   0.954  17.689 -0.1352 -0.3732 -0.7039
 9238SOL     OW39175   0.965   4.008   4.944  0.0068  0.6956 -0.5842
 9238SOL    HW139176   1.021   3.988   5.019  0.6186  1.1302 -0.9248
 9238SOL    HW239177   0.887   3.959   4.969  0.0992 -0.5892 -2.8281
 9239SOL     OW39178   1.733   2.481  13.617  0.3376 -0.1453 -0.3676
 9239SOL    HW139179   1.671   2.538  13.571 -1.5584  0.1478  2.5285
 9239SOL    HW239180   1.693   2.394  13.617  4.4922 -2.0224 -1.5878
 9240SOL     OW39181   4.315   0.384  13.214  0.1119 -0.1995  0.2927
 9240SOL    HW139182   4.388   0.436  13.248  0.8403 -0.9900 -0.0587
 9240SOL    HW239183   4.326   0.403  13.121 -1.2432  1.1017  0.3922
 9241SOL     OW39184   2.350   4.064   6.871  0.5214 -0.1354 -0.1423
 9241SOL    HW139185   2.398   3.986   6.843  1.5465  0.0403  1.1478
 9241SOL    HW239186   2.380   4.124   6.803 -2.5207 -0.2184 -1.5639
 9242SOL     OW39187   0.887   4.268   0.289 -0.8480 -0.1714  0.5311
 9242SOL    HW139188   0.800   4.283   0.326 -1.0934 -0.9310  0.2752
 9242SOL    HW239189   0.940   4.313   0.354 -1.7701  3.0243 -0.9383
 9243SOL     OW39190   0.329   2.978   6.003  0.3994  0.2265  0.3347
 9243SOL    HW139191   0.410   2.998   5.957  0.6878 -2.2324 -0.2224
 9243SOL    HW239192   0.358   2.970   6.094 -1.2670 -3.2316  0.5351
 9244SOL     OW39193   4.175   3.685   3.144 -0.0494  0.4346 -0.5640
 9244SOL    HW139194   4.244   3.638   3.097  1.2895  1.4336  0.4072
 9244SOL    HW239195   4.231   3.732   3.206 -0.7405  2.4502 -1.4665
 9245SOL     OW39196   4.054   3.295  14.108  0.0721  0.1219 -0.0070
 9245SOL    HW139197   4.041   3.347  14.187 -0.5945 -0.5469  0.3224
 9245SOL    HW239198   4.038   3.360  14.039  0.6486  0.1708 -0.0949
 9246SOL     OW39199   2.352   2.777   4.881 -0.2279 -0.1550 -0.0753
 9246SOL    HW139200   2.315   2.857   4.918 -0.3148 -0.1523 -0.1653
 9246SOL    HW239201   2.352   2.793   4.787 -0.5196  1.6096  0.2127
 9247SOL     OW39202   4.105   3.269  10.293  0.4582 -0.0443 -0.0744
 9247SOL    HW139203   4.195   3.266  10.327  0.6863 -1.4001 -0.8002
 9247SOL    HW239204   4.084   3.176  10.296  1.6970 -0.3548 -0.8334
 9248SOL     OW39205   1.811   2.707  12.955 -0.1928  0.4919 -0.2242
 9248SOL    HW139206   1.897   2.734  12.988 -0.1122  0.1831 -0.1853
 9248SOL    HW239207   1.755   2.784  12.944  1.5693  2.0205  1.4108
 9249SOL     OW39208   1.208   4.213   2.818 -0.1548 -0.3057  0.0715
 9249SOL    HW139209   1.170   4.195   2.733  3.3223  1.0379 -1.7811
 9249SOL    HW239210   1.213   4.308   2.818 -1.1757 -0.2574  0.1897
 9250SOL     OW39211   2.528   3.603   8.394 -0.4249 -0.5288 -0.1891
 9250SOL    HW139212   2.583   3.681   8.404 -0.0002 -0.5810 -2.1522
 9250SOL    HW239213   2.446   3.653   8.397  0.4125  0.7387  1.4677
 9251SOL     OW39214   3.701   3.386  10.766  0.0364  0.1681 -0.4315
 9251SOL    HW139215   3.624   3.416  10.814 -0.4963  0.5709 -1.5547
 9251SOL    HW239216   3.715   3.457  10.703  0.7083  0.0269 -0.4405
 9252SOL     OW39217   3.838   0.020   0.944 -0.2135  0.0877 -0.1365
 9252SOL    HW139218   3.744   0.011   0.930 -0.0100  0.3964 -1.6472
 9252SOL    HW239219   3.874   4.679   0.882 -1.5910 -2.8937  2.1144
 9253SOL     OW39220   0.864   0.692   6.719  0.0056 -0.3696  0.2223
 9253SOL    HW139221   0.847   0.785   6.730 -0.7357 -0.4295 -0.4523
 9253SOL    HW239222   0.770   0.674   6.715 -0.9649  4.3042  1.6171
 9254SOL     OW39223   3.323   1.751   3.116 -0.2648  0.3498  0.5350
 9254SOL    HW139224   3.409   1.794   3.122  1.2531 -2.6659  0.4816
 9254SOL    HW239225   3.357   1.685   3.056  0.2540  0.8406  0.2894
 9255SOL     OW39226   3.147   4.481   1.249 -0.1043  0.2044  0.4275
 9255SOL    HW139227   3.147   4.397   1.295  0.3727 -0.0566 -0.0418
 9255SOL    HW239228   3.111   4.546   1.309 -0.0853 -0.3523  1.0471
 9256SOL     OW39229   2.527   1.704   4.004 -0.3032 -0.3107  0.5568
 9256SOL    HW139230   2.454   1.675   3.950 -0.1717  1.1207 -0.4093
 9256SOL    HW239231   2.494   1.793   4.021  0.6709  0.0650  0.5099
 9257SOL     OW39232   4.132   0.336   3.361 -0.5319 -0.4279 -0.4227
 9257SOL    HW139233   4.087   0.252   3.368 -2.6438  0.6155 -1.4088
 9257SOL    HW239234   4.210   0.327   3.416 -1.6900 -1.3237  1.0601
 9258SOL     OW39235   0.739   3.499   6.988  0.4579 -0.1803  0.0532
 9258SOL    HW139236   0.765   3.407   6.982  0.9941  0.0280 -0.8927
 9258SOL    HW239237   0.805   3.545   7.040 -0.0958 -0.0649  0.6550
 9259SOL     OW39238   0.581   3.811   4.338 -0.2813  0.2715 -0.1662
 9259SOL    HW139239   0.569   3.900   4.372  2.6450 -0.1134  1.8663
 9259SOL    HW239240   0.517   3.761   4.389 -0.5973  1.5906  0.7318
 9260SOL     OW39241   4.482   2.265   5.634 -0.0062  0.2319 -0.1187
 9260SOL    HW139242   4.454   2.356   5.632  0.6161  0.3902 -1.7992
 9260SOL    HW239243   4.573   2.285   5.609 -0.1134  0.1861 -0.5475
 9261SOL     OW39244   3.479   1.623  11.418 -0.1769  0.0686  0.4685
 9261SOL    HW139245   3.504   1.539  11.381 -0.8737  0.1259 -0.1496
 9261SOL    HW239246   3.517   1.680  11.351 -0.0481  2.8144  2.8612
 9262SOL     OW39247   2.531   0.121   3.646 -0.4164  0.5583  0.1084
 9262SOL    HW139248   2.461   0.152   3.703  0.4274  0.2584  1.3026
 9262SOL    HW239249   2.523   0.174   3.566  0.2381  1.2929  0.5275
 9263SOL     OW39250   3.014   2.876   7.480  0.2818  0.3180 -0.2034
 9263SOL    HW139251   3.062   2.950   7.517 -0.2228  0.4941  0.1058
 9263SOL    HW239252   2.949   2.871   7.550 -0.1648 -1.2190 -0.7368
 9264SOL     OW39253   1.420   2.805   7.529 -0.3233 -0.4635 -0.1829
 9264SOL    HW139254   1.361   2.879   7.517  2.2041  1.6411  0.3863
 9264SOL    HW239255   1.382   2.736   7.474 -1.2575 -0.7903  0.8807
 9265SOL     OW39256   1.940   1.117   5.249 -0.1863  0.0337  0.2899
 9265SOL    HW139257   1.981   1.099   5.165 -1.1060 -0.3739 -0.0770
 9265SOL    HW239258   1.920   1.210   5.238 -2.2341 -0.5288 -0.7655
 9266SOL     OW39259   4.059   2.860   7.952  0.1607  0.5825 -0.3136
 9266SOL    HW139260   4.118   2.813   8.011  0.7336  0.0918 -1.2714
 9266SOL    HW239261   4.047   2.801   7.877 -1.2996  0.2687  0.1532
 9267SOL     OW39262   2.659   4.465  17.631  0.4015 -0.6039  0.8161
 9267SOL    HW139263   2.578   4.423  17.603  0.5700 -0.1174 -0.3932
 9267SOL    HW239264   2.725   4.398  17.619 -0.0071 -1.0451  1.0168
 9268SOL     OW39265   3.935   3.729   8.465  0.0772  0.6319  0.0233
 9268SOL    HW139266   3.889   3.804   8.504 -1.4027  0.8093 -2.0660
 9268SOL    HW239267   3.864   3.693   8.412  1.2844 -2.5281  0.5497
 9269SOL     OW39268   1.480   2.918  12.019 -0.1208  0.0303 -0.6276
 9269SOL    HW139269   1.526   2.900  12.101  1.3954  0.3282 -1.4173
 9269SOL    HW239270   1.549   2.934  11.956  1.6584  1.8340  1.7714
 9270SOL     OW39271   0.025   4.474  16.709 -0.1068  0.2258  0.2685
 9270SOL    HW139272   4.681   4.409  16.686 -0.1806  0.5701 -0.4931
 9270SOL    HW239273   0.074   4.424  16.774  0.9863  0.4022 -0.4205
 9271SOL     OW39274   2.536   0.613   6.260 -0.5244  0.4904  0.7665
 9271SOL    HW139275   2.609   0.669   6.286 -0.5273  1.1025 -0.5483
 9271SOL    HW239276   2.533   0.562   6.341  1.5310  0.6133  0.9140
 9272SOL     OW39277   0.277   3.253  16.560  0.3179  0.4215 -0.1303
 9272SOL    HW139278   0.333   3.266  16.483  1.2499 -2.1508  0.0919
 9272SOL    HW239279   0.189   3.278  16.532 -0.1292 -0.7355  0.2288
 9273SOL     OW39280   0.743   1.061   0.275  0.4294  0.5195 -0.1593
 9273SOL    HW139281   0.691   1.027   0.348 -2.6851  1.3700 -1.9676
 9273SOL    HW239282   0.829   1.019   0.280 -0.2111 -0.7314  0.1791
 9274SOL     OW39283   3.517   3.178   0.846 -0.9291  0.5012 -0.4067
 9274SOL    HW139284   3.454   3.176   0.918 -0.8068 -0.9221 -0.3468
 9274SOL    HW239285   3.471   3.154   0.766  0.4149 -2.9446 -0.1591
 9275SOL     OW39286   2.771   1.485   3.332  0.0093 -0.4483  0.0819
 9275SOL    HW139287   2.684   1.456   3.306 -0.9631  1.8780  0.8169
 9275SOL    HW239288   2.774   1.442   3.418  0.0117 -0.2830  0.1640
 9276SOL     OW39289   1.616   3.730   5.736  0.0627  0.5522  0.1435
 9276SOL    HW139290   1.678   3.658   5.726  0.2556  0.6366  0.7364
 9276SOL    HW239291   1.573   3.735   5.651 -0.2263 -2.7538  0.0831
 9277SOL     OW39292   1.777   4.520   8.816  0.7726  0.0421 -0.1433
 9277SOL    HW139293   1.791   4.612   8.794  0.7024  0.2626  0.7303
 9277SOL    HW239294   1.811   4.469   8.743 -1.5885 -0.5299 -0.8329
 9278SOL     OW39295   3.745   1.713   1.852 -0.2636 -0.2146  0.0160
 9278SOL    HW139296   3.733   1.621   1.872 -2.3976  0.4163  1.6404
 9278SOL    HW239297   3.678   1.739   1.789  1.4726  1.6775 -1.0922
 9279SOL     OW39298   0.273   0.623   6.647  0.0381  0.0058  0.0387
 9279SOL    HW139299   0.309   0.535   6.642 -0.1309  0.0621 -1.9998
 9279SOL    HW239300   0.194   0.615   6.595 -0.9777  0.9813  1.4166
 9280SOL     OW39301   1.110   1.993   5.908 -0.2368  0.3204 -0.0811
 9280SOL    HW139302   1.038   1.995   5.846 -0.6161  0.3634  0.3602
 9280SOL    HW239303   1.076   2.040   5.984  0.9398 -2.2265  2.0360
 9281SOL     OW39304   2.500   4.606   3.826 -0.2287  0.3381 -0.5791
 9281SOL    HW139305   2.421   4.653   3.854  0.3899 -0.3179  2.2293
 9281SOL    HW239306   2.513   4.641   3.737 -1.6068  2.7709  0.1555
 9282SOL     OW39307   1.192   1.980   0.384 -0.6364  0.2715 -0.5918
 9282SOL    HW139308   1.278   1.940   0.376 -0.6565  0.5450 -2.1108
 9282SOL    HW239309   1.149   1.907   0.428  1.0801  1.2323  2.7159
 9283SOL     OW39310   1.583   1.136   6.194 -0.3362  0.1898 -0.4272
 9283SOL    HW139311   1.523   1.084   6.247 -1.0707  1.6185  0.1484
 9283SOL    HW239312   1.521   1.168   6.128 -1.9623 -1.4589  0.3105
 9284SOL     OW39313   3.023   3.812  16.072 -0.3043 -0.0204 -0.4299
 9284SOL    HW139314   3.037   3.907  16.067  2.2569 -0.4381 -1.5040
 9284SOL    HW239315   3.053   3.795  16.161 -2.3334 -0.4074  0.1847
 9285SOL     OW39316   1.274   4.232   4.141  0.3254  0.1419  0.0228
 9285SOL    HW139317   1.309   4.218   4.053 -0.1512  0.6178 -0.2392
 9285SOL    HW239318   1.349   4.227   4.200 -1.6235 -2.7445  2.2474
 9286SOL     OW39319   4.005   1.066   3.982  0.4381  0.3787 -0.2115
 9286SOL    HW139320   3.984   1.042   3.892  0.3422 -1.2096  0.2280
 9286SOL    HW239321   4.098   1.043   3.981  0.6533  1.2876 -0.8465
 9287SOL     OW39322   0.020   4.148  12.166  0.1463  0.2586  0.5312
 9287SOL    HW139323   0.023   4.063  12.122 -1.2688 -1.4064  3.6855
 9287SOL    HW239324   0.104   4.141  12.213  0.4558  0.4776  0.0133
 9288SOL     OW39325   3.737   3.750   8.721 -0.7125 -0.1806 -0.1258
 9288SOL    HW139326   3.733   3.824   8.661  0.5623 -0.2396 -0.2876
 9288SOL    HW239327   3.824   3.746   8.761 -1.0059  0.2889  0.5433
 9289SOL     OW39328   0.943   1.725   8.030 -0.0931  0.3518  0.0673
 9289SOL    HW139329   1.038   1.729   8.035 -0.0522 -0.9931  0.4233
 9289SOL    HW239330   0.931   1.777   7.950 -1.1878  0.2337  0.1475
 9290SOL     OW39331   2.103   0.860   4.094  0.0710  0.4466 -0.4348
 9290SOL    HW139332   2.034   0.927   4.096 -0.8214 -0.4358 -1.7874
 9290SOL    HW239333   2.076   0.797   4.161 -0.2450  1.5194  0.4604
 9291SOL     OW39334   0.950   1.041   7.523  0.0455 -0.1824  0.3211
 9291SOL    HW139335   0.960   1.124   7.475  0.6912 -0.4732 -0.0381
 9291SOL    HW239336   0.885   0.998   7.467 -0.3046  0.3782  0.2910
 9292SOL     OW39337   0.473   2.236   6.695  0.1912 -0.0753  0.1682
 9292SOL    HW139338   0.553   2.209   6.739  0.7888 -1.2433 -1.6779
 9292SOL    HW239339   0.493   2.244   6.602  1.3020 -2.4219  0.2263
 9293SOL     OW39340   2.087   1.929   3.442  0.3681  0.1436  0.6628
 9293SOL    HW139341   2.041   2.013   3.433  0.5576  0.1707 -0.0863
 9293SOL    HW239342   2.129   1.953   3.525  0.1189 -1.2543  1.1787
 9294SOL     OW39343   0.518   3.246   4.086 -0.4258  0.4919 -0.0900
 9294SOL    HW139344   0.569   3.222   4.008 -0.2168  1.0772 -0.1362
 9294SOL    HW239345   0.507   3.341   4.081 -0.3147  0.4726 -0.6875
 9295SOL     OW39346   3.509   0.535   7.493  0.3903  0.4768  0.1964
 9295SOL    HW139347   3.575   0.604   7.481  0.2933  0.6703  0.7716
 9295SOL    HW239348   3.439   0.593   7.524  0.4939  0.0711  1.1859
 9296SOL     OW39349   3.586   3.245  12.020  0.3095  0.0483  0.0802
 9296SOL    HW139350   3.563   3.260  11.928 -0.4008  0.8827  0.3920
 9296SOL    HW239351   3.643   3.322  12.023  1.7126 -1.0028  0.0212
 9297SOL     OW39352   0.293   3.247   7.806 -0.1080 -0.3524  0.3423
 9297SOL    HW139353   0.204   3.224   7.831  0.2584 -0.9201  1.1230
 9297SOL    HW239354   0.318   3.160   7.774  0.5814 -0.9820  2.6072
 9298SOL     OW39355   3.361   1.982   1.673 -0.7015 -0.0614  0.2887
 9298SOL    HW139356   3.279   1.977   1.625  0.3228  0.3379 -1.5377
 9298SOL    HW239357   3.338   1.929   1.748 -2.0407 -0.2581 -0.2767
 9299SOL     OW39358   4.505   1.802   0.652  0.3254 -0.5183  0.1682
 9299SOL    HW139359   4.598   1.820   0.644 -0.1533  1.1831 -1.6825
 9299SOL    HW239360   4.498   1.731   0.589  0.7677  0.4899 -1.0271
 9300SOL     OW39361   4.579   0.386   2.291  0.3837  0.0612 -0.6920
 9300SOL    HW139362   4.537   0.328   2.228 -3.2908  2.8453 -0.8090
 9300SOL    HW239363   4.499   0.410   2.339  0.2415 -3.0965  0.6499
 9301SOL     OW39364   0.486   2.188   4.598  0.2523  0.1851 -0.3371
 9301SOL    HW139365   0.412   2.230   4.555  1.0024  0.7408 -1.0723
 9301SOL    HW239366   0.465   2.095   4.582 -1.7699  0.7283 -0.8741
 9302SOL     OW39367   4.222   2.174  16.443  0.4902  0.1600 -0.4947
 9302SOL    HW139368   4.225   2.135  16.356  0.3998 -1.8457  0.3984
 9302SOL    HW239369   4.142   2.133  16.474  0.5068 -0.4520 -1.2552
 9303SOL     OW39370   2.996   0.869   1.835 -0.1192  0.5615  0.3370
 9303SOL    HW139371   2.994   0.903   1.745 -1.2221  1.0975  0.5597
 9303SOL    HW239372   3.089   0.849   1.841  0.8413  4.8315 -0.1324
 9304SOL     OW39373   1.201   3.133   0.153  0.1228 -0.2876 -0.2848
 9304SOL    HW139374   1.144   3.202   0.119 -0.8157  0.0506  1.9539
 9304SOL    HW239375   1.162   3.120   0.240  1.0591  1.8128  0.4527
 9305SOL     OW39376   0.646   1.318   3.313 -0.0569  0.0471 -0.0319
 9305SOL    HW139377   0.573   1.317   3.252 -1.2518  3.1581  1.3303
 9305SOL    HW239378   0.686   1.404   3.297  1.3230 -0.6231 -0.2388
 9306SOL     OW39379   4.360   1.457   8.253  0.2040  0.2059 -0.2338
 9306SOL    HW139380   4.380   1.425   8.341 -0.0746  1.1097  0.1669
 9306SOL    HW239381   4.450   1.471   8.224 -0.3374  1.8131 -1.1396
 9307SOL     OW39382   3.739   3.538   8.911  0.4499  0.1892 -0.2454
 9307SOL    HW139383   3.727   3.613   8.853 -0.2493  1.1303  1.1337
 9307SOL    HW239384   3.715   3.467   8.851  3.4606 -0.9441 -0.1120
 9308SOL     OW39385   2.909   3.787  11.857  0.3478  0.2029 -0.0638
 9308SOL    HW139386   2.898   3.726  11.930  0.4034  1.9785  1.4294
 9308SOL    HW239387   2.936   3.860  11.914  0.4863 -0.0387  0.1782
 9309SOL     OW39388   2.552   2.240   4.480 -0.4551 -0.6134 -0.7013
 9309SOL    HW139389   2.481   2.177   4.492  0.2517 -1.4437 -0.8640
 9309SOL    HW239390   2.620   2.178   4.454  0.5707 -0.0413  0.5429
 9310SOL     OW39391   1.296   1.556   3.858 -0.2626 -0.1045 -0.0084
 9310SOL    HW139392   1.247   1.638   3.865  1.2796  0.6434  2.0643
 9310SOL    HW239393   1.365   1.570   3.793  0.6109  0.5592  1.0751
 9311SOL     OW39394   0.116   3.013   6.882 -0.0331  0.6471  0.1101
 9311SOL    HW139395   0.040   3.064   6.855 -0.2103  0.9533  1.1613
 9311SOL    HW239396   0.058   2.943   6.912  0.5353  0.3798  0.5908
 9312SOL     OW39397   2.308   1.963   1.770  0.3191 -0.3794  0.0559
 9312SOL    HW139398   2.274   2.046   1.804  0.6792 -0.1622 -0.1116
 9312SOL    HW239399   2.348   2.000   1.692 -0.7215  1.8380  0.5685
 9313SOL     OW39400   2.586   1.681  11.765  0.2619 -0.2376  0.0604
 9313SOL    HW139401   2.546   1.751  11.714 -0.1811 -0.2442  0.4001
 9313SOL    HW239402   2.508   1.629  11.784  0.3934 -0.7043 -0.6804
 9314SOL     OW39403   1.113   4.386   3.136  0.1762  0.1462 -0.0033
 9314SOL    HW139404   1.154   4.445   3.073 -0.6052  1.2917  0.5495
 9314SOL    HW239405   1.039   4.351   3.086  0.0063 -0.3461  0.5894
 9315SOL     OW39406   0.750   0.588   7.201 -0.0445 -0.0898  0.0366
 9315SOL    HW139407   0.836   0.630   7.206 -1.1942  2.4269 -1.2655
 9315SOL    HW239408   0.705   0.627   7.126  4.0015  0.5790 -2.0486
 9316SOL     OW39409   3.550   2.940   6.862 -0.5435 -0.3473  0.2034
 9316SOL    HW139410   3.461   2.909   6.880 -0.6064 -1.0416 -1.2382
 9316SOL    HW239411   3.565   2.906   6.774 -1.6671 -2.6524  0.8823
 9317SOL     OW39412   0.623   0.769  16.915  0.3058  0.3388 -0.5490
 9317SOL    HW139413   0.695   0.724  16.871 -0.8303 -0.5284 -1.5028
 9317SOL    HW239414   0.565   0.693  16.923 -0.4372  1.1142  1.4864
 9318SOL     OW39415   3.737   3.900  16.233  0.4024 -0.4871 -0.0206
 9318SOL    HW139416   3.688   3.967  16.280  1.6129 -0.4701  1.2096
 9318SOL    HW239417   3.770   3.839  16.299  0.0794 -0.3681  0.2493
 9319SOL     OW39418   4.212   4.191   2.502  0.2141  0.2443 -0.5735
 9319SOL    HW139419   4.128   4.181   2.547 -0.1500  3.5640 -0.4938
 9319SOL    HW239420   4.182   4.193   2.411 -3.2561  3.1471  0.6342
 9320SOL     OW39421   4.369   1.989  11.687  0.0923 -0.2786 -0.1515
 9320SOL    HW139422   4.283   1.947  11.692  0.9901 -2.0571  0.4785
 9320SOL    HW239423   4.405   1.942  11.612 -0.1054 -2.7772  1.3151
 9321SOL     OW39424   1.201   0.655   4.282 -0.4643 -0.0509  0.1893
 9321SOL    HW139425   1.206   0.603   4.202 -2.5656 -0.6790  0.4624
 9321SOL    HW239426   1.292   0.644   4.310 -0.5649  2.2220  1.4034
 9322SOL     OW39427   2.443   1.562   4.946  0.1735 -0.1465 -0.4286
 9322SOL    HW139428   2.466   1.472   4.969 -0.7705 -0.4094 -0.5226
 9322SOL    HW239429   2.495   1.573   4.866  0.3224  1.5741 -0.0946
 9323SOL     OW39430   3.565   3.252   5.990 -0.2124 -0.3355  0.6106
 9323SOL    HW139431   3.620   3.175   5.984 -0.8995 -0.7745  0.0231
 9323SOL    HW239432   3.479   3.210   5.998 -1.9958  3.4117  1.2277
 9324SOL     OW39433   1.764   2.875   5.175  0.2937 -0.0516  0.2333
 9324SOL    HW139434   1.688   2.883   5.117  0.3145  0.2970  0.2576
 9324SOL    HW239435   1.764   2.963   5.210  2.6061 -0.0193  0.0987
 9325SOL     OW39436   2.723   0.417  10.889 -0.2446 -0.3125  0.3051
 9325SOL    HW139437   2.703   0.502  10.850 -1.5020 -1.9223 -2.5027
 9325SOL    HW239438   2.752   0.448  10.975 -0.4896 -0.6642  0.5186
 9326SOL     OW39439   0.815   1.781  16.412 -0.3659 -0.3136 -0.6908
 9326SOL    HW139440   0.861   1.822  16.338  1.8190 -1.4246  0.0300
 9326SOL    HW239441   0.735   1.752  16.369  0.2775  1.3385 -2.9713
 9327SOL     OW39442   2.748   1.274   7.203 -0.3013  0.1740 -0.0513
 9327SOL    HW139443   2.672   1.221   7.179 -1.0717  1.5869 -0.7329
 9327SOL    HW239444   2.794   1.271   7.118 -0.5525 -0.9154 -0.1516
 9328SOL     OW39445   1.083   1.496   3.040 -0.1156  0.5227 -0.0664
 9328SOL    HW139446   1.134   1.447   3.105 -0.1637  1.4537  0.6751
 9328SOL    HW239447   1.034   1.421   3.006  0.0820  0.0615  0.6558
 9329SOL     OW39448   0.393   1.868   2.173 -0.4954 -0.4010 -0.2035
 9329SOL    HW139449   0.418   1.778   2.152 -0.3636 -0.8000  1.6865
 9329SOL    HW239450   0.443   1.914   2.106 -3.1543  0.8952 -1.3100
 9330SOL     OW39451   0.150   3.859   9.293 -0.5993 -0.1434 -0.7963
 9330SOL    HW139452   0.055   3.873   9.294 -0.6545 -0.5013 -1.3503
 9330SOL    HW239453   0.186   3.889   9.377  1.0336  0.5723 -1.7572
 9331SOL     OW39454   4.232   0.467   7.923 -0.1749 -0.1273 -0.3831
 9331SOL    HW139455   4.188   0.430   7.999 -1.3154 -0.1029 -1.0156
 9331SOL    HW239456   4.315   0.474   7.970  0.2159  1.1733 -1.2380
 9332SOL     OW39457   1.090   3.685   3.059  0.2142 -0.5837  0.3730
 9332SOL    HW139458   1.067   3.704   2.968  0.8717 -0.6166  0.2003
 9332SOL    HW239459   1.182   3.711   3.055  0.2471 -0.6621  0.6944
 9333SOL     OW39460   1.680   0.770   0.524 -0.4067  0.3883 -0.4118
 9333SOL    HW139461   1.664   0.738   0.613  1.0993  0.1562 -0.2196
 9333SOL    HW239462   1.770   0.743   0.505  0.0766  3.1368 -1.9203
 9334SOL     OW39463   0.206   0.744   7.145  0.0299 -0.1982  0.0275
 9334SOL    HW139464   0.130   0.693   7.115  0.5257 -1.2900  0.6285
 9334SOL    HW239465   0.197   0.826   7.096  1.1685  0.6390  1.2191
 9335SOL     OW39466   2.615   3.522  10.312  0.0085 -0.0799  0.6723
 9335SOL    HW139467   2.635   3.616  10.319 -0.2177  0.0278 -0.0932
 9335SOL    HW239468   2.574   3.495  10.394 -0.4035  2.8679  1.4594
 9336SOL     OW39469   0.611   4.372   0.299 -0.0266 -0.1156  0.0799
 9336SOL    HW139470   0.617   4.461   0.263 -0.9760  0.1571  0.6027
 9336SOL    HW239471   0.531   4.346   0.254  0.1385 -0.0819 -0.2305
 9337SOL     OW39472   1.987   2.562   4.339 -0.1151 -0.6705  0.3000
 9337SOL    HW139473   1.948   2.592   4.421  1.4659 -2.0637  1.5657
 9337SOL    HW239474   2.042   2.639   4.326  0.0619 -0.5383  1.9052
 9338SOL     OW39475   3.029   2.842  16.421  0.0580 -0.0048 -0.2034
 9338SOL    HW139476   2.978   2.906  16.471  1.1935  0.3331  0.5210
 9338SOL    HW239477   3.116   2.879  16.436  0.4721 -0.8226 -0.5730
 9339SOL     OW39478   2.370   4.502   0.483  0.5804 -0.4309  0.0060
 9339SOL    HW139479   2.431   4.449   0.535  2.3063  0.5112 -1.0677
 9339SOL    HW239480   2.388   4.470   0.395  1.2911  2.7937 -1.0255
 9340SOL     OW39481   3.107   1.178   3.030 -0.0811  0.0746  0.5830
 9340SOL    HW139482   3.034   1.136   3.075 -0.1550  1.6574  1.9384
 9340SOL    HW239483   3.118   1.111   2.962  0.2969  0.7092  0.0176
 9341SOL     OW39484   0.178   2.377   6.964 -0.3085  0.1804 -0.2428
 9341SOL    HW139485   0.214   2.332   7.040  0.1397 -0.0886 -0.6181
 9341SOL    HW239486   0.128   2.311   6.916  0.5074 -0.6489  0.0560
 9342SOL     OW39487   0.878   1.659   5.424 -0.2574  0.5868 -0.1472
 9342SOL    HW139488   0.884   1.659   5.520  0.0805  0.3895 -0.1677
 9342SOL    HW239489   0.944   1.591   5.406 -1.3109 -0.6601  0.6781
 9343SOL     OW39490   1.482   4.563  13.286 -0.1548  0.7889  0.2267
 9343SOL    HW139491   1.488   4.609  13.202 -0.4766 -0.2144 -0.3383
 9343SOL    HW239492   1.560   4.606  13.323  0.8897  1.1537 -2.4228
 9344SOL     OW39493   0.189   1.635  10.821 -0.4108 -0.0583 -0.3928
 9344SOL    HW139494   0.094   1.632  10.806 -0.6825  1.5243  1.0595
 9344SOL    HW239495   0.223   1.590  10.744 -0.8558  0.6014 -0.9762
 9345SOL     OW39496   3.187   4.227   4.954  0.0181  0.1369  0.0019
 9345SOL    HW139497   3.145   4.308   4.924  2.0540  0.4158 -2.0383
 9345SOL    HW239498   3.274   4.250   4.987  1.2260 -0.7365 -2.6732
 9346SOL     OW39499   2.997   2.766   4.073  0.2889  0.0134 -0.0550
 9346SOL    HW139500   3.079   2.748   4.026  0.9293 -0.8280  1.3699
 9346SOL    HW239501   2.931   2.739   4.009 -1.1862 -0.1856  1.5748
 9347SOL     OW39502   4.205   4.247   5.015 -0.2571  0.7338 -0.2191
 9347SOL    HW139503   4.268   4.289   4.956  0.4040 -1.0913 -0.8136
 9347SOL    HW239504   4.252   4.163   5.008 -2.4023 -0.2761 -2.3107
 9348SOL     OW39505   0.557   3.476   7.462 -0.0198  0.1760  0.2400
 9348SOL    HW139506   0.472   3.498   7.500 -0.6972 -1.0831 -0.5558
 9348SOL    HW239507   0.614   3.483   7.538  1.5024 -0.3928 -0.8362
 9349SOL     OW39508   3.422   2.536   8.343 -0.5724  0.3056 -0.0190
 9349SOL    HW139509   3.400   2.447   8.313 -0.4295  0.4510 -0.5553
 9349SOL    HW239510   3.417   2.537   8.438 -0.3606 -1.3501  0.0232
 9350SOL     OW39511   4.098   4.198   5.511 -0.3102 -0.7134  0.0712
 9350SOL    HW139512   4.027   4.254   5.542  2.0854  0.9015  2.6141
 9350SOL    HW239513   4.089   4.228   5.421 -1.4437  2.9486  1.4023
 9351SOL     OW39514   4.097   3.022   5.214 -0.4359  0.3574 -0.4126
 9351SOL    HW139515   4.098   3.118   5.210 -1.7848  0.3750 -0.2264
 9351SOL    HW239516   4.003   3.007   5.208 -0.3759 -0.9452  1.7803
 9352SOL     OW39517   2.520   0.949   8.845  0.0700 -0.0562  0.3118
 9352SOL    HW139518   2.605   0.970   8.884 -0.1494 -1.5427  1.5946
 9352SOL    HW239519   2.508   0.870   8.898 -1.4466 -1.6855 -2.4182
 9353SOL     OW39520   2.069   4.049   6.960 -0.7640 -0.1846  0.3001
 9353SOL    HW139521   2.068   4.103   7.039 -1.0735  1.5468 -0.8918
 9353SOL    HW239522   2.162   4.039   6.938 -0.2764  1.4407  1.6552
 9354SOL     OW39523   2.981   2.210  12.876  0.0638  0.2395  0.5275
 9354SOL    HW139524   3.072   2.236  12.885  0.7796 -1.9183 -0.3874
 9354SOL    HW239525   2.981   2.179  12.785 -0.2422 -0.8121  0.8873
 9355SOL     OW39526   0.801   0.748   8.830  0.0913 -0.1576 -1.3254
 9355SOL    HW139527   0.722   0.697   8.812 -0.6486  0.1267  1.1403
 9355SOL    HW239528   0.867   0.691   8.791  1.8739  1.1020 -0.1296
 9356SOL     OW39529   3.925   4.173  16.553 -0.0143 -0.2204 -0.0032
 9356SOL    HW139530   3.942   4.236  16.483  1.9619  0.1458  0.7914
 9356SOL    HW239531   3.863   4.116  16.510 -0.5769  0.7853 -0.5303
 9357SOL     OW39532   3.882   1.866   6.661  0.1635 -0.2218  0.0070
 9357SOL    HW139533   3.915   1.795   6.717 -0.1861 -0.2347  0.1954
 9357SOL    HW239534   3.843   1.817   6.589  0.3000  0.5511 -0.5976
 9358SOL     OW39535   3.167   3.068   8.455  0.1450 -0.0430  0.4691
 9358SOL    HW139536   3.210   2.994   8.413 -0.8417 -0.4822  0.2347
 9358SOL    HW239537   3.242   3.128   8.448 -0.1231 -0.0832 -2.5196
 9359SOL     OW39538   0.010   0.454   8.069 -0.4611  0.2191 -0.0922
 9359SOL    HW139539   4.645   0.439   8.106 -0.0287 -0.9176  0.4434
 9359SOL    HW239540   0.006   0.542   8.031  0.5750  1.2429  2.1984
 9360SOL     OW39541   4.376   0.930   5.932  0.0584  0.3634  0.2295
 9360SOL    HW139542   4.298   0.979   5.907  0.0794 -0.0072 -0.5803
 9360SOL    HW239543   4.434   0.957   5.860  0.0761 -0.0803  0.0773
 9361SOL     OW39544   0.358   2.839   5.371 -0.3454  0.1927 -0.2266
 9361SOL    HW139545   0.387   2.789   5.295 -1.9477 -0.5908 -0.3122
 9361SOL    HW239546   0.364   2.767   5.434 -0.8454 -0.5264 -1.0059
 9362SOL     OW39547   2.434   2.495   9.965  0.0627  0.0977 -0.1684
 9362SOL    HW139548   2.428   2.483   9.870 -0.0815 -0.6859 -0.0581
 9362SOL    HW239549   2.376   2.435  10.012  1.0458  0.2993  1.2750
 9363SOL     OW39550   4.621   1.166   7.622 -0.3290 -0.1264 -0.2274
 9363SOL    HW139551   4.588   1.202   7.704  1.0279  0.3521  0.1179
 9363SOL    HW239552   4.667   1.241   7.584 -0.2913  0.2247  0.5004
 9364SOL     OW39553   0.584   2.272   5.852  0.6792  0.4357 -0.0020
 9364SOL    HW139554   0.669   2.229   5.866  0.5896  0.5166  0.7778
 9364SOL    HW239555   0.533   2.223   5.916  1.8211 -0.8166 -0.0453
 9365SOL     OW39556   3.123   1.458   4.430  0.1897 -0.3785  0.3394
 9365SOL    HW139557   3.165   1.544   4.436 -3.3905  1.3326  0.8015
 9365SOL    HW239558   3.034   1.468   4.397  1.4084  0.6826 -2.6535
 9366SOL     OW39559   4.414   1.558  10.913 -0.3449  0.3824  0.8375
 9366SOL    HW139560   4.492   1.503  10.922  0.0027  0.5785 -0.9702
 9366SOL    HW239561   4.464   1.640  10.914 -0.8108  0.6416  4.1471
 9367SOL     OW39562   0.498   4.335  12.764  0.0728 -0.4511  0.2888
 9367SOL    HW139563   0.482   4.376  12.849  1.9887 -2.2349  1.5293
 9367SOL    HW239564   0.482   4.403  12.699 -0.6771  0.1935  1.1396
 9368SOL     OW39565   2.028   0.758   9.507 -0.1270  0.1819 -0.4236
 9368SOL    HW139566   2.053   0.815   9.435 -0.8313 -0.0239 -0.8261
 9368SOL    HW239567   2.020   0.828   9.572 -0.4395 -1.7009  1.5645
 9369SOL     OW39568   2.199   4.617  15.016  0.3653 -0.0148 -0.1046
 9369SOL    HW139569   2.274   4.615  14.957 -0.2894  0.1842 -0.9369
 9369SOL    HW239570   2.196   4.712  15.030  0.1799 -0.2296  1.3031
 9370SOL     OW39571   4.720   4.138   4.086 -0.2807  0.7002 -0.6452
 9370SOL    HW139572   4.681   4.084   4.017  0.3822 -0.9597  0.2667
 9370SOL    HW239573   4.646   4.171   4.136 -0.2877  0.2353 -0.3488
 9371SOL     OW39574   4.715   3.282  12.481 -0.2510 -0.0864 -0.8252
 9371SOL    HW139575   0.046   3.246  12.410  1.8096 -0.1754  0.7794
 9371SOL    HW239576   4.637   3.246  12.438 -1.9599  2.2222  0.3582
 9372SOL     OW39577   1.149   0.738   5.615  0.3064 -0.4045  0.0955
 9372SOL    HW139578   1.217   0.790   5.660  1.6569  0.7979 -3.3727
 9372SOL    HW239579   1.138   0.789   5.535  3.4760  0.4427  0.2051
 9373SOL     OW39580   3.952   0.169   3.181 -0.4919  0.2762 -0.0102
 9373SOL    HW139581   3.865   0.129   3.188 -0.8898  1.1073 -0.2393
 9373SOL    HW239582   3.997   0.093   3.144 -0.0237  0.9120 -0.7540
 9374SOL     OW39583   0.528   3.878   1.545 -0.0390  0.0232  0.2442
 9374SOL    HW139584   0.505   3.971   1.534 -0.0034 -0.0055 -0.0755
 9374SOL    HW239585   0.586   3.867   1.469 -0.0463  1.2269  0.0606
 9375SOL     OW39586   0.557   0.759  12.035  0.6814  0.7766 -0.5773
 9375SOL    HW139587   0.614   0.722  11.967  0.4445  2.2153 -1.5455
 9375SOL    HW239588   0.577   0.717  12.119  1.5962  0.8925 -0.7378
 9376SOL     OW39589   1.826   3.552  11.388  0.0492 -0.3437 -0.2075
 9376SOL    HW139590   1.921   3.545  11.395  0.1587  0.9617 -0.3747
 9376SOL    HW239591   1.806   3.532  11.479 -0.8085  0.9876 -0.0987
 9377SOL     OW39592   1.328   3.470  10.453 -0.1746 -0.2233  0.3613
 9377SOL    HW139593   1.294   3.386  10.420 -0.2818 -0.2253  0.4745
 9377SOL    HW239594   1.255   3.530  10.438 -0.8886 -1.3041 -0.5431
 9378SOL     OW39595   3.918   4.720  15.364 -0.4623  0.2053 -0.3392
 9378SOL    HW139596   3.916   0.090  15.336 -3.4447  0.5242  0.9240
 9378SOL    HW239597   3.826   4.694  15.356 -0.5704  1.0232 -1.7598
 9379SOL     OW39598   1.799   0.520   2.020  0.0989  0.0560 -0.1939
 9379SOL    HW139599   1.729   0.555   1.964 -0.3405 -0.2412  0.1713
 9379SOL    HW239600   1.863   0.514   1.950  1.7189 -0.1833  1.3037
 9380SOL     OW39601   0.079   1.376   6.047 -0.3145  0.0048  0.2441
 9380SOL    HW139602   0.017   1.366   6.119 -1.0556 -4.0317 -0.9414
 9380SOL    HW239603   0.156   1.415   6.086 -0.4560  0.5519 -0.0278
 9381SOL     OW39604   2.506   1.232   7.055 -0.0088 -0.1261  0.2517
 9381SOL    HW139605   2.505   1.179   6.975 -2.1820 -0.1580  0.2881
 9381SOL    HW239606   2.420   1.195   7.077 -0.2222  0.9807  1.2509
 9382SOL     OW39607   2.459   3.166   9.193  0.8237 -0.0323  0.1872
 9382SOL    HW139608   2.367   3.139   9.186  0.8753 -0.4732  1.1720
 9382SOL    HW239609   2.483   3.117   9.272 -3.2695  0.6461  1.8806
 9383SOL     OW39610   2.758   2.351   4.638  0.3910 -0.7856  0.5984
 9383SOL    HW139611   2.767   2.440   4.671  1.3526 -1.0562  1.0783
 9383SOL    HW239612   2.704   2.355   4.559  1.4320 -2.3814 -0.2142
 9384SOL     OW39613   1.873   1.123   4.337 -0.0993 -0.3191 -0.5391
 9384SOL    HW139614   1.934   1.181   4.383 -0.5586 -0.7281  0.5751
 9384SOL    HW239615   1.881   1.153   4.247  0.0487  1.9944  0.2345
 9385SOL     OW39616   2.031   0.973   7.475 -0.3383  0.2221 -0.1472
 9385SOL    HW139617   2.081   1.021   7.542  0.0010  0.9125 -0.8847
 9385SOL    HW239618   1.982   1.042   7.430 -1.2598 -1.6932 -2.0922
 9386SOL     OW39619   1.328   1.373   4.125  0.0624  0.0270 -0.5095
 9386SOL    HW139620   1.285   1.402   4.045 -0.9934  1.9094  0.7645
 9386SOL    HW239621   1.298   1.282   4.118  3.1732 -1.1114  0.6188
 9387SOL     OW39622   2.402   3.386   3.734  0.2451  0.0031 -0.0450
 9387SOL    HW139623   2.418   3.300   3.772 -1.2101 -1.4930 -2.8872
 9387SOL    HW239624   2.449   3.443   3.795 -2.2155  0.1558  1.7050
 9388SOL     OW39625   0.991   1.996   6.417 -0.0056 -0.3191  0.3250
 9388SOL    HW139626   1.067   1.977   6.362 -2.1448  0.3304 -2.8233
 9388SOL    HW239627   0.999   1.925   6.481  1.5177 -0.2083  0.2576
 9389SOL     OW39628   2.331   1.925   8.949  0.5175  0.0399  0.6519
 9389SOL    HW139629   2.387   1.960   8.880  0.4765 -1.5193 -0.1555
 9389SOL    HW239630   2.335   2.006   9.001 -0.3774  1.5093 -1.5511
 9390SOL     OW39631   2.896   3.482   1.482  0.3963  0.2212 -0.2836
 9390SOL    HW139632   2.874   3.472   1.390 -1.7660  1.7900  0.0552
 9390SOL    HW239633   2.836   3.552   1.509 -0.9509 -0.1502 -2.3225
 9391SOL     OW39634   2.342   2.505   1.990  0.3295 -0.6844 -0.4150
 9391SOL    HW139635   2.422   2.502   2.041 -0.5659  0.2890  1.0379
 9391SOL    HW239636   2.277   2.501   2.060  2.0635  1.5781  1.3146
 9392SOL     OW39637   1.950   0.877   1.899  0.5583  0.0699  0.1647
 9392SOL    HW139638   1.932   0.815   1.828  3.4009  0.7546 -1.1708
 9392SOL    HW239639   2.002   0.818   1.953  0.4137 -2.1671 -2.1258
 9393SOL     OW39640   3.352   2.340   2.944 -0.7714  0.0020  0.4875
 9393SOL    HW139641   3.346   2.351   2.849 -1.7142  0.0573  0.5577
 9393SOL    HW239642   3.296   2.410   2.977 -0.5348 -0.1181  1.1361
 9394SOL     OW39643   3.856   2.813   4.640 -0.2001 -0.1223  0.3958
 9394SOL    HW139644   3.901   2.824   4.556 -1.2805 -0.3490 -0.2086
 9394SOL    HW239645   3.833   2.721   4.637 -1.6155  0.3204 -2.3256
 9395SOL     OW39646   4.470   0.422   8.599 -0.1917  0.3950 -0.2690
 9395SOL    HW139647   4.526   0.363   8.548 -0.2743 -1.0750  1.3149
 9395SOL    HW239648   4.535   0.473   8.647  0.8708 -0.8093 -0.4139
 9396SOL     OW39649   4.312   1.760   7.244  0.8161 -0.1201 -0.2347
 9396SOL    HW139650   4.229   1.748   7.290  2.3718 -2.3887  1.9850
 9396SOL    HW239651   4.283   1.789   7.158  1.8329  0.2869 -0.4347
 9397SOL     OW39652   0.104   2.161   6.827 -0.0066  0.1885 -0.2443
 9397SOL    HW139653   0.183   2.109   6.846 -0.8427 -0.2983  1.8100
 9397SOL    HW239654   0.105   2.127   6.737 -1.7305 -1.9570  0.5459
 9398SOL     OW39655   0.950   1.180  10.770  0.5882  0.2378 -0.2479
 9398SOL    HW139656   0.866   1.211  10.739 -0.2369 -2.1692 -0.4321
 9398SOL    HW239657   0.975   1.259  10.818 -1.9842 -0.4740  2.2788
 9399SOL     OW39658   4.153   0.818  16.826 -0.1865  0.0173  0.4324
 9399SOL    HW139659   4.107   0.897  16.794  0.0910  1.5141  3.7402
 9399SOL    HW239660   4.219   0.861  16.880  1.1446 -2.9929  1.1481
 9400SOL     OW39661   3.994   4.115   2.892  0.3663 -0.1913 -0.6060
 9400SOL    HW139662   3.989   4.022   2.915 -1.1504  0.1653  0.4832
 9400SOL    HW239663   4.086   4.131   2.916 -0.6163  0.3215  2.7679
 9401SOL     OW39664   1.019   0.644   7.230 -0.2785 -0.2011  0.1658
 9401SOL    HW139665   0.972   0.671   7.309  1.3064  1.5078  0.5324
 9401SOL    HW239666   1.049   0.554   7.237  0.5601  0.1177  0.5896
 9402SOL     OW39667   4.386   1.332   7.868  0.3672  0.2120  0.3373
 9402SOL    HW139668   4.352   1.398   7.808 -0.4301 -1.3559 -0.9508
 9402SOL    HW239669   4.309   1.302   7.916  1.6136 -3.8513 -0.2140
 9403SOL     OW39670   4.203   1.915   5.613  0.9196  0.4600 -0.2385
 9403SOL    HW139671   4.197   1.998   5.565  0.7320 -0.3942 -1.6993
 9403SOL    HW239672   4.117   1.885   5.582  0.0485  0.4933  2.1689
 9404SOL     OW39673   1.596   2.813   2.788 -0.7496 -0.0642 -0.1492
 9404SOL    HW139674   1.685   2.783   2.769  0.4257  2.7904  0.8607
 9404SOL    HW239675   1.581   2.880   2.721  1.1031  0.5436  0.0334
 9405SOL     OW39676   1.541   1.684   9.383 -0.4066 -0.1001 -0.0875
 9405SOL    HW139677   1.624   1.731   9.394 -0.8469  0.4705  0.8073
 9405SOL    HW239678   1.558   1.598   9.421 -0.0483 -0.1876 -0.4404
 9406SOL     OW39679   0.102   0.947   8.744  0.2365  0.1068  0.0756
 9406SOL    HW139680   0.150   1.028   8.764 -0.5100  0.9753 -1.6171
 9406SOL    HW239681   0.140   0.886   8.807 -0.0444 -0.2113 -0.0638
 9407SOL     OW39682   3.864   1.351   4.674 -0.6005  0.0477  0.3774
 9407SOL    HW139683   3.824   1.296   4.606 -0.1900 -2.0809  1.8483
 9407SOL    HW239684   3.833   1.439   4.652  0.9202  1.0582  2.3875
 9408SOL     OW39685   3.747   2.782   8.376  0.3682  0.5335 -0.0335
 9408SOL    HW139686   3.811   2.776   8.447  1.2062  0.5113 -0.8021
 9408SOL    HW239687   3.798   2.767   8.297 -1.4047 -0.4913 -0.9780
 9409SOL     OW39688   1.746   0.914   6.376 -0.3814 -0.5511  0.1573
 9409SOL    HW139689   1.785   0.843   6.428 -0.2134 -1.1291 -0.7583
 9409SOL    HW239690   1.755   0.869   6.292  2.5252 -0.2878  0.3236
 9410SOL     OW39691   1.866   0.518   7.025 -0.6685  0.3790  0.1129
 9410SOL    HW139692   1.938   0.555   7.077 -0.7227  0.4909  0.1092
 9410SOL    HW239693   1.850   0.583   6.956  3.1812  1.6291  0.3388
 9411SOL     OW39694   3.282   1.986   5.893 -0.0250 -0.1180 -0.3393
 9411SOL    HW139695   3.331   2.023   5.966  1.4722 -1.3019 -0.7460
 9411SOL    HW239696   3.309   1.895   5.908  0.2538  0.0981  0.4874
 9412SOL     OW39697   1.042   1.157   4.567 -0.0257 -0.8709 -0.0005
 9412SOL    HW139698   0.969   1.114   4.611  0.2282 -1.2805  0.0226
 9412SOL    HW239699   1.119   1.134   4.618 -0.2012 -2.2350 -0.3604
 9413SOL     OW39700   1.381   1.650   8.951 -0.6377 -0.1679 -0.3044
 9413SOL    HW139701   1.328   1.646   9.031 -2.4310 -0.6110 -1.5315
 9413SOL    HW239702   1.327   1.671   8.875 -0.3087  0.8195 -0.2686
 9414SOL     OW39703   4.381   1.589   5.818  0.6660 -0.1687  0.3243
 9414SOL    HW139704   4.306   1.644   5.841  2.6029  2.1002  1.1915
 9414SOL    HW239705   4.339   1.529   5.756 -2.1440  2.2124 -0.0303
 9415SOL     OW39706   3.705   0.082  13.758  0.0926  0.5173  0.2019
 9415SOL    HW139707   3.744   0.166  13.732  1.6053  0.4986  2.4222
 9415SOL    HW239708   3.642   0.112  13.823 -1.9237  0.0260 -1.4992
 9416SOL     OW39709   3.063   2.587  14.897 -0.1160 -0.2840  0.0950
 9416SOL    HW139710   3.089   2.624  14.981  0.7912  1.0436 -0.7640
 9416SOL    HW239711   3.103   2.501  14.906 -1.2478 -0.7766  0.4333
 9417SOL     OW39712   1.735   1.864   9.201  0.1117  0.2910 -0.0146
 9417SOL    HW139713   1.720   1.904   9.287 -2.0422 -0.7443  0.0805
 9417SOL    HW239714   1.648   1.876   9.163  0.3872 -0.3860 -0.8605
 9418SOL     OW39715   4.164   1.122  16.126  0.0787 -0.8544 -0.7499
 9418SOL    HW139716   4.197   1.194  16.072  0.0339  0.6303  1.1941
 9418SOL    HW239717   4.079   1.096  16.090 -1.2728  1.4814  0.7615
 9419SOL     OW39718   1.199   0.696   4.962 -0.2895  0.0206 -0.8713
 9419SOL    HW139719   1.263   0.725   4.897 -0.2890  3.2878  0.6062
 9419SOL    HW239720   1.248   0.624   5.003  0.0223 -0.6844 -2.5086
 9420SOL     OW39721   3.198   2.614   3.843 -0.1359  0.3878 -0.3644
 9420SOL    HW139722   3.195   2.639   3.751  0.3410  0.0658 -0.4653
 9420SOL    HW239723   3.106   2.589   3.851  0.7546 -1.3360  4.1233
 9421SOL     OW39724   0.227   1.601  13.261 -0.0279 -0.0714 -0.2159
 9421SOL    HW139725   0.288   1.672  13.242  0.4178 -0.4341 -0.1260
 9421SOL    HW239726   0.263   1.520  13.225 -0.0970 -0.0898 -0.2429
 9422SOL     OW39727   2.262   1.807   2.911  0.7466 -0.0983  0.0779
 9422SOL    HW139728   2.206   1.797   2.988 -1.2139 -0.9689 -1.4640
 9422SOL    HW239729   2.239   1.731   2.856 -0.6052 -0.4860  1.1675
 9423SOL     OW39730   1.008   3.421  12.670 -0.0972 -0.6748  0.1600
 9423SOL    HW139731   0.989   3.333  12.702  1.5289 -0.7504  0.9235
 9423SOL    HW239732   1.093   3.406  12.627 -0.4306 -0.4305 -0.5821
 9424SOL     OW39733   2.888   1.139  14.934  0.5156 -0.1240 -0.1221
 9424SOL    HW139734   2.922   1.131  14.845 -0.6657  0.8057 -0.6688
 9424SOL    HW239735   2.833   1.217  14.919  1.6980  0.7688  0.2056
 9425SOL     OW39736   2.514   3.983   9.160  0.1736  0.4550 -0.0907
 9425SOL    HW139737   2.600   3.946   9.140 -0.2540 -1.8981  2.4125
 9425SOL    HW239738   2.503   3.952   9.250 -0.7992  0.0002 -0.3629
 9426SOL     OW39739   4.489   1.369  14.708  0.3543 -0.5209  0.2574
 9426SOL    HW139740   4.438   1.290  14.691  0.8226 -1.2059  2.1193
 9426SOL    HW239741   4.492   1.413  14.622  0.2436 -0.1687  0.4327
 9427SOL     OW39742   3.584   0.011   2.746  0.4685 -0.2653 -0.1193
 9427SOL    HW139743   3.648   0.023   2.815  2.2914 -0.1724 -1.8253
 9427SOL    HW239744   3.623   0.048   2.667 -1.6902  0.8050 -0.6896
 9428SOL     OW39745   2.402   3.009   1.631  0.4038 -0.0225  0.4612
 9428SOL    HW139746   2.320   2.978   1.593  0.6334 -0.0365 -0.0187
 9428SOL    HW239747   2.451   3.028   1.552  3.2199  0.5015  2.3398
 9429SOL     OW39748   3.124   0.190   3.652 -0.0354 -0.2958 -0.0785
 9429SOL    HW139749   3.113   0.281   3.678 -1.8544  0.7228 -4.3782
 9429SOL    HW239750   3.034   0.159   3.645 -0.6720  1.4915  0.2137
 9430SOL     OW39751   1.296   1.307  17.533  0.0397 -0.9414  0.2657
 9430SOL    HW139752   1.357   1.377  17.558  0.3733 -1.2922  0.4452
 9430SOL    HW239753   1.284   1.258  17.614  4.2036  0.1004  1.5292
 9431SOL     OW39754   2.739   0.421  14.277 -0.3196 -0.8327  0.7796
 9431SOL    HW139755   2.730   0.484  14.349 -0.9151 -0.9183  0.7772
 9431SOL    HW239756   2.667   0.441  14.217  0.2840 -0.1682  0.2796
 9432SOL     OW39757   4.707   1.074   4.649  0.1594  0.1068  0.1967
 9432SOL    HW139758   4.677   1.164   4.638  0.7927  0.1095 -1.3854
 9432SOL    HW239759   0.077   1.093   4.671 -0.1923 -0.9994  2.6352
 9433SOL     OW39760   3.086   4.114   2.041 -0.0368  0.6515 -0.2687
 9433SOL    HW139761   3.179   4.109   2.018 -0.2368 -0.4152 -0.8466
 9433SOL    HW239762   3.046   4.085   1.959  0.7980  1.8701 -1.1136
 9434SOL     OW39763   1.840   2.233   5.857 -0.2683 -0.0345  0.6068
 9434SOL    HW139764   1.792   2.210   5.936  1.7474 -1.6184  1.3623
 9434SOL    HW239765   1.906   2.287   5.901 -0.6259  2.0139 -1.3405
 9435SOL     OW39766   2.562   1.981  17.237  0.0231 -0.1869 -0.0462
 9435SOL    HW139767   2.612   1.929  17.173  0.0802  1.4814 -1.3760
 9435SOL    HW239768   2.636   1.998  17.295  0.4417 -3.6630  0.4291
 9436SOL     OW39769   1.852   4.256   7.658  0.1027  0.1102 -0.1049
 9436SOL    HW139770   1.866   4.206   7.739 -2.4959  0.1051  0.3358
 9436SOL    HW239771   1.805   4.196   7.600 -0.3205  1.4688 -1.1602
 9437SOL     OW39772   0.476   1.290   8.902 -0.0604 -0.0869  0.6333
 9437SOL    HW139773   0.533   1.354   8.946  1.0874 -1.8106  1.6950
 9437SOL    HW239774   0.544   1.252   8.846 -0.7608  1.2829 -1.1518
 9438SOL     OW39775   2.026   2.344   5.112 -0.0319  0.0904  0.3278
 9438SOL    HW139776   2.104   2.384   5.151 -0.9006  1.9971  0.0956
 9438SOL    HW239777   2.064   2.311   5.031 -0.5763 -1.7957  0.8370
 9439SOL     OW39778   2.192   1.982   9.433 -0.4132  0.3589  0.6143
 9439SOL    HW139779   2.137   1.992   9.355 -0.9609 -0.3250  0.9147
 9439SOL    HW239780   2.271   1.957   9.385 -0.1261 -0.2195  1.3894
 9440SOL     OW39781   3.347   2.211   7.942 -0.0469 -0.2534 -0.3571
 9440SOL    HW139782   3.374   2.184   8.030  0.1731  1.2134  0.0385
 9440SOL    HW239783   3.422   2.270   7.928 -0.1692 -0.1615 -0.6304
 9441SOL     OW39784   3.326   0.419  16.842 -0.2582  0.4542  0.2172
 9441SOL    HW139785   3.348   0.461  16.759  0.8427  1.6691  1.1337
 9441SOL    HW239786   3.311   0.497  16.895 -0.1751 -0.6008  1.7781
 9442SOL     OW39787   1.371   2.838   6.809 -0.4348 -0.0158 -0.1863
 9442SOL    HW139788   1.418   2.778   6.752  1.2076  0.6155  0.5091
 9442SOL    HW239789   1.278   2.814   6.798 -0.4966  0.8545 -1.5504
 9443SOL     OW39790   4.124   2.918   2.689  0.4965 -0.8355  0.3244
 9443SOL    HW139791   4.156   2.990   2.744  0.2310  0.1965 -0.8783
 9443SOL    HW239792   4.177   2.845   2.721  0.7122 -0.4172  0.9337
 9444SOL     OW39793   0.289   1.855   2.854 -0.5717  0.0937  0.4210
 9444SOL    HW139794   0.267   1.788   2.789  1.1468  0.0160 -0.0852
 9444SOL    HW239795   0.363   1.806   2.889  1.2145  0.0390 -3.4739
 9445SOL     OW39796   2.888   4.500  11.324 -0.2450 -0.0351  0.0392
 9445SOL    HW139797   2.814   4.543  11.281  0.3609  0.4819 -0.4799
 9445SOL    HW239798   2.930   4.568  11.377  1.2529 -1.7323  1.0106
 9446SOL     OW39799   4.531   2.787   3.603  0.2440  0.1168  0.2865
 9446SOL    HW139800   4.491   2.800   3.517 -0.6990  1.3975  0.9157
 9446SOL    HW239801   4.563   2.698   3.588  0.9974  0.3361  0.6324
 9447SOL     OW39802   3.132   4.215   9.823  0.5596  0.3167 -0.6172
 9447SOL    HW139803   3.107   4.124   9.806 -0.5428  0.5872 -0.4430
 9447SOL    HW239804   3.208   4.210   9.881  0.6627 -0.2530 -0.8014
 9448SOL     OW39805   2.404   4.072   2.356 -0.8915 -0.0994  0.3082
 9448SOL    HW139806   2.462   4.098   2.284 -1.4148  0.2256  0.0088
 9448SOL    HW239807   2.374   3.985   2.328  0.1147 -1.4999  3.5903
 9449SOL     OW39808   0.947   1.176   3.847 -0.2672  0.0122  0.3352
 9449SOL    HW139809   1.028   1.206   3.806 -0.9316 -0.2743 -1.1953
 9449SOL    HW239810   0.969   1.200   3.937  0.2114  1.3973 -0.1427
 9450SOL     OW39811   2.418   3.394   8.530  0.3275  0.2326  0.6821
 9450SOL    HW139812   2.503   3.414   8.491  0.6333  0.3386  1.4008
 9450SOL    HW239813   2.366   3.472   8.511 -0.0766 -0.2981 -0.3444
 9451SOL     OW39814   2.104   2.664  12.836  0.3755  0.0503  0.1994
 9451SOL    HW139815   2.179   2.660  12.896  0.0651 -1.6508  0.4637
 9451SOL    HW239816   2.107   2.575  12.800  0.3452 -0.2854  1.0246
 9452SOL     OW39817   0.584   1.864   6.290 -0.4447 -0.5838 -0.7649
 9452SOL    HW139818   0.511   1.898   6.237 -1.3322 -1.9243 -0.3993
 9452SOL    HW239819   0.648   1.935   6.282 -1.7333  0.4743 -1.8017
 9453SOL     OW39820   4.066   0.818   2.585 -0.0001  0.4478  0.0579
 9453SOL    HW139821   4.138   0.764   2.553 -1.5493 -1.5179 -0.1855
 9453SOL    HW239822   4.041   0.784   2.671  1.2312 -1.2669 -0.2559
 9454SOL     OW39823   2.207   3.196   1.373 -0.3627  0.2105 -0.1284
 9454SOL    HW139824   2.196   3.254   1.448 -0.2679  0.7640 -0.5463
 9454SOL    HW239825   2.127   3.146   1.355  1.3378 -2.7631  0.5796
 9455SOL     OW39826   2.759   3.035   9.369  0.9851 -0.0823 -0.4226
 9455SOL    HW139827   2.832   3.080   9.411  0.5987  0.0678  0.0973
 9455SOL    HW239828   2.713   2.977   9.430  2.2995  0.4830  1.1237
 9456SOL     OW39829   3.685   2.318   8.356  0.2236  0.5335  0.1847
 9456SOL    HW139830   3.689   2.334   8.262 -0.9970  2.5023  0.4540
 9456SOL    HW239831   3.596   2.284   8.365  0.7622 -0.6758  0.8941
 9457SOL     OW39832   1.851   0.097   3.221 -0.1980  0.1883 -0.5185
 9457SOL    HW139833   1.877   0.184   3.250  1.0266  0.1205 -1.3784
 9457SOL    HW239834   1.872   0.036   3.291  0.9280  0.2244 -0.8216
 9458SOL     OW39835   3.766   1.263   6.386  0.5446  0.0144  0.3409
 9458SOL    HW139836   3.681   1.278   6.428 -0.4044 -2.1481 -0.8290
 9458SOL    HW239837   3.781   1.178   6.427  0.4831  0.5527  1.4825
 9459SOL     OW39838   2.679   1.485   2.119 -0.1074  0.4000 -0.1538
 9459SOL    HW139839   2.721   1.402   2.142  1.2495  0.6907 -1.5213
 9459SOL    HW239840   2.589   1.465   2.141 -0.1749  1.7281  0.7696
 9460SOL     OW39841   1.503   4.700   8.318 -0.4324 -0.2857  0.1265
 9460SOL    HW139842   1.464   0.062   8.293  0.0254 -0.7929 -2.2665
 9460SOL    HW239843   1.512   4.656   8.234 -2.2255 -0.7221  0.1796
 9461SOL     OW39844   1.503   1.978  12.076 -0.0491 -0.0497 -0.3472
 9461SOL    HW139845   1.521   1.887  12.055  0.3701 -0.2802  1.0294
 9461SOL    HW239846   1.448   1.998  12.000  0.2839  0.7128 -0.3907
 9462SOL     OW39847   3.170   0.709   7.177 -0.2887 -0.5226  0.2151
 9462SOL    HW139848   3.216   0.759   7.244  3.9331 -1.2854 -2.1516
 9462SOL    HW239849   3.239   0.703   7.112  1.8389  0.0992  2.4140
 9463SOL     OW39850   1.761   1.939  13.034 -0.4397  0.3401 -0.6659
 9463SOL    HW139851   1.849   1.967  13.060 -0.8452  1.2808 -0.3449
 9463SOL    HW239852   1.714   1.987  13.102 -3.0092 -1.2125 -1.3582
 9464SOL     OW39853   3.101   4.279   1.448 -0.4412  0.5152  0.4175
 9464SOL    HW139854   3.162   4.218   1.488 -0.0479 -0.9315 -2.3606
 9464SOL    HW239855   3.025   4.277   1.507  0.6548 -0.2712  1.7903
 9465SOL     OW39856   4.374   3.723  11.144 -0.3116  0.1986 -0.2902
 9465SOL    HW139857   4.399   3.806  11.102  3.5131 -2.3942 -3.0152
 9465SOL    HW239858   4.301   3.751  11.200 -3.2503 -1.8206 -3.1524
 9466SOL     OW39859   3.178   3.623   6.655  0.1652 -0.6795  0.0631
 9466SOL    HW139860   3.221   3.602   6.572 -0.3864 -1.8175  0.0606
 9466SOL    HW239861   3.258   3.617   6.707  0.6394 -0.5489 -0.6533
 9467SOL     OW39862   1.668   3.662   2.845  0.4078  0.3638  0.6620
 9467SOL    HW139863   1.675   3.756   2.828  1.3931 -0.0203 -1.0482
 9467SOL    HW239864   1.661   3.626   2.756  2.1677 -1.0871  1.1314
 9468SOL     OW39865   2.205   2.633   4.029 -0.5147 -0.0083 -0.0016
 9468SOL    HW139866   2.117   2.669   4.042 -0.6862 -0.3541 -0.1974
 9468SOL    HW239867   2.210   2.569   4.100  0.4948  1.5424  1.2970
 9469SOL     OW39868   4.484   3.283   3.179 -0.0344  0.1961  0.0703
 9469SOL    HW139869   4.552   3.311   3.241 -1.5269  2.6319  0.6130
 9469SOL    HW239870   4.506   3.345   3.110 -1.9778  0.6392 -0.1696
 9470SOL     OW39871   3.014   3.918   1.804 -0.7837  0.1723 -0.1614
 9470SOL    HW139872   2.998   3.876   1.719 -1.2188  1.4408 -0.6950
 9470SOL    HW239873   3.043   3.844   1.857  3.6661  1.6479 -0.5614
 9471SOL     OW39874   3.262   4.093   7.548  0.3208  0.2879 -0.3605
 9471SOL    HW139875   3.267   4.187   7.567  0.8332  0.7343 -2.7711
 9471SOL    HW239876   3.166   4.089   7.550  0.4004 -2.0399 -2.8244
 9472SOL     OW39877   3.752   1.452   4.233 -0.0550 -0.1765 -0.0956
 9472SOL    HW139878   3.809   1.377   4.217 -1.5342 -1.8161  2.2521
 9472SOL    HW239879   3.802   1.509   4.291 -2.6700  2.3287 -0.3223
 9473SOL     OW39880   0.428   3.729  13.277 -0.0279  0.2536 -0.2275
 9473SOL    HW139881   0.473   3.734  13.361  0.6908  0.7668 -0.6543
 9473SOL    HW239882   0.366   3.798  13.301  1.5447  1.0914  1.4033
 9474SOL     OW39883   0.131   2.740   7.169 -0.2057  0.1339  0.2288
 9474SOL    HW139884   0.218   2.777   7.157 -0.2285 -0.6343 -2.2018
 9474SOL    HW239885   0.078   2.819   7.156 -1.5733 -1.0695 -1.4897
 9475SOL     OW39886   0.484   0.183   6.393 -0.1267 -0.5569 -0.1086
 9475SOL    HW139887   0.419   0.133   6.443 -1.3430 -0.4145 -1.5365
 9475SOL    HW239888   0.568   0.139   6.406 -0.6371 -1.3803  0.4247
 9476SOL     OW39889   3.926   4.458  13.061  0.2046  0.1577 -0.5755
 9476SOL    HW139890   3.850   4.421  13.107 -0.1896  0.6293 -0.8410
 9476SOL    HW239891   3.995   4.412  13.108 -0.1469  0.0908 -0.1220
 9477SOL     OW39892   4.650   2.953   1.921 -0.1128 -0.1737 -0.0061
 9477SOL    HW139893   4.617   2.864   1.907 -1.8510  0.2669  1.1811
 9477SOL    HW239894   4.623   2.997   1.840 -0.8092 -1.3314 -0.4104
 9478SOL     OW39895   3.324   1.387   8.239  0.3455  0.3449 -0.1864
 9478SOL    HW139896   3.295   1.415   8.153  0.9172  0.4379 -0.3513
 9478SOL    HW239897   3.317   1.474   8.277  4.6444  0.3631  0.6011
 9479SOL     OW39898   4.199   3.682   6.482 -0.7135 -0.3931 -0.2116
 9479SOL    HW139899   4.166   3.751   6.538  1.3941  0.6051 -0.1812
 9479SOL    HW239900   4.232   3.616   6.543 -0.4092  1.2262  1.3507
 9480SOL     OW39901   3.345   1.620  16.621 -0.3390 -0.1900 -0.0425
 9480SOL    HW139902   3.338   1.685  16.552 -0.0338 -1.3763 -1.1778
 9480SOL    HW239903   3.441   1.619  16.628 -0.5209 -2.4668  2.2662
 9481SOL     OW39904   0.966   4.690   4.993 -0.2357  0.0972 -0.7345
 9481SOL    HW139905   0.893   4.654   4.943  0.1683  1.8233 -2.5809
 9481SOL    HW239906   0.913   4.710   5.070  1.1483 -2.7388  0.9480
 9482SOL     OW39907   0.227   4.012   5.356 -0.6374 -0.0254 -0.2906
 9482SOL    HW139908   0.321   4.024   5.373 -0.4012  2.0190 -2.9101
 9482SOL    HW239909   0.229   3.924   5.319  0.6220 -0.0919 -0.0585
 9483SOL     OW39910   0.293   4.138   1.398 -0.0516 -0.1754  0.2832
 9483SOL    HW139911   0.348   4.075   1.352 -0.3278 -1.3722  1.5922
 9483SOL    HW239912   0.344   4.153   1.477 -1.1990  1.7869  0.6478
 9484SOL     OW39913   3.102   1.959   7.990  0.3016 -0.3234  0.4972
 9484SOL    HW139914   3.170   1.894   8.009  0.8956  0.1352 -0.0428
 9484SOL    HW239915   3.031   1.902   7.959  1.1692 -1.1994  0.1091
 9485SOL     OW39916   1.066   4.025  16.851 -0.1978  0.4113  0.1214
 9485SOL    HW139917   1.052   4.093  16.917 -1.0356 -0.6626  1.0168
 9485SOL    HW239918   1.067   4.074  16.768 -0.0787 -1.3108 -0.8884
 9486SOL     OW39919   1.267   2.153   8.941  0.3222 -0.1531 -0.2390
 9486SOL    HW139920   1.271   2.146   9.037  0.5964  2.0501 -0.0870
 9486SOL    HW239921   1.182   2.113   8.921 -0.2979 -0.4327  2.8978
 9487SOL     OW39922   2.884   2.615   4.282 -0.0244 -0.2753  0.3167
 9487SOL    HW139923   2.809   2.626   4.224  0.1190  2.0313  0.6031
 9487SOL    HW239924   2.950   2.664   4.234 -0.2366  0.0697  0.3787
 9488SOL     OW39925   2.898   3.842   4.407 -0.1735 -0.1318  0.2587
 9488SOL    HW139926   2.803   3.843   4.394 -0.0321  0.0455 -0.7669
 9488SOL    HW239927   2.900   3.831   4.502 -2.4530  0.0075  0.3243
 9489SOL     OW39928   1.691   1.607  14.928 -0.0307  0.9248 -0.0371
 9489SOL    HW139929   1.757   1.599  14.859 -0.7602  0.0958 -0.6439
 9489SOL    HW239930   1.708   1.695  14.960  1.0322  0.8946 -0.5229
 9490SOL     OW39931   4.043   3.846   6.633 -0.5584 -0.2529 -0.7578
 9490SOL    HW139932   4.110   3.913   6.619 -1.8359  0.9750 -1.0090
 9490SOL    HW239933   3.967   3.900   6.656  0.6496  0.8110  0.7808
 9491SOL     OW39934   0.385   2.742  17.285  0.1626  0.3213 -0.1702
 9491SOL    HW139935   0.299   2.741  17.327  0.2369 -0.7403 -0.0409
 9491SOL    HW239936   0.378   2.657  17.243 -1.0755 -0.1464  0.9703
 9492SOL     OW39937   0.369   1.930   5.686  0.0018 -0.1954 -0.1344
 9492SOL    HW139938   0.325   1.956   5.605  3.3771  1.1837 -1.5472
 9492SOL    HW239939   0.416   1.851   5.661 -0.0538  0.3253 -1.8983
 9493SOL     OW39940   2.663   3.903   2.397  0.1846 -0.0073 -0.0200
 9493SOL    HW139941   2.647   3.824   2.346  0.3333 -0.7571  1.1063
 9493SOL    HW239942   2.691   3.967   2.331 -1.1502  0.7837  0.1821
 9494SOL     OW39943   4.463   1.164   2.429  0.2136  0.2525 -0.9983
 9494SOL    HW139944   4.435   1.168   2.520 -0.3736 -0.3939 -1.1558
 9494SOL    HW239945   4.435   1.249   2.397 -1.4567  0.4483  1.0176
 9495SOL     OW39946   4.397   0.203   3.334 -0.6948 -0.7061  0.0574
 9495SOL    HW139947   4.490   0.218   3.349 -1.0287  1.7100 -0.1973
 9495SOL    HW239948   4.388   0.125   3.388 -0.2089 -0.7469  0.0723
 9496SOL     OW39949   2.276   2.170   8.200  0.3342  0.1894 -0.3261
 9496SOL    HW139950   2.322   2.086   8.203  1.0767  0.6032 -0.2951
 9496SOL    HW239951   2.305   2.197   8.113 -0.0056  0.3620 -0.3871
 9497SOL     OW39952   0.471   2.239   8.873 -0.2563 -0.6543 -0.1382
 9497SOL    HW139953   0.485   2.300   8.945  3.0102 -0.0626 -1.2400
 9497SOL    HW239954   0.376   2.228   8.881 -0.1220  0.2126  2.5762
 9498SOL     OW39955   1.661   1.836  11.335 -0.1031  0.4362  0.0476
 9498SOL    HW139956   1.727   1.890  11.378  0.1481 -1.9774  2.6600
 9498SOL    HW239957   1.716   1.759  11.315  0.5896  0.6930  0.9989
 9499SOL     OW39958   0.257   3.652   7.416 -0.1056  0.2303  0.1516
 9499SOL    HW139959   0.268   3.600   7.496 -1.8322 -2.3101 -1.2605
 9499SOL    HW239960   0.205   3.588   7.368  0.6734  0.6386 -1.2418
 9500SOL     OW39961   0.840   0.725   2.122  0.3693 -0.6008 -0.1089
 9500SOL    HW139962   0.898   0.772   2.181 -0.2198  1.3363 -1.0707
 9500SOL    HW239963   0.754   0.741   2.162 -0.5381  1.8891 -2.9915
 9501SOL     OW39964   3.962   2.320   2.224  0.0533 -0.6246 -0.1146
 9501SOL    HW139965   4.012   2.356   2.151 -0.7724  0.1222 -0.3189
 9501SOL    HW239966   3.947   2.231   2.192  2.1541 -1.0735  0.2011
 9502SOL     OW39967   1.177   4.311   9.521  0.5714 -0.0002  0.6330
 9502SOL    HW139968   1.259   4.264   9.540 -0.7926 -1.2864  3.2352
 9502SOL    HW239969   1.203   4.392   9.565 -1.1460  0.9565 -0.1305
 9503SOL     OW39970   1.386   3.522  10.739  0.1905 -0.1910 -0.0673
 9503SOL    HW139971   1.326   3.456  10.772  0.7145 -0.1722  0.9018
 9503SOL    HW239972   1.379   3.512  10.644 -1.8673 -0.8555  0.1657
 9504SOL     OW39973   1.628   1.453   0.250 -0.0231  0.0922  0.6180
 9504SOL    HW139974   1.644   1.378   0.307  0.7552  0.6293  1.1050
 9504SOL    HW239975   1.567   1.502   0.304  0.6564  1.5353  0.0736
 9505SOL     OW39976   1.039   4.395  13.203  0.1828 -0.1468  0.6307
 9505SOL    HW139977   1.112   4.454  13.217  0.5668 -1.0939  2.6440
 9505SOL    HW239978   0.982   4.443  13.263 -0.7473 -2.3543  1.5388
 9506SOL     OW39979   2.910   4.355   9.847 -0.2317 -0.0946 -0.3096
 9506SOL    HW139980   2.925   4.413   9.921 -1.2722  1.7683 -1.5736
 9506SOL    HW239981   2.988   4.299   9.858  0.4574  0.9010 -0.1044
 9507SOL     OW39982   4.329   2.510   3.302 -0.4841 -0.0918  0.6371
 9507SOL    HW139983   4.291   2.518   3.215 -0.1288 -0.4713  0.4459
 9507SOL    HW239984   4.353   2.601   3.319  1.5614 -0.1409 -1.9890
 9508SOL     OW39985   3.082   1.309   5.319 -0.7428  0.4876  0.2687
 9508SOL    HW139986   3.173   1.331   5.338 -0.3000  0.1926 -1.5022
 9508SOL    HW239987   3.048   1.376   5.258  0.7987 -1.3849 -2.6239
 9509SOL     OW39988   2.424   4.044   8.596  0.1029 -0.0515 -0.0651
 9509SOL    HW139989   2.453   4.122   8.550  1.2094 -0.6803 -0.4173
 9509SOL    HW239990   2.354   4.086   8.647  0.3902  1.4525 -0.9225
 9510SOL     OW39991   3.122   2.866   3.673  0.0993  0.3054 -0.2641
 9510SOL    HW139992   3.041   2.880   3.721 -0.5532 -2.0558 -0.6849
 9510SOL    HW239993   3.092   2.865   3.582  0.1540 -2.7570 -0.2438
 9511SOL     OW39994   0.331   1.390   6.953  0.3075 -0.3131  0.5163
 9511SOL    HW139995   0.317   1.315   7.011  1.2937 -2.1281 -1.5718
 9511SOL    HW239996   0.309   1.361   6.864  0.2312  1.5873 -0.0805
 9512SOL     OW39997   1.766   2.344   5.473  0.6791  0.2268 -0.2930
 9512SOL    HW139998   1.830   2.411   5.450 -0.0641  1.7100  1.8748
 9512SOL    HW239999   1.743   2.371   5.563 -1.9948  0.5171 -1.0624
 9513SOL     OW40000   1.501   0.568  13.366  0.3541  0.3263 -0.2864
 9513SOL    HW140001   1.473   0.646  13.414 -1.5745  0.7901 -2.1597
 9513SOL    HW240002   1.595   0.570  13.385  0.4614 -2.5803 -0.5042
 9514SOL     OW40003   1.316   1.005  11.725 -0.5485  0.3118 -0.5194
 9514SOL    HW140004   1.384   1.070  11.742 -0.5386  0.1742 -0.0321
 9514SOL    HW240005   1.371   0.929  11.706  0.2117  0.9384 -0.7947
 9515SOL     OW40006   3.320   2.189   4.947 -0.1619 -0.6406  0.6784
 9515SOL    HW140007   3.226   2.173   4.953  0.1320 -3.0894 -1.3485
 9515SOL    HW240008   3.307   2.280   4.975  0.2498  0.7322 -3.5753
 9516SOL     OW40009   2.589   2.777  16.785 -0.3371 -0.2417  0.4231
 9516SOL    HW140010   2.617   2.748  16.698 -0.9859  0.5792 -0.0546
 9516SOL    HW240011   2.531   2.848  16.756  0.5883  0.5278  0.4288
 9517SOL     OW40012   0.623   0.088   1.213  0.2992  0.1114  0.0325
 9517SOL    HW140013   0.555   0.093   1.146  1.6842  2.9392 -1.1698
 9517SOL    HW240014   0.682   0.015   1.191  0.2061  0.0317  0.0453
 9518SOL     OW40015   0.068   0.653   6.439 -0.4330  0.2103 -0.6516
 9518SOL    HW140016   0.097   0.722   6.379  2.4398  0.2121  0.7521
 9518SOL    HW240017   0.032   0.586   6.381 -0.8944  1.2339 -1.5717
 9519SOL     OW40018   2.956   1.949   6.203  0.2289  0.3962 -0.1098
 9519SOL    HW140019   3.000   1.886   6.261  0.4083  0.5293 -0.1010
 9519SOL    HW240020   2.900   1.991   6.267  0.6572  0.7129  0.0571
 9520SOL     OW40021   0.034   0.998   3.421  0.6232  0.2094 -0.0074
 9520SOL    HW140022   0.063   0.919   3.374 -0.4063  0.0519 -0.3740
 9520SOL    HW240023   0.086   0.982   3.500 -0.1046 -2.1243  0.0200
 9521SOL     OW40024   2.431   2.024   7.465  0.3514  0.3451 -0.6168
 9521SOL    HW140025   2.507   1.966   7.466  0.0958  0.0047 -0.7172
 9521SOL    HW240026   2.487   2.101   7.464  0.6518  0.1119 -1.4348
 9522SOL     OW40027   3.888   4.267   3.942 -0.2399  0.2181  0.2122
 9522SOL    HW140028   3.983   4.281   3.939 -0.1663  0.0152  1.3891
 9522SOL    HW240029   3.863   4.356   3.917  2.1462  0.9209  0.3587
 9523SOL     OW40030   4.514   3.809   8.104  0.2486  0.0780  0.6561
 9523SOL    HW140031   4.589   3.788   8.159  2.9078  2.0696 -2.2239
 9523SOL    HW240032   4.521   3.904   8.091 -0.5521  0.0808  0.2689
 9524SOL     OW40033   2.098   1.846   7.776 -0.4631  0.3775  0.0949
 9524SOL    HW140034   2.124   1.886   7.694 -0.7618  0.1765 -0.0981
 9524SOL    HW240035   2.122   1.918   7.835  0.3922  0.4405 -0.3213
 9525SOL     OW40036   0.092   1.863   2.458 -0.7965 -0.0411 -0.4345
 9525SOL    HW140037   0.127   1.799   2.397  0.6835  1.9704 -1.6907
 9525SOL    HW240038   0.153   1.861   2.532 -0.2596  0.9753 -0.8546
 9526SOL     OW40039   2.834   0.594   1.770 -0.0047  0.3958  0.8618
 9526SOL    HW140040   2.926   0.583   1.747 -0.1210  0.5434  0.3296
 9526SOL    HW240041   2.837   0.586   1.866  0.8226  1.4653  0.9215
 9527SOL     OW40042   4.654   1.327   1.977 -0.3693 -0.3357  0.0482
 9527SOL    HW140043   4.687   1.353   2.063 -1.0378  0.0203  0.1936
 9527SOL    HW240044   4.707   1.253   1.946 -1.0120 -0.9944  0.5134
 9528SOL     OW40045   2.431   3.202  13.077  0.4403  0.3097  0.8142
 9528SOL    HW140046   2.487   3.233  13.006  2.1063 -2.4336  0.9130
 9528SOL    HW240047   2.396   3.285  13.109  1.1960  0.8018  0.3695
 9529SOL     OW40048   0.701   1.463   2.620  1.0091  0.1404 -0.5470
 9529SOL    HW140049   0.668   1.392   2.565 -0.2779  0.5024 -0.2601
 9529SOL    HW240050   0.742   1.411   2.690 -0.2293  1.1113  0.9158
 9530SOL     OW40051   4.591   1.600   8.628 -0.6075  0.4651 -0.5312
 9530SOL    HW140052   4.637   1.573   8.708  1.8727 -0.9998 -2.4751
 9530SOL    HW240053   4.634   1.684   8.613 -0.6029  1.1286  3.0535
 9531SOL     OW40054   2.723   3.397  11.775  0.8006  0.2723 -0.1888
 9531SOL    HW140055   2.684   3.463  11.831  0.4939 -0.7392  0.8017
 9531SOL    HW240056   2.817   3.415  11.771  0.6776  0.8569 -0.3484
 9532SOL     OW40057   0.368   0.110  10.065  0.1852  0.2071 -0.1126
 9532SOL    HW140058   0.353   0.187  10.120 -2.3415  0.0722 -0.6426
 9532SOL    HW240059   0.361   0.158   9.982  0.3078 -2.0631 -1.4273
 9533SOL     OW40060   2.019   3.543   2.362 -0.2090  0.2432  0.3160
 9533SOL    HW140061   2.095   3.550   2.419  0.1129 -0.7106  0.0083
 9533SOL    HW240062   1.962   3.497   2.424  0.1525 -0.0585  0.4255
 9534SOL     OW40063   4.659   0.313  14.603  0.1496 -0.2988 -0.6495
 9534SOL    HW140064   4.566   0.295  14.599 -0.2344  1.5798  0.0981
 9534SOL    HW240065   4.652   0.401  14.638  2.8742 -0.6539  0.7841
 9535SOL     OW40066   4.106   1.827   2.057 -0.3065 -0.5757  0.5751
 9535SOL    HW140067   4.193   1.788   2.065  0.1014  0.0568 -0.8460
 9535SOL    HW240068   4.059   1.766   2.001  0.3613  1.8297 -2.5704
 9536SOL     OW40069   3.171   2.758   1.614  0.2658 -0.2861 -0.3986
 9536SOL    HW140070   3.152   2.753   1.708  1.3432  2.2737 -0.0476
 9536SOL    HW240071   3.240   2.693   1.624  0.6733  0.6128  2.6437
 9537SOL     OW40072   1.465   0.408   6.964 -0.0463 -0.2690 -0.6052
 9537SOL    HW140073   1.403   0.348   6.923  1.9700 -2.6413 -0.1735
 9537SOL    HW240074   1.404   0.482   6.966  0.3523  0.0474 -0.0533
 9538SOL     OW40075   2.024   1.657   2.285 -0.5777 -0.7141 -0.2676
 9538SOL    HW140076   1.995   1.702   2.365  0.2108 -1.4555  0.4396
 9538SOL    HW240077   2.106   1.624   2.322 -1.2471 -0.6381  1.2836
 9539SOL     OW40078   1.627   2.294  15.843 -0.8236 -0.1250  0.3912
 9539SOL    HW140079   1.636   2.199  15.832  0.9316  0.5287 -3.8274
 9539SOL    HW240080   1.537   2.303  15.812 -0.2728  0.3176 -1.0546
 9540SOL     OW40081   3.363   3.093  10.714  0.5239  0.6346  0.2246
 9540SOL    HW140082   3.278   3.083  10.757 -0.0435  1.5717 -0.6836
 9540SOL    HW240083   3.390   3.001  10.713 -0.4911  0.3625 -1.9117
 9541SOL     OW40084   1.862   1.236  10.515 -1.0623  0.2177 -0.3501
 9541SOL    HW140085   1.776   1.202  10.540 -1.1450  0.6828 -0.0022
 9541SOL    HW240086   1.915   1.225  10.594  0.5870  0.5325 -1.4149
 9542SOL     OW40087   0.583   0.854   2.299 -0.4466  0.2263  0.3148
 9542SOL    HW140088   0.622   0.767   2.304 -1.1569 -0.0893  0.3742
 9542SOL    HW240089   0.634   0.919   2.348  0.3638 -0.1882  0.0198
 9543SOL     OW40090   4.505   1.613  12.355  0.2183 -0.1130  0.0330
 9543SOL    HW140091   4.456   1.590  12.435  0.8772 -0.0540  0.4546
 9543SOL    HW240092   4.459   1.693  12.330  2.0960  1.2607  0.9357
 9544SOL     OW40093   0.556   0.753  14.815  0.3095  0.3773  0.4370
 9544SOL    HW140094   0.605   0.742  14.897  1.3217 -0.3252 -0.2695
 9544SOL    HW240095   0.572   0.846  14.798 -0.0424  0.4978  0.7681
 9545SOL     OW40096   3.459   2.283  14.143  0.4297  0.2241  0.1199
 9545SOL    HW140097   3.380   2.298  14.091  0.4335  0.1006  0.0776
 9545SOL    HW240098   3.424   2.247  14.224  0.9716 -0.8465 -0.1189
 9546SOL     OW40099   1.344   3.220  11.002 -0.0900  0.0286  0.0046
 9546SOL    HW140100   1.292   3.248  10.927  0.2575  0.9908  0.1113
 9546SOL    HW240101   1.422   3.193  10.953  0.3659  1.6180 -0.1481
 9547SOL     OW40102   3.518   2.870  10.788 -0.0198  0.1483  0.2140
 9547SOL    HW140103   3.555   2.917  10.862  1.7220  0.2700 -0.7164
 9547SOL    HW240104   3.531   2.779  10.815  0.8553 -0.4195 -2.0850
 9548SOL     OW40105   3.630   4.534   5.380  0.3490  0.1945 -0.3071
 9548SOL    HW140106   3.707   4.573   5.420  0.6767 -1.0345  0.2386
 9548SOL    HW240107   3.662   4.515   5.292 -0.7274  2.0036 -1.0958
 9549SOL     OW40108   2.417   1.015   5.772  0.1287  0.0572  0.4737
 9549SOL    HW140109   2.391   1.089   5.828  0.9529  0.8007 -0.1118
 9549SOL    HW240110   2.492   1.049   5.722 -1.8799  0.5460 -2.1929
 9550SOL     OW40111   3.697   3.951   5.351  0.4662  0.5094  0.3020
 9550SOL    HW140112   3.702   4.046   5.340 -0.0348  0.3982 -0.8376
 9550SOL    HW240113   3.742   3.929   5.433 -1.4721 -1.3573  0.8465
 9551SOL     OW40114   3.406   2.274  12.052 -0.2161 -0.0665  0.4332
 9551SOL    HW140115   3.366   2.324  11.980 -0.7944 -0.2141  0.6482
 9551SOL    HW240116   3.396   2.180  12.034  1.5753 -0.0851 -0.4561
 9552SOL     OW40117   3.292   3.548  10.542 -0.4034  0.1656  0.2201
 9552SOL    HW140118   3.200   3.575  10.540 -0.3180  0.4567  0.1604
 9552SOL    HW240119   3.284   3.463  10.585 -1.9045  0.9000  1.4042
 9553SOL     OW40120   0.456   3.060   3.013  0.4570 -0.4832 -0.0863
 9553SOL    HW140121   0.367   3.088   3.029  0.6694 -1.3981  2.6677
 9553SOL    HW240122   0.443   2.970   3.044 -0.1112  0.1161  1.3710
 9554SOL     OW40123   4.717   2.396   6.606  0.0341 -0.0547 -0.0281
 9554SOL    HW140124   4.636   2.447   6.595 -0.7243 -0.9401  1.4262
 9554SOL    HW240125   0.023   2.373   6.518 -2.3574 -1.0245 -0.5343
 9555SOL     OW40126   2.125   0.407   5.365 -0.4652 -0.0791  0.1048
 9555SOL    HW140127   2.064   0.424   5.294  2.6023 -0.9955 -2.7655
 9555SOL    HW240128   2.184   0.478   5.342 -0.2858 -0.0418  0.6642
 9556SOL     OW40129   1.155   1.070   7.224  0.4811 -0.3056 -0.1648
 9556SOL    HW140130   1.143   1.008   7.151 -0.0355  0.7143 -0.9429
 9556SOL    HW240131   1.202   1.018   7.289  2.1352 -0.2471 -1.3198
 9557SOL     OW40132   3.819   3.175   6.033  0.3197  0.0910  0.5746
 9557SOL    HW140133   3.842   3.252   5.980 -3.4285  0.7078 -0.1199
 9557SOL    HW240134   3.858   3.100   5.988 -0.5099  0.4576 -0.7614
 9558SOL     OW40135   0.696   2.555   5.569 -0.3897  0.0402  0.4693
 9558SOL    HW140136   0.707   2.589   5.658 -0.8731  0.9651  0.1750
 9558SOL    HW240137   0.631   2.485   5.570 -1.2361  0.8243  0.3132
 9559SOL     OW40138   3.623   1.642   5.253  0.1302  0.0471 -0.5312
 9559SOL    HW140139   3.534   1.652   5.217 -0.4634 -0.3089  0.8522
 9559SOL    HW240140   3.635   1.549   5.232 -0.8328 -0.3506  0.7027
 9560SOL     OW40141   2.573   1.642   8.622 -0.4097  0.3409  0.3210
 9560SOL    HW140142   2.487   1.627   8.583 -0.1272 -1.0458  0.2291
 9560SOL    HW240143   2.566   1.618   8.715 -0.2649 -1.1344 -0.0523
 9561SOL     OW40144   2.193   3.538   7.392  0.1739 -0.4488  0.4771
 9561SOL    HW140145   2.261   3.521   7.456 -0.9259  0.1619  1.8086
 9561SOL    HW240146   2.208   3.630   7.367  1.9505 -0.7970  0.2761
 9562SOL     OW40147   1.283   3.216   5.832  0.1279 -0.2584  0.6021
 9562SOL    HW140148   1.227   3.185   5.904 -2.9597  2.1969 -0.7135
 9562SOL    HW240149   1.364   3.166   5.839 -0.5168 -1.3119  0.5618
 9563SOL     OW40150   4.675   4.117   1.554 -0.1903 -0.2472  0.0886
 9563SOL    HW140151   4.696   4.186   1.491  1.3819 -0.2462  0.6099
 9563SOL    HW240152   0.032   4.119   1.609  0.0410 -1.6234 -0.2019
 9564SOL     OW40153   0.364   1.504   7.547 -0.0408 -0.0579  0.3100
 9564SOL    HW140154   0.409   1.445   7.608 -0.2741 -1.2258 -0.6554
 9564SOL    HW240155   0.318   1.436   7.498  0.0439 -1.1313  1.7157
 9565SOL     OW40156   0.249   0.750   0.013  0.3604 -0.2871 -0.1456
 9565SOL    HW140157   0.290   0.663   0.013  0.3217 -0.3084 -1.3068
 9565SOL    HW240158   0.246   0.767   0.107  0.2652 -1.5688  0.0878
 9566SOL     OW40159   3.721   0.071  17.266  0.0086  0.4059 -0.2390
 9566SOL    HW140160   3.763   0.055  17.350 -1.3711 -0.0349  0.3780
 9566SOL    HW240161   3.703   4.705  17.233  0.3444 -0.1416  1.0214
 9567SOL     OW40162   1.615   3.173   7.877 -0.2320 -0.0219  0.2190
 9567SOL    HW140163   1.566   3.205   7.953 -1.8112  0.4869 -1.0048
 9567SOL    HW240164   1.548   3.179   7.809  1.0537  2.0961 -0.8600
 9568SOL     OW40165   0.436   0.917   5.364 -0.0242 -0.6429  0.7445
 9568SOL    HW140166   0.427   1.011   5.385  1.0726 -0.3747 -0.0171
 9568SOL    HW240167   0.365   0.885   5.420  1.1088  0.4312  2.8207
   4.72207   4.72207  17.69042
