Membrane in water
40167
    1TCq1    O1    1   3.573   1.807  11.213  0.3388  0.0946 -0.1458
    1TCq1    C1    2   3.533   1.709  11.301 -0.3115  0.0057 -0.5303
    1TCq1    O2    3   3.463   1.611  11.283  0.0650 -0.0509 -0.8277
    1TCq1    C2    4   3.639   1.702  11.402 -0.4267 -0.8146 -0.1899
    1TCq1    C3    5   3.763   1.746  11.375  0.2470 -0.4635  0.2023
    1TCq1    C4    6   3.867   1.678  11.426  0.3390 -0.2299  0.6646
    1TCq1    C5    7   3.861   1.566  11.500  0.1853 -0.1372  0.1840
    1TCq1    C6    8   3.737   1.520  11.517  0.6083 -0.0987 -0.4976
    1TCq1    C7    9   3.625   1.593  11.480 -0.0318  0.1259  0.1718
    1TCq1    C8   10   3.724   1.385  11.559 -0.0102  0.2675  0.0788
    1TCq1    O4   11   3.620   1.359  11.621 -0.3681  0.2112  0.2306
    1TCq1    C9   12   3.998   1.732  11.403 -0.0965  0.2901 -0.2394
    1TCq1    O5   13   4.011   1.850  11.363 -0.2874  0.3302 -0.1716
    1TCq1    O6   14   4.095   1.654  11.397 -0.0055  0.2023  0.6796
    1TCq1    H1   15   3.623   1.876  11.261  1.9980  0.1556 -1.9691
    1TCq1    H2   16   3.781   1.838  11.321  0.4675 -1.3534 -1.2397
    1TCq1    H3   17   3.955   1.529  11.538  0.3635 -0.5221 -0.6211
    1TCq1    H4   18   3.530   1.546  11.503  0.5506 -1.4162 -0.5557
    2MPD2     C   19   3.832   0.879  11.537 -0.0532  0.4537  0.3014
    2MPD2    C1   20   3.735   0.947  11.610 -0.5540 -0.2570 -0.4556
    2MPD2    C2   21   3.730   1.087  11.591 -0.5785  0.8282 -0.1560
    2MPD2    C3   22   3.820   1.155  11.509 -0.0638  0.7554  0.0850
    2MPD2    C4   23   3.912   1.085  11.441 -0.5182  0.0513  0.2477
    2MPD2    C5   24   3.914   0.949  11.459 -0.0122 -0.2598 -0.8721
    2MPD2     H   25   3.656   1.139  11.651 -0.5906 -0.2635  0.7693
    2MPD2    H1   26   3.980   1.127  11.368 -0.4867 -0.4232  0.0005
    2MPD2    H2   27   3.858   0.774  11.548  0.6116  0.5416 -0.4323
    2MPD2    H3   28   4.006   0.903  11.424  0.8963  0.1362  1.0181
    2MPD2     N   29   3.822   1.301  11.503  0.4993  0.0262  0.1548
    2MPD2    H5   30   3.892   1.342  11.443  0.2196 -2.3701 -1.8194
    2MPD2    N1   31   3.657   0.876  11.706  0.2308 -0.5897  0.4631
    2MPD2    H7   32   3.587   0.925  11.761  1.8363  2.5196 -0.2981
    3TCq1    O1   33   2.852   1.049  10.219  0.3810 -0.4201 -0.4212
    3TCq1    C1   34   2.774   1.128  10.300  0.3422  0.9039  0.7084
    3TCq1    O2   35   2.667   1.086  10.343 -0.2591 -1.0613 -0.9774
    3TCq1    C2   36   2.802   1.267  10.288  0.4286  0.0888  0.1616
    3TCq1    C3   37   2.899   1.314  10.207  0.7574  0.1968  0.4287
    3TCq1    C4   38   2.922   1.445  10.214 -0.3587  0.2340 -0.0936
    3TCq1    C5   39   2.862   1.528  10.303  0.4829 -0.5366 -0.3916
    3TCq1    C6   40   2.759   1.484  10.379  0.8869  0.3449  0.1098
    3TCq1    C7   41   2.734   1.350  10.375  0.0335 -0.3996  0.0581
    3TCq1    C8   42   2.642   1.562  10.408  0.3006 -0.0757 -0.3111
    3TCq1    O4   43   2.555   1.514  10.485 -0.0944  0.1401 -0.1108
    3TCq1    C9   44   3.027   1.491  10.122  0.3977 -0.0001 -1.1053
    3TCq1    O5   45   3.041   1.615  10.098 -0.2217 -0.0836 -0.1486
    3TCq1    O6   46   3.092   1.399  10.059  0.1162 -0.6583 -0.1031
    3TCq1    H1   47   2.945   1.081  10.217  0.2291  0.1322  1.5861
    3TCq1    H2   48   2.950   1.247  10.140 -2.8036 -2.7938  0.7485
    3TCq1    H3   49   2.906   1.626  10.317 -1.1313  0.2667 -0.9614
    3TCq1    H4   50   2.657   1.309  10.440 -0.9684  0.9825 -0.2635
    4MPD2     C   51   2.432   2.021  10.399 -0.3902  0.2783  0.1636
    4MPD2    C1   52   2.419   1.919  10.494  0.2604 -0.1648 -0.2969
    4MPD2    C2   53   2.497   1.802  10.479 -0.5496  0.1672 -1.1981
    4MPD2    C3   54   2.563   1.786  10.359 -0.2300 -0.1500  0.4899
    4MPD2    C4   55   2.577   1.890  10.271 -0.2904 -0.4220  0.0148
    4MPD2    C5   56   2.514   2.009  10.293 -0.1769 -0.5003 -0.5550
    4MPD2     H   57   2.487   1.736  10.564 -0.1227  4.0168  1.8572
    4MPD2    H1   58   2.628   1.883  10.176 -1.3474  1.1890 -0.6589
    4MPD2    H2   59   2.375   2.113  10.392  2.6618  2.2262  0.8467
    4MPD2    H3   60   2.519   2.084  10.215 -2.3544 -1.2787 -1.4362
    4MPD2     N   61   2.641   1.671  10.335  0.3808  0.4236 -0.2815
    4MPD2    H5   62   2.715   1.679  10.266  1.5308  2.6843  1.1967
    4MPD2    N1   63   2.340   1.928  10.606 -0.0972 -0.3953 -0.2320
    4MPD2    H7   64   2.321   1.851  10.669 -0.7835 -1.6602 -2.0016
    5TCq1    O1   65   4.227   3.732  11.597 -0.3089 -0.0892  0.7979
    5TCq1    C1   66   4.238   3.818  11.696  0.3151 -0.0654  0.0404
    5TCq1    O2   67   4.334   3.840  11.768 -0.3736  0.1266  0.5240
    5TCq1    C2   68   4.106   3.882  11.707  0.6960 -0.2287  0.1551
    5TCq1    C3   69   4.101   3.987  11.789  0.4224  0.1465  0.3470
    5TCq1    C4   70   3.975   4.040  11.816 -0.4814 -0.1878  0.0267
    5TCq1    C5   71   3.861   3.980  11.774  0.2869  0.4904  0.0693
    5TCq1    C6   72   3.869   3.869  11.696  0.2353 -0.3726 -0.3396
    5TCq1    C7   73   3.993   3.812  11.664  0.5998 -0.9544  0.0585
    5TCq1    C8   74   3.753   3.797  11.644  0.0654 -0.1828  0.2526
    5TCq1    O4   75   3.767   3.741  11.533  0.4799 -0.3776  0.2336
    5TCq1    C9   76   3.955   4.159  11.897 -0.7514 -0.4535 -0.1576
    5TCq1    O5   77   4.058   4.235  11.896  0.3729 -0.1175  0.4995
    5TCq1    O6   78   3.843   4.191  11.947 -0.1316  0.0019  0.1192
    5TCq1    H1   79   4.152   3.752  11.537 -0.9483 -2.0614  0.9492
    5TCq1    H2   80   4.192   4.034  11.821 -1.0090  2.7992  0.4790
    5TCq1    H3   81   3.766   4.030  11.790 -0.4997 -0.4655 -1.6425
    5TCq1    H4   82   3.991   3.714  11.618  0.4395 -1.0307  0.2268
    6MPD2     C   83   3.482   3.668  11.845 -0.1113  1.0806  0.0370
    6MPD2    C1   84   3.552   3.687  11.731 -0.2716 -0.0778  0.0154
    6MPD2    C2   85   3.538   3.597  11.621  0.0819  0.5433  0.6494
    6MPD2    C3   86   3.447   3.494  11.632 -0.0343  0.0205  0.6244
    6MPD2    C4   87   3.365   3.481  11.749 -1.0319  0.5037 -0.2020
    6MPD2    C5   88   3.387   3.571  11.850 -0.1284  0.5686 -0.5489
    6MPD2     H   89   3.589   3.616  11.527  0.6433  0.0751  0.8589
    6MPD2    H1   90   3.286   3.408  11.757 -0.9730  0.4605 -0.0156
    6MPD2    H2   91   3.483   3.738  11.927 -1.8030 -0.1677  1.1166
    6MPD2    H3   92   3.321   3.581  11.935 -1.0866 -1.1369 -1.1121
    6MPD2     N   93   3.434   3.404  11.523 -0.0748  0.3685  0.6430
    6MPD2    H5   94   3.477   3.437  11.437  2.1352  0.5491  1.8124
    6MPD2    N1   95   3.645   3.789  11.729  0.1336 -0.2669  0.2922
    6MPD2    H7   96   3.650   3.850  11.809 -0.1024  0.8645 -0.5642
    7TCq1    O1   97   1.611   2.497  14.277 -0.2111  0.3235 -0.0374
    7TCq1    C1   98   1.563   2.448  14.162 -0.0451  0.2357  0.4419
    7TCq1    O2   99   1.504   2.340  14.149  0.6434  0.2660 -0.7818
    7TCq1    C2  100   1.559   2.550  14.060 -0.1718 -0.4503  0.7240
    7TCq1    C3  101   1.606   2.675  14.076  0.1893  0.7433  0.2633
    7TCq1    C4  102   1.648   2.746  13.968  0.3713  0.6839 -0.2287
    7TCq1    C5  103   1.647   2.698  13.839 -0.9416 -0.3590 -0.3094
    7TCq1    C6  104   1.591   2.577  13.827  0.1568  0.0772 -0.5053
    7TCq1    C7  105   1.554   2.503  13.934 -0.9813 -0.2746 -0.1299
    7TCq1    C8  106   1.536   2.538  13.699  0.4154  0.3782  0.3018
    7TCq1    O4  107   1.429   2.482  13.700  0.0127 -0.2736 -0.5154
    7TCq1    C9  108   1.676   2.888  13.993 -0.1156 -0.1677  0.1371
    7TCq1    O5  109   1.625   2.943  14.094 -0.2075  0.4029  0.2361
    7TCq1    O6  110   1.730   2.946  13.895  0.6417  0.2904  0.4434
    7TCq1    H1  111   1.686   2.558  14.261 -0.0697  0.0156 -0.5430
    7TCq1    H2  112   1.583   2.723  14.171  0.8600  0.3948  0.6021
    7TCq1    H3  113   1.662   2.762  13.753 -1.0286  0.9836  0.6784
    7TCq1    H4  114   1.524   2.400  13.918  0.1124 -0.7421  0.8390
    8MPD2     C  115   1.559   2.479  13.186  0.9141  1.1906  0.2423
    8MPD2    C1  116   1.446   2.495  13.273  0.6810 -0.5479 -0.6477
    8MPD2    C2  117   1.475   2.505  13.405 -0.1798 -0.1186  0.2280
    8MPD2    C3  118   1.600   2.523  13.459 -0.6738 -0.1451 -0.4528
    8MPD2    C4  119   1.707   2.537  13.371  0.2502 -0.0959  0.5655
    8MPD2    C5  120   1.683   2.505  13.234 -0.1379 -0.0924 -0.3167
    8MPD2     H  121   1.393   2.499  13.476  0.7713 -3.1973  1.0692
    8MPD2    H1  122   1.810   2.546  13.401  0.8031 -1.9704 -0.7538
    8MPD2    H2  123   1.559   2.466  13.079  1.4284 -2.5251  0.7186
    8MPD2    H3  124   1.770   2.495  13.170  0.1897 -0.9915  0.2728
    8MPD2     N  125   1.625   2.557  13.598  0.0047 -0.0217  0.3852
    8MPD2    H5  126   1.717   2.594  13.618  0.0304  0.0072  0.2156
    8MPD2    N1  127   1.314   2.486  13.225  0.7149  0.4689  0.3174
    8MPD2    H7  128   1.301   2.454  13.130 -0.3859 -0.4120  0.7618
    9TCq1    O1  129   2.880   1.059  10.725  0.4926 -0.8521  0.3938
    9TCq1    C1  130   2.858   1.192  10.702 -0.2176 -0.2295 -0.2320
    9TCq1    O2  131   2.753   1.247  10.713  0.4972  0.2189  0.1992
    9TCq1    C2  132   2.969   1.241  10.628  0.1088  0.4089  0.2765
    9TCq1    C3  133   3.024   1.163  10.528 -0.3042 -0.5507 -0.4692
    9TCq1    C4  134   3.123   1.221  10.451  0.0148 -0.5630 -1.0585
    9TCq1    C5  135   3.171   1.347  10.482 -0.6476 -0.7171 -0.0872
    9TCq1    C6  136   3.119   1.416  10.591  0.5439 -0.2570  0.1145
    9TCq1    C7  137   3.016   1.366  10.664 -0.8481  0.1692  0.5658
    9TCq1    C8  138   3.172   1.552  10.620  0.7324 -0.0368 -0.1727
    9TCq1    O4  139   3.242   1.607  10.536  0.4307  0.5559 -0.2933
    9TCq1    C9  140   3.172   1.156  10.331  0.0233  0.4545 -0.3259
    9TCq1    O5  141   3.266   1.207  10.262  0.2612 -0.0307 -0.2450
    9TCq1    O6  142   3.106   1.063  10.286 -0.4150  0.0545  0.1551
    9TCq1    H1  143   2.977   1.044  10.726  0.7647  0.8538 -0.3706
    9TCq1    H2  144   2.986   1.063  10.511  0.6613 -0.7116 -1.6455
    9TCq1    H3  145   3.256   1.383  10.425 -0.2259  2.0108  2.2383
    9TCq1    H4  146   2.957   1.429  10.730 -2.3603  0.3468 -0.9741
   10MPD2     C  147   3.304   1.760  10.791  0.6446 -0.1256 -0.0433
   10MPD2    C1  148   3.194   1.689  10.827  0.1087  0.0099 -0.5811
   10MPD2    C2  149   3.132   1.697  10.946  0.2197 -0.2399  0.0444
   10MPD2    C3  150   3.190   1.780  11.043  0.3746  0.5440  0.2425
   10MPD2    C4  151   3.302   1.857  11.009 -0.1082 -0.1288  0.2714
   10MPD2    C5  152   3.365   1.842  10.885  0.2752  0.1033 -0.7620
   10MPD2     H  153   3.058   1.621  10.968 -0.8749  0.2541 -1.9487
   10MPD2    H1  154   3.356   1.912  11.086 -0.4985  1.5390 -0.6424
   10MPD2    H2  155   3.353   1.752  10.694  2.2861 -2.4726  0.9858
   10MPD2    H3  156   3.452   1.896  10.850  0.1934 -0.3827 -1.7344
   10MPD2     N  157   3.147   1.783  11.179 -0.3495  0.3646  0.1633
   10MPD2    H5  158   3.192   1.856  11.235 -0.5964  0.0703  0.7498
   10MPD2    N1  159   3.148   1.584  10.747 -0.4285 -0.8819 -0.3466
   10MPD2    H7  160   3.072   1.534  10.791 -0.3254 -1.4639 -0.8318
   11TCq1    O1  161   3.103   1.576  13.099  0.0817 -0.4384 -0.2099
   11TCq1    C1  162   3.073   1.622  13.218 -0.3342  0.6554  0.6436
   11TCq1    O2  163   2.963   1.654  13.260  0.1014  0.1880  0.4280
   11TCq1    C2  164   3.169   1.564  13.310  0.8240  0.4073  0.4069
   11TCq1    C3  165   3.227   1.443  13.295  0.5386  0.1480 -0.0625
   11TCq1    C4  166   3.299   1.385  13.398 -0.0582  0.0673 -0.4283
   11TCq1    C5  167   3.305   1.440  13.517 -0.2768  0.1082  0.4906
   11TCq1    C6  168   3.239   1.556  13.535  0.2013  0.0585 -0.7007
   11TCq1    C7  169   3.170   1.619  13.433 -0.3617 -0.4940 -0.3549
   11TCq1    C8  170   3.210   1.602  13.673 -0.8341  0.1018 -0.4400
   11TCq1    O4  171   3.157   1.713  13.683 -0.6360  0.0324  0.0149
   11TCq1    C9  172   3.376   1.263  13.381 -0.4923  0.4017  0.8746
   11TCq1    O5  173   3.378   1.195  13.487  0.2469 -0.6469 -0.3292
   11TCq1    O6  174   3.387   1.209  13.267  0.2679  0.1142 -0.1285
   11TCq1    H1  175   3.201   1.567  13.096  0.1422 -0.3546  1.5020
   11TCq1    H2  176   3.223   1.395  13.198  0.3366 -0.6673  0.3429
   11TCq1    H3  177   3.372   1.406  13.595 -0.0159 -0.7279 -0.1067
   11TCq1    H4  178   3.129   1.719  13.445 -2.6072 -1.5455  0.7315
   12MPD2     C  179   3.069   1.592  13.937 -0.2676 -0.3295  0.0268
   12MPD2    C1  180   3.167   1.506  13.903 -0.0060  0.0896 -0.6847
   12MPD2    C2  181   3.197   1.395  13.979 -0.2940  0.2186  0.1042
   12MPD2    C3  182   3.132   1.377  14.104 -0.2205  0.5928 -0.1061
   12MPD2    C4  183   3.037   1.472  14.144  0.7436 -0.6004 -0.0545
   12MPD2    C5  184   3.010   1.582  14.061 -0.0561  0.6539  0.5558
   12MPD2     H  185   3.265   1.315  13.952 -0.5266 -0.0517  0.3223
   12MPD2    H1  186   2.977   1.467  14.234  0.5294 -1.1012 -0.2302
   12MPD2    H2  187   3.034   1.670  13.872  1.3404 -0.7051 -1.2844
   12MPD2    H3  188   2.923   1.644  14.081  0.8952  2.4154 -0.8037
   12MPD2     N  189   3.142   1.270  14.197  0.2704 -0.3482 -0.3856
   12MPD2    H5  190   3.069   1.255  14.266  1.2750  2.1018  1.2212
   12MPD2    N1  191   3.222   1.505  13.773  0.5232 -0.0838  0.1214
   12MPD2    H7  192   3.273   1.420  13.750  2.4592  0.9063  0.7747
   13TCq1    O1  193   3.327   0.543  10.383  0.0892  0.1755 -0.5191
   13TCq1    C1  194   3.232   0.618  10.440  0.0744 -0.1827  0.8703
   13TCq1    O2  195   3.116   0.586  10.460  0.4797 -0.2004  0.8030
   13TCq1    C2  196   3.307   0.695  10.542 -0.0956 -0.0207  0.1600
   13TCq1    C3  197   3.399   0.626  10.620  0.2235  0.4314 -0.1298
   13TCq1    C4  198   3.455   0.685  10.726 -0.6899  0.4815 -0.0812
   13TCq1    C5  199   3.432   0.815  10.763 -0.4836  0.0402 -0.0774
   13TCq1    C6  200   3.326   0.875  10.694  0.3540  0.0501  0.7829
   13TCq1    C7  201   3.260   0.812  10.592 -0.4191  0.3502  0.3274
   13TCq1    C8  202   3.248   0.976  10.768 -0.6189 -0.2752  0.6683
   13TCq1    O4  203   3.127   0.974  10.748  0.4983  0.1434  0.1902
   13TCq1    C9  204   3.567   0.626  10.796 -0.1077  0.2606  0.2180
   13TCq1    O5  205   3.579   0.640  10.921  0.1771 -0.4746  0.5733
   13TCq1    O6  206   3.625   0.541  10.721  0.2672  0.1577  0.0043
   13TCq1    H1  207   3.407   0.594  10.359  1.2650 -0.7797  1.4092
   13TCq1    H2  208   3.420   0.522  10.594 -3.5035 -0.4510  0.3511
   13TCq1    H3  209   3.489   0.859  10.844 -0.6224 -2.3654  1.3322
   13TCq1    H4  210   3.170   0.852  10.546  0.3391 -0.5180 -1.8881
   14MPD2     C  211   3.387   1.261  10.939 -0.3079  0.7242 -0.1827
   14MPD2    C1  212   3.292   1.175  10.903  0.2615  0.2652 -0.6264
   14MPD2    C2  213   3.163   1.203  10.935 -0.4282  0.0064 -0.3110
   14MPD2    C3  214   3.138   1.313  11.020  0.1632 -0.8552  0.2929
   14MPD2    C4  215   3.238   1.395  11.061 -0.2437  0.4479 -0.6245
   14MPD2    C5  216   3.361   1.373  11.013  0.1115 -0.0821 -0.1853
   14MPD2     H  217   3.086   1.135  10.902 -1.0898  1.3761 -1.6020
   14MPD2    H1  218   3.227   1.490  11.113  0.3125 -1.1729  2.4319
   14MPD2    H2  219   3.490   1.247  10.908  0.2245  0.2741  1.7977
   14MPD2    H3  220   3.437   1.447  11.038 -1.3014  1.0302  0.7816
   14MPD2     N  221   3.009   1.347  11.063 -0.0824 -0.2479  0.5436
   14MPD2    H5  222   3.001   1.430  11.121 -0.0486 -0.1628  0.4260
   14MPD2    N1  223   3.336   1.057  10.838  0.5431 -0.0339  0.2725
   14MPD2    H7  224   3.436   1.036  10.835  0.1458 -1.5406 -1.9216
   15TCq1    O1  225   0.299   0.939   2.285 -0.0076 -0.2805 -0.3580
   15TCq1    C1  226   0.380   0.977   2.187  0.1086  0.1711 -0.2214
   15TCq1    O2  227   0.354   1.031   2.077 -0.4611  0.3159 -0.0467
   15TCq1    C2  228   0.489   0.886   2.199  0.1987 -0.0673 -0.4611
   15TCq1    C3  229   0.585   0.891   2.301  0.1454 -0.8704 -0.6705
   15TCq1    C4  230   0.712   0.852   2.274 -0.1509 -0.2341 -0.0283
   15TCq1    C5  231   0.738   0.798   2.147 -0.2291 -0.2642 -0.1500
   15TCq1    C6  232   0.646   0.804   2.049 -0.4276  1.2217 -0.2493
   15TCq1    C7  233   0.516   0.839   2.070  0.0779 -0.0706  0.3837
   15TCq1    C8  234   0.687   0.734   1.923 -0.5873  0.9671 -0.5803
   15TCq1    O4  235   0.776   0.649   1.929  0.0199  0.5339 -0.2106
   15TCq1    C9  236   0.815   0.857   2.371 -1.0733  0.5050  0.4520
   15TCq1    O5  237   0.921   0.800   2.326 -0.2992  0.2094  0.3265
   15TCq1    O6  238   0.790   0.903   2.490  0.2029  0.1864  0.0228
   15TCq1    H1  239   0.340   0.876   2.348 -0.0925 -0.0337 -0.0514
   15TCq1    H2  240   0.566   0.937   2.398 -2.3474  1.2395 -2.1716
   15TCq1    H3  241   0.837   0.765   2.118 -0.1939 -0.4170  0.1418
   15TCq1    H4  242   0.440   0.826   1.994  0.8111  0.4955 -0.4416
   16MPD2     C  243   0.466   0.750   1.619 -0.2193 -0.7408 -0.1266
   16MPD2    C1  244   0.580   0.712   1.692 -0.3295  0.0028 -0.0193
   16MPD2    C2  245   0.660   0.610   1.652 -0.8502  0.7869  0.0792
   16MPD2    C3  246   0.645   0.549   1.530 -0.3032 -0.4131  0.6510
   16MPD2    C4  247   0.531   0.588   1.458  0.4149 -0.0650 -0.7487
   16MPD2    C5  248   0.446   0.692   1.499 -0.2165  0.8254  0.2485
   16MPD2     H  249   0.733   0.574   1.724  0.4079 -0.4379 -1.8111
   16MPD2    H1  250   0.504   0.545   1.362  2.5331  0.0573 -1.4022
   16MPD2    H2  251   0.390   0.816   1.660  1.7194  2.4044 -1.5755
   16MPD2    H3  252   0.359   0.724   1.443  1.5766  0.7784 -2.5442
   16MPD2     N  253   0.739   0.454   1.487 -0.3371  0.6514  0.0156
   16MPD2    H5  254   0.816   0.432   1.549 -1.1561 -0.3315  0.6797
   16MPD2    N1  255   0.594   0.766   1.820 -0.2683 -0.1380  0.4373
   16MPD2    H7  256   0.522   0.837   1.832 -1.1128 -0.8955 -0.1863
   17TCq1    O1  257   3.305   1.864   9.801 -0.3861 -0.4636 -0.6973
   17TCq1    C1  258   3.417   1.869   9.878  0.3254 -0.2905 -0.8964
   17TCq1    O2  259   3.464   1.974   9.918 -0.0096  0.1245  0.6025
   17TCq1    C2  260   3.418   1.740   9.945 -0.3946  0.7557  0.1166
   17TCq1    C3  261   3.417   1.621   9.880 -0.2309 -0.3619  0.0314
   17TCq1    C4  262   3.427   1.499   9.944  0.0451 -0.3570 -0.2020
   17TCq1    C5  263   3.446   1.499  10.080 -0.1201  0.4669  0.4545
   17TCq1    C6  264   3.444   1.620  10.151 -0.0834 -0.0171  0.1222
   17TCq1    C7  265   3.424   1.738  10.085 -1.3853  0.5561 -0.2793
   17TCq1    C8  266   3.454   1.622  10.294  0.4096 -0.1432  0.1117
   17TCq1    O4  267   3.453   1.727  10.358  0.2209  0.3565 -0.0824
   17TCq1    C9  268   3.381   1.388   9.872  1.1196  0.0140  0.6380
   17TCq1    O5  269   3.293   1.404   9.778 -0.4396  0.6211  0.1238
   17TCq1    O6  270   3.384   1.281   9.935  0.4550 -0.4903 -0.2039
   17TCq1    H1  271   3.280   1.769   9.806 -0.8795 -0.2747  0.5260
   17TCq1    H2  272   3.403   1.612   9.773 -2.2699 -0.8296  0.3433
   17TCq1    H3  273   3.445   1.398  10.121 -2.0629 -0.4293 -1.7854
   17TCq1    H4  274   3.417   1.833  10.136 -1.6783 -0.8232  2.2853
   18MPD2     C  275   3.568   1.534  10.572  0.3263 -0.2601  0.3299
   18MPD2    C1  276   3.549   1.451  10.466 -0.2328  0.1688 -0.5183
   18MPD2    C2  277   3.585   1.318  10.486 -0.1860 -0.0243 -0.1686
   18MPD2    C3  278   3.630   1.273  10.609  0.9572  0.6328  0.5447
   18MPD2    C4  279   3.643   1.365  10.713 -0.0080 -0.5983  0.0745
   18MPD2    C5  280   3.614   1.495  10.695 -0.2040 -0.0346 -0.1387
   18MPD2     H  281   3.571   1.250  10.402  0.3031  0.8007 -0.9242
   18MPD2    H1  282   3.681   1.335  10.810  0.6755  0.2328  0.0612
   18MPD2    H2  283   3.551   1.639  10.550  2.0229  0.5586  2.8560
   18MPD2    H3  284   3.630   1.565  10.776 -0.3431 -0.2629  0.0851
   18MPD2     N  285   3.675   1.145  10.631 -0.2399 -0.4311 -0.2906
   18MPD2    H5  286   3.717   1.133  10.723 -1.2355  1.3207  0.3745
   18MPD2    N1  287   3.491   1.494  10.343  0.3697  0.0484  0.4003
   18MPD2    H7  288   3.475   1.417  10.279  0.8653  0.2155  0.0767
   19TMC2    C1  289   4.231   1.648  14.122 -0.1025  0.4099  0.6122
   19TMC2    C2  290   4.137   1.743  14.140 -0.3208  0.3849  0.1439
   19TMC2    C3  291   4.028   1.704  14.210  0.5328  0.4904  0.0437
   19TMC2    C4  292   4.222   1.514  14.163 -0.0499  0.4280 -0.2569
   19TMC2    C5  293   4.113   1.476  14.225  0.7726 -0.4293 -0.4687
   19TMC2    C6  294   4.018   1.575  14.251  0.2767 -0.3626 -0.2818
   19TMC2     C  295   4.349   1.695  14.066 -0.4058  1.0227  0.5197
   19TMC2     O  296   4.335   1.786  13.985  0.0142  0.5636 -0.0687
   19TMC2     H  297   4.147   1.848  14.114 -0.2147  0.1316 -0.8490
   19TMC2    H1  298   4.299   1.444  14.134  0.2649  0.7867 -0.2937
   19TMC2    H2  299   3.925   1.557  14.303 -1.0056  2.4662 -1.5676
   19TMC2    C7  300   4.079   1.334  14.221 -0.6433 -0.2423  0.0192
   19TMC2    C8  301   3.915   1.793  14.213  0.3882  0.4596  0.2000
   19TMC2    O1  302   4.161   1.253  14.185 -0.3203 -0.1749 -0.1618
   19TMC2    O2  303   3.894   1.856  14.111 -0.2767 -0.3039 -0.0935
   19TMC2    O5  304   3.825   1.760  14.307  0.0386 -0.4644  0.6506
   19TMC2    H5  305   3.865   1.704  14.376  1.9992  1.7001  1.2927
   20MPD2     C  306   4.620   1.750  13.985  0.0072  0.4279 -0.2642
   20MPD2    C1  307   4.591   1.647  14.073  0.9360 -0.1773  0.0122
   20MPD2    C2  308   4.685   1.563  14.118  0.7398 -0.2551  0.1004
   20MPD2    C3  309   0.098   1.591  14.093  0.5626  0.4313 -0.3795
   20MPD2    C4  310   0.129   1.709  14.021 -0.5555 -0.1126 -0.4985
   20MPD2    C5  311   0.028   1.784  13.965  0.8438  0.2707  0.4530
   20MPD2     H  312   4.665   1.491  14.196 -1.3032  1.7638  1.4481
   20MPD2    H1  313   0.230   1.738  13.995 -0.0414 -1.3755  0.1045
   20MPD2    H2  314   4.540   1.810  13.942 -1.3417 -0.2159  1.3216
   20MPD2    H3  315   0.054   1.871  13.906  0.5749 -0.9482 -1.4618
   20MPD2     N  316   0.211   1.519  14.148  0.3954 -0.4077 -0.0560
   20MPD2    H5  317   0.305   1.544  14.118 -0.3962  0.4290 -1.8700
   20MPD2    N1  318   4.456   1.624  14.112 -0.0213  0.3666 -0.0774
   20MPD2    H7  319   4.437   1.555  14.183 -1.9503  1.7389  0.7479
   21MPD2     C  320   2.266   2.307  14.375 -0.0394  0.1884  0.1361
   21MPD2    C1  321   2.323   2.219  14.461  0.1186 -0.4169  0.7949
   21MPD2    C2  322   2.243   2.126  14.524  0.1036  0.6820 -0.0434
   21MPD2    C3  323   2.107   2.126  14.519 -0.1392 -1.0405 -0.3023
   21MPD2    C4  324   2.041   2.223  14.440  0.5139 -0.1597 -0.0943
   21MPD2    C5  325   2.123   2.311  14.376  0.3589  0.6971  0.0535
   21MPD2     H  326   2.294   2.062  14.595  0.2060  1.1269  0.2842
   21MPD2    H1  327   1.933   2.236  14.435  0.4552  0.2358  2.0042
   21MPD2    H2  328   2.321   2.385  14.323  2.2118 -1.5901 -0.1996
   21MPD2    H3  329   2.070   2.384  14.317  0.1785  1.3695  1.0419
   21MPD2     N  330   2.024   2.041  14.600 -0.3784  0.3235  0.3054
   21MPD2    H5  331   1.924   2.056  14.592 -0.2153  0.6490 -1.1353
   21MPD2    N1  332   2.461   2.208  14.490  0.3870 -0.8938  0.2960
   21MPD2    H7  333   2.500   2.131  14.543  2.2988  0.6536  1.1447
   22TCq2    C1  334   2.066   1.947  14.697  0.3837  0.4608  0.3884
   22TCq2    O2  335   2.177   1.907  14.714 -0.0593 -0.4855 -0.2579
   22TCq2    C2  336   1.966   1.919  14.800 -0.0941 -0.2005 -0.5881
   22TCq2    C3  337   2.012   1.870  14.920  0.2514 -0.4119  0.4082
   22TCq2    C4  338   1.926   1.849  15.018  0.2211  0.6956 -0.6203
   22TCq2    C5  339   1.788   1.866  14.995  0.6397  0.0167  0.1724
   22TCq2    C6  340   1.750   1.884  14.864  0.0718  0.7846  0.4838
   22TCq2    C7  341   1.835   1.914  14.758 -0.7053 -0.2942 -0.4907
   22TCq2    C8  342   1.604   1.869  14.848  0.7189 -0.2497 -0.0630
   22TCq2    O4  343   1.547   1.797  14.929 -0.0330 -0.1543 -0.9192
   22TCq2    C9  344   1.982   1.819  15.151  0.1734  0.1981 -0.7395
   22TCq2    O5  345   1.893   1.795  15.233 -0.0394 -0.4805 -0.1094
   22TCq2    O6  346   2.094   1.763  15.143 -1.0652  0.4640  0.2045
   22TCq2    H2  347   2.119   1.866  14.936  0.6390  0.7578 -1.8882
   22TCq2    H3  348   1.717   1.857  15.076  0.1141  0.5323 -0.2368
   22TCq2    H4  349   1.808   1.920  14.653  0.1363 -2.5171 -0.8209
   23MPD2     C  350   4.198   2.647  14.329  0.1504 -0.2175 -0.1275
   23MPD2    C1  351   4.156   2.708  14.441 -0.6146  0.0097 -0.2055
   23MPD2    C2  352   4.073   2.821  14.427  0.2698  0.3604  0.7058
   23MPD2    C3  353   4.043   2.873  14.306  0.2404  0.2110 -0.0485
   23MPD2    C4  354   4.072   2.800  14.193  0.2430 -0.0777  0.1675
   23MPD2    C5  355   4.148   2.687  14.212 -0.2317 -0.5191 -0.0386
   23MPD2     H  356   4.044   2.880  14.513 -1.9214 -0.9321  0.8498
   23MPD2    H1  357   4.058   2.820  14.087  0.2448  0.6358  0.3052
   23MPD2    H2  358   4.264   2.561  14.321  1.1763  0.7843 -2.2534
   23MPD2    H3  359   4.186   2.644  14.119  1.3826 -1.7923  1.2197
   23MPD2     N  360   3.996   3.006  14.299 -0.7115  0.7440  0.0817
   23MPD2    H5  361   3.985   3.061  14.384 -0.0463  1.5485 -0.3502
   23MPD2    N1  362   4.194   2.677  14.572  0.5105 -0.4097  0.4172
   23MPD2    H7  363   4.156   2.730  14.649  2.3433 -0.0022  1.0536
   24TCq2    C1  364   3.986   3.085  14.184 -0.5741 -0.7319  0.3389
   24TCq2    O2  365   4.007   3.054  14.070 -0.3707  0.7071 -0.5390
   24TCq2    C2  366   3.925   3.218  14.209 -0.0964  0.1673  0.0997
   24TCq2    C3  367   4.006   3.328  14.204  0.7379 -0.5163  0.2070
   24TCq2    C4  368   3.964   3.446  14.265  0.4044 -0.3629  0.4759
   24TCq2    C5  369   3.846   3.443  14.332  0.5730  0.0506  0.0226
   24TCq2    C6  370   3.773   3.330  14.349  0.1661 -0.1217  0.1122
   24TCq2    C7  371   3.808   3.214  14.285  0.6627  0.6155  0.0841
   24TCq2    C8  372   3.641   3.339  14.402 -0.0945 -0.1549  0.2828
   24TCq2    O4  373   3.571   3.243  14.373 -0.0941  0.5495  0.1651
   24TCq2    C9  374   4.054   3.559  14.262 -0.1963 -0.2715  0.1000
   24TCq2    O5  375   4.172   3.542  14.217  0.4331 -0.2435  0.1850
   24TCq2    O6  376   4.007   3.666  14.298  0.1420  0.4810  0.5506
   24TCq2    H2  377   4.101   3.313  14.154  1.9129 -1.6446  2.7772
   24TCq2    H3  378   3.826   3.536  14.384  1.5746  0.5174 -0.4247
   24TCq2    H4  379   3.753   3.121  14.288  0.3422  0.9152  3.8439
   25TMC2    C1  380   2.798   0.336  11.467 -0.7579  0.6690 -0.6210
   25TMC2    C2  381   2.884   0.437  11.515  0.8675  0.9649 -0.0458
   25TMC2    C3  382   2.863   0.484  11.644 -0.3186 -0.4084 -0.3276
   25TMC2    C4  383   2.695   0.289  11.547  0.4190  0.1773 -0.4139
   25TMC2    C5  384   2.677   0.351  11.666  0.4382  0.4372  0.1956
   25TMC2    C6  385   2.758   0.450  11.717 -0.2106 -0.1932 -0.2438
   25TMC2     C  386   2.844   0.251  11.365  0.5108 -0.2677  1.0519
   25TMC2     O  387   2.944   0.295  11.307  0.1312  0.1839  0.3947
   25TMC2     H  388   2.981   0.450  11.469  0.8481 -1.4705 -0.7928
   25TMC2    H1  389   2.621   0.227  11.497  0.0188 -0.4894  1.0049
   25TMC2    H2  390   2.752   0.477  11.822 -0.5073  0.4296 -0.4224
   25TMC2    C7  391   2.549   0.342  11.733  0.8474  0.2772  1.0554
   25TMC2    C8  392   2.944   0.591  11.703  0.9422 -0.0505  0.5007
   25TMC2    O1  393   2.562   0.342  11.850  0.0629  0.3964  0.5749
   25TMC2    O2  394   2.943   0.613  11.823  0.0796 -0.1564  0.2654
   25TMC2    O5  395   3.008   0.669  11.617  0.5867  0.1944 -0.0966
   25TMC2    H5  396   3.002   0.655  11.520 -2.0441  1.0821 -0.0491
   26MPD2     C  397   2.889   4.533  11.086 -0.4761 -0.0692  0.0009
   26MPD2    C1  398   2.811   4.511  11.196 -0.7316  0.5560  0.4306
   26MPD2    C2  399   2.781   4.606  11.287 -0.4297  0.4065 -0.4723
   26MPD2    C3  400   2.820   0.017  11.262 -0.2280 -0.0225 -0.3768
   26MPD2    C4  401   2.893   0.040  11.145 -0.8222  0.2550  0.6522
   26MPD2    C5  402   2.922   4.665  11.064  0.1306  0.1668 -0.4328
   26MPD2     H  403   2.734   4.580  11.381  0.6253 -0.4317 -0.1844
   26MPD2    H1  404   2.924   0.138  11.112  1.7118 -0.0570  2.1446
   26MPD2    H2  405   2.925   4.450  11.025 -0.0996  0.4617 -0.4948
   26MPD2    H3  406   2.988   4.684  10.981 -0.6720 -2.7193 -1.7210
   26MPD2     N  407   2.799   0.113  11.363  0.1067  0.2471  0.0002
   26MPD2    H5  408   2.736   0.088  11.439 -0.3942  2.6580  0.3734
   26MPD2    N1  409   2.766   4.376  11.211  0.2529 -0.0399 -0.1691
   26MPD2    H7  410   2.796   4.305  11.145  0.1694  0.4197 -0.6993
   27TMC2    C1  411   1.756   2.198  11.750 -0.0063 -0.6633 -0.7149
   27TMC2    C2  412   1.867   2.174  11.678 -0.4490  0.3412 -0.9255
   27TMC2    C3  413   1.944   2.277  11.623 -0.7390 -0.5197 -0.3828
   27TMC2    C4  414   1.710   2.333  11.758  0.5974 -0.1577  0.6802
   27TMC2    C5  415   1.786   2.430  11.701  0.2045 -0.0120  0.0117
   27TMC2    C6  416   1.905   2.409  11.643  0.1912 -0.3612 -0.0485
   27TMC2     C  417   1.704   2.087  11.826  0.0189  0.2788  0.2171
   27TMC2     O  418   1.762   1.983  11.811  0.2105 -0.0335  0.1166
   27TMC2     H  419   1.906   2.073  11.665  1.4081  1.0989 -1.2984
   27TMC2    H1  420   1.606   2.348  11.784 -0.1136 -1.4150 -1.4586
   27TMC2    H2  421   1.964   2.496  11.617 -0.9321  0.9084  1.6289
   27TMC2    C7  422   1.779   2.552  11.773  0.3699 -0.2992 -0.4570
   27TMC2    C8  423   2.086   2.243  11.587  0.2613  0.4318  0.5479
   27TMC2    O1  424   1.802   2.657  11.716 -0.1036 -0.0936  0.0233
   27TMC2    O2  425   2.143   2.142  11.623 -0.4212  0.1237  0.1605
   27TMC2    O5  426   2.135   2.352  11.522 -0.6973  0.3338  0.3226
   27TMC2    H5  427   2.071   2.416  11.484 -2.8027 -1.6679  0.4989
   28MPD2     C  428   1.319   1.860  12.040 -0.0447 -0.0846 -0.0129
   28MPD2    C1  429   1.318   1.981  12.097 -0.2958 -0.3199  0.3793
   28MPD2    C2  430   1.416   2.068  12.057 -0.6991 -0.2564  0.1266
   28MPD2    C3  431   1.505   2.030  11.956 -0.5521 -0.1795  0.3009
   28MPD2    C4  432   1.509   1.900  11.909  0.4567 -0.3547  0.2841
   28MPD2    C5  433   1.418   1.810  11.954 -0.0029  1.0524 -0.2258
   28MPD2     H  434   1.415   2.167  12.100  1.5025 -0.2942  0.2600
   28MPD2    H1  435   1.577   1.868  11.832 -2.4446 -1.0826 -1.9988
   28MPD2    H2  436   1.250   1.779  12.058 -0.1367  0.3237  1.4520
   28MPD2    H3  437   1.406   1.713  11.908  1.6731  0.4956  0.5259
   28MPD2     N  438   1.597   2.124  11.899  0.2435  0.0394  0.0429
   28MPD2    H5  439   1.566   2.220  11.907 -1.5616 -0.5873  0.5600
   28MPD2    N1  440   1.210   2.007  12.185 -0.0588 -0.0428 -0.3224
   28MPD2    H7  441   1.151   1.932  12.220  1.6695 -1.2832 -0.0598
   29MPD2     C  442   0.993   0.025  13.987  0.6010 -0.2722  0.2627
   29MPD2    C1  443   1.121   4.701  13.983  0.0666  0.2960  0.5663
   29MPD2    C2  444   1.228   0.074  13.985  0.2537  0.0622 -0.0118
   29MPD2    C3  445   1.200   0.210  14.007  0.7190 -0.4441  0.6526
   29MPD2    C4  446   1.067   0.250  14.024  0.3256 -0.2195 -0.0560
   29MPD2    C5  447   0.967   0.156  14.010  0.0501  0.1499  0.1542
   29MPD2     H  448   1.330   0.037  13.992  0.4747  1.0884  2.1148
   29MPD2    H1  449   1.050   0.354  14.049 -2.1536 -0.3334 -1.2500
   29MPD2    H2  450   0.905   4.683  13.983  0.3406  0.1495 -0.5642
   29MPD2    H3  451   0.864   0.183  14.034  0.5664  1.0169  1.4263
   29MPD2     N  452   1.296   0.303  14.023  0.2376 -0.0066  0.4272
   29MPD2    H5  453   1.260   0.393  14.051 -0.7550  0.2088 -1.5167
   29MPD2    N1  454   1.156   4.563  13.980 -0.2641 -0.4124 -0.3257
   29MPD2    H7  455   1.253   4.536  13.966  0.5501  1.8052  0.9645
   30TCq2    C1  456   1.428   0.301  13.986  0.5070 -0.0191  0.1755
   30TCq2    O2  457   1.495   0.200  13.972 -0.1640 -0.0457 -0.3133
   30TCq2    C2  458   1.485   0.435  13.983  0.5870  0.5441  0.2265
   30TCq2    C3  459   1.406   0.545  13.958  0.1950  0.4291 -0.1375
   30TCq2    C4  460   1.466   0.662  13.963 -0.4121  0.1259  0.3952
   30TCq2    C5  461   1.600   0.670  14.001  0.5853  0.5116  0.3759
   30TCq2    C6  462   1.676   0.559  14.010  0.0317 -0.6885 -0.4815
   30TCq2    C7  463   1.615   0.438  14.016  0.0334  0.2680 -0.7090
   30TCq2    C8  464   1.814   0.565  14.024  0.6783  0.0719 -0.6625
   30TCq2    O4  465   1.888   0.471  14.028  0.1644 -0.2270  0.0221
   30TCq2    C9  466   1.393   0.774  13.908 -0.2406 -0.3966 -0.6125
   30TCq2    O5  467   1.471   0.862  13.854  0.3601 -0.1028  0.4819
   30TCq2    O6  468   1.271   0.757  13.878 -0.3059  0.2291 -0.4671
   30TCq2    H2  469   1.304   0.531  13.925  0.4531  0.0651 -0.7941
   30TCq2    H3  470   1.643   0.767  13.982 -0.9492  1.0567 -0.3810
   30TCq2    H4  471   1.668   0.349  14.045 -0.4629  0.1983 -0.0005
   31MPD2     C  472   3.721   3.832  14.867 -0.0495  0.7662 -0.1534
   31MPD2    C1  473   3.614   3.910  14.839  0.4183  0.1184 -0.0969
   31MPD2    C2  474   3.523   3.948  14.934 -0.6228 -0.2210  0.7128
   31MPD2    C3  475   3.529   3.875  15.058  0.5923 -0.1790  0.6006
   31MPD2    C4  476   3.635   3.794  15.085  0.4098 -0.2172 -0.3554
   31MPD2    C5  477   3.735   3.775  14.988 -0.9619 -0.4211 -0.7145
   31MPD2     H  478   3.433   4.002  14.907  0.1923  0.3992 -0.7833
   31MPD2    H1  479   3.654   3.743  15.179  1.8975 -1.5296 -1.3537
   31MPD2    H2  480   3.806   3.814  14.802 -0.4726  0.3114 -0.5947
   31MPD2    H3  481   3.822   3.718  15.017 -1.6259 -1.1520 -0.1532
   31MPD2     N  482   3.442   3.894  15.173 -0.8035 -0.4064 -0.1119
   31MPD2    H5  483   3.457   3.845  15.260 -0.8519  0.0695  0.1587
   31MPD2    N1  484   3.606   3.956  14.706 -0.2901 -0.0840 -0.6534
   31MPD2    H7  485   3.691   3.954  14.651  0.6194  2.1769  0.6540
   32TCq2    C1  486   3.325   3.967  15.169  0.0941 -0.8503 -0.0117
   32TCq2    O2  487   3.277   4.042  15.082 -0.0033  0.7903  0.2203
   32TCq2    C2  488   3.250   3.944  15.292  0.1128 -0.4120  0.3678
   32TCq2    C3  489   3.129   4.009  15.317 -1.1808  0.3931  0.6974
   32TCq2    C4  490   3.049   3.972  15.419 -0.7194 -0.4258 -0.3952
   32TCq2    C5  491   3.090   3.874  15.508  0.3561  0.1576  0.2116
   32TCq2    C6  492   3.205   3.813  15.488 -0.1372 -0.0824  0.9813
   32TCq2    C7  493   3.287   3.844  15.384 -0.3214  0.4867 -0.1300
   32TCq2    C8  494   3.257   3.725  15.596  0.1870  0.5039 -0.6037
   32TCq2    O4  495   3.343   3.641  15.578  0.0150 -0.0869 -0.0528
   32TCq2    C9  496   2.915   4.028  15.436 -0.0777 -0.3252  0.4977
   32TCq2    O5  497   2.842   3.976  15.521  0.0833  0.2466  0.1247
   32TCq2    O6  498   2.872   4.127  15.365  0.8063  0.3514 -0.2457
   32TCq2    H2  499   3.089   4.082  15.248 -0.5490  1.5547  1.5510
   32TCq2    H3  500   3.021   3.838  15.584  0.8925  0.5813  0.8871
   32TCq2    H4  501   3.378   3.784  15.379 -0.2610  0.5615  0.0988
   33MPD2     C  502   3.595   0.367  10.416 -0.0349  0.8117  0.0422
   33MPD2    C1  503   3.693   0.453  10.376 -0.1664 -0.3409 -0.3303
   33MPD2    C2  504   3.729   0.456  10.238 -0.2263 -0.0249 -0.5019
   33MPD2    C3  505   3.664   0.385  10.141 -0.8884  0.5432 -0.0325
   33MPD2    C4  506   3.568   0.301  10.189 -0.0262 -0.3175 -0.1697
   33MPD2    C5  507   3.523   0.295  10.322  0.3139  0.2352  0.1674
   33MPD2     H  508   3.804   0.528  10.209  0.7672  0.1246  2.4537
   33MPD2    H1  509   3.511   0.240  10.120  0.0505  1.3442 -1.7277
   33MPD2    H2  510   3.556   0.367  10.518  2.7317 -2.1743  1.0807
   33MPD2    H3  511   3.441   0.231  10.354 -0.6138  1.6102  0.5439
   33MPD2     N  512   3.681   0.399   9.997 -0.4551  0.3743  0.2057
   33MPD2    H5  513   3.614   0.352   9.937  1.6159 -0.1690 -1.6897
   33MPD2    N1  514   3.748   0.534  10.478 -0.8539  0.3766  0.3344
   33MPD2    H7  515   3.692   0.534  10.562 -0.5819  0.4957  0.5160
   34TCq2    C1  516   3.782   0.463   9.935 -0.1333  0.1043 -0.1270
   34TCq2    O2  517   3.872   0.525   9.986  0.2564  0.1133  0.1872
   34TCq2    C2  518   3.767   0.471   9.789  0.0069  0.2905 -0.0783
   34TCq2    C3  519   3.670   0.400   9.733  0.2842  0.4112  1.2477
   34TCq2    C4  520   3.631   0.423   9.604 -1.2978 -0.1338  0.3742
   34TCq2    C5  521   3.689   0.514   9.524 -0.4409  0.4495  0.1903
   34TCq2    C6  522   3.789   0.589   9.584 -0.1272 -0.5390  0.0786
   34TCq2    C7  523   3.822   0.575   9.721 -0.8159  0.1766 -0.3016
   34TCq2    C8  524   3.834   0.714   9.529 -0.0043  0.3617 -0.2649
   34TCq2    O4  525   3.893   0.791   9.605 -0.0145  0.0152 -0.2507
   34TCq2    C9  526   3.545   0.330   9.541 -0.2472  0.1411 -0.0393
   34TCq2    O5  527   3.498   0.245   9.619  0.0090  0.0996 -0.2320
   34TCq2    O6  528   3.507   0.347   9.422  0.1517 -0.0347  0.3960
   34TCq2    H2  529   3.626   0.310   9.776 -0.0893 -1.2060 -2.4859
   34TCq2    H3  530   3.639   0.521   9.428  2.7015  1.7296 -1.3366
   34TCq2    H4  531   3.904   0.624   9.772 -0.2809 -0.0931 -0.9080
   35MPD2     C  532   0.809   2.889  11.615 -0.7041 -0.0933 -0.2534
   35MPD2    C1  533   0.752   2.769  11.651  0.0654 -0.5344 -0.9179
   35MPD2    C2  534   0.633   2.727  11.595 -0.9196  0.5173 -0.0129
   35MPD2    C3  535   0.585   2.803  11.494 -1.0804 -0.6676  0.2602
   35MPD2    C4  536   0.637   2.927  11.470 -0.1241  0.0368 -0.2649
   35MPD2    C5  537   0.746   2.975  11.528  0.4007  0.1444  0.9666
   35MPD2     H  538   0.588   2.633  11.625  0.7882  0.2113  1.5906
   35MPD2    H1  539   0.594   3.001  11.402  0.9609 -1.3143 -2.4212
   35MPD2    H2  540   0.897   2.922  11.670 -1.5543  1.6754  0.0274
   35MPD2    H3  541   0.784   3.074  11.508  1.1154 -0.3797 -0.2805
   35MPD2     N  542   0.473   2.748  11.423  0.7355  0.1603  0.2783
   35MPD2    H5  543   0.440   2.655  11.447  0.7956  0.0126 -0.2172
   35MPD2    N1  544   0.800   2.692  11.762 -0.0636 -0.3100  1.1089
   35MPD2    H7  545   0.773   2.594  11.763  1.3831 -0.7159  0.7703
   36TCq2    C1  546   0.394   2.822  11.342 -0.3677 -0.1467  0.0542
   36TCq2    O2  547   0.398   2.938  11.304  0.4705 -0.1182  0.0276
   36TCq2    C2  548   0.298   2.737  11.276 -1.0638 -0.1032  0.0876
   36TCq2    C3  549   0.244   2.780  11.158 -0.4410  0.3291  0.4291
   36TCq2    C4  550   0.166   2.693  11.082 -0.0544 -0.3138  0.2324
   36TCq2    C5  551   0.138   2.567  11.134 -0.2441  0.2634 -0.1964
   36TCq2    C6  552   0.199   2.531  11.255 -0.0030 -0.3728 -0.3617
   36TCq2    C7  553   0.269   2.617  11.330  0.0867 -0.3776 -0.3416
   36TCq2    C8  554   0.153   2.406  11.315 -0.3495  0.0155 -0.3210
   36TCq2    O4  555   0.144   2.304  11.244  0.6257 -0.3052 -0.8997
   36TCq2    C9  556   0.120   2.738  10.951 -0.2020 -0.0552  0.0458
   36TCq2    O5  557   0.104   2.653  10.855  0.3706  0.1544  0.1734
   36TCq2    O6  558   0.126   2.860  10.933  0.4377  0.2356  0.0541
   36TCq2    H2  559   0.254   2.884  11.130  3.5225  0.1224  1.0939
   36TCq2    H3  560   0.090   2.489  11.077 -1.5298 -1.2244  2.9702
   36TCq2    H4  561   0.310   2.587  11.425  0.7508  2.1569  0.1856
   37TMC2    C1  562   2.705   2.550  11.416 -0.1825 -0.5191 -0.4611
   37TMC2    C2  563   2.642   2.488  11.317 -0.3210  0.9160  0.0981
   37TMC2    C3  564   2.719   2.441  11.210  0.4432  0.5290 -0.1983
   37TMC2    C4  565   2.838   2.560  11.418  0.9220  0.5551 -0.4992
   37TMC2    C5  566   2.916   2.503  11.324 -0.0103 -0.3347  0.7515
   37TMC2    C6  567   2.856   2.438  11.216 -0.5889  0.6075 -0.2025
   37TMC2     C  568   2.621   2.610  11.513 -0.7347  0.1466 -0.2419
   37TMC2     O  569   2.508   2.645  11.484  0.2873 -0.0468 -0.3735
   37TMC2     H  570   2.534   2.484  11.319 -0.2578 -1.1162 -0.7735
   37TMC2    H1  571   2.890   2.605  11.501 -2.2474  2.2724  0.5437
   37TMC2    H2  572   2.906   2.406  11.125 -0.9854  2.6176 -1.1364
   37TMC2    C7  573   3.053   2.474  11.354  0.2647 -0.2398 -0.4024
   37TMC2    C8  574   2.659   2.357  11.108 -0.3045 -0.6708  0.2612
   37TMC2    O1  575   3.080   2.495  11.468  0.0439 -0.2616  0.4171
   37TMC2    O2  576   2.712   2.356  10.997  0.2869  0.3003  0.2864
   37TMC2    O5  577   2.529   2.350  11.136 -0.4470 -0.3788  0.6802
   37TMC2    H5  578   2.522   2.327  11.232  1.5277 -2.4248  0.3465
   38MPD2     C  579   2.498   2.668  12.010 -0.1791 -0.4241  0.0217
   38MPD2    C1  580   2.622   2.607  11.999  0.1172  0.4539  0.0087
   38MPD2    C2  581   2.676   2.587  11.872  0.2325 -0.4871  0.5683
   38MPD2    C3  582   2.609   2.614  11.761  0.0438  0.8542  0.8580
   38MPD2    C4  583   2.490   2.690  11.773  0.1825 -0.3683  0.0490
   38MPD2    C5  584   2.431   2.708  11.896  0.4016 -0.7493 -0.9414
   38MPD2     H  585   2.772   2.537  11.869 -0.1449 -1.3886  3.5804
   38MPD2    H1  586   2.438   2.738  11.690  2.4505  2.0336  0.0206
   38MPD2    H2  587   2.448   2.683  12.105 -0.5850  0.1843 -0.2889
   38MPD2    H3  588   2.343   2.771  11.909  1.6196  0.4369  1.4070
   38MPD2     N  589   2.675   2.587  11.639 -0.2988 -0.5338  0.2604
   38MPD2    H5  590   2.756   2.526  11.638 -0.5302 -0.7798 -2.9125
   38MPD2    N1  591   2.696   2.562  12.105 -0.0188 -0.0168 -0.0421
   38MPD2    H7  592   2.787   2.521  12.090 -0.8731 -1.8873 -0.1877
   39MPD2     C  593   1.177   4.074   1.731 -0.5397 -0.4799  0.4492
   39MPD2    C1  594   1.110   4.160   1.819 -0.3771 -0.1451  0.0626
   39MPD2    C2  595   1.031   4.262   1.763 -0.5284 -0.5761 -0.1089
   39MPD2    C3  596   1.003   4.279   1.627 -0.2358 -0.3497  0.7101
   39MPD2    C4  597   1.076   4.192   1.546 -0.6956 -0.0925  0.6350
   39MPD2    C5  598   1.165   4.095   1.599  0.2067  0.6812  0.2330
   39MPD2     H  599   0.977   4.332   1.826 -1.2696 -0.7962 -0.5075
   39MPD2    H1  600   1.073   4.199   1.438  0.3767  1.0640  0.6876
   39MPD2    H2  601   1.218   3.980   1.766  1.4837  0.6617  1.1666
   39MPD2    H3  602   1.216   4.032   1.527  0.2352  1.3817 -0.3536
   39MPD2     N  603   0.904   4.357   1.560 -0.3148 -0.4239 -0.0395
   39MPD2    H5  604   0.911   4.369   1.460 -0.9305  0.7724  0.0586
   39MPD2    N1  605   1.130   4.139   1.961 -0.2069 -0.5988  0.1040
   39MPD2    H7  606   1.195   4.066   1.989  1.6001  1.8760  2.3904
   40TCq2    C1  607   1.080   4.217   2.061 -0.2186  0.1792  0.0322
   40TCq2    O2  608   0.994   4.303   2.056  0.5726 -0.0855  0.1285
   40TCq2    C2  609   1.110   4.164   2.198  0.3145  0.2843 -0.2600
   40TCq2    C3  610   1.005   4.170   2.286  0.0191 -0.6562  0.4680
   40TCq2    C4  611   1.019   4.101   2.403  0.5701  0.2590 -0.0633
   40TCq2    C5  612   1.139   4.037   2.424 -0.5575  0.3749  0.6986
   40TCq2    C6  613   1.237   4.035   2.332  0.0460  0.0793 -0.1204
   40TCq2    C7  614   1.229   4.102   2.211  0.9438  0.1833 -0.6876
   40TCq2    C8  615   1.366   3.982   2.378 -0.6668 -0.1249 -0.2542
   40TCq2    O4  616   1.384   3.886   2.450  0.0981  0.0595 -0.1155
   40TCq2    C9  617   0.912   4.101   2.497 -0.2245  0.5226 -0.3415
   40TCq2    O5  618   0.808   4.169   2.463  0.5256 -0.2770 -0.5562
   40TCq2    O6  619   0.936   4.054   2.616 -0.1962 -0.2185  0.2647
   40TCq2    H2  620   0.910   4.204   2.249  0.5664 -0.7778 -1.0524
   40TCq2    H3  621   1.142   3.997   2.525 -0.0961 -2.0103 -0.2682
   40TCq2    H4  622   1.302   4.094   2.131  0.9619  0.0370 -0.6568
   41TMC2    C1  623   4.535   2.820  14.476  0.8121  0.1122 -0.2958
   41TMC2    C2  624   4.451   2.926  14.494  0.1213 -0.2899  0.0932
   41TMC2    C3  625   4.413   2.994  14.382  0.2062 -0.0739  0.2135
   41TMC2    C4  626   4.604   2.792  14.357 -0.0658  0.4013  0.2664
   41TMC2    C5  627   4.562   2.872  14.253  0.6445 -0.1001 -0.3309
   41TMC2    C6  628   4.469   2.967  14.264  0.5815  0.4698  0.3295
   41TMC2     C  629   4.570   2.742  14.585 -0.5327  0.8355  0.3700
   41TMC2     O  630   4.604   2.630  14.555 -0.3770 -0.3401 -0.6528
   41TMC2     H  631   4.395   2.936  14.586 -1.9813 -3.8139 -0.7968
   41TMC2    H1  632   4.668   2.710  14.329 -0.6197 -0.1115  0.5030
   41TMC2    H2  633   4.433   3.033  14.186  4.1367  1.0789 -0.8084
   41TMC2    C7  634   4.612   2.842  14.125 -0.4069  0.3573 -0.1515
   41TMC2    C8  635   4.365   3.131  14.397 -0.2183  0.6755  0.2607
   41TMC2    O1  636   4.718   2.780  14.109 -0.1610  0.0454  0.2831
   41TMC2    O2  637   4.320   3.200  14.302  0.1157  0.2173 -0.3210
   41TMC2    O5  638   4.398   3.191  14.512 -0.0749  0.2136 -0.5698
   41TMC2    H5  639   4.429   3.138  14.589  0.4270 -1.0897 -1.6612
   42MPD2     C  640   4.600   2.599  14.840  0.5276 -0.2389  1.2705
   42MPD2    C1  641   4.589   2.737  14.828 -0.0115  0.5217  0.7753
   42MPD2    C2  642   4.573   2.822  14.939 -0.2374  0.6184 -0.0577
   42MPD2    C3  643   4.580   2.769  15.063  0.5332  0.0482 -0.8500
   42MPD2    C4  644   4.597   2.639  15.076 -0.3929  0.1102  0.0617
   42MPD2    C5  645   4.604   2.550  14.970 -0.0509  0.6336  0.3038
   42MPD2     H  646   4.555   2.926  14.918 -1.2051  0.4819  0.0859
   42MPD2    H1  647   4.608   2.593  15.173  1.0079  0.8243  0.2313
   42MPD2    H2  648   4.596   2.527  14.759  0.7336  2.1395 -0.8551
   42MPD2    H3  649   4.607   2.448  15.007 -3.2028 -0.2629 -1.9497
   42MPD2     N  650   4.593   2.849  15.181 -0.9203  0.0521 -0.1946
   42MPD2    H5  651   4.581   2.795  15.266 -0.6551  0.2090 -0.0585
   42MPD2    N1  652   4.561   2.804  14.708  1.0129 -0.7252 -0.7273
   42MPD2    H7  653   4.545   2.905  14.708  2.4810 -0.5035 -2.1230
   43MPD2     C  654   1.539   0.202   0.718 -0.5234  0.4806 -0.7407
   43MPD2    C1  655   1.640   0.202   0.811  0.3019 -0.4898 -0.1068
   43MPD2    C2  656   1.634   0.292   0.918 -0.3098 -0.1896 -0.4859
   43MPD2    C3  657   1.526   0.372   0.926  0.6456  0.1394 -0.4131
   43MPD2    C4  658   1.424   0.367   0.837 -0.3015 -0.1766  1.0056
   43MPD2    C5  659   1.429   0.275   0.733 -0.7498  0.0262  0.1881
   43MPD2     H  660   1.722   0.303   0.980 -1.0005 -2.0411  0.8165
   43MPD2    H1  661   1.340   0.436   0.846 -0.6532 -0.4670 -0.1177
   43MPD2    H2  662   1.535   0.125   0.642 -1.4223  0.4263 -0.6430
   43MPD2    H3  663   1.346   0.269   0.663 -0.2011  1.7696 -0.6167
   43MPD2     N  664   1.515   0.475   1.021  0.7936  0.8107 -0.3610
   43MPD2    H5  665   1.434   0.534   1.004  0.6622  0.0116 -2.5342
   43MPD2    N1  666   1.750   0.111   0.806 -0.1676 -0.1362  0.5097
   43MPD2    H7  667   1.810   0.123   0.887  0.0511 -0.3184  0.3767
   44TCq2    C1  668   1.252   0.692   1.372 -1.0398  0.4767  0.9534
   44TCq2    O2  669   1.189   0.608   1.310  0.0510  0.2045 -0.3151
   44TCq2    C2  670   1.389   0.717   1.331  0.3836  0.0825  0.1513
   44TCq2    C3  671   1.478   0.766   1.422  0.8063 -1.0235 -0.5763
   44TCq2    C4  672   1.605   0.727   1.417 -0.1461 -0.0248  0.2268
   44TCq2    C5  673   1.646   0.642   1.317 -0.7164  0.7797 -0.0784
   44TCq2    C6  674   1.560   0.602   1.219  0.3881 -0.2527  0.1312
   44TCq2    C7  675   1.430   0.633   1.228 -0.2868 -0.8511  0.0730
   44TCq2    C8  676   1.609   0.504   1.117  0.2693 -0.3665  0.2553
   44TCq2    O4  677   1.728   0.478   1.130 -0.2525  0.0741 -0.1074
   44TCq2    C9  678   1.696   0.780   1.511  0.1271 -0.3481  0.1699
   44TCq2    O5  679   1.653   0.865   1.591  0.6750  0.0624 -0.1073
   44TCq2    O6  680   1.813   0.730   1.507  0.6085  0.1043 -0.3078
   44TCq2    H2  681   1.444   0.830   1.503 -0.3696  1.2672 -2.8787
   44TCq2    H3  682   1.748   0.605   1.313 -1.0315 -0.1764  0.6798
   44TCq2    H4  683   1.356   0.598   1.156 -0.5998  0.1353 -0.0942
   45TMC2    C1  684   2.528   2.888   9.373 -0.0455 -0.6474 -0.1376
   45TMC2    C2  685   2.592   2.856   9.255  0.0757 -0.3947  0.1106
   45TMC2    C3  686   2.700   2.932   9.221 -0.2483 -0.0925 -0.3841
   45TMC2    C4  687   2.566   2.987   9.462  0.5105 -0.2350 -0.1498
   45TMC2    C5  688   2.685   3.044   9.431  0.6115  0.0790  0.0444
   45TMC2    C6  689   2.758   3.015   9.319 -0.1643 -0.0350  0.1299
   45TMC2     C  690   2.422   2.805   9.426 -0.5325  0.2324  0.2078
   45TMC2     O  691   2.389   2.830   9.540  0.4928 -0.1233  0.3734
   45TMC2     H  692   2.548   2.783   9.189  0.6042 -2.0600  1.6215
   45TMC2    H1  693   2.508   3.013   9.550 -1.1069 -1.7199 -0.7764
   45TMC2    H2  694   2.852   3.066   9.299 -1.3544  1.4325 -1.7083
   45TMC2    C7  695   2.747   3.131   9.534 -0.5543  0.0992 -0.5751
   45TMC2    C8  696   2.787   2.882   9.121  0.1107  0.0077  0.4750
   45TMC2    O1  697   2.662   3.155   9.619  0.1415  0.0782  0.0888
   45TMC2    O2  698   2.799   2.765   9.081  0.2122 -0.2825 -0.6214
   45TMC2    O5  699   2.816   2.992   9.049  0.2458 -0.6421 -0.0504
   45TMC2    H5  700   2.804   3.076   9.099 -0.3757 -0.9866  0.3767
   46MPD2     C  701   2.306   2.558   9.519  0.1884  0.4808 -0.4189
   46MPD2    C1  702   2.290   2.609   9.388 -0.8895 -0.3076  0.2562
   46MPD2    C2  703   2.202   2.550   9.305  0.5196 -0.3410  0.5059
   46MPD2    C3  704   2.135   2.435   9.343  0.2276  0.4427 -0.0749
   46MPD2    C4  705   2.158   2.374   9.464 -0.1022  0.5946 -0.3634
   46MPD2    C5  706   2.240   2.441   9.554  0.5813 -0.1930  0.5490
   46MPD2     H  707   2.174   2.601   9.213 -0.0682  0.9314  1.4002
   46MPD2    H1  708   2.094   2.298   9.507  1.9700 -1.0102 -0.0831
   46MPD2    H2  709   2.369   2.604   9.594  0.2076 -0.4315  0.1244
   46MPD2    H3  710   2.233   2.409   9.658 -0.8526  1.1126  0.8468
   46MPD2     N  711   2.019   2.419   9.262 -0.5147  0.0089  0.2198
   46MPD2    H5  712   1.994   2.486   9.189 -0.7143  0.1821  0.4479
   46MPD2    N1  713   2.365   2.716   9.344  0.5867  0.1338 -0.3792
   46MPD2    H7  714   2.376   2.724   9.243 -0.7737  0.7690 -0.4750
   47TMC2    C1  715   3.548   2.760   8.760  0.0700 -0.7684 -0.1543
   47TMC2    C2  716   3.509   2.819   8.643 -0.4010 -0.4073  0.5813
   47TMC2    C3  717   3.396   2.762   8.587  0.0423 -1.2687 -0.6679
   47TMC2    C4  718   3.507   2.637   8.799 -0.3062  0.1028  0.0661
   47TMC2    C5  719   3.399   2.578   8.740 -0.1156  0.0869 -0.4904
   47TMC2    C6  720   3.343   2.641   8.635 -0.6199  0.4580  0.1763
   47TMC2     C  721   3.659   2.829   8.827  0.7331  0.0569 -0.1778
   47TMC2     O  722   3.656   2.952   8.814 -0.1360  0.1289 -0.1152
   47TMC2     H  723   3.550   2.916   8.619 -0.2459 -0.9923 -1.5153
   47TMC2    H1  724   3.542   2.585   8.887  1.1180 -0.1866 -0.6619
   47TMC2    H2  725   3.264   2.592   8.579 -1.6264  0.1307  1.8983
   47TMC2    C7  726   3.348   2.447   8.775  1.0125 -0.0319  0.1941
   47TMC2    C8  727   3.333   2.831   8.481 -0.6781  0.3823  0.3927
   47TMC2    O1  728   3.435   2.371   8.817  0.0010  0.1459 -0.5974
   47TMC2    O2  729   3.226   2.794   8.441 -0.3071  0.2510 -0.1087
   47TMC2    O5  730   3.434   2.878   8.402  0.4666 -0.3523 -0.4273
   47TMC2    H5  731   3.505   2.920   8.455  2.0345 -0.0603 -2.7820
   48MPD2     C  732   3.867   2.917   9.022  0.6515 -0.0231 -0.6547
   48MPD2    C1  733   3.861   2.794   8.970 -0.5172  0.2830  0.4282
   48MPD2    C2  734   3.960   2.702   9.005  0.1076  0.4904 -0.1870
   48MPD2    C3  735   4.073   2.732   9.089  0.4520 -0.2960 -0.3270
   48MPD2    C4  736   4.070   2.851   9.152 -0.1636  0.1214  0.5028
   48MPD2    C5  737   3.968   2.936   9.116 -0.8700  0.2819 -0.4571
   48MPD2     H  738   3.949   2.602   8.965  2.2594  0.8889 -1.7823
   48MPD2    H1  739   4.146   2.889   9.220  0.2979 -2.8548  1.6337
   48MPD2    H2  740   3.799   2.997   8.995 -1.5765 -1.8872 -0.6107
   48MPD2    H3  741   3.978   3.034   9.163 -2.8790  0.0857  0.3717
   48MPD2     N  742   4.177   2.641   9.112 -0.7317  0.0762  0.3790
   48MPD2    H5  743   4.164   2.551   9.065 -2.5434  0.3682  0.3044
   48MPD2    N1  744   3.750   2.750   8.889 -0.1070  0.6958 -1.2976
   48MPD2    H7  745   3.745   2.652   8.862  0.8798  0.0560  0.8597
   49MPD2     C  746   2.218   0.238   9.731 -0.1462  0.4807  0.0836
   49MPD2    C1  747   2.247   0.166   9.842 -0.2099 -0.4969  0.1592
   49MPD2    C2  748   2.346   0.210   9.927 -0.6268  0.5285  0.5314
   49MPD2    C3  749   2.407   0.332   9.910  0.1891 -0.2691 -0.2737
   49MPD2    C4  750   2.371   0.405   9.799  0.0947 -0.6109 -0.0566
   49MPD2    C5  751   2.281   0.358   9.713 -0.3790 -0.2071  0.3864
   49MPD2     H  752   2.373   0.149  10.012  2.2690 -0.0091 -0.7580
   49MPD2    H1  753   2.414   0.504   9.793 -0.4373 -0.3495  0.4593
   49MPD2    H2  754   2.142   0.204   9.662 -0.6478 -2.0662  1.8692
   49MPD2    H3  755   2.250   0.420   9.629 -0.0709  0.1645  0.5416
   49MPD2     N  756   2.497   0.389  10.006 -0.5260  0.2794  0.8594
   49MPD2    H5  757   2.545   0.473   9.977 -1.7610  0.5940 -0.2554
   49MPD2    N1  758   2.186   0.043   9.875  0.1326  0.2021  0.7469
   49MPD2    H7  759   2.228   4.702   9.942  0.0299 -0.1112  0.5197
   50TCq2    C1  760   2.082   4.707   9.798  0.2210 -0.4956  0.0535
   50TCq2    O2  761   1.997   0.050   9.731 -0.4530  0.1166  0.2102
   50TCq2    C2  762   2.046   4.578   9.848  0.1457  0.5110  0.1802
   50TCq2    C3  763   1.930   4.520   9.797  0.4196 -0.6447  0.0344
   50TCq2    C4  764   1.885   4.397   9.841 -0.3032  0.1468 -0.0221
   50TCq2    C5  765   1.956   4.329   9.935  0.1743  0.2142 -0.8017
   50TCq2    C6  766   2.064   4.387   9.978 -0.7091 -0.5188 -0.2620
   50TCq2    C7  767   2.113   4.508   9.947  0.3643  0.3311 -0.6052
   50TCq2    C8  768   2.089   4.326  10.114  0.0301 -0.4916 -0.4729
   50TCq2    O4  769   2.045   4.217  10.148 -0.2672  0.1443 -0.6818
   50TCq2    C9  770   1.782   4.329   9.768  0.0570  1.3058 -0.4282
   50TCq2    O5  771   1.714   4.387   9.677 -0.4933  0.2314  0.3651
   50TCq2    O6  772   1.763   4.209   9.806  0.2520  0.2143  0.0221
   50TCq2    H2  773   1.879   4.568   9.714  3.2894  0.6982 -0.9242
   50TCq2    H3  774   1.931   4.234   9.980  1.5715  0.9829  1.5638
   50TCq2    H4  775   2.212   4.542   9.975  0.3924 -0.7608  0.5802
   51MPD2     C  776   3.469   3.272   1.677 -0.0914 -0.7836 -0.0380
   51MPD2    C1  777   3.529   3.288   1.553  0.2656 -0.2321  0.1937
   51MPD2    C2  778   3.670   3.322   1.553  0.3573  0.6691  0.0171
   51MPD2    C3  779   3.735   3.337   1.672  0.3721  0.2800 -0.5855
   51MPD2    C4  780   3.668   3.334   1.794 -0.5809  1.0418 -0.4074
   51MPD2    C5  781   3.534   3.305   1.798 -0.6208  0.5347 -0.8048
   51MPD2     H  782   3.720   3.340   1.458  0.0327  3.8462  0.4717
   51MPD2    H1  783   3.732   3.358   1.878  1.5513 -2.4754 -1.0210
   51MPD2    H2  784   3.363   3.258   1.691 -0.0531 -1.0953 -0.0786
   51MPD2    H3  785   3.473   3.298   1.888  1.0194  0.6714  0.3229
   51MPD2     N  786   3.866   3.357   1.680 -0.2684  0.3678  1.0119
   51MPD2    H5  787   3.904   3.372   1.773 -0.4689  1.4480  0.9247
   51MPD2    N1  788   3.456   3.282   1.431 -0.4805  0.4596 -0.2081
   51MPD2    H7  789   3.508   3.312   1.349 -0.5357 -0.3466 -0.5365
   52TCq2    C1  790   3.960   3.338   1.574 -0.2253  0.3701  1.2727
   52TCq2    O2  791   3.947   3.278   1.466  0.3092  0.0322  0.7357
   52TCq2    C2  792   4.097   3.377   1.605  0.9006 -0.2668  0.3905
   52TCq2    C3  793   4.210   3.315   1.550 -0.2272 -0.0082 -0.1352
   52TCq2    C4  794   4.325   3.387   1.544 -0.3458 -0.1059  0.4184
   52TCq2    C5  795   4.334   3.503   1.613  0.6797  0.1902  0.9266
   52TCq2    C6  796   4.222   3.557   1.674 -0.2917 -0.3592 -0.1796
   52TCq2    C7  797   4.101   3.494   1.678  0.2661 -0.2634  0.4390
   52TCq2    C8  798   4.230   3.686   1.736 -0.5035 -0.8402 -0.3540
   52TCq2    O4  799   4.126   3.747   1.764 -0.2398  0.0190 -0.5739
   52TCq2    C9  800   4.439   3.335   1.471 -0.1417  0.2997 -0.3392
   52TCq2    O5  801   4.438   3.217   1.422 -0.1268 -0.4638  0.8432
   52TCq2    O6  802   4.536   3.420   1.458  0.0488  0.2822 -0.1805
   52TCq2    H2  803   4.197   3.225   1.491  0.1906  0.3225 -0.7333
   52TCq2    H3  804   4.423   3.564   1.608  0.4156  0.7823  3.6909
   52TCq2    H4  805   4.011   3.552   1.698  1.1747  0.3922  2.5700
   53TMC2    C1  806   3.680   2.552  11.681 -0.1567 -0.0690  0.2237
   53TMC2    C2  807   3.811   2.574  11.728  0.6780  0.4081 -0.1369
   53TMC2    C3  808   3.813   2.622  11.858 -0.7875  0.2455 -0.4993
   53TMC2    C4  809   3.566   2.554  11.761  0.0518  0.3928 -0.2718
   53TMC2    C5  810   3.580   2.610  11.882 -0.2801  0.2505 -0.1610
   53TMC2    C6  811   3.697   2.638  11.934 -0.1531 -0.3715  0.0151
   53TMC2     C  812   3.661   2.508  11.543 -0.1659 -0.0793  0.4198
   53TMC2     O  813   3.752   2.444  11.494 -0.1462  0.1756 -0.1975
   53TMC2     H  814   3.892   2.579  11.656  1.2270 -1.7970  0.3340
   53TMC2    H1  815   3.465   2.538  11.726 -0.0220 -2.0903  1.0849
   53TMC2    H2  816   3.707   2.702  12.020  0.4686 -0.5541  0.0784
   53TMC2    C7  817   3.460   2.657  11.948 -0.0441 -0.0867 -0.0507
   53TMC2    C8  818   3.939   2.684  11.894  0.3564 -0.1241 -0.2634
   53TMC2    O1  819   3.369   2.685  11.870  0.7884 -0.6155 -0.5410
   53TMC2    O2  820   3.944   2.762  11.983 -0.0429 -1.2339  0.5066
   53TMC2    O5  821   4.049   2.624  11.849  0.1744  0.1136  0.0351
   53TMC2    H5  822   4.025   2.546  11.795 -0.8452  0.9981 -0.7904
   54MPD2     C  823   3.552   2.417  11.280 -0.1719 -1.0080 -0.3219
   54MPD2    C1  824   3.476   2.471  11.381  0.4981 -0.6028 -0.1168
   54MPD2    C2  825   3.342   2.487  11.362  0.0825 -1.0448  0.1263
   54MPD2    C3  826   3.279   2.434  11.259  0.6461  0.4085  0.0725
   54MPD2    C4  827   3.352   2.376  11.160  0.3757 -0.7176 -0.2886
   54MPD2    C5  828   3.486   2.371  11.166 -0.2323  0.3683 -0.7858
   54MPD2     H  829   3.294   2.536  11.446 -0.6952  1.9168 -2.0531
   54MPD2    H1  830   3.300   2.342  11.071 -0.1333 -0.0888 -0.2319
   54MPD2    H2  831   3.659   2.400  11.281 -0.0210 -0.0572 -2.4136
   54MPD2    H3  832   3.548   2.332  11.086  0.5952 -0.9576  0.5026
   54MPD2     N  833   3.134   2.437  11.250  0.3461 -0.2334 -0.3749
   54MPD2    H5  834   3.085   2.419  11.163  0.3915 -0.0982 -0.4292
   54MPD2    N1  835   3.531   2.532  11.494 -0.0611 -0.4155 -0.5101
   54MPD2    H7  836   3.467   2.595  11.541  0.6066  0.3143 -0.5802
   55MPD2     C  837   3.894   0.737   0.079  0.3830 -0.4461  1.0042
   55MPD2    C1  838   3.871   0.656   0.182 -0.0981 -0.5787  0.1604
   55MPD2    C2  839   3.805   0.693   0.291  0.3778  0.2021 -0.3715
   55MPD2    C3  840   3.771   0.831   0.306  0.1008  0.1397  0.7051
   55MPD2    C4  841   3.799   0.924   0.202 -0.3564  0.8173 -0.3651
   55MPD2    C5  842   3.860   0.868   0.093 -0.6936 -0.3676 -0.4928
   55MPD2     H  843   3.764   0.621   0.361  0.0758  0.4970 -0.2411
   55MPD2    H1  844   3.775   1.029   0.210  0.6039  0.9837  0.3569
   55MPD2    H2  845   3.947   0.700  17.679 -2.1609 -0.6601 -0.4564
   55MPD2    H3  846   3.880   0.928   0.005  2.6993 -1.3405 -0.4262
   55MPD2     N  847   3.687   0.859   0.414  0.4215  0.4775  0.2293
   55MPD2    H5  848   3.659   0.777   0.468  0.6249  1.3879  1.7392
   55MPD2    N1  849   3.928   0.526   0.164  1.1026  0.1239  0.4536
   55MPD2    H7  850   3.981   0.502   0.080 -2.4366 -3.1223 -0.8154
   56TCq2    C1  851   3.941   0.430   0.261  0.3473 -0.3985  0.5113
   56TCq2    O2  852   3.906   0.445   0.380 -0.4988 -0.1225  0.4702
   56TCq2    C2  853   4.009   0.309   0.222 -0.2870 -0.0297 -0.4165
   56TCq2    C3  854   4.039   0.290   0.092 -0.2392  0.6243 -0.7193
   56TCq2    C4  855   4.110   0.179   0.058  0.1333  0.4300  0.2249
   56TCq2    C5  856   4.150   0.090   0.151 -0.2857  0.5084 -0.0994
   56TCq2    C6  857   4.141   0.128   0.284 -0.0273  0.6568 -0.0418
   56TCq2    C7  858   4.060   0.236   0.319 -0.2557  0.0961  0.3370
   56TCq2    C8  859   4.213   0.045   0.380  0.7603 -0.1668  0.3148
   56TCq2    O4  860   4.298   4.686   0.341  0.3425 -0.4058 -0.0657
   56TCq2    C9  861   4.147   0.158  17.609  0.6172 -0.1040 -0.0184
   56TCq2    O5  862   4.220   0.058  17.583 -0.4196  0.1493 -0.4774
   56TCq2    O6  863   4.118   0.249  17.523  0.9031  0.2337 -0.4397
   56TCq2    H2  864   4.008   0.355   0.011  1.0112  0.7789 -1.0761
   56TCq2    H3  865   4.217   0.012   0.117  0.6629  1.4057 -0.2720
   56TCq2    H4  866   4.025   0.247   0.421 -2.3099 -1.0404 -0.2293
   57TMC2    C1  867   2.907   1.330  13.687 -0.1779 -0.0908 -0.4698
   57TMC2    C2  868   2.999   1.249  13.744  0.4738 -0.3958  0.1776
   57TMC2    C3  869   3.087   1.172  13.665  0.3318 -0.3334  0.0968
   57TMC2    C4  870   2.885   1.326  13.552 -0.2216  0.1629  0.2939
   57TMC2    C5  871   2.956   1.239  13.480  0.5268 -0.4812  0.6782
   57TMC2    C6  872   3.068   1.171  13.526 -0.3308 -0.3399 -0.0630
   57TMC2     C  873   2.818   1.412  13.767  0.6503  0.4241  0.0717
   57TMC2     O  874   2.766   1.504  13.703 -0.7682  0.0006  0.3901
   57TMC2     H  875   3.014   1.240  13.851 -3.7050  3.0060  1.0677
   57TMC2    H1  876   2.817   1.395  13.502 -0.3998 -2.6913 -3.4075
   57TMC2    H2  877   3.139   1.119  13.464  1.8308  0.8207  1.4237
   57TMC2    C7  878   2.929   1.236  13.336 -0.5015 -0.0618  0.0394
   57TMC2    C8  879   3.180   1.091  13.736 -0.5454  0.8931  0.9264
   57TMC2    O1  880   2.841   1.314  13.297 -0.3823 -0.1787 -0.0793
   57TMC2    O2  881   3.180   1.081  13.856 -0.3179 -0.5352 -0.2968
   57TMC2    O5  882   3.274   1.039  13.649  0.1078 -0.0660 -0.4408
   57TMC2    H5  883   3.301   1.105  13.581 -0.0070 -2.0059 -2.3604
   58MPD2     C  884   2.614   1.545  14.215  0.2599  0.3032  0.1727
   58MPD2    C1  885   2.605   1.616  14.099  0.8946  0.1573  0.1897
   58MPD2    C2  886   2.664   1.552  13.984 -0.3507 -0.2368 -0.1041
   58MPD2    C3  887   2.723   1.424  13.994  0.5024  0.6315  0.2799
   58MPD2    C4  888   2.724   1.370  14.116  0.0971  0.2889  0.1418
   58MPD2    C5  889   2.663   1.423  14.223 -0.5708  0.1902 -0.1598
   58MPD2     H  890   2.659   1.594  13.884  1.3371  0.9191  0.3043
   58MPD2    H1  891   2.769   1.272  14.129  0.7913  0.6239  0.2586
   58MPD2    H2  892   2.573   1.579  14.310 -0.8785  2.8476 -1.2202
   58MPD2    H3  893   2.670   1.372  14.318 -1.6655  1.8967  0.8248
   58MPD2     N  894   2.798   1.360  13.894 -0.1321 -0.8687  0.2386
   58MPD2    H5  895   2.844   1.274  13.919 -0.0211 -0.8516  0.0925
   58MPD2    N1  896   2.568   1.752  14.096 -0.0713 -0.5671 -0.1235
   58MPD2    H7  897   2.556   1.800  14.007 -0.7963  1.2532  0.9679
   59MPD2     C  898   1.026   1.394  12.626  0.4643 -0.6853 -0.1785
   59MPD2    C1  899   1.011   1.521  12.562  0.9663  0.1013  0.0897
   59MPD2    C2  900   1.050   1.630  12.633 -0.0739 -0.4854 -0.5477
   59MPD2    C3  901   1.107   1.626  12.761  0.2875 -0.1513  0.1723
   59MPD2    C4  902   1.130   1.505  12.815 -0.3814  0.6072  0.2431
   59MPD2    C5  903   1.080   1.391  12.752  0.5568  0.6061  0.6423
   59MPD2     H  904   1.019   1.725  12.591 -0.9960  0.7524  2.8936
   59MPD2    H1  905   1.161   1.503  12.919  0.1713  2.2870  0.0998
   59MPD2    H2  906   0.991   1.300  12.586 -0.1609 -1.5328  2.3161
   59MPD2    H3  907   1.103   1.299  12.804  0.6176 -0.2343 -0.8608
   59MPD2     N  908   1.143   1.751  12.830 -0.4293 -1.0587  0.1007
   59MPD2    H5  909   1.145   1.836  12.773  0.7920 -3.1568 -3.0142
   59MPD2    N1  910   0.933   1.539  12.443 -0.3861 -0.1209 -0.0643
   59MPD2    H7  911   0.907   1.635  12.421 -0.9993  0.3503  2.7102
   60TCq2    C1  912   0.878   1.432  12.369  0.1798 -0.6024 -0.3437
   60TCq2    O2  913   0.871   1.312  12.395 -0.0644  0.1454  0.0406
   60TCq2    C2  914   0.826   1.463  12.239  0.4595 -0.5725  0.2912
   60TCq2    C3  915   0.752   1.360  12.184  0.1745  0.1277 -0.6836
   60TCq2    C4  916   0.737   1.352  12.047  0.2537 -0.3852  0.8206
   60TCq2    C5  917   0.795   1.447  11.969 -0.3215 -0.2324 -0.1347
   60TCq2    C6  918   0.857   1.554  12.031 -0.0723  1.0749  0.7481
   60TCq2    C7  919   0.877   1.565  12.166  0.0295 -0.2423 -0.7544
   60TCq2    C8  920   0.938   1.640  11.945  0.1701  0.0854 -0.0921
   60TCq2    O4  921   0.992   1.587  11.843 -0.3888  0.0066 -0.0428
   60TCq2    C9  922   0.680   1.236  11.992  0.6109 -0.8861 -0.0085
   60TCq2    O5  923   0.661   1.242  11.867 -0.2502  0.2134  0.8261
   60TCq2    O6  924   0.658   1.143  12.072  1.1065 -0.0182 -0.2066
   60TCq2    H2  925   0.715   1.279  12.245 -1.5795  0.6674 -1.0120
   60TCq2    H3  926   0.795   1.433  11.861 -1.3858 -1.5859  0.0456
   60TCq2    H4  927   0.944   1.635  12.213 -1.4633  1.2168 -0.7895
   61MPD2     C  928   0.256   3.165  15.249 -0.0519 -0.0412  0.6410
   61MPD2    C1  929   0.284   3.303  15.277 -0.8641 -0.6256  0.2908
   61MPD2    C2  930   0.305   3.392  15.176 -0.1429  0.1166  0.5733
   61MPD2    C3  931   0.296   3.354  15.048  0.1707 -0.3705  0.2624
   61MPD2    C4  932   0.280   3.221  15.018  0.0569 -0.0294 -0.2940
   61MPD2    C5  933   0.268   3.121  15.119  1.3188  0.5563 -0.2027
   61MPD2     H  934   0.313   3.499  15.191  0.5425  0.0612  0.5927
   61MPD2    H1  935   0.269   3.187  14.915  0.7949 -2.3199  0.3786
   61MPD2    H2  936   0.217   3.095  15.322  1.9414  1.2996  2.9605
   61MPD2    H3  937   0.250   3.017  15.093 -0.3361  0.4168  1.4279
   61MPD2     N  938   0.292   3.455  14.955  0.5232 -0.3566  0.5138
   61MPD2    H5  939   0.311   3.547  14.992  0.7217  0.5768 -1.8799
   61MPD2    N1  940   0.268   3.363  15.404  0.0700  1.0237  0.4971
   61MPD2    H7  941   0.293   3.461  15.415 -0.3005  0.8978  2.4663
   62TCq2    C1  942   0.222   3.298  15.518  0.3362 -0.5840  0.0336
   62TCq2    O2  943   0.217   3.177  15.534  0.5736 -0.4114  0.2531
   62TCq2    C2  944   0.179   3.389  15.622  0.0246 -0.2195  0.3835
   62TCq2    C3  945   0.126   3.333  15.740 -0.0185  0.1897 -0.2120
   62TCq2    C4  946   0.060   3.414  15.829 -0.0414 -0.5117 -0.0126
   62TCq2    C5  947   0.023   3.541  15.799 -0.0426 -0.2270  0.6224
   62TCq2    C6  948   0.080   3.592  15.684 -0.0242  0.1448  0.2789
   62TCq2    C7  949   0.159   3.520  15.597 -0.2813  0.1919 -0.0383
   62TCq2    C8  950   0.083   3.742  15.669  0.2506 -0.3358 -0.3258
   62TCq2    O4  951   0.170   3.783  15.593 -0.9350  0.3367 -0.0316
   62TCq2    C9  952   4.706   3.346  15.933  0.0049 -0.1635  0.3421
   62TCq2    O5  953   4.699   3.220  15.925  0.3019  0.2320  0.0923
   62TCq2    O6  954   4.619   3.421  15.986 -0.8956 -0.3278 -0.4255
   62TCq2    H2  955   0.135   3.225  15.753 -0.1477  0.2761  0.5933
   62TCq2    H3  956   4.664   3.590  15.854 -1.3430  0.4535 -1.8894
   62TCq2    H4  957   0.215   3.581  15.527 -0.3789  1.5077  1.0381
   63TMC2    C1  958   4.266   3.383   9.904  0.0372  0.3303 -0.2084
   63TMC2    C2  959   4.272   3.515   9.869 -0.2606 -0.2090  0.2630
   63TMC2    C3  960   4.282   3.547   9.737  0.2843 -0.6206  0.7049
   63TMC2    C4  961   4.261   3.286   9.806 -0.0989 -0.3781  0.3591
   63TMC2    C5  962   4.265   3.320   9.673  0.6100 -0.7468  0.0012
   63TMC2    C6  963   4.297   3.448   9.639  0.2464  0.2396 -0.0866
   63TMC2     C  964   4.237   3.355  10.040  0.1389 -0.4595  0.6271
   63TMC2     O  965   4.219   3.449  10.116  0.1335 -0.1569  0.2378
   63TMC2     H  966   4.259   3.597   9.938 -0.9135 -0.3719  0.3314
   63TMC2    H1  967   4.245   3.181   9.829 -0.8270 -0.1681  0.8009
   63TMC2    H2  968   4.315   3.476   9.536  3.3457 -3.7895 -0.6372
   63TMC2    C7  969   4.198   3.240   9.572  0.8963  0.1138  0.5426
   63TMC2    C8  970   4.327   3.681   9.713  0.1377  0.1831  0.6097
   63TMC2    O1  971   4.144   3.307   9.482  0.2599 -0.3462  0.3101
   63TMC2    O2  972   4.391   3.735   9.803 -0.1160  0.5263 -0.1284
   63TMC2    O5  973   4.339   3.705   9.579 -0.2886  0.1850  0.3723
   63TMC2    H5  974   4.282   3.651   9.520  2.0144 -4.3781  2.2757
   64MPD2     C  975   4.008   3.039  10.400 -0.4915  1.0828  0.4905
   64MPD2    C1  976   4.074   2.969  10.302  0.6080  0.2373 -0.3851
   64MPD2    C2  977   4.130   3.032  10.185 -0.0911 -0.2102 -0.1986
   64MPD2    C3  978   4.133   3.165  10.171 -0.2450 -0.6271 -0.2216
   64MPD2    C4  979   4.071   3.239  10.269  0.3523  0.0963 -0.1198
   64MPD2    C5  980   4.004   3.171  10.377 -0.2989  0.4290 -0.4158
   64MPD2     H  981   4.175   2.969  10.109  0.5439  1.1724 -0.9646
   64MPD2    H1  982   4.045   3.344  10.263  1.9901  0.4625 -0.8771
   64MPD2    H2  983   3.953   2.991  10.480 -1.0023  0.0299 -0.4853
   64MPD2    H3  984   3.956   3.242  10.443  2.0380  1.7424 -0.1457
   64MPD2     N  985   4.207   3.223  10.060 -0.0073  0.3560  0.0028
   64MPD2    H5  986   4.234   3.153   9.992  0.7381 -0.1951  0.8785
   64MPD2    N1  987   4.096   2.830  10.310 -0.0175  0.6252  0.0686
   64MPD2    H7  988   4.147   2.787  10.233 -1.8564  0.4642 -1.0829
   65MPD2     C  989   0.429   2.598  15.297 -0.5395 -0.0628  0.6398
   65MPD2    C1  990   0.513   2.624  15.190  0.1296  0.8691 -0.0925
   65MPD2    C2  991   0.574   2.519  15.125 -0.1106 -0.2165  0.1157
   65MPD2    C3  992   0.569   2.392  15.173  0.0781  0.5310 -0.0067
   65MPD2    C4  993   0.492   2.365  15.280  0.7504 -0.1109 -0.5363
   65MPD2    C5  994   0.413   2.468  15.335  0.1989 -0.1365  0.5735
   65MPD2     H  995   0.631   2.538  15.034  3.1522 -0.8685  2.0248
   65MPD2    H1  996   0.486   2.261  15.308  1.6759  0.2199  0.9039
   65MPD2    H2  997   0.363   2.677  15.332  0.3118  0.7250  0.4615
   65MPD2    H3  998   0.334   2.443  15.405 -1.1441  0.8182 -0.6113
   65MPD2     N  999   0.630   2.275  15.117  0.1261 -0.7674  0.9772
   65MPD2    H5 1000   0.640   2.188  15.169  1.3537  0.0413  2.0859
   65MPD2    N1 1001   0.532   2.751  15.134 -0.4458 -0.0591  0.2865
   65MPD2    H7 1002   0.588   2.758  15.050  1.0501 -1.3247  1.1902
   66TCq2    C1 1003   0.504   2.871  15.200  0.2844 -0.2532 -0.0383
   66TCq2    O2 1004   0.446   2.894  15.307 -0.3312 -0.1647  0.2894
   66TCq2    C2 1005   0.572   2.984  15.138  0.9281  0.3984  0.8013
   66TCq2    C3 1006   0.593   2.989  15.001 -0.3590 -0.6406  1.1408
   66TCq2    C4 1007   0.630   3.111  14.942  0.4641  0.4543 -0.2834
   66TCq2    C5 1008   0.657   3.220  15.021  0.2456  0.0855 -0.0029
   66TCq2    C6 1009   0.645   3.208  15.161 -0.6427 -0.1082  0.0895
   66TCq2    C7 1010   0.608   3.087  15.224 -0.9441  0.4748 -0.1379
   66TCq2    C8 1011   0.655   3.334  15.238 -0.0991 -0.3754 -0.1042
   66TCq2    O4 1012   0.717   3.423  15.180 -0.0516  0.2479 -0.7517
   66TCq2    C9 1013   0.633   3.119  14.795 -0.0583  0.0978 -0.2024
   66TCq2    O5 1014   0.675   3.229  14.753 -0.3239  0.0615 -0.8613
   66TCq2    O6 1015   0.654   3.011  14.734 -0.1393 -0.3222  0.0416
   66TCq2    H2 1016   0.548   2.910  14.943 -2.0416  0.0263  1.5257
   66TCq2    H3 1017   0.664   3.318  14.976  0.5569 -0.6427 -1.5371
   66TCq2    H4 1018   0.600   3.074  15.331 -1.6523  0.3779 -0.2060
   67MPD2     C 1019   0.543   2.299  13.790 -0.6667 -0.3409  0.8102
   67MPD2    C1 1020   0.466   2.372  13.880  0.7645 -0.4150  0.5234
   67MPD2    C2 1021   0.335   2.411  13.844  0.2792 -1.1149 -0.1854
   67MPD2    C3 1022   0.281   2.370  13.726 -0.5626  0.4980 -0.1815
   67MPD2    C4 1023   0.364   2.308  13.637 -0.1639  0.2627  0.4581
   67MPD2    C5 1024   0.494   2.275  13.668 -0.5171 -0.7360 -0.6628
   67MPD2     H 1025   0.275   2.460  13.919 -0.2475 -0.4286 -1.0632
   67MPD2    H1 1026   0.338   2.277  13.536  0.6542 -1.7977  0.8687
   67MPD2    H2 1027   0.638   2.256  13.819  0.2520 -0.5552 -2.4881
   67MPD2    H3 1028   0.546   2.216  13.593 -0.3486  1.8533 -2.6027
   67MPD2     N 1029   0.144   2.397  13.685  0.0058  0.5083 -0.3285
   67MPD2    H5 1030   0.126   2.366  13.590 -1.0887  1.0908 -0.3158
   67MPD2    N1 1031   0.521   2.427  14.004  0.4828  0.4509  0.1325
   67MPD2    H7 1032   0.462   2.477  14.069 -0.7488 -0.3294 -0.4014
   68TCq2    C1 1033   0.653   2.414  14.039  0.4920 -0.3270 -0.1817
   68TCq2    O2 1034   0.748   2.356  13.993 -0.1313 -0.1547  0.0472
   68TCq2    C2 1035   0.687   2.478  14.164 -0.2585  0.3057  0.7927
   68TCq2    C3 1036   0.605   2.573  14.221 -0.0016 -0.6224  0.7473
   68TCq2    C4 1037   0.649   2.627  14.337  0.3028  1.1013 -0.0524
   68TCq2    C5 1038   0.757   2.579  14.405 -0.0843 -0.0619  0.2725
   68TCq2    C6 1039   0.813   2.465  14.364  0.0422 -0.6624  0.3583
   68TCq2    C7 1040   0.786   2.419  14.235  0.5394 -0.6218 -0.6903
   68TCq2    C8 1041   0.913   2.400  14.452  0.2208 -0.7690 -0.6190
   68TCq2    O4 1042   0.969   2.307  14.400 -0.3270 -0.0483 -0.3575
   68TCq2    C9 1043   0.579   2.742  14.381 -0.0395 -0.5104  0.0185
   68TCq2    O5 1044   0.498   2.795  14.303 -0.0556  0.4070  0.5985
   68TCq2    O6 1045   0.631   2.809  14.473 -0.3638 -0.0538  0.1517
   68TCq2    H2 1046   0.526   2.621  14.165  0.1599 -0.1135  0.9594
   68TCq2    H3 1047   0.778   2.627  14.500 -1.5017 -0.0824  0.5979
   68TCq2    H4 1048   0.845   2.336  14.198 -0.5044  0.0008 -3.7704
   69TMC2    C1 1049   3.485   3.175  12.159 -0.3444  0.1865  0.6027
   69TMC2    C2 1050   3.355   3.169  12.127  0.4808 -0.3442 -0.1695
   69TMC2    C3 1051   3.313   3.119  12.010  0.0995 -0.9719  0.0821
   69TMC2    C4 1052   3.576   3.104  12.087  0.6421 -0.0123 -0.1246
   69TMC2    C5 1053   3.528   3.047  11.972 -0.2659  0.4659  0.6041
   69TMC2    C6 1054   3.402   3.068  11.922 -0.2317 -0.0432 -0.5066
   69TMC2     C 1055   3.516   3.200  12.305 -0.1108 -0.4951  0.3650
   69TMC2     O 1056   3.623   3.244  12.336  0.2118  0.2873  0.7107
   69TMC2     H 1057   3.286   3.228  12.187 -0.2526 -2.9468  1.5550
   69TMC2    H1 1058   3.680   3.088  12.116  0.6484 -0.6043 -0.4790
   69TMC2    H2 1059   3.364   3.019  11.833 -0.4900 -0.4016 -0.2006
   69TMC2    C7 1060   3.626   3.003  11.875  0.0097  0.6181 -0.0840
   69TMC2    C8 1061   3.174   3.145  11.977  0.9279  0.5140  0.1993
   69TMC2    O1 1062   3.736   2.992  11.917 -0.4239  0.6483 -0.0119
   69TMC2    O2 1063   3.092   3.177  12.060 -0.1594 -0.4279 -0.0919
   69TMC2    O5 1064   3.167   3.178  11.846 -0.4828  0.4450  0.5742
   69TMC2    H5 1065   3.249   3.159  11.795 -1.2390 -0.9465 -0.1239
   70MPD2     C 1066   3.500   3.215  12.604 -1.0275 -0.2471 -0.9399
   70MPD2    C1 1067   3.406   3.151  12.524 -0.9420 -0.7428  0.8874
   70MPD2    C2 1068   3.308   3.075  12.587 -0.5006  0.4275 -0.1229
   70MPD2    C3 1069   3.317   3.048  12.719 -0.3504 -0.2207 -0.2288
   70MPD2    C4 1070   3.419   3.103  12.792 -0.1023 -0.4077  0.4388
   70MPD2    C5 1071   3.512   3.187  12.736 -0.8876  0.3556 -0.4404
   70MPD2     H 1072   3.229   3.033  12.525 -0.3699  0.2691 -0.1797
   70MPD2    H1 1073   3.442   3.078  12.895  0.4045  1.2961  0.7358
   70MPD2    H2 1074   3.576   3.278  12.559 -0.7475  0.5528  0.6591
   70MPD2    H3 1075   3.588   3.237  12.794 -1.0795  0.8943 -0.6584
   70MPD2     N 1076   3.238   2.955  12.780 -0.1842 -0.1173 -0.2520
   70MPD2    H5 1077   3.283   2.908  12.858  1.4771 -0.3428 -1.3343
   70MPD2    N1 1078   3.409   3.152  12.382 -0.5709 -0.2957 -0.6993
   70MPD2    H7 1079   3.340   3.099  12.329 -2.4739  0.2716  1.2160
   71TMC2    C1 1080   0.823   3.871   1.780  0.2467 -0.2534  0.1532
   71TMC2    C2 1081   0.925   3.821   1.856 -0.5103  0.2318  0.6093
   71TMC2    C3 1082   0.913   3.833   1.986 -0.1715 -0.3048 -0.5173
   71TMC2    C4 1083   0.721   3.939   1.836 -0.7099  0.3305 -0.0752
   71TMC2    C5 1084   0.708   3.940   1.970  0.0145  1.0407  0.2228
   71TMC2    C6 1085   0.800   3.880   2.042 -0.6258  0.4311 -0.9353
   71TMC2     C 1086   0.836   3.888   1.631 -0.6059 -0.9601 -0.5672
   71TMC2     O 1087   0.761   3.961   1.567  0.0034 -0.1457 -0.2669
   71TMC2     H 1088   1.018   3.791   1.810 -1.1478 -0.6927 -0.0786
   71TMC2    H1 1089   0.650   3.984   1.768 -1.2265 -1.4077 -0.6888
   71TMC2    H2 1090   0.806   3.903   2.147 -0.3833 -0.3560 -0.7726
   71TMC2    C7 1091   0.604   4.014   2.032 -0.1823 -0.1940  0.3293
   71TMC2    C8 1092   1.031   3.802   2.059  0.7494  0.0309  1.0524
   71TMC2    O1 1093   0.630   4.057   2.144 -0.4124  0.6461  0.1650
   71TMC2    O2 1094   1.134   3.805   1.997  0.1078 -0.0647  0.0032
   71TMC2    O5 1095   1.014   3.711   2.160  0.2447 -0.0388 -0.1534
   71TMC2    H5 1096   0.922   3.704   2.192  0.5856 -0.7871  0.6511
   72MPD2     C 1097   0.931   3.641   1.202  0.0692  0.6123  0.1660
   72MPD2    C1 1098   0.896   3.772   1.223 -0.2854 -0.1525  0.6381
   72MPD2    C2 1099   0.897   3.819   1.351 -0.4007  0.6915 -0.0774
   72MPD2    C3 1100   0.925   3.732   1.456  0.6948 -0.4192 -0.2743
   72MPD2    C4 1101   0.958   3.603   1.443  0.5748  0.4915 -0.6264
   72MPD2    C5 1102   0.963   3.558   1.309  0.9008  0.3829  0.0416
   72MPD2     H 1103   0.863   3.921   1.360 -1.2528  0.4038 -0.0925
   72MPD2    H1 1104   0.987   3.534   1.522  0.2967 -1.1397 -1.9546
   72MPD2    H2 1105   0.936   3.597   1.103  3.2203 -1.2578  1.1916
   72MPD2    H3 1106   0.979   3.453   1.286 -1.2521  0.1877 -0.5904
   72MPD2     N 1107   0.912   3.780   1.591 -0.5401 -0.5464 -1.2393
   72MPD2    H5 1108   0.925   3.712   1.666  1.0940  2.5870  1.2766
   72MPD2    N1 1109   0.851   3.857   1.117 -0.0972 -0.2061  0.0848
   72MPD2    H7 1110   0.836   3.955   1.141  1.1896 -0.0464  0.2142
   73TMC2    C1 1111   0.281   2.023  13.207  0.6068 -0.4536  0.7844
   73TMC2    C2 1112   0.285   1.973  13.330 -0.0980  0.8080  0.2936
   73TMC2    C3 1113   0.171   1.965  13.394  0.1285  0.9258 -0.2642
   73TMC2    C4 1114   0.165   2.063  13.153  0.2038 -0.6204  0.8697
   73TMC2    C5 1115   0.045   2.048  13.221  0.2913 -0.6036 -0.3554
   73TMC2    C6 1116   0.056   2.005  13.349 -0.2775 -0.5891 -0.0467
   73TMC2     C 1117   0.346   1.928  13.116  0.1473  1.3226  0.2043
   73TMC2     O 1118   0.264   1.886  13.033 -0.0313  0.8032 -0.2907
   73TMC2     H 1119   0.370   1.918  13.371 -0.5825 -0.3558 -0.2515
   73TMC2    H1 1120   0.160   2.092  13.049 -0.8257 -1.2011  0.7582
   73TMC2    H2 1121   4.680   1.987  13.394 -2.1767  0.1775 -3.7812
   73TMC2    C7 1122   4.664   1.978  13.153  0.0624 -0.1773 -0.0659
   73TMC2    C8 1123   0.183   1.915  13.531 -0.8076 -0.4332 -0.0461
   73TMC2    O1 1124   4.553   1.982  13.209  0.4373  0.1019  0.6826
   73TMC2    O2 1125   0.274   1.839  13.551 -0.0770 -0.4334 -0.2882
   73TMC2    O5 1126   0.151   2.015  13.615  0.2801  0.0999 -0.2530
   73TMC2    H5 1127   0.062   2.053  13.593  1.1587  1.3717 -1.6330
   74MPD2     C 1128   0.705   1.595  12.993 -0.0266 -0.1914  0.3112
   74MPD2    C1 1129   0.580   1.614  12.942 -0.9614 -0.2422 -1.0820
   74MPD2    C2 1130   0.507   1.721  12.990 -1.2215 -0.3618  0.1522
   74MPD2    C3 1131   0.559   1.808  13.084 -0.1709  0.1538  0.9819
   74MPD2    C4 1132   0.686   1.788  13.136 -0.1488  0.3514 -0.4534
   74MPD2    C5 1133   0.754   1.685  13.083  0.6111  0.6563 -0.3324
   74MPD2     H 1134   0.409   1.738  12.947 -1.5556 -1.5009  0.4456
   74MPD2    H1 1135   0.724   1.865  13.202  0.1005  0.8720 -1.1972
   74MPD2    H2 1136   0.769   1.515  12.957  1.7866  0.9796  0.9485
   74MPD2    H3 1137   0.860   1.670  13.103  0.1641 -1.4659  0.4564
   74MPD2     N 1138   0.478   1.914  13.130  0.9559 -0.1351  0.1881
   74MPD2    H5 1139   0.517   1.956  13.214  0.9751  1.6922 -0.7445
   74MPD2    N1 1140   0.531   1.518  12.852 -0.7692  0.6779 -0.3951
   74MPD2    H7 1141   0.573   1.425  12.849 -0.3013  0.8496  0.9496
   75TCq2    C1 1142   0.043   2.453  13.761  0.6599 -0.6529 -0.3355
   75TCq2    O2 1143   0.041   2.499  13.873 -0.4524  1.0069 -0.0081
   75TCq2    C2 1144   4.645   2.464  13.684 -0.2359 -0.6328 -0.1437
   75TCq2    C3 1145   4.529   2.457  13.755 -0.9332 -0.2151 -0.5866
   75TCq2    C4 1146   4.416   2.421  13.686  0.5377 -0.4682 -0.1139
   75TCq2    C5 1147   4.415   2.411  13.553 -0.8618  0.0748 -0.0218
   75TCq2    C6 1148   4.530   2.422  13.482 -1.0432  0.0299 -0.0763
   75TCq2    C7 1149   4.649   2.454  13.549  0.0119 -0.6180 -0.0328
   75TCq2    C8 1150   4.534   2.383  13.344 -0.3096 -0.1201  0.2030
   75TCq2    O4 1151   4.468   2.286  13.318  0.3483 -0.1416 -0.5200
   75TCq2    C9 1152   4.295   2.388  13.765 -0.3730  0.2903 -0.4651
   75TCq2    O5 1153   4.301   2.386  13.887 -0.0951 -0.0432 -0.2394
   75TCq2    O6 1154   4.204   2.329  13.703 -0.6010  0.0301  0.2023
   75TCq2    H2 1155   4.534   2.474  13.862  2.7944 -3.0740 -0.3061
   75TCq2    H3 1156   4.322   2.391  13.500 -1.0711 -0.5763  0.5902
   75TCq2    H4 1157   0.013   2.484  13.491  0.1286  0.3538  0.6462
   76MPD2     C 1158   4.697   3.193  11.828 -0.2284 -0.1457 -0.7283
   76MPD2    C1 1159   4.651   3.062  11.835  0.3781 -0.1761  0.8507
   76MPD2    C2 1160   0.004   2.969  11.911 -0.4676  0.5437  0.0647
   76MPD2    C3 1161   0.111   3.015  11.987  0.2952  0.2975  0.0768
   76MPD2    C4 1162   0.146   3.145  11.978 -0.2436 -0.0940 -0.5378
   76MPD2    C5 1163   0.086   3.234  11.892  0.4335 -0.0447 -0.4926
   76MPD2     H 1164   4.712   2.862  11.912  2.4491  0.1645 -0.2384
   76MPD2    H1 1165   0.231   3.179  12.037 -0.1890 -1.5753  0.2519
   76MPD2    H2 1166   4.641   3.275  11.784  0.4934  0.6201 -0.2179
   76MPD2    H3 1167   0.124   3.336  11.887 -0.9435  0.5816  1.7435
   76MPD2     N 1168   0.183   2.931  12.075  0.2150 -0.5320 -0.3514
   76MPD2    H5 1169   0.258   2.972  12.131 -0.4462 -0.2654  0.3427
   76MPD2    N1 1170   4.542   3.012  11.755 -0.2206  0.0929  0.6495
   76MPD2    H7 1171   4.518   2.914  11.766 -0.8772  0.2851  0.9424
   77TCq2    C1 1172   0.143   2.802  12.122  0.3490  0.5562 -0.2191
   77TCq2    O2 1173   0.038   2.739  12.101  0.4496  1.1787 -0.1479
   77TCq2    C2 1174   0.235   2.755  12.225  0.0782 -0.0195 -0.4757
   77TCq2    C3 1175   0.225   2.621  12.262 -1.0827  0.0972  0.3183
   77TCq2    C4 1176   0.305   2.576  12.369  0.3840 -0.5621  0.8275
   77TCq2    C5 1177   0.385   2.665  12.443 -0.4203  0.5209  0.7481
   77TCq2    C6 1178   0.398   2.797  12.409 -0.1290  0.0456  0.5033
   77TCq2    C7 1179   0.326   2.846  12.296  0.1859  0.9806  1.0992
   77TCq2    C8 1180   0.453   2.906  12.495 -0.1348  0.3908 -0.3695
   77TCq2    O4 1181   0.502   3.000  12.437  0.1912 -0.3168  0.3678
   77TCq2    C9 1182   0.296   2.441  12.413  0.2823  0.2391  0.0042
   77TCq2    O5 1183   0.348   2.426  12.528 -0.2051  0.0584  0.5133
   77TCq2    O6 1184   0.212   2.366  12.363  0.0931 -0.0787 -0.2389
   77TCq2    H2 1185   0.146   2.565  12.213 -0.2698 -0.7022 -0.0577
   77TCq2    H3 1186   0.442   2.626  12.526  0.1078 -0.5269 -0.1032
   77TCq2    H4 1187   0.345   2.948  12.266  0.2019  0.4840 -0.5701
   78MPD1     C 1188   0.789   2.061   1.939  0.5326  0.4693 -0.2890
   78MPD1    C1 1189   0.701   2.081   2.040 -0.0646  0.2252  0.0156
   78MPD1    C2 1190   0.749   2.060   2.169  0.5553 -1.0690  0.2712
   78MPD1    C3 1191   0.859   1.979   2.191 -0.1037  0.2968  0.1007
   78MPD1    C4 1192   0.936   1.953   2.086  0.6576 -0.3409  0.8508
   78MPD1    C5 1193   0.908   1.991   1.959  0.0857  0.8460 -0.1438
   78MPD1     H 1194   0.687   2.113   2.242  2.3859  1.9971 -0.3921
   78MPD1    H1 1195   1.021   1.887   2.092  2.5161  2.0763  1.0534
   78MPD1    H2 1196   0.757   2.093   1.841 -0.6399 -1.0498 -0.3991
   78MPD1    H3 1197   0.978   1.972   1.879 -1.4874 -0.8859 -1.1076
   78MPD1     N 1198   0.905   1.940   2.317 -0.1631 -0.4295 -0.0896
   78MPD1    H5 1199   0.997   1.896   2.324 -0.5415 -1.1378  0.4977
   78MPD1    N1 1200   0.579   2.153   2.023  0.1357 -0.0878 -0.2044
   78MPD1    H6 1201   0.521   2.146   1.940 -0.6147 -0.5533  0.3625
   78MPD1    H7 1202   0.516   2.130   2.100  0.3497 -0.5310 -0.1612
   79TCq2    C1 1203   0.827   1.941   2.428  0.2912  0.2456 -0.4871
   79TCq2    O2 1204   0.706   1.947   2.430 -0.1740 -0.4854  0.5433
   79TCq2    C2 1205   0.895   1.897   2.552 -0.2519  0.5194 -0.8720
   79TCq2    C3 1206   0.826   1.817   2.638 -0.5467 -0.1364  0.9048
   79TCq2    C4 1207   0.882   1.712   2.705 -0.1035  0.0829  0.0626
   79TCq2    C5 1208   1.010   1.688   2.690  0.6105 -0.5443  0.2245
   79TCq2    C6 1209   1.086   1.775   2.615  0.5130  0.2187 -0.9057
   79TCq2    C7 1210   1.025   1.871   2.538 -0.0722  0.6206 -0.0686
   79TCq2    C8 1211   1.233   1.759   2.607 -0.3527 -0.2049  0.2410
   79TCq2    O4 1212   1.286   1.660   2.660 -0.1240  0.7075 -1.0326
   79TCq2    C9 1213   0.801   1.627   2.784  0.1614  1.0222 -0.3454
   79TCq2    O5 1214   0.684   1.674   2.805  0.0188 -0.1843  0.3116
   79TCq2    O6 1215   0.842   1.514   2.818  0.0409 -0.0603 -0.0126
   79TCq2    H2 1216   0.718   1.832   2.639 -0.3663  1.2614  0.2585
   79TCq2    H3 1217   1.055   1.595   2.723  1.2787 -0.1542  0.4142
   79TCq2    H4 1218   1.084   1.928   2.468  2.2548  1.4236  2.5247
   80MPD2     C 1219   3.562   2.243  12.099 -0.3422  0.3139  0.0728
   80MPD2    C1 1220   3.460   2.277  12.013  0.3737  0.5542 -0.7412
   80MPD2    C2 1221   3.345   2.336  12.061  0.1864 -0.2287  0.7371
   80MPD2    C3 1222   3.315   2.344  12.197 -0.3191  0.1008  0.3751
   80MPD2    C4 1223   3.423   2.323  12.281  0.4371  0.1061  0.0126
   80MPD2    C5 1224   3.551   2.286  12.231 -0.3148 -0.4300 -0.5169
   80MPD2     H 1225   3.266   2.363  11.991  0.2054 -0.9929  0.4228
   80MPD2    H1 1226   3.419   2.337  12.389 -0.2287  1.1858 -0.1501
   80MPD2    H2 1227   3.660   2.213  12.065 -0.0949 -0.9396  1.9011
   80MPD2    H3 1228   3.642   2.275  12.289 -1.2960 -1.3569  0.8396
   80MPD2     N 1229   3.193   2.387  12.253  0.0219  0.4518 -0.5109
   80MPD2    H5 1230   3.174   2.371  12.351 -0.7836  0.9470 -0.5838
   80MPD2    N1 1231   3.462   2.249  11.876 -0.3308 -0.0253  0.9826
   80MPD2    H7 1232   3.386   2.287  11.820 -0.7032 -2.2818 -0.0608
   81TCq2    C1 1233   3.561   2.184  11.808 -0.2219 -0.2388 -0.6541
   81TCq2    O2 1234   3.670   2.141  11.844  0.2890 -0.2161 -0.1882
   81TCq2    C2 1235   3.525   2.158  11.666 -0.0263 -0.1548 -0.0691
   81TCq2    C3 1236   3.633   2.156  11.578 -0.0924  0.0188 -0.1354
   81TCq2    C4 1237   3.605   2.117  11.450  0.5395  0.3581  0.2417
   81TCq2    C5 1238   3.486   2.080  11.404 -0.1581 -0.6468 -0.0807
   81TCq2    C6 1239   3.377   2.094  11.494  0.2859  0.0779 -0.3443
   81TCq2    C7 1240   3.396   2.135  11.625 -0.1754 -0.0863 -0.4432
   81TCq2    C8 1241   3.243   2.075  11.441  0.1344  0.3032  0.1736
   81TCq2    O4 1242   3.231   2.036  11.327 -0.6409 -0.1907  0.3727
   81TCq2    C9 1243   3.717   2.093  11.365 -0.3814 -0.5236  0.4903
   81TCq2    O5 1244   3.688   2.053  11.249 -0.9207  0.1544  0.6885
   81TCq2    O6 1245   3.832   2.116  11.410  0.0056 -0.2258  0.3075
   81TCq2    H2 1246   3.738   2.158  11.608 -0.1767 -1.0572  0.2221
   81TCq2    H3 1247   3.474   2.062  11.297 -0.6381  0.1653 -0.1638
   81TCq2    H4 1248   3.320   2.139  11.702  0.2482 -1.8055  0.0696
   82MPD2     C 1249   2.002   2.059  10.298  0.3543  0.2163 -0.4979
   82MPD2    C1 1250   1.885   2.005  10.349 -0.2084  0.4550  0.0565
   82MPD2    C2 1251   1.890   1.873  10.391 -0.7188  0.1423  0.3485
   82MPD2    C3 1252   2.006   1.795  10.388  0.4065  0.5649 -0.2396
   82MPD2    C4 1253   2.119   1.852  10.335  0.2828 -0.1621  0.5307
   82MPD2    C5 1254   2.113   1.986  10.298 -0.1391 -0.7833  0.5394
   82MPD2     H 1255   1.799   1.820  10.417 -0.5117 -0.1167  0.5435
   82MPD2    H1 1256   2.207   1.790  10.342 -0.2824 -0.8607  1.5154
   82MPD2    H2 1257   2.008   2.158  10.255  1.6810  0.4210  0.1505
   82MPD2    H3 1258   2.203   2.029  10.255 -0.6089  1.5433  1.9169
   82MPD2     N 1259   2.007   1.656  10.428  0.0586 -0.2034 -0.0569
   82MPD2    H5 1260   2.087   1.596  10.407  1.2433  2.1635 -2.2803
   82MPD2    N1 1261   1.768   2.084  10.358  0.5161  0.4127  0.1483
   82MPD2    H7 1262   1.775   2.171  10.305 -0.8715  0.5065  0.1211
   83TCq2    C1 1263   1.902   1.592  10.485  0.0104  0.4263  0.3645
   83TCq2    O2 1264   1.797   1.624  10.536 -0.1728 -0.3059  0.0387
   83TCq2    C2 1265   1.939   1.454  10.515 -0.6918  0.2473  0.3365
   83TCq2    C3 1266   2.052   1.430  10.586  0.0129 -0.2506 -0.4675
   83TCq2    C4 1267   2.047   1.327  10.681  0.2734  0.2374 -0.6603
   83TCq2    C5 1268   1.925   1.259  10.704  0.0686  0.2836  0.4748
   83TCq2    C6 1269   1.811   1.290  10.624 -0.6482  0.3723  0.2549
   83TCq2    C7 1270   1.823   1.384  10.532  0.4537  0.1550  0.6411
   83TCq2    C8 1271   1.682   1.227  10.660 -0.3943 -0.1146  0.0283
   83TCq2    O4 1272   1.677   1.181  10.771  0.7848  0.1534  0.8607
   83TCq2    C9 1273   2.171   1.287  10.755  0.2322  0.1280 -0.2460
   83TCq2    O5 1274   2.166   1.196  10.841 -0.1832 -0.0088  0.3813
   83TCq2    O6 1275   2.280   1.343  10.728 -0.2132  0.0060  0.4356
   83TCq2    H2 1276   2.136   1.497  10.570  0.3750 -0.4176  0.7825
   83TCq2    H3 1277   1.918   1.176  10.773  0.2707 -1.8732 -2.1070
   83TCq2    H4 1278   1.742   1.418  10.468  0.7691  0.9010  0.6451
   84TCq2    C1 1279   2.522   0.345  10.128 -0.2531  0.1699  0.2591
   84TCq2    O2 1280   2.462   0.263  10.195 -0.0539  0.2075 -0.0170
   84TCq2    C2 1281   2.633   0.419  10.187  0.0266 -0.1639  0.7138
   84TCq2    C3 1282   2.714   0.502  10.111 -0.2917 -0.5252  0.5124
   84TCq2    C4 1283   2.804   0.580  10.172  0.4791  0.3273  0.2733
   84TCq2    C5 1284   2.813   0.580  10.306 -0.0743  0.2981  0.5138
   84TCq2    C6 1285   2.741   0.495  10.385 -0.9424  0.5877 -0.1368
   84TCq2    C7 1286   2.640   0.414  10.327 -0.3532  0.4993 -0.7436
   84TCq2    C8 1287   2.733   0.507  10.530 -0.1080 -0.2110 -0.2418
   84TCq2    O4 1288   2.633   0.460  10.584  0.3719  0.1962  0.0868
   84TCq2    C9 1289   2.890   0.672  10.097  0.0914  0.4547 -0.2015
   84TCq2    O5 1290   2.953   0.757  10.162 -0.3321  0.3153  0.0275
   84TCq2    O6 1291   2.893   0.659   9.971 -0.0856  0.2813  0.0365
   84TCq2    H2 1292   2.712   0.502  10.003  0.8754 -0.2880  0.4851
   84TCq2    H3 1293   2.894   0.638  10.350 -0.3261  1.2897 -0.3463
   84TCq2    H4 1294   2.564   0.359  10.381  0.5582 -0.2097 -0.1831
   85MPD2     C 1295   3.172   3.719  16.600  0.5031 -0.1210  0.3782
   85MPD2    C1 1296   3.081   3.714  16.493 -0.3565 -0.0954 -0.1832
   85MPD2    C2 1297   3.096   3.801  16.391  0.3250 -0.5860 -0.4804
   85MPD2    C3 1298   3.188   3.905  16.392  0.2982 -0.2509  0.5940
   85MPD2    C4 1299   3.265   3.904  16.505 -0.2167 -0.2188  1.3889
   85MPD2    C5 1300   3.262   3.817  16.603  0.5210  0.2195  0.1264
   85MPD2     H 1301   3.032   3.793  16.304 -1.0739  2.2843  0.2996
   85MPD2    H1 1302   3.348   3.974  16.514 -0.7608  0.5723  0.1439
   85MPD2    H2 1303   3.169   3.657  16.688 -1.9404 -2.6027 -1.4291
   85MPD2    H3 1304   3.323   3.820  16.693 -0.5511 -0.6235  0.8681
   85MPD2     N 1305   3.189   3.996  16.288 -0.1952 -0.6562 -0.1864
   85MPD2    H5 1306   3.104   4.015  16.237 -0.8230 -1.1501  0.6616
   85MPD2    N1 1307   2.976   3.616  16.481 -0.1796 -0.7622  0.2410
   85MPD2    H7 1308   2.917   3.618  16.399  1.1933  1.8804 -0.7028
   86TCq2    C1 1309   3.293   4.083  16.264  0.3809 -0.0401  0.5175
   86TCq2    O2 1310   3.410   4.070  16.303 -0.0667 -0.2333 -0.0731
   86TCq2    C2 1311   3.254   4.192  16.171 -0.1306 -0.7356 -0.6161
   86TCq2    C3 1312   3.131   4.255  16.177 -0.3691 -0.0636  0.6268
   86TCq2    C4 1313   3.124   4.379  16.121 -0.0923 -0.5946 -0.1488
   86TCq2    C5 1314   3.224   4.431  16.052 -0.2415  0.1198  0.9591
   86TCq2    C6 1315   3.346   4.368  16.047  0.7078  0.3979  0.0212
   86TCq2    C7 1316   3.361   4.247  16.105  0.3891  0.1360 -0.3694
   86TCq2    C8 1317   3.427   4.380  15.922  0.0571  0.2763  0.2069
   86TCq2    O4 1318   3.510   4.290  15.900 -0.4911  0.2366  0.1961
   86TCq2    C9 1319   2.996   4.444  16.132 -0.7078  0.0538 -0.1390
   86TCq2    O5 1320   3.009   4.572  16.143 -0.1397  0.0344  0.1042
   86TCq2    O6 1321   2.893   4.377  16.148 -0.1612  0.9669  0.3880
   86TCq2    H2 1322   3.048   4.218  16.237  0.8940 -2.7013  0.7409
   86TCq2    H3 1323   3.207   4.529  16.008  0.9431 -0.6438 -1.2119
   86TCq2    H4 1324   3.454   4.193  16.099  0.9700  1.0703  0.0917
   87MPD2     C 1325   0.337   2.719   0.447  0.3078  0.0763  0.7861
   87MPD2    C1 1326   0.243   2.685   0.540 -0.5011  0.0244  0.0087
   87MPD2    C2 1327   0.115   2.714   0.519 -0.5664 -0.6275  0.2452
   87MPD2    C3 1328   0.081   2.797   0.413  0.6158 -0.1467 -0.1484
   87MPD2    C4 1329   0.173   2.825   0.313 -0.3432 -0.2311 -0.1880
   87MPD2    C5 1330   0.299   2.767   0.324 -0.1976  0.1598  0.4496
   87MPD2     H 1331   0.042   2.684   0.594 -0.7242  0.0115  0.3472
   87MPD2    H1 1332   0.151   2.891   0.231  0.1830 -0.2951 -0.3815
   87MPD2    H2 1333   0.443   2.699   0.461  0.1299 -1.7016 -0.4164
   87MPD2    H3 1334   0.368   2.770   0.241 -0.6362  1.6692  0.1518
   87MPD2     N 1335   4.676   2.833   0.382  0.0370 -0.1615 -0.3049
   87MPD2    H5 1336   4.654   2.879   0.295 -0.6575 -0.2720 -0.1907
   87MPD2    N1 1337   0.292   2.617   0.654 -0.6443  0.2445  0.8289
   87MPD2    H7 1338   0.392   2.604   0.662 -0.3995  0.7624 -1.3069
   88TCq2    C1 1339   0.218   2.568   0.760  0.0496  0.0312 -0.2269
   88TCq2    O2 1340   0.102   2.595   0.790  0.5909  0.3285  0.6598
   88TCq2    C2 1341   0.292   2.471   0.845 -0.3912 -0.1182  0.2939
   88TCq2    C3 1342   0.227   2.436   0.963 -0.5048 -0.4455 -0.2454
   88TCq2    C4 1343   0.302   2.373   1.055 -0.2581 -0.7589  0.3055
   88TCq2    C5 1344   0.427   2.318   1.018  0.2273 -1.0944 -0.4355
   88TCq2    C6 1345   0.479   2.348   0.896  1.3986 -0.5370  0.1451
   88TCq2    C7 1346   0.417   2.430   0.808  0.2316 -0.4483  0.1119
   88TCq2    C8 1347   0.595   2.283   0.851 -0.3746 -0.5814  0.2140
   88TCq2    O4 1348   0.667   2.340   0.769 -0.4111 -0.3065  0.6008
   88TCq2    C9 1349   0.242   2.349   1.182  0.0493  0.1811  1.0535
   88TCq2    O5 1350   0.324   2.315   1.274  0.0540 -0.5496  0.5176
   88TCq2    O6 1351   0.121   2.378   1.201 -0.1186  0.5656 -0.4400
   88TCq2    H2 1352   0.131   2.479   0.988  0.2825  0.3969  1.3467
   88TCq2    H3 1353   0.472   2.261   1.098 -0.7178  0.4442  1.1870
   88TCq2    H4 1354   0.470   2.446   0.714  0.2223  2.4781  0.6039
   89MPD2     C 1355   1.666   3.947   2.400  0.1990 -0.3471 -0.0526
   89MPD2    C1 1356   1.607   4.054   2.341 -0.2398  0.0624 -0.3668
   89MPD2    C2 1357   1.690   4.154   2.287 -0.9097 -0.0486  0.5338
   89MPD2    C3 1358   1.827   4.145   2.274 -0.7619 -0.2706  0.2737
   89MPD2    C4 1359   1.878   4.030   2.335  1.1988  0.2786  0.1744
   89MPD2    C5 1360   1.801   3.933   2.391  0.1642 -0.5393 -0.7971
   89MPD2     H 1361   1.642   4.240   2.244 -1.9305 -1.0292 -0.2997
   89MPD2    H1 1362   1.983   4.007   2.339  1.0958 -0.0475  1.0063
   89MPD2    H2 1363   1.599   3.875   2.445 -2.0920  0.9901 -1.3276
   89MPD2    H3 1364   1.858   3.852   2.436  0.5881 -0.3998 -1.0804
   89MPD2     N 1365   1.901   4.250   2.210  0.1204  0.1932 -0.7960
   89MPD2    H5 1366   1.849   4.333   2.184 -0.4418  0.5346  1.4373
   89MPD2    N1 1367   1.466   4.071   2.334 -0.4429  0.3986 -0.3396
   89MPD2    H7 1368   1.432   4.156   2.291  0.0165  0.4223 -0.6462
   90TCq2    C1 1369   2.036   4.249   2.197 -0.4611  0.2381  0.6559
   90TCq2    O2 1370   2.117   4.167   2.239  0.7357  0.1550  0.0647
   90TCq2    C2 1371   2.086   4.369   2.129  0.0026 -0.1859 -0.1178
   90TCq2    C3 1372   2.019   4.423   2.024  0.7828 -0.4341 -0.0210
   90TCq2    C4 1373   2.082   4.526   1.955 -0.3115 -0.3381  0.1734
   90TCq2    C5 1374   2.219   4.555   1.982 -0.3273  0.5996  0.0055
   90TCq2    C6 1375   2.278   4.490   2.090 -0.0687  0.1558 -0.0246
   90TCq2    C7 1376   2.216   4.385   2.154  0.0886  0.0867  0.2635
   90TCq2    C8 1377   2.415   4.524   2.124  0.0464 -0.0201  0.4782
   90TCq2    O4 1378   2.471   4.469   2.215 -0.2470  0.2598  0.1753
   90TCq2    C9 1379   2.013   4.608   1.865  0.2349 -0.5440  0.7621
   90TCq2    O5 1380   2.075   4.693   1.803 -0.5872  0.1025 -0.0402
   90TCq2    O6 1381   1.898   4.574   1.832  0.5875 -0.1771  0.4826
   90TCq2    H2 1382   1.913   4.407   2.012  0.8600 -0.9066 -0.1063
   90TCq2    H3 1383   2.255   4.646   1.936 -0.5789  0.6990  0.0089
   90TCq2    H4 1384   2.253   4.345   2.248  0.5412 -2.4463 -0.9758
   91TMC2    C1 1385   2.787   0.134  16.105 -0.6115 -0.3783  0.2898
   91TMC2    C2 1386   2.849   0.084  16.214  0.2631 -0.5157  0.6868
   91TMC2    C3 1387   2.782   0.086  16.332 -0.2210 -0.1030 -0.2020
   91TMC2    C4 1388   2.650   0.167  16.107 -0.1351 -0.9004  0.4995
   91TMC2    C5 1389   2.589   0.149  16.224 -0.0945 -0.0982  0.1396
   91TMC2    C6 1390   2.646   0.122  16.346  0.4359 -0.2159  0.0390
   91TMC2     C 1391   2.861   0.163  15.989  0.4233  0.1099  0.1861
   91TMC2     O 1392   2.805   0.235  15.910  0.0922 -0.1755  0.4858
   91TMC2     H 1393   2.956   0.066  16.216  0.2272 -0.7532  0.5028
   91TMC2    H1 1394   2.603   0.203  16.016  0.6789 -0.5069  0.2366
   91TMC2    H2 1395   2.587   0.118  16.437  1.1735 -1.4227  0.4645
   91TMC2    C7 1396   2.459   0.213  16.225  0.0297 -0.2952 -0.6098
   91TMC2    C8 1397   2.845   0.012  16.448 -0.6139  0.5694 -0.1351
   91TMC2    O1 1398   2.437   0.260  16.336 -0.3876 -0.0820 -0.7912
   91TMC2    O2 1399   2.805   0.006  16.562 -0.6055 -0.5112  0.6449
   91TMC2    O5 1400   2.924   4.637  16.387 -0.2672 -0.5425  0.3308
   91TMC2    H5 1401   2.922   4.628  16.289  1.0637 -3.9207  0.5892
   92MPD2     C 1402   3.086   0.283  15.831 -0.1160 -0.7780  0.3536
   92MPD2    C1 1403   3.098   0.179  15.914 -0.1936  0.4376 -0.0066
   92MPD2    C2 1404   3.228   0.141  15.944  0.1443  0.0284  0.4995
   92MPD2    C3 1405   3.335   0.213  15.892 -0.2899 -0.6290 -0.0600
   92MPD2    C4 1406   3.320   0.315  15.810 -0.2689 -0.4395  0.5739
   92MPD2    C5 1407   3.194   0.347  15.775 -0.4705  0.0191 -0.4925
   92MPD2     H 1408   3.241   0.073  16.027  0.3624  1.5527  1.6882
   92MPD2    H1 1409   3.410   0.369  15.783 -0.3250 -0.7323 -0.2059
   92MPD2    H2 1410   2.984   0.303  15.801  0.1848  1.6890  1.0048
   92MPD2    H3 1411   3.171   0.426  15.705 -3.5188  0.5829  1.1329
   92MPD2     N 1412   3.466   0.182  15.920  0.1157  0.5263  0.1942
   92MPD2    H5 1413   3.538   0.249  15.893 -2.6253  2.1093 -3.2202
   92MPD2    N1 1414   2.994   0.119  15.994  0.8499 -0.3559 -0.1498
   92MPD2    H7 1415   3.013   0.036  16.049 -1.8895  0.2222  1.6613
   93MPD2     C 1416   4.344   0.224  13.977  0.1882 -0.2916 -0.4728
   93MPD2    C1 1417   4.350   0.159  13.849 -0.2087  0.6293  0.8875
   93MPD2    C2 1418   4.234   0.111  13.797 -0.7812  0.4765 -0.6255
   93MPD2    C3 1419   4.115   0.125  13.865 -0.3055 -0.5752 -1.0536
   93MPD2    C4 1420   4.110   0.200  13.981  0.7131  0.1600  0.8750
   93MPD2    C5 1421   4.220   0.254  14.035 -0.3200  0.3577  0.2430
   93MPD2     H 1422   4.256   0.049  13.711 -1.5647 -0.6039 -0.0471
   93MPD2    H1 1423   4.015   0.232  14.024  0.0034  0.5131 -0.9766
   93MPD2    H2 1424   4.427   0.267  14.032 -0.8915 -0.6958  1.4342
   93MPD2    H3 1425   4.222   0.316  14.124 -0.8807  0.4283  0.2074
   93MPD2     N 1426   3.988   0.076  13.817 -0.4994  0.0822 -0.1414
   93MPD2    H5 1427   3.904   0.103  13.867 -1.4544 -3.3120  0.0863
   93MPD2    N1 1428   4.472   0.120  13.786  0.2463  0.1284 -0.1629
   93MPD2    H7 1429   4.472   0.033  13.733 -1.5115  0.1295 -0.1382
   94TCq2    C1 1430   4.593   0.166  13.831  0.0342  0.0865 -0.3458
   94TCq2    O2 1431   4.634   0.243  13.919  0.3656  0.6364  0.0200
   94TCq2    C2 1432   4.709   0.091  13.771 -0.0328  0.0052 -0.1006
   94TCq2    C3 1433   4.680   4.714  13.681 -0.2245  0.4147 -0.5787
   94TCq2    C4 1434   0.058   4.664  13.599 -0.1608 -0.2855  0.1020
   94TCq2    C5 1435   0.185   4.710  13.613 -0.4630  0.4846 -0.1029
   94TCq2    C6 1436   0.212   0.092  13.704  0.0811 -0.0786 -0.0846
   94TCq2    C7 1437   0.111   0.145  13.780  0.1443  0.0603  0.0106
   94TCq2    C8 1438   0.341   0.146  13.696  0.2167  0.1140 -0.1468
   94TCq2    O4 1439   0.415   0.087  13.619  0.2956 -0.5614 -0.2642
   94TCq2    C9 1440   0.037   4.550  13.514 -0.5250  0.1306 -0.5794
   94TCq2    O5 1441   0.139   4.483  13.478  0.2513  0.1332  0.5655
   94TCq2    O6 1442   4.639   4.540  13.465  0.1402  0.7849 -0.3859
   94TCq2    H2 1443   4.587   4.659  13.681 -0.1276  0.2571  2.2865
   94TCq2    H3 1444   0.257   4.679  13.538 -1.0605  0.7452 -0.7834
   94TCq2    H4 1445   0.135   0.224  13.851  2.9070  0.0067 -0.9052
   95TMC2    C1 1446   0.629   1.578  15.742  0.3895 -0.1418  0.2092
   95TMC2    C2 1447   0.649   1.452  15.792 -0.4226 -1.0096 -1.0785
   95TMC2    C3 1448   0.605   1.432  15.914 -0.6430  0.1973  0.6865
   95TMC2    C4 1449   0.564   1.675  15.806 -0.6009 -0.2474  0.6592
   95TMC2    C5 1450   0.530   1.653  15.936  0.2995  0.5100  0.2336
   95TMC2    C6 1451   0.550   1.529  15.990  0.1260 -0.6518  0.8604
   95TMC2     C 1452   0.665   1.606  15.602  0.0431  0.0953  0.1006
   95TMC2     O 1453   0.646   1.722  15.557  0.1004 -0.3203  0.0917
   95TMC2     H 1454   0.699   1.374  15.735  2.6591 -1.1871  1.9114
   95TMC2    H1 1455   0.552   1.774  15.764  1.6899  0.4243  1.5895
   95TMC2    H2 1456   0.487   1.488  16.068 -2.1726  0.9635 -0.1202
   95TMC2    C7 1457   0.521   1.767  16.029  0.0456 -0.7933 -0.8553
   95TMC2    C8 1458   0.600   1.288  15.943  0.2999  0.2910 -0.2242
   95TMC2    O1 1459   0.548   1.877  15.987  0.3013 -0.1096 -0.4512
   95TMC2    O2 1460   0.617   1.202  15.857 -0.1744  0.0890  0.2004
   95TMC2    O5 1461   0.639   1.278  16.070 -0.3890  0.0039 -0.8020
   95TMC2    H5 1462   0.627   1.360  16.123 -0.4329 -0.4241 -0.1467
   96MPD2     C 1463   0.865   1.481  15.146  0.2079  0.4115  0.1336
   96MPD2    C1 1464   0.847   1.605  15.206 -0.1678 -0.6341 -0.8063
   96MPD2    C2 1465   0.801   1.611  15.332 -0.2113  0.7040 -0.6965
   96MPD2    C3 1466   0.764   1.496  15.398 -0.2679 -0.0462  0.0973
   96MPD2    C4 1467   0.800   1.376  15.345  0.4474 -0.2624 -1.0450
   96MPD2    C5 1468   0.847   1.368  15.219  0.1472  0.3008 -0.3587
   96MPD2     H 1469   0.793   1.708  15.380 -0.0071  0.5884 -0.4291
   96MPD2    H1 1470   0.785   1.277  15.387 -0.8022  0.5099  0.3168
   96MPD2    H2 1471   0.886   1.470  15.040  2.9616 -2.3825  0.9814
   96MPD2    H3 1472   0.876   1.273  15.175  0.1244  1.2845 -2.5017
   96MPD2     N 1473   0.717   1.499  15.529 -0.4627 -0.7443  0.0683
   96MPD2    H5 1474   0.717   1.416  15.588 -2.1301 -1.5146 -1.0106
   96MPD2    N1 1475   0.870   1.718  15.122 -0.1058 -0.2705 -0.0838
   96MPD2    H7 1476   0.899   1.702  15.026  0.9113  2.5271 -0.2408
   97MPD2     C 1477   2.878   3.586   1.424 -0.2711  0.6713 -0.3332
   97MPD2    C1 1478   2.742   3.577   1.399  0.5872 -0.5394  0.7736
   97MPD2    C2 1479   2.703   3.587   1.266  0.2274  0.5265  0.3652
   97MPD2    C3 1480   2.793   3.613   1.164  0.4307  0.2650 -0.0237
   97MPD2    C4 1481   2.932   3.608   1.198  0.3556  0.2566 -0.1157
   97MPD2    C5 1482   2.971   3.598   1.325 -0.9182  0.2072  0.6318
   97MPD2     H 1483   2.598   3.574   1.243  0.0514 -1.3222  2.2081
   97MPD2    H1 1484   3.003   3.606   1.116 -2.1371  3.0073 -2.3529
   97MPD2    H2 1485   2.919   3.575   1.523  1.6186 -1.2476 -1.3405
   97MPD2    H3 1486   3.078   3.603   1.343 -0.7131  3.7126 -1.5086
   97MPD2     N 1487   2.757   3.640   1.028 -0.2290 -0.4954 -0.3217
   97MPD2    H5 1488   2.831   3.665   0.963  0.1270 -1.2751 -0.2183
   97MPD2    N1 1489   2.652   3.566   1.509 -0.1705  0.0521  0.5835
   97MPD2    H7 1490   2.693   3.555   1.601  0.6376 -3.3892 -0.1848
   98TCq2    C1 1491   2.627   3.644   0.980 -0.1342 -0.2645 -0.1448
   98TCq2    O2 1492   2.517   3.630   1.024  0.3026 -0.5649 -0.2912
   98TCq2    C2 1493   2.628   3.661   0.834 -0.1867  0.2412  1.1161
   98TCq2    C3 1494   2.502   3.636   0.770  1.2017 -0.9470  0.0036
   98TCq2    C4 1495   2.489   3.693   0.644  0.2178  0.0883 -0.3621
   98TCq2    C5 1496   2.592   3.757   0.581  0.0743  0.6433  0.0707
   98TCq2    C6 1497   2.706   3.773   0.644 -0.1718  0.1684 -0.2884
   98TCq2    C7 1498   2.727   3.730   0.772  1.3333  1.0460 -0.2319
   98TCq2    C8 1499   2.801   3.871   0.595  0.0316 -0.6296  0.2441
   98TCq2    O4 1500   2.889   3.910   0.671 -0.2607  0.2305 -0.5226
   98TCq2    C9 1501   2.363   3.670   0.570 -0.1202 -0.1511  0.1287
   98TCq2    O5 1502   2.368   3.621   0.454 -0.0921 -0.8463  0.6494
   98TCq2    O6 1503   2.266   3.662   0.651  0.2505  0.2824 -0.0442
   98TCq2    H2 1504   2.424   3.575   0.813 -0.3682 -0.0354 -1.5669
   98TCq2    H3 1505   2.573   3.802   0.484 -0.0741  0.1288 -0.1375
   98TCq2    H4 1506   2.817   3.754   0.828  1.1076  0.3856  0.4161
   99MPD2     C 1507   0.835   0.913   1.572 -0.1999  0.5374 -0.6474
   99MPD2    C1 1508   0.939   0.939   1.663 -0.5668  0.2315  0.2468
   99MPD2    C2 1509   1.066   0.888   1.636  0.4155  0.3613 -0.3493
   99MPD2    C3 1510   1.082   0.808   1.521 -0.0267  0.1732  0.0357
   99MPD2    C4 1511   0.972   0.782   1.436 -0.9574 -0.1580  0.1367
   99MPD2    C5 1512   0.851   0.830   1.465  0.4073  1.1462  0.0334
   99MPD2     H 1513   1.147   0.903   1.706  0.2691  1.0301 -0.3288
   99MPD2    H1 1514   0.987   0.710   1.356  0.1176  1.7347 -1.3572
   99MPD2    H2 1515   0.730   0.933   1.589  0.1232  1.1811  0.6205
   99MPD2    H3 1516   0.760   0.805   1.412  1.3972 -0.3246 -0.9841
   99MPD2     N 1517   1.219   0.767   1.480 -0.4954 -0.4012 -0.3160
   99MPD2    H5 1518   1.298   0.812   1.526 -0.5415  0.4313 -1.0435
   99MPD2    N1 1519   0.924   1.012   1.782  0.0484 -0.3939  0.4128
   99MPD2    H7 1520   1.008   1.045   1.829 -1.2388  1.2112  1.5779
  100TCq2    C1 1521   0.800   1.072   1.818  0.0524  0.2830 -0.8973
  100TCq2    O2 1522   0.694   1.084   1.758 -0.2052 -0.0091 -0.0510
  100TCq2    C2 1523   0.805   1.126   1.953  0.0016 -0.8264 -0.3312
  100TCq2    C3 1524   0.911   1.108   2.038  1.1266 -0.2663  0.5189
  100TCq2    C4 1525   0.902   1.161   2.171 -0.1744  0.3399  0.2540
  100TCq2    C5 1526   0.793   1.225   2.221 -1.3605  0.2637 -0.1174
  100TCq2    C6 1527   0.688   1.236   2.135  0.7152 -0.0135  0.0786
  100TCq2    C7 1528   0.688   1.183   2.005 -0.1488 -0.4694  0.0441
  100TCq2    C8 1529   0.586   1.317   2.187 -0.0162 -0.6736  0.3192
  100TCq2    O4 1530   0.593   1.361   2.300  0.6685  0.1565 -0.0122
  100TCq2    C9 1531   1.023   1.137   2.255  0.1800 -0.4854 -0.2011
  100TCq2    O5 1532   1.123   1.078   2.202 -0.3413 -0.3311  0.0109
  100TCq2    O6 1533   1.019   1.178   2.379  0.4142  0.9301 -0.1332
  100TCq2    H2 1534   0.993   1.042   2.013  1.5857 -0.1294  1.6518
  100TCq2    H3 1535   0.793   1.253   2.326  0.7508  0.6428 -0.2097
  100TCq2    H4 1536   0.613   1.203   1.930  0.6353 -2.5985 -1.3158
  101MPD2     C 1537   1.871   2.311  12.626 -0.4409 -0.0193 -0.5273
  101MPD2    C1 1538   1.804   2.402  12.708 -0.3615  0.1774 -0.4783
  101MPD2    C2 1539   1.706   2.357  12.791  0.5842 -0.3314  0.0046
  101MPD2    C3 1540   1.678   2.220  12.802 -0.4008 -0.0356 -0.2145
  101MPD2    C4 1541   1.746   2.133  12.722  0.2204  0.3178 -0.0320
  101MPD2    C5 1542   1.846   2.175  12.633 -0.3606 -0.9329  0.0035
  101MPD2     H 1543   1.651   2.422  12.859 -0.4859  1.4604 -2.5597
  101MPD2    H1 1544   1.732   2.026  12.721 -0.4852  0.4118  0.2236
  101MPD2    H2 1545   1.944   2.333  12.549 -0.7174 -0.1852 -0.8395
  101MPD2    H3 1546   1.892   2.100  12.570  0.3417  0.0660 -0.6709
  101MPD2     N 1547   1.565   2.185  12.875 -0.4860  0.3288 -0.7999
  101MPD2    H5 1548   1.500   2.257  12.903 -0.8905 -0.5933  0.6115
  101MPD2    N1 1549   1.825   2.539  12.668 -0.1384 -0.0326 -0.0893
  101MPD2    H7 1550   1.904   2.548  12.604 -0.0900  1.9037  0.2209
  102TCq2    C1 1551   1.968   2.910  12.366 -0.6179  1.0138 -0.7604
  102TCq2    O2 1552   2.080   2.885  12.410  0.4177 -0.2248 -0.4497
  102TCq2    C2 1553   1.856   2.891  12.461  0.6889 -0.3768  0.0277
  102TCq2    C3 1554   1.746   2.977  12.464  0.6352 -0.1707  0.0540
  102TCq2    C4 1555   1.643   2.954  12.555  0.5555 -0.8287 -0.5499
  102TCq2    C5 1556   1.648   2.847  12.643  0.0359  0.2721  0.0166
  102TCq2    C6 1557   1.765   2.774  12.643 -0.1495  0.2342  0.0983
  102TCq2    C7 1558   1.866   2.798  12.560 -0.1546  0.0674  0.6156
  102TCq2    C8 1559   1.740   2.640  12.703  0.4260 -0.5358 -0.1419
  102TCq2    O4 1560   1.638   2.627  12.769  0.3081 -0.4911  0.1732
  102TCq2    C9 1561   1.525   3.035  12.551 -0.5301  0.6075 -0.2016
  102TCq2    O5 1562   1.476   3.083  12.658  0.0891 -0.3772 -0.5918
  102TCq2    O6 1563   1.489   3.094  12.446  0.2116  0.7074 -0.2155
  102TCq2    H2 1564   1.740   3.073  12.414  0.2903  0.0185  0.4583
  102TCq2    H3 1565   1.565   2.831  12.711  1.5462 -1.2251  1.4951
  102TCq2    H4 1566   1.949   2.729  12.557 -0.8415 -0.7216 -0.6954
  103TMC2    C1 1567   0.388   2.807  13.296  0.7552 -0.1868 -0.2145
  103TMC2    C2 1568   0.459   2.893  13.380 -0.0150  1.1517 -0.0676
  103TMC2    C3 1569   0.409   2.936  13.496  0.1137 -0.2215 -0.1158
  103TMC2    C4 1570   0.269   2.757  13.340  0.2838 -0.1211 -0.1967
  103TMC2    C5 1571   0.214   2.817  13.452 -0.0662 -0.2155 -0.1742
  103TMC2    C6 1572   0.284   2.898  13.538  0.1209 -0.1340 -0.2939
  103TMC2     C 1573   0.401   2.823  13.156 -0.6935 -0.3806 -0.3230
  103TMC2     O 1574   0.347   2.736  13.088  0.0771  0.3334 -0.3599
  103TMC2     H 1575   0.560   2.919  13.351 -0.0092  1.6715  0.4257
  103TMC2    H1 1576   0.200   2.694  13.285 -1.1893 -0.3693  1.9557
  103TMC2    H2 1577   0.253   2.946  13.630  1.3317 -1.0399  0.5773
  103TMC2    C7 1578   0.075   2.779  13.488  0.1118 -0.9007 -0.8081
  103TMC2    C8 1579   0.496   3.008  13.590  0.0516  0.3692  0.3168
  103TMC2    O1 1580   0.003   2.725  13.404  0.3641  0.8814  0.5973
  103TMC2    O2 1581   0.619   3.017  13.565 -0.0251  0.2455 -0.0585
  103TMC2    O5 1582   0.415   3.098  13.654 -0.0244 -0.4084 -0.5503
  103TMC2    H5 1583   0.327   3.116  13.614 -1.2493 -0.9660  1.8645
  104MPD2     C 1584   0.489   3.130  12.963  0.0602 -0.4387 -0.0307
  104MPD2    C1 1585   0.450   3.000  12.988  0.4165 -1.0200  0.3300
  104MPD2    C2 1586   0.437   2.919  12.874  0.0774 -0.4318  0.3433
  104MPD2    C3 1587   0.462   2.964  12.749  0.1433  0.7864 -0.2149
  104MPD2    C4 1588   0.503   3.096  12.726  0.0466  0.3860  0.5858
  104MPD2    C5 1589   0.512   3.175  12.837  0.7422 -0.2236  0.5991
  104MPD2     H 1590   0.399   2.819  12.889  0.5945 -0.0336  4.2605
  104MPD2    H1 1591   0.521   3.132  12.625  1.9479 -1.0740  0.4261
  104MPD2    H2 1592   0.510   3.202  13.042  0.9498 -0.8882  0.1479
  104MPD2    H3 1593   0.524   3.283  12.832  1.3600 -0.2390  1.6850
  104MPD2     N 1594   0.433   2.882  12.635 -0.3802  0.4508 -0.0123
  104MPD2    H5 1595   0.386   2.792  12.647 -1.1598  0.9795  0.9363
  104MPD2    N1 1596   0.443   2.949  13.123  0.8875 -0.2403 -0.3956
  104MPD2    H7 1597   0.475   3.016  13.193 -0.6117 -0.0119  0.0663
  105MPD2     C 1598   1.839   1.734   0.025 -0.0198 -0.1915 -0.2495
  105MPD2    C1 1599   1.790   1.858  17.684  0.7685  0.4021 -0.1265
  105MPD2    C2 1600   1.706   1.908   0.090 -0.4792 -0.3208  0.4375
  105MPD2    C3 1601   1.672   1.847   0.210  0.0718 -0.2886  0.5436
  105MPD2    C4 1602   1.732   1.729   0.239 -0.1325  1.0122 -0.5175
  105MPD2    C5 1603   1.815   1.672   0.146 -0.3065 -0.9297 -0.4734
  105MPD2     H 1604   1.664   2.007   0.076  0.3688 -0.0469 -0.1223
  105MPD2    H1 1605   1.711   1.669   0.327  0.1973 -1.6062 -2.2611
  105MPD2    H2 1606   1.920   1.692  17.653  0.3118  3.1882 -2.2122
  105MPD2    H3 1607   1.859   1.575   0.167 -0.7281 -0.9664  0.2415
  105MPD2     N 1608   1.592   1.919   0.303  0.5525 -0.2296  0.3506
  105MPD2    H5 1609   1.577   2.016   0.276  0.9064 -0.0093  0.9290
  105MPD2    N1 1610   1.825   1.929  17.563 -0.1174  0.1064  0.7543
  105MPD2    H7 1611   1.779   2.019  17.553 -0.7540 -0.6171 -2.8501
  106TCq2    C1 1612   1.526   1.865   0.414  0.5600 -0.9507 -0.0603
  106TCq2    O2 1613   1.507   1.750   0.447 -0.4810 -0.5727 -0.2623
  106TCq2    C2 1614   1.448   1.961   0.485  0.6096 -0.4373 -0.3347
  106TCq2    C3 1615   1.451   2.096   0.447 -0.3418 -0.7609  0.4534
  106TCq2    C4 1616   1.348   2.170   0.492 -0.0829 -0.5047  0.2120
  106TCq2    C5 1617   1.249   2.126   0.581  0.3178  0.2065 -0.7036
  106TCq2    C6 1618   1.252   1.992   0.618 -0.3811  0.1492 -0.2396
  106TCq2    C7 1619   1.351   1.912   0.565 -0.4397  1.3156 -0.0388
  106TCq2    C8 1620   1.154   1.937   0.706  0.3650 -0.1250  0.3584
  106TCq2    O4 1621   1.174   1.829   0.761 -0.1850  0.5010  0.1536
  106TCq2    C9 1622   1.359   2.317   0.472  0.0213  0.0983 -0.2570
  106TCq2    O5 1623   1.280   2.389   0.536  0.6673  0.2738 -0.3263
  106TCq2    O6 1624   1.462   2.360   0.412  0.0533 -0.6373 -0.0747
  106TCq2    H2 1625   1.536   2.135   0.393 -1.2256 -3.0090 -2.5542
  106TCq2    H3 1626   1.162   2.187   0.604 -0.9031 -1.9000  0.3082
  106TCq2    H4 1627   1.346   1.806   0.587 -0.3138  1.0221 -1.4816
  107TMC2    C1 1628   2.367   0.788  11.386 -0.0464  0.2886  0.3830
  107TMC2    C2 1629   2.319   0.662  11.402 -0.3854 -1.0549  0.1523
  107TMC2    C3 1630   2.365   0.572  11.306 -0.6924  0.4509  0.6133
  107TMC2    C4 1631   2.444   0.827  11.276  0.2951  0.0161 -0.7355
  107TMC2    C5 1632   2.493   0.730  11.198  0.2132 -0.4732 -0.6665
  107TMC2    C6 1633   2.464   0.603  11.223  0.7685 -0.4524  0.8192
  107TMC2     C 1634   2.287   0.887  11.457 -0.3996  0.5226  0.4975
  107TMC2     O 1635   2.241   0.855  11.561  0.0654  0.4602  0.1660
  107TMC2     H 1636   2.266   0.624  11.489  1.2831  1.4063  2.2254
  107TMC2    H1 1637   2.487   0.926  11.276  1.5182 -0.5165 -0.0046
  107TMC2    H2 1638   2.523   0.526  11.175 -1.8004 -2.1166  0.3150
  107TMC2    C7 1639   2.615   0.761  11.139 -0.0513 -0.5696 -0.5969
  107TMC2    C8 1640   2.359   0.432  11.340 -0.4834 -0.0566 -0.4570
  107TMC2    O1 1641   2.691   0.843  11.194  0.3825 -0.2929 -0.4585
  107TMC2    O2 1642   2.450   0.368  11.382  0.2266 -0.1115  0.0729
  107TMC2    O5 1643   2.229   0.420  11.367 -0.1167  0.0836 -0.3430
  107TMC2    H5 1644   2.172   0.485  11.321  0.4753  0.4869 -0.5049
  108MPD2     C 1645   2.183   1.223  11.333 -0.0003  0.5807  0.0868
  108MPD2    C1 1646   2.175   1.115  11.411  0.4432 -0.1288 -0.3123
  108MPD2    C2 1647   2.098   1.122  11.520  0.0811 -0.1795  0.0977
  108MPD2    C3 1648   2.014   1.226  11.543  0.4552 -0.1448 -0.1200
  108MPD2    C4 1649   2.027   1.341  11.467 -0.0220  0.3786 -0.3423
  108MPD2    C5 1650   2.120   1.338  11.366 -0.3505 -0.0516 -0.0994
  108MPD2     H 1651   2.093   1.026  11.570  1.2855 -0.1858  0.2111
  108MPD2    H1 1652   1.966   1.429  11.482 -0.1067  0.2625  0.0023
  108MPD2    H2 1653   2.250   1.228  11.248 -1.2255  0.0061 -0.9047
  108MPD2    H3 1654   2.134   1.429  11.308  0.6924 -1.0356 -1.3879
  108MPD2     N 1655   1.914   1.230  11.631  0.3628 -0.0303  0.8665
  108MPD2    H5 1656   1.884   1.327  11.630  3.0876  0.8204  1.0446
  108MPD2    N1 1657   2.269   1.006  11.386 -0.3096  1.0085  0.1139
  108MPD2    H7 1658   2.321   1.008  11.299  0.7649  0.5106  0.7545
  109MPD2     C 1659   2.290   2.212   2.387 -0.4560 -0.3002  0.2587
  109MPD2    C1 1660   2.250   2.343   2.359  0.2058 -0.5758  0.1615
  109MPD2    C2 1661   2.353   2.445   2.346  0.6255 -0.0576  0.6452
  109MPD2    C3 1662   2.484   2.401   2.349  0.0739 -0.5662  0.6647
  109MPD2    C4 1663   2.509   2.272   2.396  0.6091  0.6974 -0.0918
  109MPD2    C5 1664   2.413   2.177   2.415 -0.1933  0.1281  0.0798
  109MPD2     H 1665   2.323   2.543   2.308 -0.2333 -1.6154 -2.7654
  109MPD2    H1 1666   2.613   2.241   2.402  0.6424  0.7219 -0.5979
  109MPD2    H2 1667   2.216   2.132   2.392 -0.4597 -0.4436 -2.2640
  109MPD2    H3 1668   2.439   2.074   2.436 -1.2687 -0.3201 -0.7716
  109MPD2     N 1669   2.581   2.494   2.310  0.2089 -0.2923  0.5334
  109MPD2    H5 1670   2.547   2.589   2.301 -1.6951 -0.9648  0.7482
  109MPD2    N1 1671   2.112   2.356   2.338  0.0570  0.2720  0.5395
  109MPD2    H7 1672   2.048   2.278   2.337 -0.4768  0.7154 -0.3532
  110TCq2    C1 1673   2.712   2.463   2.298 -0.6825  0.2203 -0.1234
  110TCq2    O2 1674   2.767   2.354   2.319 -0.4678  0.4047  0.7011
  110TCq2    C2 1675   2.793   2.576   2.243 -0.1965  0.1820 -0.5457
  110TCq2    C3 1676   2.912   2.538   2.194  0.3956  0.1716 -0.2976
  110TCq2    C4 1677   2.993   2.634   2.131  0.2650  0.0644 -0.3441
  110TCq2    C5 1678   2.957   2.762   2.128  0.4281 -0.5349  0.4628
  110TCq2    C6 1679   2.830   2.795   2.174 -0.1908 -0.1612  0.2059
  110TCq2    C7 1680   2.745   2.704   2.228 -0.5955 -0.6901 -0.6018
  110TCq2    C8 1681   2.784   2.929   2.137 -0.6769 -0.3168 -0.0105
  110TCq2    O4 1682   2.856   3.000   2.072 -0.3397 -0.0330 -0.2141
  110TCq2    C9 1683   3.108   2.597   2.056 -0.9601  0.2754  0.4271
  110TCq2    O5 1684   3.187   2.691   2.027 -0.3592  0.2084  0.1512
  110TCq2    O6 1685   3.147   2.481   2.067 -0.4438 -0.4268  0.3642
  110TCq2    H2 1686   2.945   2.435   2.202  0.3263  0.3049  1.6199
  110TCq2    H3 1687   3.016   2.830   2.069 -0.9679  2.0751  2.0917
  110TCq2    H4 1688   2.641   2.727   2.246 -0.5524  0.1724 -1.4505
  111TMC2    C1 1689   2.542   3.082  10.935 -0.2846  0.0090  0.3733
  111TMC2    C2 1690   2.624   3.101  10.828  0.2930 -0.7373  0.0568
  111TMC2    C3 1691   2.754   3.117  10.860 -0.4058 -0.5827  0.7073
  111TMC2    C4 1692   2.573   3.079  11.071 -0.1514 -0.0268  0.2968
  111TMC2    C5 1693   2.701   3.100  11.086  0.9759 -0.2912 -0.4823
  111TMC2    C6 1694   2.792   3.113  10.988 -0.0614  1.1914  0.0000
  111TMC2     C 1695   2.404   3.091  10.901  0.0727  0.5251 -0.0893
  111TMC2     O 1696   2.374   3.104  10.783 -0.1585  0.6270  0.1019
  111TMC2     H 1697   2.590   3.127  10.728 -0.0959  0.7650  0.5720
  111TMC2    H1 1698   2.503   3.065  11.153 -0.7789 -0.8265 -0.3682
  111TMC2    H2 1699   2.898   3.128  11.001 -0.1188  1.2818  0.3610
  111TMC2    C7 1700   2.739   3.113  11.224 -0.0527 -0.5348  0.7934
  111TMC2    C8 1701   2.849   3.166  10.759  0.2761  0.1081 -0.6456
  111TMC2    O1 1702   2.690   3.030  11.305  0.9676  0.3285  0.1475
  111TMC2    O2 1703   2.838   3.128  10.641  0.0515 -0.3515  0.2914
  111TMC2    O5 1704   2.900   3.285  10.796  0.3323  0.5937  0.2517
  111TMC2    H5 1705   2.883   3.322  10.886 -1.0706  0.0083  0.2216
  112MPD2     C 1706   1.909   3.221  11.009  0.9843  0.4932  0.4021
  112MPD2    C1 1707   1.977   3.219  10.889  0.1565  0.4454  1.3422
  112MPD2    C2 1708   2.114   3.183  10.890 -0.1305  0.0006 -0.2057
  112MPD2    C3 1709   2.181   3.147  11.009 -0.3727  0.6711  0.1094
  112MPD2    C4 1710   2.108   3.153  11.122  0.3388  0.4457  1.1686
  112MPD2    C5 1711   1.979   3.193  11.126 -0.1011 -0.1725  0.1245
  112MPD2     H 1712   2.172   3.191  10.798 -1.4409  0.1812 -1.0110
  112MPD2    H1 1713   2.165   3.139  11.213  0.0911  0.3408  1.3083
  112MPD2    H2 1714   1.807   3.256  11.008  0.2450 -1.7127 -2.3872
  112MPD2    H3 1715   1.928   3.211  11.220  1.3542 -0.3658  0.9594
  112MPD2     N 1716   2.317   3.111  11.010 -0.0680 -0.0118  0.5894
  112MPD2    H5 1717   2.348   3.087  11.103 -0.7696 -0.8464  0.6081
  112MPD2    N1 1718   1.910   3.250  10.769 -0.3044  0.4923  0.4561
  112MPD2    H7 1719   1.959   3.238  10.681 -0.5552  0.2714  0.3484
  113MPD2     C 1720   0.700   1.434   1.047  0.5233 -0.1038 -0.4778
  113MPD2    C1 1721   0.578   1.423   1.110 -0.6197 -0.5414  0.1788
  113MPD2    C2 1722   0.459   1.410   1.033 -0.4503 -0.2244 -0.3527
  113MPD2    C3 1723   0.464   1.402   0.897 -0.7229  0.2064  0.1425
  113MPD2    C4 1724   0.587   1.424   0.838 -0.6176 -0.6330 -0.3069
  113MPD2    C5 1725   0.696   1.444   0.913  0.2577  1.3762  0.6942
  113MPD2     H 1726   0.366   1.400   1.088  1.7719 -1.1833  3.2552
  113MPD2    H1 1727   0.609   1.407   0.733 -1.5985 -0.9504 -0.4615
  113MPD2    H2 1728   0.794   1.448   1.098  1.2971 -1.9201 -1.4063
  113MPD2    H3 1729   0.787   1.466   0.858 -0.5205 -0.0837 -1.1862
  113MPD2     N 1730   0.347   1.376   0.819 -0.2303  0.7317 -0.0290
  113MPD2    H5 1731   0.351   1.377   0.717  4.5962 -0.5211  0.1419
  113MPD2    N1 1732   0.566   1.419   1.253  0.6289  0.6148 -0.3105
  113MPD2    H7 1733   0.476   1.393   1.293  0.9655  1.8550  1.2156
  114TCq2    C1 1734   0.229   1.331   0.877 -0.4062 -0.4813 -0.7238
  114TCq2    O2 1735   0.199   1.300   0.988 -0.0183 -0.1057  0.1076
  114TCq2    C2 1736   0.120   1.322   0.781  0.4372  0.1876  0.4398
  114TCq2    C3 1737   0.096   1.416   0.688 -0.3597  0.0250  1.1149
  114TCq2    C4 1738   4.687   1.434   0.644 -0.5114  0.5448 -0.5431
  114TCq2    C5 1739   4.585   1.364   0.689  0.0225 -0.3196  0.6021
  114TCq2    C6 1740   4.609   1.268   0.780 -0.3748  0.3004 -0.6713
  114TCq2    C7 1741   0.020   1.246   0.830 -0.3428 -0.0321  0.4225
  114TCq2    C8 1742   4.505   1.241   0.872  0.3515  0.0134  0.3522
  114TCq2    O4 1743   4.411   1.321   0.864 -0.5745 -0.0530  0.9353
  114TCq2    C9 1744   4.668   1.537   0.541  0.4658  1.1904  0.3330
  114TCq2    O5 1745   4.559   1.546   0.475  0.8689  0.2472 -0.0123
  114TCq2    O6 1746   0.050   1.604   0.523 -0.6504 -0.1131 -0.1946
  114TCq2    H2 1747   0.178   1.479   0.655 -0.9793  0.1348 -0.2552
  114TCq2    H3 1748   4.482   1.383   0.660  0.4618  1.5846  0.3168
  114TCq2    H4 1749   0.045   1.178   0.910  2.6840 -0.0382 -0.5476
  115TMC2    C1 1750   0.662   4.059   0.071  0.7280  0.2422 -0.2749
  115TMC2    C2 1751   0.724   4.074   0.190 -0.2478  0.2489  0.1457
  115TMC2    C3 1752   0.738   4.199   0.247  0.0873  0.5697 -0.0845
  115TMC2    C4 1753   0.631   4.168  17.678 -0.2756  0.3302 -0.3262
  115TMC2    C5 1754   0.663   4.290   0.043  0.7072  0.3390  0.3171
  115TMC2    C6 1755   0.706   4.312   0.170 -0.7397 -0.1691  0.4243
  115TMC2     C 1756   0.636   3.921   0.027 -0.4582 -0.2820  0.0089
  115TMC2     O 1757   0.550   3.910  17.625  0.3048 -0.1895  0.5942
  115TMC2     H 1758   0.737   3.995   0.264  0.2879  0.3945  0.2081
  115TMC2    H1 1759   0.599   4.156  17.575 -2.4923  0.9125  0.2877
  115TMC2    H2 1760   0.721   4.416   0.196 -1.1845 -0.3133  1.2691
  115TMC2    C7 1761   0.622   4.414  17.661 -0.8563  0.4615  0.1621
  115TMC2    C8 1762   0.808   4.206   0.376 -0.5853 -0.0149  0.4333
  115TMC2    O1 1763   0.574   4.507   0.041 -0.6050  0.4427  0.2949
  115TMC2    O2 1764   0.884   4.119   0.421 -0.8344 -0.3720 -0.0081
  115TMC2    O5 1765   0.810   4.332   0.424  0.2207 -0.3681  0.2305
  115TMC2    H5 1766   0.731   4.382   0.392 -0.1274  0.4452  2.4005
  116MPD2     C 1767   0.764   3.412   0.022 -0.5255  0.1140 -0.2218
  116MPD2    C1 1768   0.670   3.482  17.632 -0.3685 -0.4508  0.7746
  116MPD2    C2 1769   0.649   3.617  17.656 -0.7040 -0.2098  0.5020
  116MPD2    C3 1770   0.713   3.685   0.074 -0.0989 -0.0158  0.4320
  116MPD2    C4 1771   0.798   3.612   0.153  0.1482 -0.0870 -0.1837
  116MPD2    C5 1772   0.818   3.477   0.131 -0.1458  0.3958 -0.1077
  116MPD2     H 1773   0.578   3.667  17.591  0.7010  2.2848  0.8688
  116MPD2    H1 1774   0.849   3.659   0.237 -0.7448 -0.3490  0.5022
  116MPD2    H2 1775   0.795   3.312  17.685 -0.6769  0.5858 -2.3299
  116MPD2    H3 1776   0.889   3.429   0.197 -0.2287 -0.0858 -0.3711
  116MPD2     N 1777   0.709   3.826   0.096  0.6284 -0.6525  0.4805
  116MPD2    H5 1778   0.780   3.869   0.154  1.2552  0.0994 -0.8467
  116MPD2    N1 1779   0.608   3.410  17.530 -0.2047 -0.3718 -0.4595
  116MPD2    H7 1780   0.639   3.316  17.508  0.1774 -0.8966  2.2988
  117TMC2    C1 1781   3.935   0.515  13.881  0.6096 -0.1691 -0.1337
  117TMC2    C2 1782   4.052   0.472  13.828 -0.1346 -0.2930  0.0752
  117TMC2    C3 1783   4.169   0.545  13.847  0.5857 -0.4690 -0.1607
  117TMC2    C4 1784   3.925   0.638  13.951 -0.2533  0.2263 -1.0004
  117TMC2    C5 1785   4.051   0.705  13.970  0.0840  0.6161 -0.2351
  117TMC2    C6 1786   4.165   0.662  13.915  0.0048 -0.4915 -0.0140
  117TMC2     C 1787   3.815   0.433  13.856 -0.8753 -0.8701 -0.0899
  117TMC2     O 1788   3.822   0.348  13.769 -0.0982 -1.1936  0.4780
  117TMC2     H 1789   4.057   0.379  13.773 -1.3506 -0.2131 -0.1680
  117TMC2    H1 1790   3.836   0.688  13.986  0.0862  0.5263 -0.5565
  117TMC2    H2 1791   4.262   0.707  13.929 -0.9298  1.9568 -1.3870
  117TMC2    C7 1792   4.046   0.831  14.049  0.7635 -0.1319 -0.4259
  117TMC2    C8 1793   4.291   0.510  13.774  0.1677  0.4871 -0.1671
  117TMC2    O1 1794   4.152   0.889  14.056 -0.4078  0.2495 -0.1945
  117TMC2    O2 1795   4.403   0.537  13.804 -0.2035  0.4132  0.0855
  117TMC2    O5 1796   4.256   0.472  13.646 -0.1762  0.6039  0.2275
  117TMC2    H5 1797   4.161   0.459  13.627  0.2560  0.8524 -2.1384
  118MPD2     C 1798   3.761   0.925  14.263 -0.4077 -0.3658 -0.3971
  118MPD2    C1 1799   3.885   0.932  14.211  0.6022  0.8347 -1.3004
  118MPD2    C2 1800   3.947   1.058  14.203  0.4140 -0.0996  0.2919
  118MPD2    C3 1801   3.894   1.174  14.266 -0.4991 -0.1086  0.0279
  118MPD2    C4 1802   3.772   1.158  14.332 -0.3507  0.3412  0.3259
  118MPD2    C5 1803   3.701   1.041  14.311 -0.2187  0.6876  0.4933
  118MPD2     H 1804   4.047   1.062  14.160 -0.2353 -0.3091 -1.2539
  118MPD2    H1 1805   3.724   1.244  14.377  0.2562  0.0852  1.4707
  118MPD2    H2 1806   3.711   0.829  14.267  3.0994 -2.0685  2.4296
  118MPD2    H3 1807   3.598   1.030  14.342 -0.7688  1.5716 -0.9959
  118MPD2     N 1808   3.951   1.305  14.257 -0.0914  0.1976 -0.8922
  118MPD2    H5 1809   3.894   1.377  14.299 -2.7048 -1.7210 -1.1891
  118MPD2    N1 1810   3.929   0.829  14.128 -0.3005  0.1871 -0.4109
  118MPD2    H7 1811   3.869   0.747  14.123 -0.0272  0.0430 -1.2855
  119MPD2     C 1812   2.823   1.863  13.659  0.9731  0.2087  0.5153
  119MPD2    C1 1813   2.741   1.974  13.683 -0.1678  0.4148 -0.0513
  119MPD2    C2 1814   2.685   2.040  13.577 -0.0951  0.1953 -0.0512
  119MPD2    C3 1815   2.701   1.997  13.447  0.3336 -0.3322 -0.4408
  119MPD2    C4 1816   2.779   1.884  13.433 -0.3699 -0.7280  0.3254
  119MPD2    C5 1817   2.838   1.819  13.534 -0.1532 -0.4596 -0.3781
  119MPD2     H 1818   2.623   2.127  13.595  0.5055  0.4868  0.5964
  119MPD2    H1 1819   2.780   1.841  13.334  1.5637 -1.1464  0.5265
  119MPD2    H2 1820   2.884   1.822  13.739 -0.7203 -0.8599  1.2599
  119MPD2    H3 1821   2.904   1.735  13.517  0.4589 -0.7071  3.2591
  119MPD2     N 1822   2.638   2.059  13.340 -0.3946  0.2999  0.3305
  119MPD2    H5 1823   2.660   2.029  13.246 -0.8076  0.8119  0.0694
  119MPD2    N1 1824   2.712   2.024  13.819 -0.3657 -0.1849 -0.0864
  119MPD2    H7 1825   2.737   1.961  13.894 -0.2775 -0.9364 -0.7412
  120TCq2    C1 1826   2.549   2.159  13.340  0.4428 -0.0425  0.7434
  120TCq2    O2 1827   2.494   2.209  13.440 -0.1612 -0.3102  0.7113
  120TCq2    C2 1828   2.491   2.176  13.209 -0.2198 -0.4766 -0.6248
  120TCq2    C3 1829   2.541   2.112  13.100  0.2135  0.4306  1.0551
  120TCq2    C4 1830   2.461   2.099  12.990  0.0315 -0.4142  0.2217
  120TCq2    C5 1831   2.340   2.152  12.979 -0.0353 -0.2312 -0.4360
  120TCq2    C6 1832   2.304   2.222  13.090  0.1786  0.0757  0.1445
  120TCq2    C7 1833   2.365   2.225  13.212 -0.6533  0.6574  0.3321
  120TCq2    C8 1834   2.159   2.222  13.105 -0.6971  0.0147 -0.3670
  120TCq2    O4 1835   2.091   2.233  13.007 -0.5159 -0.5905  0.5730
  120TCq2    C9 1836   2.509   2.026  12.875  0.5968  1.0116 -0.0010
  120TCq2    O5 1837   2.627   1.981  12.878  0.3407 -0.0253 -0.0485
  120TCq2    O6 1838   2.443   2.040  12.769  1.0970 -0.0728  0.4556
  120TCq2    H2 1839   2.641   2.072  13.089 -0.7349 -1.9597  1.2339
  120TCq2    H3 1840   2.280   2.154  12.889 -2.0244 -0.9111  0.8806
  120TCq2    H4 1841   2.340   2.297  13.289 -2.4515  0.6695 -0.2715
  121TMC2    C1 1842   3.860   3.879  13.955 -0.2816 -0.4006  0.5613
  121TMC2    C2 1843   3.833   3.843  14.082 -0.3635  0.5209  0.2682
  121TMC2    C3 1844   3.743   3.751  14.107  0.6212 -0.1156 -0.6695
  121TMC2    C4 1845   3.799   3.818  13.847  0.2518  0.3535 -0.2308
  121TMC2    C5 1846   3.715   3.719  13.879 -0.6985  0.4879  0.7317
  121TMC2    C6 1847   3.684   3.685  14.005 -0.2453 -0.0092 -0.1592
  121TMC2     C 1848   3.979   3.959  13.942  1.0064 -0.0118 -0.1786
  121TMC2     O 1849   4.023   4.007  14.045 -0.2934 -0.3229 -0.2739
  121TMC2     H 1850   3.873   3.906  14.160  2.6065 -0.1866 -0.6964
  121TMC2    H1 1851   3.814   3.837  13.741 -1.5487  0.2228 -0.5126
  121TMC2    H2 1852   3.603   3.620  14.036  0.3535 -1.1201 -0.9448
  121TMC2    C7 1853   3.626   3.667  13.781 -0.9029 -0.0944 -0.1797
  121TMC2    C8 1854   3.684   3.733  14.243 -0.8390  0.5629 -0.4000
  121TMC2    O1 1855   3.597   3.739  13.687 -0.3087  0.3418  0.2817
  121TMC2    O2 1856   3.562   3.727  14.253 -0.1320  0.1790  0.1723
  121TMC2    O5 1857   3.772   3.783  14.332 -0.0383  0.7603 -0.4312
  121TMC2    H5 1858   3.865   3.762  14.311  1.2737  4.4680  1.6647
  122MPD2     C 1859   4.192   4.139  13.843 -0.5854  0.8712  0.1876
  122MPD2    C1 1860   4.125   4.053  13.761 -0.1047 -0.8446  0.8259
  122MPD2    C2 1861   4.149   4.055  13.629 -0.0113  1.0285 -0.3162
  122MPD2    C3 1862   4.241   4.143  13.574  0.0898  0.4488  0.9922
  122MPD2    C4 1863   4.312   4.233  13.659 -0.6758  0.2992  1.2607
  122MPD2    C5 1864   4.283   4.232  13.797 -0.4915 -0.1059  0.3895
  122MPD2     H 1865   4.095   3.981  13.572 -1.5537  1.6208  0.3733
  122MPD2    H1 1866   4.401   4.289  13.631 -1.5525 -0.4107 -2.9125
  122MPD2    H2 1867   4.169   4.143  13.948  1.4047 -2.8458  0.7651
  122MPD2    H3 1868   4.339   4.295  13.865  0.1297 -2.2229  1.8286
  122MPD2     N 1869   4.287   4.138  13.439 -0.3330  0.1999 -0.1949
  122MPD2    H5 1870   4.354   4.210  13.412  0.6027 -0.5434  0.1538
  122MPD2    N1 1871   4.024   3.965  13.813  0.0914 -0.1539  0.2340
  122MPD2    H7 1872   3.976   3.918  13.736  1.9295 -0.9519 -0.4396
  123MPD2     C 1873   1.604   1.140   9.341  0.1395 -0.7844  0.9778
  123MPD2    C1 1874   1.729   1.116   9.394 -0.1780 -0.4544  0.1160
  123MPD2    C2 1875   1.839   1.172   9.333 -0.3382  0.7308  0.4562
  123MPD2    C3 1876   1.828   1.251   9.214  0.9892  0.0751  0.0927
  123MPD2    C4 1877   1.703   1.272   9.170  0.5555 -0.0963  0.5146
  123MPD2    C5 1878   1.592   1.219   9.226  0.9006  0.3503  0.1004
  123MPD2     H 1879   1.937   1.159   9.378 -0.8960 -1.6697  0.9735
  123MPD2    H1 1880   1.684   1.331   9.081  1.0789  1.5654  1.5018
  123MPD2    H2 1881   1.513   1.130   9.399  1.2440 -0.5732  2.7157
  123MPD2    H3 1882   1.491   1.241   9.192 -0.7249 -3.6898  2.3145
  123MPD2     N 1883   1.942   1.310   9.154  0.4885  0.0232 -0.2542
  123MPD2    H5 1884   2.030   1.297   9.202  0.8631  0.8690 -0.7179
  123MPD2    N1 1885   1.728   1.049   9.521 -0.5751 -0.0265  0.1117
  123MPD2    H7 1886   1.638   1.015   9.553 -0.6295 -0.3972 -0.4476
  124TCq2    C1 1887   1.940   1.382   9.042  0.8056 -0.1613 -0.2665
  124TCq2    O2 1888   1.859   1.370   8.947 -0.3030  0.1129 -0.1018
  124TCq2    C2 1889   2.074   1.432   9.013 -0.0635 -0.6827  0.4725
  124TCq2    C3 1890   2.102   1.452   8.882  0.0056  0.5826 -0.0418
  124TCq2    C4 1891   2.224   1.501   8.859 -0.2118  1.3697  0.5518
  124TCq2    C5 1892   2.319   1.528   8.954  0.1994  0.4295 -0.5159
  124TCq2    C6 1893   2.287   1.503   9.078 -0.1429  0.0024  0.2279
  124TCq2    C7 1894   2.166   1.455   9.110 -0.5663 -0.3878 -0.2088
  124TCq2    C8 1895   2.392   1.491   9.176 -0.2194  0.0925 -0.5791
  124TCq2    O4 1896   2.356   1.414   9.268 -0.2641  0.3683  0.0824
  124TCq2    C9 1897   2.251   1.530   8.720 -0.1499 -0.0301 -0.2190
  124TCq2    O5 1898   2.185   1.466   8.635 -0.4231  0.4746  0.7297
  124TCq2    O6 1899   2.344   1.616   8.698 -0.0076  0.6369  0.3709
  124TCq2    H2 1900   2.036   1.426   8.799  0.2127  2.9339 -0.9467
  124TCq2    H3 1901   2.420   1.558   8.928  0.4260  1.4777  1.5773
  124TCq2    H4 1902   2.128   1.445   9.211  0.6452  3.4751  0.6366
  125TMC2    C1 1903   3.267   1.760   9.254  0.1030 -0.4062  0.9774
  125TMC2    C2 1904   3.216   1.627   9.263  0.5213 -0.4412  0.7660
  125TMC2    C3 1905   3.108   1.600   9.180 -0.1111  0.0902  0.0360
  125TMC2    C4 1906   3.218   1.849   9.165  0.2606  0.1430 -0.1261
  125TMC2    C5 1907   3.114   1.811   9.080  0.1761  0.3548 -0.6499
  125TMC2    C6 1908   3.051   1.687   9.092  0.4274 -0.4353 -0.4869
  125TMC2     C 1909   3.345   1.802   9.373  0.1043  0.7549  0.5357
  125TMC2     O 1910   3.398   1.715   9.442  0.1461  0.4359 -0.3255
  125TMC2     H 1911   3.247   1.551   9.334  1.0073 -0.2549  0.7489
  125TMC2    H1 1912   3.241   1.954   9.177 -0.9230  0.2297  1.4067
  125TMC2    H2 1913   2.968   1.669   9.025  0.6939 -1.0132 -0.6649
  125TMC2    C7 1914   3.048   1.893   8.977  0.0604  0.7893  0.2984
  125TMC2    C8 1915   3.057   1.463   9.191  0.3422  0.2679  0.5566
  125TMC2    O1 1916   2.927   1.876   8.964 -0.2734 -0.2506  0.2787
  125TMC2    O2 1917   3.098   1.380   9.271  0.1686 -0.3998 -0.3893
  125TMC2    O5 1918   2.948   1.453   9.108  0.6912 -0.6785  0.1394
  125TMC2    H5 1919   2.914   1.361   9.101  1.4823 -0.7939 -2.1799
  126MPD1     C 1920   3.641   2.174   9.577  0.7176 -0.2083  0.0714
  126MPD1    C1 1921   3.573   2.229   9.470 -0.7590 -0.0812  0.5968
  126MPD1    C2 1922   3.482   2.147   9.403 -0.2184 -0.6958  0.1563
  126MPD1    C3 1923   3.475   2.009   9.438 -0.6107 -0.8620  0.7411
  126MPD1    C4 1924   3.558   1.952   9.532 -0.0172 -0.1620 -0.3765
  126MPD1    C5 1925   3.641   2.040   9.597  0.4222 -0.0233 -0.5563
  126MPD1     H 1926   3.415   2.188   9.328  3.1873 -0.8706 -2.9822
  126MPD1    H1 1927   3.556   1.846   9.555  0.6535  0.1396  1.0783
  126MPD1    H2 1928   3.716   2.235   9.628  1.4561 -0.6062 -0.5379
  126MPD1    H3 1929   3.708   2.001   9.672 -1.0850  0.9424  1.2977
  126MPD1     N 1930   3.374   1.935   9.372  0.0352 -0.1592  0.1497
  126MPD1    H5 1931   3.313   1.991   9.313 -2.0006 -0.7666  1.6519
  126MPD1    N1 1932   3.556   2.367   9.477  0.0378 -0.0893 -0.3028
  126MPD1    H6 1933   3.644   2.416   9.493  1.2492 -2.5947  0.7370
  126MPD1    H7 1934   3.502   2.411   9.403  1.8653 -0.4676 -1.8612
  127MPD2     C 1935   4.061   1.861   9.013 -0.1453  0.2625 -0.4226
  127MPD2    C1 1936   4.141   1.857   9.124 -0.8360  0.7275 -0.6910
  127MPD2    C2 1937   4.225   1.964   9.162  0.1608  0.5920 -1.0803
  127MPD2    C3 1938   4.214   2.082   9.086 -0.8105 -0.2764  0.4508
  127MPD2    C4 1939   4.121   2.087   8.986  0.5413 -0.4497  0.3338
  127MPD2    C5 1940   4.046   1.977   8.950  0.4660 -0.2400  0.3024
  127MPD2     H 1941   4.305   1.950   9.234 -1.4832 -0.3202  0.5699
  127MPD2    H1 1942   4.109   2.170   8.917 -0.6956 -1.1552 -0.3169
  127MPD2    H2 1943   4.003   1.773   8.989  0.4412 -0.5311  1.0526
  127MPD2    H3 1944   3.986   1.976   8.859 -0.5616  0.1733  0.9798
  127MPD2     N 1945   4.293   2.193   9.103 -0.2802  0.1659  0.3883
  127MPD2    H5 1946   4.262   2.274   9.051  0.5169 -0.4144 -0.9654
  127MPD2    N1 1947   4.140   1.733   9.182  0.2977 -0.1977 -0.4049
  127MPD2    H7 1948   4.069   1.675   9.138 -0.4043  0.4985 -0.1911
  128TCq2    C1 1949   4.217   1.696   9.291  0.2047 -0.1694 -0.4212
  128TCq2    O2 1950   4.274   1.768   9.366 -0.1499 -0.0249 -0.1962
  128TCq2    C2 1951   4.213   1.558   9.329  0.8664 -0.1524 -0.1466
  128TCq2    C3 1952   4.269   1.518   9.453  0.2229  0.0385 -0.1681
  128TCq2    C4 1953   4.265   1.384   9.492 -0.3801 -0.4876 -0.2350
  128TCq2    C5 1954   4.194   1.297   9.414  0.2678  0.0225 -0.0340
  128TCq2    C6 1955   4.129   1.345   9.302 -0.4119  0.2087 -0.1277
  128TCq2    C7 1956   4.154   1.466   9.249 -0.0518  0.2173  0.3697
  128TCq2    C8 1957   4.045   1.258   9.227  0.2004 -0.4533 -0.5769
  128TCq2    O4 1958   4.017   1.285   9.112 -0.2694 -0.1691  0.2437
  128TCq2    C9 1959   4.343   1.327   9.604  0.6228  0.3348 -0.2665
  128TCq2    O5 1960   4.306   1.211   9.634 -0.1418  0.6022 -0.0975
  128TCq2    O6 1961   4.420   1.406   9.665  0.0741 -0.4534 -0.1203
  128TCq2    H2 1962   4.321   1.595   9.508  1.0267  0.8313 -2.0126
  128TCq2    H3 1963   4.201   1.190   9.428  1.2555 -0.0414 -1.0344
  128TCq2    H4 1964   4.107   1.483   9.153  1.4687 -2.4441 -0.8425
  129MPD2     C 1965   2.456   3.211   1.325  0.1099 -0.6721 -0.4582
  129MPD2    C1 1966   2.551   3.173   1.423  0.1465 -0.6862 -0.1960
  129MPD2    C2 1967   2.685   3.181   1.411 -0.0298  1.1570 -0.1212
  129MPD2    C3 1968   2.726   3.238   1.290 -0.4910 -0.3393 -0.1926
  129MPD2    C4 1969   2.637   3.274   1.189  0.0430 -0.1307  0.2732
  129MPD2    C5 1970   2.503   3.254   1.209 -0.1213  0.1407  0.2784
  129MPD2     H 1971   2.758   3.150   1.485 -1.6925  2.8130  2.2053
  129MPD2    H1 1972   2.666   3.309   1.091 -1.9982  0.8953  0.0193
  129MPD2    H2 1973   2.349   3.205   1.335  0.0428  0.2395 -0.6221
  129MPD2    H3 1974   2.432   3.270   1.129 -0.2522  2.0607  0.7851
  129MPD2     N 1975   2.867   3.246   1.271  0.2133  0.6595  0.6506
  129MPD2    H5 1976   2.931   3.222   1.346 -1.6073  0.3161  2.0999
  129MPD2    N1 1977   2.498   3.143   1.551  0.8431  0.3851  0.8108
  129MPD2    H7 1978   2.560   3.110   1.624  0.2380 -2.0775  0.2156
  130TCq2    C1 1979   2.374   3.160   1.605  1.0411 -0.0011 -0.3754
  130TCq2    O2 1980   2.278   3.220   1.554 -0.3281  0.1434  0.4730
  130TCq2    C2 1981   2.350   3.115   1.742  0.2901  0.2911  0.8892
  130TCq2    C3 1982   2.240   3.162   1.803 -0.1449 -0.1824 -0.3586
  130TCq2    C4 1983   2.224   3.121   1.932  0.1000 -0.5651  0.0300
  130TCq2    C5 1984   2.302   3.025   1.997  0.0814  0.1913  0.1846
  130TCq2    C6 1985   2.403   2.968   1.920  0.5373  0.6661  0.8423
  130TCq2    C7 1986   2.431   3.021   1.795 -0.1028 -0.1916  0.6898
  130TCq2    C8 1987   2.458   2.834   1.953 -0.2417 -0.3884 -0.4950
  130TCq2    O4 1988   2.406   2.781   2.047 -0.0886 -0.1125 -0.1821
  130TCq2    C9 1989   2.123   3.192   2.006  0.1772 -0.6135 -0.6682
  130TCq2    O5 1990   2.073   3.291   1.952 -0.3229 -0.0694 -0.0046
  130TCq2    O6 1991   2.121   3.186   2.129 -0.4233 -0.1656  0.5296
  130TCq2    H2 1992   2.176   3.241   1.765 -0.1191  0.4317  0.8755
  130TCq2    H3 1993   2.273   2.992   2.096  0.2975 -0.6008 -0.0107
  130TCq2    H4 1994   2.510   2.975   1.737  0.8594  1.4904  0.6738
  131MPD2     C 1995   2.439   1.219  10.079 -0.0479  0.1350 -0.3034
  131MPD2    C1 1996   2.386   1.250   9.957  0.5372  0.3089  0.8392
  131MPD2    C2 1997   2.270   1.174   9.921 -0.3611  0.3318  0.1456
  131MPD2    C3 1998   2.207   1.088  10.002  0.5383  0.3423  0.1664
  131MPD2    C4 1999   2.272   1.053  10.121 -0.1415 -0.0245 -0.4989
  131MPD2    C5 2000   2.391   1.117  10.151 -0.1944  0.3281  0.2713
  131MPD2     H 2001   2.215   1.199   9.831  1.0646 -0.3815 -0.9385
  131MPD2    H1 2002   2.245   0.965  10.178  1.4026 -0.5126 -0.5098
  131MPD2    H2 2003   2.531   1.261  10.117 -0.0665  1.2092 -1.4425
  131MPD2    H3 2004   2.440   1.098  10.245 -0.4343  0.5496  0.4418
  131MPD2     N 2005   2.092   1.030   9.949 -0.4995 -0.4927 -0.1458
  131MPD2    H5 2006   2.062   1.053   9.855  1.3181 -1.2056 -0.9073
  131MPD2    N1 2007   2.439   1.343   9.871 -0.0284  0.3054 -0.2001
  131MPD2    H7 2008   2.522   1.388   9.908  0.5560 -0.8293 -0.1279
  132TCq2    C1 2009   2.428   1.812   9.526 -0.4616 -0.7863  0.1762
  132TCq2    O2 2010   2.308   1.815   9.542  0.2924  0.2414 -0.0507
  132TCq2    C2 2011   2.492   1.704   9.587 -0.3533 -0.1384 -0.1343
  132TCq2    C3 2012   2.625   1.710   9.612  0.1353 -0.4798 -0.1512
  132TCq2    C4 2013   2.681   1.609   9.692  0.0758 -0.1708 -0.4580
  132TCq2    C5 2014   2.604   1.496   9.719  0.6989 -0.3326 -0.1313
  132TCq2    C6 2015   2.470   1.494   9.691  0.7215  0.2497 -0.6777
  132TCq2    C7 2016   2.413   1.594   9.617 -0.2463 -0.3286  0.1126
  132TCq2    C8 2017   2.378   1.404   9.759  0.5172  0.1301 -0.7170
  132TCq2    O4 2018   2.260   1.409   9.730  0.4167 -0.2619  0.3354
  132TCq2    C9 2019   2.822   1.619   9.736 -0.0661  0.2757 -0.2146
  132TCq2    O5 2020   2.882   1.723   9.707  0.4187  0.3542  0.2549
  132TCq2    O6 2021   2.869   1.536   9.818 -0.2895  0.2414  0.0913
  132TCq2    H2 2022   2.683   1.799   9.590  1.6565 -0.9340  2.0092
  132TCq2    H3 2023   2.655   1.420   9.778  0.9973 -0.5066 -0.6125
  132TCq2    H4 2024   2.307   1.581   9.596 -0.2689  0.1608 -0.0880
  133MPD2     C 2025   1.476   1.594   8.967  0.3543  0.5662  0.4108
  133MPD2    C1 2026   1.423   1.713   8.909 -0.6442 -0.3668 -0.0238
  133MPD2    C2 2027   1.468   1.838   8.948  0.1576  0.3543 -0.2388
  133MPD2    C3 2028   1.562   1.858   9.043  0.2734  0.2090 -0.5107
  133MPD2    C4 2029   1.610   1.740   9.105 -0.8805 -0.3473 -0.0819
  133MPD2    C5 2030   1.572   1.613   9.062 -0.3059 -0.1680 -0.1804
  133MPD2     H 2031   1.419   1.920   8.897  0.5173 -0.1849 -1.4436
  133MPD2    H1 2032   1.686   1.740   9.183  0.0946 -0.7821 -1.0270
  133MPD2    H2 2033   1.463   1.501   8.913 -0.0703  0.4131  0.7891
  133MPD2    H3 2034   1.618   1.524   9.104  0.0509  0.2416  0.3062
  133MPD2     N 2035   1.608   1.988   9.084 -0.2486 -0.3306 -0.8097
  133MPD2    H5 2036   1.675   1.988   9.160  0.6802 -0.2947 -1.6153
  133MPD2    N1 2037   1.319   1.685   8.819 -0.6220 -0.6720 -0.1028
  133MPD2    H7 2038   1.298   1.589   8.793 -0.4935 -0.8692  0.5177
  134TCq2    C1 2039   1.236   1.784   8.765 -0.6384 -0.3565 -0.1348
  134TCq2    O2 2040   1.207   1.896   8.809  0.1075  0.2176  0.3128
  134TCq2    C2 2041   1.129   1.730   8.684  0.5790 -0.2554  0.1494
  134TCq2    C3 2042   1.155   1.622   8.597 -0.5780 -0.7354 -0.0084
  134TCq2    C4 2043   1.050   1.560   8.535 -0.1736 -0.3703 -0.1073
  134TCq2    C5 2044   0.924   1.592   8.571  0.7286 -0.7371  0.3099
  134TCq2    C6 2045   0.897   1.691   8.662  0.0094 -0.0817  0.1364
  134TCq2    C7 2046   0.996   1.763   8.715 -0.1721  0.4928 -0.0617
  134TCq2    C8 2047   0.764   1.700   8.715 -0.0153  0.0306 -0.2797
  134TCq2    O4 2048   0.724   1.812   8.745 -0.2938 -0.7143 -0.1790
  134TCq2    C9 2049   1.060   1.450   8.441 -1.0803 -0.1234 -0.1980
  134TCq2    O5 2050   1.180   1.433   8.399 -0.5543 -0.0830 -0.2430
  134TCq2    O6 2051   0.960   1.374   8.431 -0.3972 -0.2970 -0.3965
  134TCq2    H2 2052   1.255   1.582   8.591 -0.3485  0.6287 -4.7144
  134TCq2    H3 2053   0.844   1.534   8.526  1.9148  0.0372 -2.7445
  134TCq2    H4 2054   0.975   1.836   8.792 -3.2291 -1.7750  1.2198
  135MPD2     C 2055   4.125   3.588   9.006 -0.1258 -0.6050  0.6834
  135MPD2    C1 2056   4.003   3.528   9.002 -0.1652  0.1509 -0.3647
  135MPD2    C2 2057   3.997   3.405   8.940 -0.0128 -0.4660  0.5886
  135MPD2    C3 2058   4.108   3.348   8.882 -0.2523 -0.6742  0.1722
  135MPD2    C4 2059   4.230   3.409   8.885 -0.8538 -0.3086  0.1708
  135MPD2    C5 2060   4.237   3.527   8.949 -0.8272  0.1910  0.0023
  135MPD2     H 2061   3.906   3.346   8.942  0.3167 -0.9121  2.2825
  135MPD2    H1 2062   4.311   3.363   8.829 -1.6930 -0.0242 -1.2931
  135MPD2    H2 2063   4.139   3.681   9.060  0.6101 -1.3675  1.8061
  135MPD2    H3 2064   4.334   3.576   8.949 -0.4623 -0.5166 -0.2375
  135MPD2     N 2065   4.103   3.219   8.816 -0.5930  0.5555 -0.4265
  135MPD2    H5 2066   4.192   3.175   8.795 -1.7289 -1.5407 -0.8127
  135MPD2    N1 2067   3.886   3.585   9.052 -0.2823 -0.4036 -0.3641
  135MPD2    H7 2068   3.803   3.526   9.057  0.8233 -1.9379 -0.4549
  136TCq2    C1 2069   3.875   3.701   9.122  0.3127 -0.5529 -0.2441
  136TCq2    O2 2070   3.967   3.768   9.166 -0.0091  0.3087  0.0254
  136TCq2    C2 2071   3.742   3.723   9.179  0.8585 -0.2617  0.7152
  136TCq2    C3 2072   3.640   3.664   9.108 -0.7449 -0.2998 -0.0134
  136TCq2    C4 2073   3.531   3.626   9.176 -0.7291 -0.4148 -0.2087
  136TCq2    C5 2074   3.519   3.643   9.307  0.0196  0.1977 -1.0345
  136TCq2    C6 2075   3.623   3.709   9.372 -0.0404 -0.2619 -0.4735
  136TCq2    C7 2076   3.734   3.761   9.307  0.1336 -0.1495 -0.3957
  136TCq2    C8 2077   3.617   3.714   9.524  0.4302 -0.3050  0.1882
  136TCq2    O4 2078   3.667   3.816   9.577 -0.1531 -0.3854 -0.4125
  136TCq2    C9 2079   3.422   3.577   9.102  0.2660 -0.9683  0.8596
  136TCq2    O5 2080   3.321   3.537   9.164  0.0478 -0.2361  0.1974
  136TCq2    O6 2081   3.426   3.566   8.977  0.3260 -0.8567  0.0136
  136TCq2    H2 2082   3.648   3.659   9.000  0.5379 -0.2673  0.0837
  136TCq2    H3 2083   3.429   3.626   9.365 -1.0254  3.3411 -1.7401
  136TCq2    H4 2084   3.827   3.787   9.356 -0.4210 -0.3901  0.7927
  137MPD2     C 2085   3.791   1.569   9.671 -0.6460 -0.7198 -0.1994
  137MPD2    C1 2086   3.853   1.693   9.643  0.1221 -0.4505 -0.3875
  137MPD2    C2 2087   3.860   1.785   9.744  0.7966 -0.1642 -0.0912
  137MPD2    C3 2088   3.825   1.753   9.877 -0.2194  0.5125  1.1319
  137MPD2    C4 2089   3.765   1.633   9.906 -0.4464 -0.2197 -0.5174
  137MPD2    C5 2090   3.740   1.546   9.802 -0.2934 -0.5308  0.4624
  137MPD2     H 2091   3.913   1.878   9.727  0.7752 -0.1602 -0.1367
  137MPD2    H1 2092   3.712   1.606   9.996 -2.4582  0.4257 -1.5071
  137MPD2    H2 2093   3.777   1.487   9.601  1.4788 -0.9600 -0.3375
  137MPD2    H3 2094   3.675   1.462   9.820 -2.8724  1.0104 -1.7161
  137MPD2     N 2095   3.845   1.851   9.974  0.1262 -0.5880  0.2001
  137MPD2    H5 2096   3.888   1.934   9.936 -0.2170 -1.0253 -1.1449
  137MPD2    N1 2097   3.888   1.723   9.508  0.4247 -0.2442  0.0199
  137MPD2    H7 2098   3.845   1.662   9.439 -2.0750  0.9962  0.4866
  138TCq2    C1 2099   3.936   1.847   9.464 -0.3545  0.4574 -0.1305
  138TCq2    O2 2100   3.976   1.940   9.530  0.0093  0.0224 -0.2757
  138TCq2    C2 2101   3.883   1.889   9.334  0.1270  0.1150 -0.1378
  138TCq2    C3 2102   3.797   1.805   9.267  0.8017 -0.1939 -0.3404
  138TCq2    C4 2103   3.730   1.855   9.162 -0.8354  0.1061 -0.1868
  138TCq2    C5 2104   3.738   1.985   9.115 -0.1032  0.3685 -0.0051
  138TCq2    C6 2105   3.830   2.064   9.177 -0.0777 -1.0459  0.2320
  138TCq2    C7 2106   3.900   2.021   9.290 -0.4400  0.3524 -0.4466
  138TCq2    C8 2107   3.807   2.205   9.158 -0.4747  0.2872  0.4309
  138TCq2    O4 2108   3.907   2.274   9.181  0.3349 -0.0007 -0.6276
  138TCq2    C9 2109   3.652   1.759   9.085  0.2661 -0.3469 -0.6863
  138TCq2    O5 2110   3.668   1.634   9.099 -0.5342  0.4093  0.3568
  138TCq2    O6 2111   3.586   1.805   8.991 -0.0134  0.1822  0.1658
  138TCq2    H2 2112   3.799   1.699   9.290 -1.5374  0.0967  1.1673
  138TCq2    H3 2113   3.683   2.017   9.027 -1.8716  1.4575  1.5146
  138TCq2    H4 2114   3.958   2.094   9.345 -3.0793  1.8727  0.3262
  139TMC2    C1 2115   3.687   1.397  12.858  0.3378  0.2320  0.5562
  139TMC2    C2 2116   3.606   1.370  12.755  0.4249 -0.7844 -0.1623
  139TMC2    C3 2117   3.478   1.413  12.767 -0.4496  0.1144  0.1862
  139TMC2    C4 2118   3.638   1.437  12.978 -0.5835 -0.0668 -0.2917
  139TMC2    C5 2119   3.510   1.485  12.987 -0.2831  0.2761 -0.7356
  139TMC2    C6 2120   3.428   1.468  12.882  0.2614 -0.4241 -0.5288
  139TMC2     C 2121   3.820   1.345  12.847  0.2195  0.7364  0.1516
  139TMC2     O 2122   3.843   1.298  12.733 -0.7009  0.1346  0.0441
  139TMC2     H 2123   3.630   1.333  12.656  2.8391 -2.5306  1.1097
  139TMC2    H1 2124   3.708   1.451  13.060 -0.2471  0.2160 -0.6285
  139TMC2    H2 2125   3.322   1.493  12.883  0.3141 -0.2358  0.0826
  139TMC2    C7 2126   3.473   1.567  13.101  0.1227 -0.3844  0.0492
  139TMC2    C8 2127   3.388   1.349  12.687  0.4050  0.8552 -0.5402
  139TMC2    O1 2128   3.358   1.607  13.099  0.3698  0.0267  0.6328
  139TMC2    O2 2129   3.416   1.305  12.577  0.5403  0.4226 -0.1974
  139TMC2    O5 2130   3.319   1.262  12.765 -0.1289 -0.5362 -0.3693
  139TMC2    H5 2131   3.335   1.286  12.859 -1.4658  0.5045 -0.4150
  140MPD2     C 2132   4.146   1.385  13.019  0.1376 -0.5217 -0.6942
  140MPD2    C1 2133   4.043   1.325  12.959 -0.4538 -0.1689  0.2505
  140MPD2    C2 2134   4.056   1.199  12.902  1.0959  0.0740  0.1009
  140MPD2    C3 2135   4.181   1.139  12.906  0.5849  0.0327  0.4233
  140MPD2    C4 2136   4.289   1.201  12.969  0.7291 -0.0768  0.1074
  140MPD2    C5 2137   4.267   1.322  13.021  0.2606  0.3316 -0.1029
  140MPD2     H 2138   3.967   1.143  12.875  0.7116  1.3662 -1.3460
  140MPD2    H1 2139   4.389   1.160  12.964  1.1566  1.1768 -1.9477
  140MPD2    H2 2140   4.134   1.482  13.067  2.1293  0.2420 -1.7257
  140MPD2    H3 2141   4.357   1.369  13.059 -0.0728  0.2875  0.7319
  140MPD2     N 2142   4.186   1.008  12.864  0.3501  0.1685  0.3128
  140MPD2    H5 2143   4.094   0.973  12.839 -0.0476  1.9676 -0.6736
  140MPD2    N1 2144   3.916   1.390  12.939  0.1739  0.8211 -0.1894
  140MPD2    H7 2145   3.901   1.473  12.996 -0.5169  0.5819 -0.0264
  141TCq2    C1 2146   4.606   2.989  15.186  0.5831 -0.1855 -0.7125
  141TCq2    O2 2147   4.617   3.073  15.098 -0.5456  0.0141 -0.7795
  141TCq2    C2 2148   4.599   3.033  15.325  0.3516  0.0027  0.2375
  141TCq2    C3 2149   4.640   2.959  15.426 -0.4388  0.5806  0.3564
  141TCq2    C4 2150   4.655   3.011  15.552  0.0244  0.1225 -0.3006
  141TCq2    C5 2151   4.622   3.140  15.567  0.3673  0.3870  0.1295
  141TCq2    C6 2152   4.576   3.217  15.461 -0.0088 -0.5408  0.3691
  141TCq2    C7 2153   4.557   3.165  15.337  0.2353  0.8121 -0.0548
  141TCq2    C8 2154   4.575   3.363  15.465  0.1457 -0.2714 -0.8479
  141TCq2    O4 2155   4.567   3.424  15.569  0.0377  0.2428 -0.0812
  141TCq2    C9 2156   4.707   2.939  15.664  1.2056  0.8959  0.5989
  141TCq2    O5 2157   0.019   2.821  15.648  0.2407  0.3455 -0.0246
  141TCq2    O6 2158   4.680   2.988  15.777 -0.4032  0.3244 -0.3297
  141TCq2    H2 2159   4.687   2.862  15.412  2.6680  2.0884  0.2868
  141TCq2    H3 2160   4.639   3.190  15.662  0.9894  2.2335 -0.9608
  141TCq2    H4 2161   4.513   3.212  15.249 -1.0550 -0.4271 -0.0750
  142MPD2     C 2162   2.346   0.679  10.211  0.1000  0.3265 -0.5270
  142MPD2    C1 2163   2.314   0.689  10.077  0.0337 -0.5013 -0.0548
  142MPD2    C2 2164   2.398   0.765   9.996 -0.2017 -0.8035 -0.1543
  142MPD2    C3 2165   2.515   0.818  10.050 -0.1390  0.7605 -0.5624
  142MPD2    C4 2166   2.542   0.799  10.177  0.7452  0.1377  0.2441
  142MPD2    C5 2167   2.455   0.739  10.264 -0.2094  0.0602  0.1540
  142MPD2     H 2168   2.373   0.776   9.891  1.1268  2.1059 -0.1764
  142MPD2    H1 2169   2.637   0.822  10.224  1.5591 -2.8883  0.0699
  142MPD2    H2 2170   2.281   0.627  10.280  0.5295  1.0332  0.4203
  142MPD2    H3 2171   2.489   0.714  10.364 -2.7746 -1.3425  0.6824
  142MPD2     N 2172   2.607   0.895   9.969  0.2397 -0.6626  0.4532
  142MPD2    H5 2173   2.692   0.930  10.012  1.5944  0.6199 -3.1806
  142MPD2    N1 2174   2.190   0.627  10.033 -0.1789  0.2113  0.4863
  142MPD2    H7 2175   2.137   0.580  10.106  1.2623  0.2044  1.5400
  143TCq2    C1 2176   2.593   0.917   9.830 -0.4939 -0.7245 -0.4082
  143TCq2    O2 2177   2.501   0.888   9.755  0.6701 -0.1426 -0.5379
  143TCq2    C2 2178   2.709   0.982   9.770  0.5655 -0.0725  0.4169
  143TCq2    C3 2179   2.823   1.025   9.843 -0.6383  0.5687 -0.0107
  143TCq2    C4 2180   2.906   1.109   9.780  0.0250  0.3147 -0.3073
  143TCq2    C5 2181   2.890   1.153   9.658  0.0849  0.1830 -0.2387
  143TCq2    C6 2182   2.772   1.125   9.589 -0.4887 -0.4906 -0.2079
  143TCq2    C7 2183   2.690   1.034   9.645 -0.4039 -0.1367  0.5744
  143TCq2    C8 2184   2.720   1.226   9.499 -0.8425  0.2918  0.1968
  143TCq2    O4 2185   2.605   1.204   9.466 -0.4933 -0.2463 -0.3759
  143TCq2    C9 2186   3.026   1.146   9.857  0.1030 -0.3459  0.9189
  143TCq2    O5 2187   3.090   1.239   9.806  0.0804 -0.6844 -0.5188
  143TCq2    O6 2188   3.061   1.078   9.961 -0.9038 -0.6341 -0.3530
  143TCq2    H2 2189   2.840   0.995   9.946  0.6698  2.0814  0.2110
  143TCq2    H3 2190   2.967   1.218   9.617 -0.4550  0.4711 -0.7856
  143TCq2    H4 2191   2.602   1.016   9.583 -1.0879  2.0060  0.9126
  144MPD2     C 2192   4.620   1.093   0.379 -0.2203  0.0189  0.3903
  144MPD2    C1 2193   4.647   0.983   0.452 -0.1391  0.4035 -0.5453
  144MPD2    C2 2194   0.048   0.984   0.519 -0.8383  0.3651  0.3432
  144MPD2    C3 2195   0.132   1.090   0.521 -0.0591  1.0029  0.0101
  144MPD2    C4 2196   0.111   1.198   0.440  0.3426 -0.1944  0.3141
  144MPD2    C5 2197   4.712   1.202   0.371  0.4128 -0.6155  0.0061
  144MPD2     H 2198   0.074   0.891   0.569 -0.7458  0.2067 -0.0025
  144MPD2    H1 2199   0.183   1.279   0.428 -2.0676  1.9681  0.3102
  144MPD2    H2 2200   4.529   1.102   0.320  1.4409 -0.1966 -2.1890
  144MPD2    H3 2201   4.676   1.287   0.314 -0.6031 -0.9871  0.0779
  144MPD2     N 2202   0.255   1.096   0.592  0.5070  0.4169 -0.0134
  144MPD2    H5 2203   0.316   1.178   0.587  1.2817 -0.3121 -2.5676
  144MPD2    N1 2204   4.585   0.856   0.431  0.5674  0.4380  0.1427
  144MPD2    H7 2205   4.640   0.780   0.469  0.3333  0.7179  1.0498
  145TCq2    C1 2206   0.290   1.001   0.683  1.0397  0.0784  0.6143
  145TCq2    O2 2207   0.240   0.904   0.727 -0.2256 -0.0191  0.3689
  145TCq2    C2 2208   0.416   1.017   0.745 -0.0613  0.7806 -0.2335
  145TCq2    C3 2209   0.516   1.060   0.673  0.0047  1.2232 -0.0858
  145TCq2    C4 2210   0.635   1.078   0.735  0.8718 -0.0557  0.5940
  145TCq2    C5 2211   0.654   1.053   0.871 -0.7756  0.7314 -0.2214
  145TCq2    C6 2212   0.546   1.005   0.938  0.0462  0.0915  0.1201
  145TCq2    C7 2213   0.422   0.980   0.877  0.1399  0.8157  0.3526
  145TCq2    C8 2214   0.567   1.022   1.081  0.2868  0.1087  0.6746
  145TCq2    O4 2215   0.682   1.018   1.126  0.1996 -0.2364  0.0968
  145TCq2    C9 2216   0.752   1.120   0.656  0.0360 -0.0813  0.5567
  145TCq2    O5 2217   0.741   1.134   0.529 -0.1163 -0.1947 -0.1181
  145TCq2    O6 2218   0.863   1.101   0.708  0.4394  0.7027 -0.0484
  145TCq2    H2 2219   0.515   1.079   0.566  1.4319  1.2284 -0.0905
  145TCq2    H3 2220   0.757   1.063   0.901 -1.1063  1.5241  0.6225
  145TCq2    H4 2221   0.331   0.950   0.928  1.0999 -0.7070  1.1805
  146TMC2    C1 2222   1.194   3.598  13.219  0.7106 -0.7161  0.0792
  146TMC2    C2 2223   1.059   3.629  13.221 -0.8546 -1.0750 -0.6372
  146TMC2    C3 2224   1.009   3.691  13.111  1.1796  0.2143 -0.3126
  146TMC2    C4 2225   1.273   3.633  13.111 -0.0080  0.4829  0.3736
  146TMC2    C5 2226   1.215   3.677  12.999 -0.0564  0.2115 -0.4933
  146TMC2    C6 2227   1.086   3.718  13.000 -0.3266 -0.2166 -0.0309
  146TMC2     C 2228   1.249   3.560  13.350 -1.0205  0.1544 -0.4041
  146TMC2     O 2229   1.169   3.558  13.441 -0.0676 -0.1883  0.3754
  146TMC2     H 2230   0.996   3.617  13.308 -0.5079 -2.0881 -0.5333
  146TMC2    H1 2231   1.382   3.629  13.113  0.0699  1.8194 -1.0554
  146TMC2    H2 2232   1.038   3.768  12.916  0.9054  0.8964 -0.0634
  146TMC2    C7 2233   1.280   3.673  12.863 -0.2822  0.1941  0.2712
  146TMC2    C8 2234   0.862   3.678  13.090  0.6239 -0.5990 -0.3065
  146TMC2    O1 2235   1.223   3.732  12.773  0.1169  0.3944 -0.2334
  146TMC2    O2 2236   0.805   3.731  12.996  0.7779 -0.2371  0.0792
  146TMC2    O5 2237   0.845   3.549  13.120 -0.6372 -0.6031 -0.4834
  146TMC2    H5 2238   0.926   3.508  13.157  0.7605  2.8388  0.2170
  147MPD2     C 2239   1.576   3.474  12.484 -0.4364  0.5019 -0.7359
  147MPD2    C1 2240   1.632   3.439  12.603 -0.2158 -0.1887 -0.0380
  147MPD2    C2 2241   1.571   3.474  12.723  0.3542  0.1836  0.1084
  147MPD2    C3 2242   1.458   3.559  12.726  0.1035 -0.1364 -0.3677
  147MPD2    C4 2243   1.406   3.593  12.606 -0.2489 -0.0222 -0.5465
  147MPD2    C5 2244   1.467   3.558  12.488  0.3650 -0.0503 -1.0644
  147MPD2     H 2245   1.627   3.452  12.813 -0.3246  1.6443  0.8689
  147MPD2    H1 2246   1.323   3.661  12.598 -1.5526 -1.3601  1.7072
  147MPD2    H2 2247   1.621   3.461  12.386  2.1631 -1.6885  0.7336
  147MPD2    H3 2248   1.430   3.585  12.389  3.4279  2.4219 -1.5721
  147MPD2     N 2249   1.398   3.599  12.850 -0.0499  0.4057  0.3556
  147MPD2    H5 2250   1.439   3.559  12.934  2.8893 -1.4033 -1.9161
  147MPD2    N1 2251   1.743   3.353  12.585  0.9328  0.4812 -0.3923
  147MPD2    H7 2252   1.765   3.313  12.494 -1.8819  1.4880 -1.5196
  148MPD2     C 2253   2.069   2.736  10.367 -0.4947 -0.5742  0.1125
  148MPD2    C1 2254   2.081   2.744  10.228  0.2161 -0.0764  0.2619
  148MPD2    C2 2255   1.965   2.738  10.150 -0.2549 -0.9024  0.0177
  148MPD2    C3 2256   1.844   2.713  10.214 -0.2129 -0.5681 -0.8570
  148MPD2    C4 2257   1.838   2.686  10.349  0.1553 -0.6758  0.3086
  148MPD2    C5 2258   1.951   2.712  10.425  0.3467 -0.2712 -0.3566
  148MPD2     H 2259   1.978   2.748  10.043 -1.2847 -2.3079 -0.2419
  148MPD2    H1 2260   1.748   2.640  10.386  0.2340 -2.2768 -1.4687
  148MPD2    H2 2261   2.155   2.732  10.433  0.7258 -1.9623 -1.5730
  148MPD2    H3 2262   1.945   2.693  10.532 -0.1899  1.1580 -0.1291
  148MPD2     N 2263   1.732   2.675  10.141  0.7711 -0.3025 -0.4163
  148MPD2    H5 2264   1.673   2.606  10.188 -1.3840  0.7402 -1.5873
  148MPD2    N1 2265   2.204   2.744  10.158  0.2019  0.1129 -0.6907
  148MPD2    H7 2266   2.193   2.721  10.060  0.0734  1.6792 -1.0522
  149TCq2    C1 2267   2.330   2.740  10.212 -0.1960  0.4487 -0.2677
  149TCq2    O2 2268   2.371   2.792  10.317 -0.2928  0.2564  0.1056
  149TCq2    C2 2269   2.433   2.679  10.126 -0.2650 -0.7439 -0.6622
  149TCq2    C3 2270   2.564   2.694  10.168  0.0630 -0.4771 -0.4149
  149TCq2    C4 2271   2.664   2.628  10.100 -0.1261  0.2552  0.1952
  149TCq2    C5 2272   2.624   2.554   9.989  0.5514 -0.0079 -0.1926
  149TCq2    C6 2273   2.491   2.523   9.971  0.5517  0.2889 -0.2750
  149TCq2    C7 2274   2.392   2.589  10.033  0.2230  0.2741 -0.7610
  149TCq2    C8 2275   2.446   2.381   9.940  0.3033 -0.1359  0.4358
  149TCq2    O4 2276   2.324   2.357   9.936 -0.4021 -0.0003  0.5459
  149TCq2    C9 2277   2.804   2.682  10.097  0.3010  0.0913 -0.3130
  149TCq2    O5 2278   2.889   2.607  10.041  0.2288 -0.0257  0.4490
  149TCq2    O6 2279   2.832   2.782  10.172 -0.4500  0.3926 -0.1581
  149TCq2    H2 2280   2.593   2.768  10.242 -2.8070 -0.1308  0.3704
  149TCq2    H3 2281   2.695   2.503   9.925  1.0650  0.5334 -0.0571
  149TCq2    H4 2282   2.288   2.569  10.012  0.6219 -1.4362 -1.1609
  150MPD2     C 2283   3.518   1.571  11.915  0.3409  0.2739 -0.1818
  150MPD2    C1 2284   3.488   1.676  11.830  0.4016  0.8871  0.5951
  150MPD2    C2 2285   3.583   1.778  11.828 -0.2360 -0.1110  0.6040
  150MPD2    C3 2286   3.700   1.765  11.898  0.1260 -0.2119 -0.4123
  150MPD2    C4 2287   3.730   1.651  11.969 -0.3126 -0.0491 -0.0879
  150MPD2    C5 2288   3.634   1.552  11.984  0.4698  0.1177  0.5183
  150MPD2     H 2289   3.565   1.866  11.767 -0.6127  0.1522  1.0884
  150MPD2    H1 2290   3.815   1.642  12.035  0.1628  1.6798 -0.4581
  150MPD2    H2 2291   3.457   1.482  11.919  0.2456  0.2602 -1.9965
  150MPD2    H3 2292   3.648   1.462  12.044  2.3475  0.9363  1.3273
  150MPD2     N 2293   3.786   1.876  11.902  0.9855  0.7296  0.5864
  150MPD2    H5 2294   3.745   1.958  11.858  0.1447  0.6510  1.2402
  150MPD2    N1 2295   3.366   1.660  11.752 -0.1088  0.1366 -0.1876
  150MPD2    H7 2296   3.302   1.589  11.787 -0.5884  0.7596  0.2000
  151TCq2    C1 2297   3.895   1.890  11.982 -0.2663  1.0436 -0.2643
  151TCq2    O2 2298   3.949   1.809  12.056  0.5165  0.3306  0.2875
  151TCq2    C2 2299   3.959   2.017  11.972 -0.4565  0.1284  0.0277
  151TCq2    C3 2300   3.945   2.094  11.859  0.0846 -0.6028  0.3252
  151TCq2    C4 2301   4.015   2.213  11.859  0.1445 -0.3575  0.2246
  151TCq2    C5 2302   4.106   2.242  11.957 -0.2151  0.2261 -0.1619
  151TCq2    C6 2303   4.106   2.165  12.071  0.5922 -0.0720  0.8072
  151TCq2    C7 2304   4.042   2.040  12.074 -0.3896  0.2188  0.1637
  151TCq2    C8 2305   4.209   2.182  12.167  0.7842 -0.1634 -0.4852
  151TCq2    O4 2306   4.247   2.297  12.188 -0.0801  0.2769  0.6522
  151TCq2    C9 2307   4.008   2.291  11.737 -0.0965 -0.4040  0.1593
  151TCq2    O5 2308   3.967   2.238  11.630 -0.5530  0.2322 -0.4342
  151TCq2    O6 2309   4.057   2.404  11.740  0.1772 -0.4026  0.6396
  151TCq2    H2 2310   3.876   2.063  11.781 -0.3093  0.3027  0.3092
  151TCq2    H3 2311   4.169   2.330  11.950 -0.1529  0.2116  0.2096
  151TCq2    H4 2312   4.046   1.973  12.160 -1.2978  1.7699  1.4160
  152MPD2     C 2313   3.088   1.267  12.418 -0.2227 -0.5074  0.8704
  152MPD2    C1 2314   3.128   1.374  12.334 -0.7183 -0.0852  0.1500
  152MPD2    C2 2315   3.042   1.421  12.237 -0.2088 -0.5733  0.6147
  152MPD2    C3 2316   2.920   1.361  12.213 -0.5899  0.3323 -1.0982
  152MPD2    C4 2317   2.877   1.260  12.299  0.0942  0.7806 -0.0752
  152MPD2    C5 2318   2.961   1.220  12.401 -0.3781  0.5504 -0.2573
  152MPD2     H 2319   3.074   1.505  12.175 -1.7213  1.1595  2.1865
  152MPD2    H1 2320   2.782   1.210  12.282 -0.5160  0.7481  3.5910
  152MPD2    H2 2321   3.147   1.228  12.500  1.6833  0.7554  0.0847
  152MPD2    H3 2322   2.913   1.141  12.457 -1.6841  1.6496  0.1702
  152MPD2     N 2323   2.843   1.420  12.112  0.1132  0.1674  0.5325
  152MPD2    H5 2324   2.881   1.481  12.040 -1.4828 -0.8285 -1.1533
  152MPD2    N1 2325   3.269   1.406  12.345 -0.2143  0.3332  0.8207
  152MPD2    H7 2326   3.328   1.363  12.416 -1.1163 -5.7619 -2.0527
  153TCq2    C1 2327   3.334   1.502  12.282  0.3988  0.2273 -0.7231
  153TCq2    O2 2328   3.284   1.591  12.212 -0.0652 -0.4418  0.1512
  153TCq2    C2 2329   3.476   1.523  12.323  0.6774 -0.5771 -0.1561
  153TCq2    C3 2330   3.563   1.417  12.342 -0.2210  0.2156  0.0413
  153TCq2    C4 2331   3.695   1.446  12.344  0.1670  0.0699 -0.2858
  153TCq2    C5 2332   3.745   1.569  12.320 -0.2236  0.3596 -0.2298
  153TCq2    C6 2333   3.661   1.673  12.316  0.0711 -0.0071 -0.3048
  153TCq2    C7 2334   3.527   1.649  12.307 -0.5196 -0.0849  0.2016
  153TCq2    C8 2335   3.705   1.813  12.326  0.1309 -0.2119 -0.2154
  153TCq2    O4 2336   3.624   1.900  12.314  0.1452 -0.6714 -0.3475
  153TCq2    C9 2337   3.784   1.335  12.364 -0.1542  0.0357  0.5535
  153TCq2    O5 2338   3.904   1.365  12.366  0.2889 -0.0475 -0.2453
  153TCq2    O6 2339   3.734   1.227  12.405 -0.4638  0.3982  0.1216
  153TCq2    H2 2340   3.529   1.314  12.354  2.7757 -1.1185 -2.7241
  153TCq2    H3 2341   3.852   1.585  12.319 -0.4112  1.6873 -0.1670
  153TCq2    H4 2342   3.466   1.735  12.284 -1.9290 -0.6225  1.9462
  154MPD2     C 2343   0.508   2.188   0.449 -0.2613  0.3247 -0.3388
  154MPD2    C1 2344   0.521   2.079   0.528 -0.3258  0.0659 -0.1138
  154MPD2    C2 2345   0.427   2.056   0.628 -0.1990 -0.2624  0.8232
  154MPD2    C3 2346   0.319   2.144   0.649 -0.6216 -0.1280  0.0187
  154MPD2    C4 2347   0.313   2.255   0.568  0.2587  0.1080 -0.1071
  154MPD2    C5 2348   0.403   2.275   0.470  0.2730  0.4508  0.2951
  154MPD2     H 2349   0.438   1.973   0.697 -2.1005  0.6225  2.2090
  154MPD2    H1 2350   0.229   2.324   0.568  1.4684  1.5841 -2.3591
  154MPD2    H2 2351   0.576   2.220   0.372  1.2871 -1.9433  0.0814
  154MPD2    H3 2352   0.391   2.360   0.403  0.0536 -0.1784 -0.4647
  154MPD2     N 2353   0.218   2.115   0.748 -0.1892  0.0084 -0.8062
  154MPD2    H5 2354   0.235   2.050   0.824 -2.1694  0.0646 -0.3007
  154MPD2    N1 2355   0.638   1.991   0.498  0.2804  0.4437 -0.4408
  154MPD2    H7 2356   0.719   2.033   0.455 -0.4404  0.1352 -2.0806
  155TCq2    C1 2357   0.661   1.871   0.562  1.3894 -0.1492  0.5109
  155TCq2    O2 2358   0.580   1.801   0.623 -0.0466 -0.0045 -0.1481
  155TCq2    C2 2359   0.779   1.804   0.507 -0.7287  0.1791  0.0575
  155TCq2    C3 2360   0.808   1.686   0.561 -0.2887  0.9926  0.0652
  155TCq2    C4 2361   0.928   1.628   0.553  0.1193 -0.3128  0.3094
  155TCq2    C5 2362   1.026   1.683   0.474 -0.1815 -0.0430 -0.4306
  155TCq2    C6 2363   1.001   1.804   0.420 -0.6697 -0.2573 -0.1374
  155TCq2    C7 2364   0.880   1.868   0.439 -0.0963  0.7496 -0.7531
  155TCq2    C8 2365   1.081   1.851   0.313 -0.5721 -0.0529 -0.1530
  155TCq2    O4 2366   1.160   1.769   0.266 -0.0416 -0.2616 -0.3931
  155TCq2    C9 2367   0.954   1.506   0.616 -0.1979  0.5096 -0.5009
  155TCq2    O5 2368   1.074   1.460   0.616 -0.0998  0.3118  0.1485
  155TCq2    O6 2369   0.853   1.433   0.641 -0.2805 -0.3759 -0.0499
  155TCq2    H2 2370   0.734   1.630   0.617  0.3324 -0.6102 -0.7185
  155TCq2    H3 2371   1.123   1.637   0.463 -0.4581 -0.9492  0.9211
  155TCq2    H4 2372   0.851   1.948   0.371  0.0454 -0.0963 -1.8129
  156MPD2     C 2373   2.516   3.453  11.596  1.2476 -0.0632  0.2523
  156MPD2    C1 2374   2.646   3.502  11.581 -0.4478  0.3987  1.1850
  156MPD2    C2 2375   2.730   3.485  11.695  0.3399 -0.5210 -0.4879
  156MPD2    C3 2376   2.684   3.436  11.815  0.0790  0.4022 -0.1661
  156MPD2    C4 2377   2.557   3.388  11.818  0.1013 -0.1271 -0.1843
  156MPD2    C5 2378   2.475   3.401  11.712 -0.5678  0.2250 -0.7289
  156MPD2     H 2379   2.832   3.521  11.698  0.0741  0.1565  0.5913
  156MPD2    H1 2380   2.517   3.341  11.907  1.6645  0.9769  1.0847
  156MPD2    H2 2381   2.451   3.464  11.510  1.8409 -2.7876 -0.5657
  156MPD2    H3 2382   2.376   3.361  11.729 -0.2777 -0.7396 -1.3552
  156MPD2     N 2383   2.771   3.430  11.925  0.2787 -0.3236 -0.6732
  156MPD2    H5 2384   2.853   3.488  11.914 -0.7761  0.7104 -3.1031
  156MPD2    N1 2385   2.691   3.554  11.457  0.3152 -0.8759 -0.0455
  156MPD2    H7 2386   2.639   3.547  11.371 -0.7830 -0.0624  0.5464
  157TCq2    C1 2387   2.807   3.635  11.454 -0.6051 -0.5409  0.0731
  157TCq2    O2 2388   2.851   3.701  11.550 -0.2848 -0.8801  0.2059
  157TCq2    C2 2389   2.852   3.673  11.325 -0.3738 -0.8888  0.8126
  157TCq2    C3 2390   2.846   3.580  11.221  0.4694  0.2330  0.0217
  157TCq2    C4 2391   2.944   3.591  11.123 -0.2456  0.2216 -0.5263
  157TCq2    C5 2392   3.021   3.701  11.122  0.2253  0.0049  0.1338
  157TCq2    C6 2393   3.009   3.798  11.218  0.3672  0.6061  0.3335
  157TCq2    C7 2394   2.928   3.789  11.321 -0.2903  0.4722 -0.0761
  157TCq2    C8 2395   3.114   3.899  11.229 -0.4853  0.1818  0.3685
  157TCq2    O4 2396   3.123   3.988  11.146 -0.0935  0.5833  0.0273
  157TCq2    C9 2397   2.971   3.483  11.036  0.2126  0.5216 -0.4139
  157TCq2    O5 2398   2.877   3.403  11.023  0.5297  0.3592  0.8539
  157TCq2    O6 2399   3.088   3.464  10.991  0.1987  0.0577 -0.2273
  157TCq2    H2 2400   2.796   3.485  11.236  1.5051 -0.3336 -0.1174
  157TCq2    H3 2401   3.098   3.704  11.046 -1.0106 -0.8842 -1.1475
  157TCq2    H4 2402   2.941   3.852  11.408  0.4949 -1.1632  0.9893
  158TMC2    C1 2403   3.820   2.734  13.164 -0.2653 -0.2982 -1.6043
  158TMC2    C2 2404   3.877   2.688  13.044 -0.2998 -0.0513  0.0498
  158TMC2    C3 2405   3.796   2.704  12.934  0.3600  0.2811 -0.0107
  158TMC2    C4 2406   3.687   2.767  13.179  0.3912 -0.7105 -0.0842
  158TMC2    C5 2407   3.611   2.771  13.066  0.5649 -0.1901 -0.2114
  158TMC2    C6 2408   3.662   2.740  12.944 -0.1505 -1.0195  0.0421
  158TMC2     C 2409   3.899   2.780  13.274 -0.2409 -0.0516 -0.6755
  158TMC2     O 2410   4.012   2.825  13.255 -0.3042  0.1571  0.4862
  158TMC2     H 2411   3.981   2.665  13.022  0.0567  1.9299 -0.4004
  158TMC2    H1 2412   3.645   2.806  13.271 -2.1689  0.5829 -1.8143
  158TMC2    H2 2413   3.599   2.741  12.855 -0.2829 -1.0299  0.1354
  158TMC2    C7 2414   3.468   2.773  13.083  0.1100  0.7409  0.4594
  158TMC2    C8 2415   3.843   2.650  12.810 -0.1540  0.1655  0.5774
  158TMC2    O1 2416   3.400   2.831  12.998  0.1392 -0.0867  0.6496
  158TMC2    O2 2417   3.960   2.620  12.788 -0.4002 -0.2545  0.3247
  158TMC2    O5 2418   3.738   2.618  12.731 -0.0223 -0.2914 -0.1343
  158TMC2    H5 2419   3.651   2.644  12.769  0.3696 -0.4439  0.8619
  159MPD2     C 2420   3.976   2.829  13.778  0.7462 -0.8307  0.4198
  159MPD2    C1 2421   3.859   2.757  13.756 -0.3498  0.2182 -0.1930
  159MPD2    C2 2422   3.823   2.719  13.627 -0.4768 -0.1726  0.4263
  159MPD2    C3 2423   3.902   2.761  13.524 -0.0254  1.0419 -0.3269
  159MPD2    C4 2424   4.026   2.825  13.547  0.5264  0.5904  0.0842
  159MPD2    C5 2425   4.059   2.851  13.675  0.3440  0.2476 -0.2752
  159MPD2     H 2426   3.731   2.671  13.597 -0.4969 -0.3256  0.7407
  159MPD2    H1 2427   4.082   2.862  13.462  1.5114 -1.4249 -0.1605
  159MPD2    H2 2428   4.011   2.852  13.878 -0.2347 -1.1417  0.8329
  159MPD2    H3 2429   4.156   2.893  13.701  0.7964 -0.3738 -0.9670
  159MPD2     N 2430   3.852   2.729  13.398 -0.5713  0.2517  0.5421
  159MPD2    H5 2431   3.768   2.671  13.397 -0.2261 -0.2949  3.7031
  159MPD2    N1 2432   3.786   2.715  13.870  0.6075  0.5348  0.2038
  159MPD2    H7 2433   3.824   2.738  13.961 -0.4219 -0.0597  0.7827
  160TMC2    C1 2434   3.690   1.157   1.104  0.6149  0.5021  0.1928
  160TMC2    C2 2435   3.665   1.224   1.221 -0.1359  0.0281  0.4258
  160TMC2    C3 2436   3.771   1.299   1.271  0.2284 -0.1792 -0.4649
  160TMC2    C4 2437   3.807   1.176   1.037  0.6641  0.1182  0.2195
  160TMC2    C5 2438   3.896   1.262   1.088  0.4533  0.0056  0.0308
  160TMC2    C6 2439   3.887   1.322   1.211  0.3742 -0.1562 -0.6041
  160TMC2     C 2440   3.580   1.103   1.013 -0.7441  0.1651 -0.0732
  160TMC2     O 2441   3.612   1.053   0.906  0.2761 -0.5326 -0.1291
  160TMC2     H 2442   3.572   1.211   1.274  0.7588  0.2054  2.0249
  160TMC2    H1 2443   3.825   1.130   0.940  0.5323 -0.8970  0.6685
  160TMC2    H2 2444   3.962   1.391   1.250  1.0751  0.7380 -3.5225
  160TMC2    C7 2445   3.999   1.316   1.000  0.1867 -0.2612  0.7511
  160TMC2    C8 2446   3.752   1.371   1.397  0.2587  0.0398 -0.0632
  160TMC2    O1 2447   4.037   1.239   0.914 -0.4238 -0.1834  0.4849
  160TMC2    O2 2448   3.838   1.410   1.474  0.0156  0.4957 -0.0163
  160TMC2    O5 2449   3.619   1.410   1.401  0.4950 -0.2877  0.4149
  160TMC2    H5 2450   3.572   1.393   1.316  1.5391  0.5377 -0.3318
  161MPD2     C 2451   3.325   1.059   0.881 -0.1921  0.0252  0.1323
  161MPD2    C1 2452   3.340   1.061   1.016  0.8463  0.0737 -0.5844
  161MPD2    C2 2453   3.228   1.032   1.094 -0.0576 -0.0735  0.1498
  161MPD2    C3 2454   3.104   1.006   1.042 -0.6978 -0.0193  0.8711
  161MPD2    C4 2455   3.090   1.002   0.908  0.3219 -0.2498 -0.1564
  161MPD2    C5 2456   3.199   1.033   0.834 -0.4041 -0.0248 -0.0517
  161MPD2     H 2457   3.236   1.031   1.202 -0.0129  3.5133  0.1714
  161MPD2    H1 2458   3.003   0.971   0.851 -0.0338  1.0318 -0.3058
  161MPD2    H2 2459   3.399   1.087   0.808  0.3714  0.4832  0.8892
  161MPD2    H3 2460   3.181   1.040   0.727 -0.0938 -1.8101 -0.2172
  161MPD2     N 2461   2.988   0.999   1.123 -0.1574 -0.8148 -0.4724
  161MPD2    H5 2462   2.900   0.993   1.073 -1.6210 -0.8915  2.1236
  161MPD2    N1 2463   3.460   1.100   1.079  0.4487 -0.2734 -0.0234
  161MPD2    H7 2464   3.451   1.134   1.174 -0.4726  0.3012 -0.3165
  162TMC2    C1 2465   1.736   2.687   1.433  0.7284  0.5040 -0.5704
  162TMC2    C2 2466   1.632   2.775   1.423 -0.0156 -0.1451 -0.2039
  162TMC2    C3 2467   1.518   2.760   1.491  0.3395 -0.7398 -0.4878
  162TMC2    C4 2468   1.731   2.589   1.530  0.4301  0.6354 -0.5454
  162TMC2    C5 2469   1.618   2.588   1.609  0.4652  0.6666 -0.3349
  162TMC2    C6 2470   1.508   2.663   1.594 -0.0171  0.5512 -0.1909
  162TMC2     C 2471   1.851   2.712   1.349 -0.2438  0.9375 -0.0969
  162TMC2     O 2472   1.838   2.789   1.252  0.4180  0.1480 -0.0004
  162TMC2     H 2473   1.646   2.855   1.352  2.3426  0.8265  1.3654
  162TMC2    H1 2474   1.796   2.505   1.548 -1.6017 -0.3739  1.9450
  162TMC2    H2 2475   1.415   2.648   1.647 -0.6865  1.3814 -1.1433
  162TMC2    C7 2476   1.600   2.497   1.716  0.8800  0.2075 -0.6335
  162TMC2    C8 2477   1.399   2.843   1.470  0.8900  0.4702 -0.1564
  162TMC2    O1 2478   1.483   2.486   1.754 -0.1868 -1.1686  0.0502
  162TMC2    O2 2479   1.317   2.846   1.562  0.1480  0.1754 -0.2817
  162TMC2    O5 2480   1.374   2.856   1.339  0.5380 -0.4638  0.0790
  162TMC2    H5 2481   1.447   2.824   1.282  1.4232  0.8648  0.4695
  163MPD2     C 2482   2.282   2.547   1.132  0.0881  0.5245  0.2506
  163MPD2    C1 2483   2.182   2.628   1.083  0.7115  0.1001 -0.0928
  163MPD2    C2 2484   2.082   2.677   1.166  0.4244  0.1835  0.2852
  163MPD2    C3 2485   2.071   2.612   1.296 -0.2216 -0.0300  0.1191
  163MPD2    C4 2486   2.169   2.523   1.339 -0.0334  0.0605  0.6201
  163MPD2    C5 2487   2.279   2.498   1.258 -0.3900  0.3548 -0.2925
  163MPD2     H 2488   2.007   2.746   1.129 -0.0702  0.1870  1.3178
  163MPD2    H1 2489   2.158   2.472   1.434  0.6969 -2.1569 -0.4829
  163MPD2    H2 2490   2.368   2.515   1.075  0.4035  1.4602  0.1960
  163MPD2    H3 2491   2.365   2.441   1.292 -0.3976 -0.0595 -0.9691
  163MPD2     N 2492   1.960   2.632   1.385  0.1154  0.3882  0.2345
  163MPD2    H5 2493   1.962   2.572   1.467  3.1373  1.4001  0.8988
  163MPD2    N1 2494   2.191   2.647   0.948 -0.0396  0.1853  0.3587
  163MPD2    H7 2495   2.262   2.596   0.898  1.7184  1.0419  1.9710
  164TCq2    C1 2496   2.276   2.037  10.655 -0.3189 -0.3497  0.3739
  164TCq2    O2 2497   2.287   2.155  10.630 -0.0470  0.5604  0.4626
  164TCq2    C2 2498   2.176   1.998  10.755  0.4975  0.3003  0.3792
  164TCq2    C3 2499   2.149   1.870  10.787  0.8217 -0.6102  0.2172
  164TCq2    C4 2500   2.067   1.849  10.891  0.7621 -0.8379 -0.5766
  164TCq2    C5 2501   1.989   1.952  10.949 -0.4364  0.4434  0.3012
  164TCq2    C6 2502   2.009   2.080  10.898  0.0057 -0.3061  0.3934
  164TCq2    C7 2503   2.105   2.109  10.803 -0.3501  0.4561  0.9215
  164TCq2    C8 2504   1.916   2.186  10.937  0.2074 -0.3766  0.2234
  164TCq2    O4 2505   1.886   2.264  10.846  0.1206 -0.9869 -0.0036
  164TCq2    C9 2506   2.058   1.704  10.942 -0.4262  0.3925 -0.1603
  164TCq2    O5 2507   1.955   1.672  11.001  0.1466  0.3561  0.3843
  164TCq2    O6 2508   2.173   1.647  10.950 -0.2310 -0.5062  0.1677
  164TCq2    H2 2509   2.200   1.781  10.751  0.4918  0.8066 -3.8077
  164TCq2    H3 2510   1.903   1.923  11.008 -1.5776  0.2048 -1.4774
  164TCq2    H4 2511   2.117   2.211  10.768  2.6795 -0.6765 -1.3336
  165MPD2     C 2512   4.526   3.846   1.887  0.2311 -0.9457  0.1297
  165MPD2    C1 2513   4.402   3.838   1.836 -0.3477 -0.7716 -0.1262
  165MPD2    C2 2514   4.330   3.958   1.834  0.1794 -0.6755  0.0861
  165MPD2    C3 2515   4.380   4.077   1.888  0.4421 -0.0669  0.4927
  165MPD2    C4 2516   4.501   4.069   1.953 -0.1154  0.5689  0.1577
  165MPD2    C5 2517   4.575   3.955   1.947 -0.1983  0.4225  0.3641
  165MPD2     H 2518   4.247   3.970   1.765 -0.7514  1.0304  1.4886
  165MPD2    H1 2519   4.542   4.164   1.987  0.9242 -0.0315  0.5731
  165MPD2    H2 2520   4.585   3.757   1.874  2.2016  0.6234 -1.6743
  165MPD2    H3 2521   4.680   3.951   1.973 -0.1864  0.7048  0.3548
  165MPD2     N 2522   4.310   4.201   1.881 -0.4330 -0.1920 -0.4835
  165MPD2    H5 2523   4.361   4.280   1.919  0.1770 -1.3528  1.0864
  165MPD2    N1 2524   4.361   3.720   1.771  0.5137 -0.4654  0.6106
  165MPD2    H7 2525   4.429   3.645   1.767  0.5325 -0.4290  0.2662
  166TCq2    C1 2526   4.175   4.210   1.856  0.7928 -0.3090 -0.2519
  166TCq2    O2 2527   4.102   4.113   1.847  0.1104 -0.0833 -0.2721
  166TCq2    C2 2528   4.108   4.337   1.873 -0.1733  0.1178 -0.4402
  166TCq2    C3 2529   3.969   4.343   1.858  0.2042 -0.3098  0.5218
  166TCq2    C4 2530   3.911   4.464   1.823 -0.3554  0.0497 -0.5891
  166TCq2    C5 2531   3.982   4.577   1.817  0.5732 -0.1332  0.6506
  166TCq2    C6 2532   4.116   4.570   1.849  0.3522  0.0725 -0.0832
  166TCq2    C7 2533   4.179   4.451   1.873  0.5897  0.3558  0.4029
  166TCq2    C8 2534   4.189   4.694   1.872  0.6585 -0.2065  0.0306
  166TCq2    O4 2535   4.311   4.688   1.867  0.1612  0.1126 -0.0052
  166TCq2    C9 2536   3.771   4.476   1.832 -0.6080 -0.4843 -0.2747
  166TCq2    O5 2537   3.731   4.592   1.852  0.5819 -0.2914  0.3156
  166TCq2    O6 2538   3.695   4.373   1.835 -0.5763  0.0829  0.0863
  166TCq2    H2 2539   3.915   4.251   1.876  0.3966 -0.1239  2.0103
  166TCq2    H3 2540   3.948   4.673   1.781 -1.1800 -0.7338  0.7174
  166TCq2    H4 2541   4.285   4.455   1.895  0.7400  0.1110 -0.3044
  167TMC2    C1 2542   1.429   2.512  12.513  0.0228  0.0540 -0.0093
  167TMC2    C2 2543   1.379   2.557  12.632  0.2434 -0.3706 -0.1790
  167TMC2    C3 2544   1.322   2.460  12.719  0.3923 -0.1251 -0.2965
  167TMC2    C4 2545   1.422   2.377  12.483 -0.0329 -0.6132  0.4727
  167TMC2    C5 2546   1.392   2.288  12.577 -0.5426 -0.0704 -0.0586
  167TMC2    C6 2547   1.326   2.331  12.691  0.6841  0.4499  0.0955
  167TMC2     C 2548   1.463   2.609  12.416 -0.3815 -0.9282  0.2038
  167TMC2     O 2549   1.409   2.718  12.429 -0.3820 -0.3738 -0.2997
  167TMC2     H 2550   1.375   2.662  12.659 -0.6457 -0.4415 -0.0359
  167TMC2    H1 2551   1.428   2.351  12.378  3.9457  1.2029  0.2513
  167TMC2    H2 2552   1.289   2.260  12.764 -0.9546  1.1056 -0.1013
  167TMC2    C7 2553   1.396   2.153  12.553 -0.0701  0.0483  0.2303
  167TMC2    C8 2554   1.296   2.498  12.852  0.2628  0.5892  0.0805
  167TMC2    O1 2555   1.314   2.093  12.621 -0.1534  0.0243 -1.0248
  167TMC2    O2 2556   1.317   2.413  12.938 -0.0469 -0.0042  0.1734
  167TMC2    O5 2557   1.196   2.586  12.852  0.1128 -0.3374 -0.2503
  167TMC2    H5 2558   1.186   2.627  12.764  2.0816  0.2184 -0.2220
  168MPD2     C 2559   1.567   2.785  12.187 -0.5620 -0.3515  0.0468
  168MPD2    C1 2560   1.588   2.648  12.210  0.2758 -0.0383  0.2642
  168MPD2    C2 2561   1.652   2.570  12.111 -0.2285  0.1294  0.5676
  168MPD2    C3 2562   1.683   2.622  11.988 -0.3385 -1.0451 -0.1759
  168MPD2    C4 2563   1.650   2.756  11.964 -0.7574  0.2363  0.0164
  168MPD2    C5 2564   1.594   2.832  12.063 -0.1310 -0.7246  0.0241
  168MPD2     H 2565   1.641   2.463  12.123  0.6419 -0.1114 -0.7893
  168MPD2    H1 2566   1.662   2.798  11.865  3.3148 -0.5783  0.1903
  168MPD2    H2 2567   1.528   2.843  12.270  0.0712 -1.7328  1.2958
  168MPD2    H3 2568   1.574   2.937  12.043 -1.1583 -0.9575 -0.2033
  168MPD2     N 2569   1.732   2.529  11.895 -0.2583 -0.1301  0.2572
  168MPD2    H5 2570   1.744   2.435  11.933  0.3506 -0.7548 -1.4901
  168MPD2    N1 2571   1.543   2.568  12.317  0.0319 -0.0956  0.6279
  168MPD2    H7 2572   1.581   2.475  12.323 -1.8054 -0.8739  0.3699
  169MPD1     C 2573   4.341   2.224   8.600  0.1457  0.4255  0.5244
  169MPD1    C1 2574   4.312   2.105   8.542 -0.1636 -0.2067 -0.2203
  169MPD1    C2 2575   4.327   1.994   8.626  0.5923 -0.2322  0.5469
  169MPD1    C3 2576   4.391   2.013   8.749 -0.1658 -0.3554 -0.7216
  169MPD1    C4 2577   4.419   2.138   8.798  0.2076 -0.0429  0.0640
  169MPD1    C5 2578   4.384   2.248   8.731  0.1680  0.5486 -0.5278
  169MPD1     H 2579   4.296   1.898   8.588 -2.4072  0.2517  1.7526
  169MPD1    H1 2580   4.458   2.147   8.899  0.4653 -1.7973  0.1264
  169MPD1    H2 2581   4.323   2.316   8.546  1.3526  0.4645  0.2007
  169MPD1    H3 2582   4.403   2.348   8.769 -0.5218 -1.3964  4.8325
  169MPD1     N 2583   4.406   1.899   8.824  0.2265 -0.2182 -0.3067
  169MPD1    H5 2584   4.361   1.814   8.790  0.6738  0.3774 -2.4105
  169MPD1    N1 2585   4.233   2.094   8.423 -0.3173  0.3363  0.0304
  169MPD1    H6 2586   4.258   2.160   8.349 -1.0552  0.2880 -0.2620
  169MPD1    H7 2587   4.231   2.000   8.384  0.7441  0.7764 -1.1205
  170MPD1     C 2588   2.523   4.285  12.932  0.0900 -0.1334  0.0821
  170MPD1    C1 2589   2.439   4.387  12.893 -0.0495 -0.1470  0.6992
  170MPD1    C2 2590   2.440   4.501  12.969 -0.1017  0.5382  0.4542
  170MPD1    C3 2591   2.512   4.510  13.087 -1.1454 -0.1136  0.0668
  170MPD1    C4 2592   2.612   4.419  13.117  0.1543  0.2918  0.0973
  170MPD1    C5 2593   2.605   4.301  13.038  0.0661 -0.3344  0.5774
  170MPD1     H 2594   2.370   4.579  12.939  0.2651  1.2601  1.4760
  170MPD1    H1 2595   2.675   4.427  13.204 -0.3198  0.1311  0.4572
  170MPD1    H2 2596   2.531   4.188  12.884  1.3348  1.4767 -2.9466
  170MPD1    H3 2597   2.677   4.221  13.056  0.6780 -0.4058 -2.1768
  170MPD1     N 2598   2.486   4.598  13.194  0.3931 -0.2241 -0.2696
  170MPD1    H5 2599   2.540   4.600  13.279 -0.8352 -0.9596  0.5268
  170MPD1    N1 2600   2.368   4.373  12.774  0.1977  0.3029  1.1578
  170MPD1    H6 2601   2.294   4.443  12.766  0.8552  0.9256  0.5583
  170MPD1    H7 2602   2.326   4.281  12.760  1.3581  0.2938 -2.3990
  171MPD1     C 2603   0.847   0.929  15.063  1.0604  1.2440 -0.1330
  171MPD1    C1 2604   0.775   0.970  15.174  0.4543 -0.6892  0.0345
  171MPD1    C2 2605   0.809   0.911  15.295  0.5951 -0.2235 -0.5977
  171MPD1    C3 2606   0.915   0.816  15.304  0.2936 -0.2365  0.1491
  171MPD1    C4 2607   0.978   0.776  15.192  0.1405  0.3140  0.5392
  171MPD1    C5 2608   0.949   0.841  15.076  0.1023 -0.0474 -0.2489
  171MPD1     H 2609   0.747   0.938  15.380  2.1984 -0.3422  0.6072
  171MPD1    H1 2610   1.055   0.700  15.186 -1.3113 -1.0765 -0.5269
  171MPD1    H2 2611   0.839   0.973  14.964 -0.1923 -3.5125 -2.1315
  171MPD1    H3 2612   1.009   0.812  14.991  2.2885 -1.4410  1.7444
  171MPD1     N 2613   0.946   0.742  15.419 -0.1103 -0.1969 -0.5654
  171MPD1    H5 2614   1.014   0.667  15.416  0.9299  0.6327  2.1900
  171MPD1    N1 2615   0.660   1.053  15.162  0.5206 -0.6356 -0.4772
  171MPD1    H6 2616   0.657   1.117  15.083  1.1778  1.1248  0.8969
  171MPD1    H7 2617   0.636   1.107  15.246  1.4197  1.1454 -1.3672
  172MPD1     C 2618   4.468   0.243   0.652  0.2880  0.1672  0.2691
  172MPD1    C1 2619   4.496   0.362   0.702 -0.7680 -0.4214  0.3886
  172MPD1    C2 2620   4.613   0.416   0.650  0.5738 -0.1164  0.6164
  172MPD1    C3 2621   4.700   0.343   0.564 -0.7769  0.4252  0.2618
  172MPD1    C4 2622   4.663   0.222   0.524 -0.0544 -0.2835  0.5580
  172MPD1    C5 2623   4.544   0.171   0.571  0.2431 -0.3050  0.2317
  172MPD1     H 2624   4.630   0.521   0.670  0.3507  0.1752 -0.7074
  172MPD1    H1 2625   0.007   0.171   0.454  0.7761 -1.4926  2.2264
  172MPD1    H2 2626   4.372   0.194   0.669  0.9197 -1.1987 -0.0723
  172MPD1    H3 2627   4.508   0.075   0.538  0.6175 -1.0337  1.9429
  172MPD1     N 2628   0.091   0.394   0.503 -0.5937 -0.0881 -0.1972
  172MPD1    H5 2629   0.146   0.328   0.448  1.7946  1.9930 -0.3310
  172MPD1    N1 2630   4.400   0.436   0.777 -0.1039 -0.1639 -0.1122
  172MPD1    H6 2631   4.455   0.509   0.821 -5.2195  2.5906  1.6440
  172MPD1    H7 2632   4.357   0.365   0.836  0.8467  0.3146  1.1480
  173MPD1     C 2633   1.952   4.053  13.457 -0.5578 -0.9457 -0.2869
  173MPD1    C1 2634   1.896   4.184  13.457  0.0095 -0.5613 -0.1979
  173MPD1    C2 2635   1.913   4.258  13.569 -0.0968 -0.4140  0.0097
  173MPD1    C3 2636   1.974   4.207  13.682 -0.3203  0.3259  0.2009
  173MPD1    C4 2637   2.040   4.088  13.682 -0.0120 -0.1373 -0.5609
  173MPD1    C5 2638   2.027   4.014  13.564  0.0852  0.4477  0.2582
  173MPD1     H 2639   1.858   4.350  13.582  3.2336  1.3196  1.8373
  173MPD1    H1 2640   2.076   4.046  13.775  2.3792  0.7925 -1.0771
  173MPD1    H2 2641   1.929   3.987  13.374  0.0339 -2.5934  0.8646
  173MPD1    H3 2642   2.068   3.914  13.565  0.7608  0.7354  1.8354
  173MPD1     N 2643   1.957   4.281  13.800  0.1114  0.4209 -0.2494
  173MPD1    H5 2644   1.904   4.368  13.795  0.1997  0.5035  0.2558
  173MPD1    N1 2645   1.804   4.222  13.353 -0.1985  0.0759  0.2557
  173MPD1    H6 2646   1.828   4.318  13.330 -0.2227  0.5592  2.2802
  173MPD1    H7 2647   1.821   4.167  13.269  1.3786  0.5813  0.2467
  174MPD1     C 2648   1.972   4.416  14.890  0.0461 -1.1562 -0.9184
  174MPD1    C1 2649   2.086   4.390  14.813  0.5803  0.2395 -0.5591
  174MPD1    C2 2650   2.069   4.368  14.681 -0.1818  0.0032  0.2097
  174MPD1    C3 2651   1.941   4.351  14.632 -0.0413  0.2415 -0.6251
  174MPD1    C4 2652   1.828   4.356  14.713 -0.7025  0.5620 -0.3106
  174MPD1    C5 2653   1.846   4.396  14.840 -1.1166  0.6507 -0.4020
  174MPD1     H 2654   2.162   4.361  14.625 -0.1216 -1.1107  0.4450
  174MPD1    H1 2655   1.732   4.359  14.662 -1.2352 -0.9813  0.5963
  174MPD1    H2 2656   1.983   4.464  14.987 -0.9681 -0.1165 -1.3202
  174MPD1    H3 2657   1.757   4.431  14.890  0.3928  3.3286  0.3674
  174MPD1     N 2658   1.921   4.345  14.494  0.7435  0.3142  0.1697
  174MPD1    H5 2659   1.825   4.357  14.462  0.2025 -1.4651  1.1488
  174MPD1    N1 2660   2.215   4.428  14.857  0.4730 -0.7298  0.3956
  174MPD1    H6 2661   2.287   4.391  14.795  0.4136 -0.0501 -0.0917
  174MPD1    H7 2662   2.230   4.389  14.949 -0.1688 -2.1077 -0.0800
  175MPD1     C 2663   0.060   1.383  15.212 -0.5208  0.1793 -0.2157
  175MPD1    C1 2664   0.133   1.273  15.255 -0.1386  0.7034 -0.0910
  175MPD1    C2 2665   0.100   1.216  15.372  1.1662 -0.0008  0.0434
  175MPD1    C3 2666   4.719   1.270  15.450 -0.0471 -0.1663  0.1760
  175MPD1    C4 2667   4.647   1.380  15.401 -0.9580  0.0634 -0.4750
  175MPD1    C5 2668   4.676   1.434  15.276  0.1317 -0.4842 -0.0269
  175MPD1     H 2669   0.144   1.123  15.407  0.6912 -0.1133  0.3557
  175MPD1    H1 2670   4.570   1.419  15.467 -0.2856 -1.5067  1.2594
  175MPD1    H2 2671   0.086   1.419  15.113 -1.1037 -0.3380 -0.5562
  175MPD1    H3 2672   4.629   1.523  15.236 -0.5236 -0.3664  0.9965
  175MPD1     N 2673   4.681   1.222  15.573 -0.2624  0.1877  0.2169
  175MPD1    H5 2674   4.603   1.272  15.615 -0.5291 -0.0963  0.0509
  175MPD1    N1 2675   0.245   1.237  15.182 -0.5629 -0.5820  0.4819
  175MPD1    H6 2676   0.244   1.260  15.083  1.1497  2.8357  1.2523
  175MPD1    H7 2677   0.256   1.136  15.186  1.6670 -0.3893 -0.8966
  176MPD1     C 2678   0.683   3.432  16.948  0.3225 -0.3639  0.2707
  176MPD1    C1 2679   0.738   3.371  17.057 -0.2327  0.3734 -0.3801
  176MPD1    C2 2680   0.792   3.452  17.157  1.1340 -0.0623 -0.1575
  176MPD1    C3 2681   0.756   3.584  17.169 -0.0489  0.6059  0.2416
  176MPD1    C4 2682   0.678   3.635  17.064 -0.4256  0.0771  0.0459
  176MPD1    C5 2683   0.660   3.565  16.953 -0.5291 -0.2444 -0.6942
  176MPD1     H 2684   0.838   3.407  17.244  0.6978 -2.4641 -1.1839
  176MPD1    H1 2685   0.638   3.735  17.058 -0.1373  0.3180  2.0451
  176MPD1    H2 2686   0.666   3.373  16.858 -1.3032 -2.7910  2.1407
  176MPD1    H3 2687   0.613   3.614  16.869 -0.2215  0.0409 -0.6991
  176MPD1     N 2688   0.802   3.663  17.271 -0.3216  0.0219 -0.0712
  176MPD1    H5 2689   0.883   3.627  17.322 -1.2878  1.0971  2.2216
  176MPD1    N1 2690   0.765   3.230  17.062  0.3146  0.4100  0.2843
  176MPD1    H6 2691   0.777   3.196  17.157  0.9610  1.5013  0.5799
  176MPD1    H7 2692   0.695   3.182  17.005  2.1061 -0.8982 -0.8223
  177MPD1     C 2693   0.372   2.716   9.594 -0.1505  0.0684 -0.5334
  177MPD1    C1 2694   0.259   2.787   9.614  0.2208 -0.9248  0.5227
  177MPD1    C2 2695   0.151   2.754   9.536  0.1007 -0.7020 -0.0315
  177MPD1    C3 2696   0.161   2.666   9.430  0.2470 -0.1007 -0.1151
  177MPD1    C4 2697   0.286   2.619   9.396 -0.0968  0.4272 -0.5516
  177MPD1    C5 2698   0.391   2.644   9.477  0.3426  0.6145  0.6013
  177MPD1     H 2699   0.054   2.794   9.565  0.9839  2.1404 -0.9279
  177MPD1    H1 2700   0.309   2.570   9.302 -3.2925 -2.7027  0.3077
  177MPD1    H2 2701   0.460   2.727   9.657 -2.2458  4.8316  1.5561
  177MPD1    H3 2702   0.491   2.605   9.456 -0.9972 -2.2110 -0.5203
  177MPD1     N 2703   0.039   2.630   9.368 -0.0261 -0.1825 -0.3873
  177MPD1    H5 2704   4.676   2.662   9.414  1.8470 -1.4094  3.9794
  177MPD1    N1 2705   0.242   2.868   9.731 -0.1340  0.3178 -0.0882
  177MPD1    H6 2706   0.177   2.946   9.718 -1.1642 -0.7538 -1.3271
  177MPD1    H7 2707   0.325   2.916   9.765  0.0058 -0.7737  1.1113
  178MPD1     C 2708   2.148   4.095   0.298  0.2821 -0.0286 -0.7390
  178MPD1    C1 2709   2.146   3.960   0.275 -0.2827  0.7818  0.5248
  178MPD1    C2 2710   2.167   3.918   0.143  0.5766  0.0983 -0.2959
  178MPD1    C3 2711   2.209   4.012   0.052 -0.3915 -0.1462 -0.1068
  178MPD1    C4 2712   2.206   4.151   0.081  0.0747  0.4071 -0.0376
  178MPD1    C5 2713   2.176   4.188   0.200  1.2057  0.4715 -0.4404
  178MPD1     H 2714   2.173   3.811   0.123 -1.0193 -0.3553  1.6117
  178MPD1    H1 2715   2.235   4.237   0.021 -0.1415  0.4576 -0.0685
  178MPD1    H2 2716   2.127   4.133   0.397 -1.4269 -2.4937 -0.1404
  178MPD1    H3 2717   2.181   4.294   0.222  4.6568 -0.2137  1.9525
  178MPD1     N 2718   2.252   3.976  17.607  0.6227 -0.8258  0.1901
  178MPD1    H5 2719   2.286   4.044  17.540  3.1506 -1.9615  0.3136
  178MPD1    N1 2720   2.091   3.873   0.370 -0.1287  0.1583 -0.3026
  178MPD1    H6 2721   2.136   3.782   0.367 -1.4037 -0.5455  1.6901
  178MPD1    H7 2722   2.104   3.906   0.466  1.3472  2.2165 -1.2384
  179MPD1     C 2723   2.361   2.460  15.909 -0.4155 -0.4605  0.2488
  179MPD1    C1 2724   2.310   2.409  15.796  0.4554  0.2830  0.2852
  179MPD1    C2 2725   2.257   2.281  15.801  0.4937 -0.1183  0.0918
  179MPD1    C3 2726   2.256   2.203  15.920 -0.8282  0.1333  0.0777
  179MPD1    C4 2727   2.326   2.251  16.033 -0.2094  0.4737 -0.6190
  179MPD1    C5 2728   2.364   2.382  16.022  0.4562 -0.2734 -0.0089
  179MPD1     H 2729   2.215   2.243  15.708  2.9401 -1.8671 -0.2857
  179MPD1    H1 2730   2.321   2.194  16.126 -0.8723  0.6364 -0.5569
  179MPD1    H2 2731   2.391   2.563  15.921  0.2279 -0.7172  0.8708
  179MPD1    H3 2732   2.406   2.432  16.108 -1.8673 -0.1262  1.0562
  179MPD1     N 2733   2.201   2.072  15.938  0.3370  0.3772  0.7463
  179MPD1    H5 2734   2.232   2.026  16.023  1.9126 -2.9973 -1.6479
  179MPD1    N1 2735   2.293   2.498  15.694  0.1375  0.7029  0.6139
  179MPD1    H6 2736   2.342   2.584  15.718 -0.3911  1.6342 -1.6832
  179MPD1    H7 2737   2.294   2.465  15.598  0.0001 -0.9072  1.1754
  180MPD1     C 2738   1.370   3.122  15.107  0.3130 -0.2010  0.5057
  180MPD1    C1 2739   1.494   3.182  15.102  0.1766 -0.1496  0.3865
  180MPD1    C2 2740   1.579   3.151  14.998  0.0299 -0.9184  0.9923
  180MPD1    C3 2741   1.535   3.071  14.894 -0.3387  0.3294  0.3445
  180MPD1    C4 2742   1.414   3.011  14.895  0.7907  0.4253 -0.4024
  180MPD1    C5 2743   1.331   3.039  15.001 -0.6241  0.3246  0.3746
  180MPD1     H 2744   1.683   3.180  15.000 -0.9061  2.2484  3.3647
  180MPD1    H1 2745   1.375   2.952  14.813 -1.2191 -0.8708  1.4902
  180MPD1    H2 2746   1.300   3.138  15.187  0.1754  1.9125 -0.0581
  180MPD1    H3 2747   1.231   2.997  15.005 -0.8005  0.6688 -0.3413
  180MPD1     N 2748   1.637   3.041  14.795 -0.4107 -0.3105 -0.8401
  180MPD1    H5 2749   1.728   3.082  14.811 -1.6029  1.2106  2.0505
  180MPD1    N1 2750   1.543   3.244  15.217  0.0316  0.3804  0.6984
  180MPD1    H6 2751   1.481   3.277  15.290 -0.5424  1.4481 -0.2646
  180MPD1    H7 2752   1.602   3.323  15.192 -1.1822  1.5748  1.6155
  181MPD1     C 2753   3.476   4.485  10.212 -0.0678  0.0097  0.1679
  181MPD1    C1 2754   3.469   4.609  10.146 -0.0252 -0.4067  0.8182
  181MPD1    C2 2755   3.563   4.645  10.056 -0.3353 -0.4274 -0.2738
  181MPD1    C3 2756   3.678   4.564  10.035  0.1272 -0.0007  0.4217
  181MPD1    C4 2757   3.683   4.440  10.099  0.3350 -0.3786  0.3131
  181MPD1    C5 2758   3.582   4.403  10.185 -1.0461  0.3810 -0.3993
  181MPD1     H 2759   3.547   0.016  10.003 -1.9359 -0.5839 -0.0455
  181MPD1    H1 2760   3.771   4.376  10.090 -0.0531 -0.7947 -0.4849
  181MPD1    H2 2761   3.402   4.463  10.288  0.6782 -2.9814  0.0077
  181MPD1    H3 2762   3.600   4.310  10.237 -0.8954  0.6237 -0.0199
  181MPD1     N 2763   3.786   4.598   9.959 -0.4144 -0.4219 -0.3882
  181MPD1    H5 2764   3.865   4.535   9.974  1.3621  2.0786  0.6930
  181MPD1    N1 2765   3.358   4.695  10.172  0.2517  0.1191 -0.2133
  181MPD1    H6 2766   3.348   0.034  10.090  0.3836  0.9794  0.4056
  181MPD1    H7 2767   3.269   4.651  10.190  1.6342 -2.5981 -0.0698
  182MPD1     C 2768   0.391   4.333   1.693  0.4084  0.8891  0.9843
  182MPD1    C1 2769   0.366   4.268   1.574  0.0859 -0.1189  0.0995
  182MPD1    C2 2770   0.337   4.350   1.463  0.3972  0.2952  0.5023
  182MPD1    C3 2771   0.330   4.490   1.472 -0.1208  0.2299  0.1719
  182MPD1    C4 2772   0.359   4.550   1.595 -0.6413 -0.4772 -0.2638
  182MPD1    C5 2773   0.381   4.468   1.703 -0.2460 -0.1383 -0.1120
  182MPD1     H 2774   0.309   4.297   1.373  1.9398 -0.1982  0.3085
  182MPD1    H1 2775   0.345   4.657   1.602  0.5531 -0.4991  2.3126
  182MPD1    H2 2776   0.397   4.288   1.791 -2.1241 -3.0205 -0.6641
  182MPD1    H3 2777   0.397   4.514   1.800 -1.5272  0.1078 -0.0150
  182MPD1     N 2778   0.291   4.571   1.369  0.4677 -0.7093 -0.1089
  182MPD1    H5 2779   0.287   4.670   1.391  1.9296 -0.6866  0.0562
  182MPD1    N1 2780   0.393   4.132   1.558 -0.0900 -0.3632  0.4581
  182MPD1    H6 2781   0.392   4.082   1.647  0.8987  0.0559  0.7082
  182MPD1    H7 2782   0.331   4.088   1.491  0.8316  1.4142 -1.5877
  183MPD1     C 2783   1.387   4.211  10.013  0.2184 -0.1354 -0.0116
  183MPD1    C1 2784   1.270   4.217  10.085 -0.3680  0.6864  0.2123
  183MPD1    C2 2785   1.171   4.301  10.036  0.1588  0.9643  0.0560
  183MPD1    C3 2786   1.180   4.363   9.908 -0.6372  0.6951  0.1930
  183MPD1    C4 2787   1.298   4.340   9.838  0.3924  0.2976  0.2414
  183MPD1    C5 2788   1.399   4.269   9.889 -0.0194  0.0565 -0.0348
  183MPD1     H 2789   1.083   4.301  10.100 -0.0116  0.5811 -0.1760
  183MPD1    H1 2790   1.317   4.378   9.738 -0.3536  0.7489  0.2709
  183MPD1    H2 2791   1.458   4.148  10.065  1.1669  0.8243 -0.1415
  183MPD1    H3 2792   1.494   4.257   9.837 -0.0380 -3.2200  0.6900
  183MPD1     N 2793   1.064   4.437   9.851 -0.2487 -0.0748  0.0252
  183MPD1    H5 2794   0.970   4.438   9.890  0.2883 -0.3237  1.3117
  183MPD1    N1 2795   1.260   4.153  10.208  0.1136  0.2742  0.2124
  183MPD1    H6 2796   1.162   4.144  10.234  0.7535 -0.2164  2.4631
  183MPD1    H7 2797   1.306   4.063  10.198 -1.3669 -0.5224  0.6216
  184MPD1     C 2798   0.475   2.146   9.276  0.8173 -0.2965 -0.4755
  184MPD1    C1 2799   0.363   2.069   9.276 -0.6156 -0.0369  0.5331
  184MPD1    C2 2800   0.249   2.111   9.350 -0.3766  0.2919  0.5485
  184MPD1    C3 2801   0.263   2.216   9.451  0.1697 -0.3591  0.0621
  184MPD1    C4 2802   0.384   2.283   9.455 -0.3542 -0.1939  0.2783
  184MPD1    C5 2803   0.482   2.253   9.362  0.2473 -0.2911  0.9706
  184MPD1     H 2804   0.162   2.046   9.349  0.3831 -0.6791 -2.4081
  184MPD1    H1 2805   0.399   2.370   9.518  0.0697  1.0979 -1.6049
  184MPD1    H2 2806   0.557   2.129   9.207  0.5814 -3.3892  0.0051
  184MPD1    H3 2807   0.558   2.329   9.350 -0.7369  0.6217  0.5212
  184MPD1     N 2808   0.165   2.266   9.537  0.1588  0.5137  0.1012
  184MPD1    H5 2809   0.188   2.352   9.585 -3.7255  1.4231  0.3069
  184MPD1    N1 2810   0.366   1.958   9.189  0.4522 -0.5333 -1.0932
  184MPD1    H6 2811   0.343   1.872   9.238  1.5123  0.0154  0.3412
  184MPD1    H7 2812   0.461   1.943   9.157  0.5671 -0.2546 -0.8799
  185MPD1     C 2813   4.208   1.718   9.996  0.3205  0.0362  0.0034
  185MPD1    C1 2814   4.207   1.835  10.072 -0.3906 -1.1195 -0.1565
  185MPD1    C2 2815   4.266   1.938  10.008  0.5827  0.2070  0.3470
  185MPD1    C3 2816   4.305   1.939   9.875 -1.5077 -0.4250  0.0509
  185MPD1    C4 2817   4.279   1.829   9.797 -0.5407  0.6888 -0.1769
  185MPD1    C5 2818   4.227   1.720   9.859 -0.1508 -1.3274 -1.0751
  185MPD1     H 2819   4.301   2.016  10.075  0.4900  0.2477  0.3490
  185MPD1    H1 2820   4.291   1.835   9.690 -0.9596  1.3453 -0.1868
  185MPD1    H2 2821   4.177   1.623  10.039  2.6528 -1.0217 -0.7062
  185MPD1    H3 2822   4.207   1.631   9.799 -0.7578 -3.0071  1.6167
  185MPD1     N 2823   4.376   2.050   9.812  0.1567 -0.3873 -0.0694
  185MPD1    H5 2824   4.410   2.031   9.718 -0.6268  0.7576 -0.5868
  185MPD1    N1 2825   4.198   1.836  10.216 -1.1122  0.8911 -0.0446
  185MPD1    H6 2826   4.109   1.791  10.235  0.1056 -1.5755 -0.1463
  185MPD1    H7 2827   4.203   1.934  10.244 -0.9909  0.7704  0.3576
  186MPD1     C 2828   2.420   1.740  15.916  1.3225 -0.8216  0.6491
  186MPD1    C1 2829   2.465   1.859  15.857 -0.4643 -0.3197 -0.1469
  186MPD1    C2 2830   2.523   1.947  15.947  0.0343  0.1842  0.2566
  186MPD1    C3 2831   2.538   1.923  16.084 -0.0160 -0.2605  0.2360
  186MPD1    C4 2832   2.490   1.810  16.145  0.2701 -0.4054 -0.2727
  186MPD1    C5 2833   2.442   1.723  16.053 -0.2508 -0.4846  0.3081
  186MPD1     H 2834   2.565   2.043  15.920 -1.9178  0.8981 -0.2301
  186MPD1    H1 2835   2.487   1.785  16.250 -1.5335  0.6290 -0.0777
  186MPD1    H2 2836   2.369   1.661  15.862  1.3101 -1.2579  1.2988
  186MPD1    H3 2837   2.398   1.632  16.094  1.3160 -1.8810 -1.1394
  186MPD1     N 2838   2.578   2.019  16.174 -0.3142 -0.4968  0.2891
  186MPD1    H5 2839   2.575   1.990  16.271  1.7888 -0.6864  0.2870
  186MPD1    N1 2840   2.474   1.867  15.716  0.7560  0.1688  0.5747
  186MPD1    H6 2841   2.456   1.960  15.679 -1.2928 -0.8470 -1.0071
  186MPD1    H7 2842   2.401   1.806  15.679  0.6063  0.3467  0.5758
  187MPD1     C 2843   1.223   0.162   0.389 -0.4199  0.1161 -0.2121
  187MPD1    C1 2844   1.156   0.182   0.265 -0.1501  0.1459 -0.3051
  187MPD1    C2 2845   1.199   0.102   0.157 -0.0171 -0.2300 -0.3585
  187MPD1    C3 2846   1.289   0.002   0.179  0.1477 -0.2250 -0.5027
  187MPD1    C4 2847   1.346   4.705   0.303  0.3282 -0.5984  0.1366
  187MPD1    C5 2848   1.318   0.064   0.405 -0.1984 -0.8622  0.3092
  187MPD1     H 2849   1.154   0.123   0.061  0.0921  1.3011 -0.0720
  187MPD1    H1 2850   1.418   4.627   0.324  1.1600  0.3761  0.9116
  187MPD1    H2 2851   1.211   0.232   0.470 -0.3525  0.4188 -0.4643
  187MPD1    H3 2852   1.381   0.062   0.494 -1.0229 -0.2437  0.9130
  187MPD1     N 2853   1.337   4.644   0.076  0.3057  0.0967 -0.3177
  187MPD1    H5 2854   1.406   4.575   0.103  0.1081  0.3567  0.8219
  187MPD1    N1 2855   1.077   0.300   0.242 -0.2677 -0.4471  0.2028
  187MPD1    H6 2856   1.021   0.325   0.323  0.0870 -0.1136  0.3407
  187MPD1    H7 2857   1.016   0.282   0.162 -0.1649 -0.0151  0.0285
  188MPD1     C 2858   3.301   3.911   9.445  0.0226 -0.4180 -0.7270
  188MPD1    C1 2859   3.252   3.884   9.575  0.6266  0.0363  0.2807
  188MPD1    C2 2860   3.133   3.818   9.595  0.1145  0.7056  0.2846
  188MPD1    C3 2861   3.071   3.750   9.487  0.0596  0.1642 -0.5078
  188MPD1    C4 2862   3.123   3.768   9.362  0.2155 -0.2013  0.5681
  188MPD1    C5 2863   3.243   3.831   9.346  0.2431 -0.0205  0.6555
  188MPD1     H 2864   3.101   3.798   9.697 -0.5214  1.3290  0.2042
  188MPD1    H1 2865   3.100   3.693   9.287 -1.1871  0.7921  0.0135
  188MPD1    H2 2866   3.402   3.948   9.429 -0.3087  1.1738  0.8220
  188MPD1    H3 2867   3.288   3.816   9.248 -1.0425 -0.8245  0.1875
  188MPD1     N 2868   2.957   3.664   9.507 -0.9223 -0.0949 -0.5623
  188MPD1    H5 2869   2.942   3.595   9.434  1.3299 -1.5386  0.3319
  188MPD1    N1 2870   3.303   3.972   9.676 -0.0446  0.1324  0.2856
  188MPD1    H6 2871   3.398   4.003   9.656  2.1091 -4.9463  2.5007
  188MPD1    H7 2872   3.306   3.924   9.766 -2.1046  0.0577  0.3205
  189MPD1     C 2873   3.937   4.342   0.720  0.8547 -0.0763 -0.7382
  189MPD1    C1 2874   3.845   4.279   0.798  0.1243  0.1208  0.5727
  189MPD1    C2 2875   3.712   4.307   0.783 -0.2596  0.1576  0.2388
  189MPD1    C3 2876   3.683   4.418   0.702  0.7448 -0.3718 -1.0125
  189MPD1    C4 2877   3.779   4.494   0.641 -0.2748 -1.0868  0.3134
  189MPD1    C5 2878   3.906   4.456   0.650  0.0586 -0.8615 -0.4063
  189MPD1     H 2879   3.633   4.248   0.828  0.0720  1.1866  2.1802
  189MPD1    H1 2880   3.747   4.582   0.586  2.0714 -1.9000 -2.3531
  189MPD1    H2 2881   4.040   4.318   0.741  0.5936  1.6926  2.4816
  189MPD1    H3 2882   3.990   4.517   0.619  0.5954 -0.0549  2.6679
  189MPD1     N 2883   3.547   4.458   0.694  0.5896 -0.4954 -0.0461
  189MPD1    H5 2884   3.480   4.396   0.738 -0.1059  0.6976  0.5671
  189MPD1    N1 2885   3.892   4.167   0.876 -0.1423  0.4555  0.2504
  189MPD1    H6 2886   3.991   4.166   0.900 -0.9809  1.7290  3.8341
  189MPD1    H7 2887   3.835   4.142   0.957  0.6699 -1.9925  0.0616
  190MPD1     C 2888   1.742   4.094  15.940 -0.4047  0.1314  0.2351
  190MPD1    C1 2889   1.778   4.019  16.050  0.1781 -0.1647  0.3414
  190MPD1    C2 2890   1.911   3.983  16.064  0.4318 -0.2286 -0.2552
  190MPD1    C3 2891   2.000   4.004  15.966 -0.0973  0.3336  0.3717
  190MPD1    C4 2892   1.961   4.065  15.851  0.3103  0.0757 -0.8358
  190MPD1    C5 2893   1.833   4.110  15.839 -0.0344  0.3477  0.1137
  190MPD1     H 2894   1.951   3.939  16.154 -0.8626 -2.0274 -0.5691
  190MPD1    H1 2895   2.027   4.082  15.766  2.2418 -2.3899  0.1627
  190MPD1    H2 2896   1.644   4.132  15.914  0.8960  2.0679 -1.8618
  190MPD1    H3 2897   1.808   4.166  15.749 -0.0590  0.0354 -0.0752
  190MPD1     N 2898   2.137   3.962  15.986 -0.7153  0.6093 -0.1037
  190MPD1    H5 2899   2.163   3.915  16.072 -0.2914 -1.6044 -1.4554
  190MPD1    N1 2900   1.688   4.007  16.160 -0.1578 -0.2297  0.4461
  190MPD1    H6 2901   1.709   3.926  16.218  2.0377 -1.3465 -1.8583
  190MPD1    H7 2902   1.596   3.980  16.126 -0.6437  3.3217 -1.0030
  191MPD1     C 2903   1.411   0.085  12.749 -0.1325  0.0523 -0.0219
  191MPD1    C1 2904   1.528   0.099  12.688  0.3531 -0.8783  0.1881
  191MPD1    C2 2905   1.523   0.154  12.554 -0.1440  0.0246  0.2762
  191MPD1    C3 2906   1.400   0.187  12.485  0.1767  0.6256 -0.0629
  191MPD1    C4 2907   1.289   0.163  12.559  0.5096 -0.4237 -0.1732
  191MPD1    C5 2908   1.296   0.129  12.694  0.1188 -0.1095 -0.5044
  191MPD1     H 2909   1.618   0.156  12.503 -0.5348 -0.2508 -0.4679
  191MPD1    H1 2910   1.192   0.189  12.520  1.9809  0.8651 -3.0426
  191MPD1    H2 2911   1.403   0.054  12.852  0.8414 -0.9416 -0.2438
  191MPD1    H3 2912   1.206   0.110  12.752  1.4345  0.0292  1.5680
  191MPD1     N 2913   1.392   0.227  12.351 -0.1066 -0.4433  0.4307
  191MPD1    H5 2914   1.484   0.232  12.309 -0.1889 -0.4700  0.2445
  191MPD1    N1 2915   1.648   0.084  12.765 -0.4207 -0.3680 -0.1597
  191MPD1    H6 2916   1.729   0.067  12.706  0.9698  1.9818  1.0362
  191MPD1    H7 2917   1.638   0.015  12.839 -4.9382  1.4140  0.8862
  192MPD1     C 2918   1.044   0.164  11.342  0.3187  0.7692  0.6704
  192MPD1    C1 2919   0.973   0.126  11.450  0.3534 -0.0487  0.3023
  192MPD1    C2 2920   1.016   0.175  11.572 -0.4038 -0.1968  0.1481
  192MPD1    C3 2921   1.119   0.270  11.578 -0.3540 -0.2814  0.3141
  192MPD1    C4 2922   1.178   0.316  11.459 -0.1956 -0.0296 -1.0015
  192MPD1    C5 2923   1.134   0.260  11.342  0.0451  0.4721 -0.3418
  192MPD1     H 2924   0.965   0.135  11.659 -1.6740  1.0102 -0.0423
  192MPD1    H1 2925   1.249   0.398  11.464  0.6263 -0.7476 -0.6807
  192MPD1    H2 2926   1.017   0.121  11.246  0.1165  1.3554  0.4620
  192MPD1    H3 2927   1.185   0.291  11.251 -0.2573  0.5129 -0.4954
  192MPD1     N 2928   1.166   0.326  11.698  0.0765  0.1092 -0.0473
  192MPD1    H5 2929   1.231   0.404  11.700  1.1387 -0.7708 -0.6903
  192MPD1    N1 2930   0.880   0.022  11.451  0.3714 -0.6118  0.5358
  192MPD1    H6 2931   0.806   0.032  11.521  1.8568 -1.3537  2.2035
  192MPD1    H7 2932   0.830   0.014  11.363 -1.8903 -0.9011  1.8291
  193MPD1     C 2933   1.171   0.807  16.802 -0.2388 -0.6084  0.2616
  193MPD1    C1 2934   1.294   0.797  16.725  0.3392 -0.0272  1.0081
  193MPD1    C2 2935   1.394   0.851  16.792  0.1802 -0.2620 -0.4577
  193MPD1    C3 2936   1.375   0.946  16.892  0.3646 -0.5853  0.1425
  193MPD1    C4 2937   1.249   0.967  16.955 -0.1429 -0.7317  0.6546
  193MPD1    C5 2938   1.153   0.888  16.909  0.2909  0.0963  0.4468
  193MPD1     H 2939   1.495   0.836  16.755 -0.7961 -0.2692 -3.1061
  193MPD1    H1 2940   1.247   1.032  17.042  0.7554  0.9613 -0.5757
  193MPD1    H2 2941   1.094   0.739  16.766 -2.0766  0.0787  2.9196
  193MPD1    H3 2942   1.060   0.895  16.964 -0.4340 -0.0058 -0.7652
  193MPD1     N 2943   1.476   1.027  16.938  0.9182  0.1729 -0.0713
  193MPD1    H5 2944   1.464   1.068  17.031  2.0833  0.4370 -0.0314
  193MPD1    N1 2945   1.305   0.698  16.627 -0.2524  0.1942 -0.0238
  193MPD1    H6 2946   1.384   0.704  16.564 -0.4661  1.9218 -0.1315
  193MPD1    H7 2947   1.220   0.695  16.571 -0.6790 -1.2287  0.7022
  194MPD1     C 2948   0.668   3.097  16.701 -0.1591  0.2643  0.3402
  194MPD1    C1 2949   0.651   2.969  16.753 -0.1136  0.6513 -0.1164
  194MPD1    C2 2950   0.520   2.929  16.773 -0.4035 -0.0755  0.2840
  194MPD1    C3 2951   0.416   3.030  16.766  0.9092  0.1033 -0.6520
  194MPD1    C4 2952   0.441   3.155  16.732 -0.0482  0.0572 -1.3454
  194MPD1    C5 2953   0.566   3.186  16.698  0.2864 -0.1549  0.2156
  194MPD1     H 2954   0.500   2.843  16.836  1.9757  0.4484  1.7419
  194MPD1    H1 2955   0.367   3.234  16.730  2.6938  2.5887 -1.7831
  194MPD1    H2 2956   0.764   3.133  16.665 -0.2693  0.8837  0.6684
  194MPD1    H3 2957   0.585   3.290  16.674  0.2972  0.3285  2.2946
  194MPD1     N 2958   0.281   3.005  16.809  0.1845  0.0281 -0.7159
  194MPD1    H5 2959   0.228   3.089  16.831  0.0442  0.1976 -1.6886
  194MPD1    N1 2960   0.756   2.876  16.765 -0.0292  0.6945 -0.1496
  194MPD1    H6 2961   0.732   2.790  16.814  1.2471  1.4469  1.7633
  194MPD1    H7 2962   0.835   2.916  16.814  0.1690 -1.8498  1.5811
  195MPD1     C 2963   1.310   0.138   1.238 -0.3888  0.1563 -0.0322
  195MPD1    C1 2964   1.325   0.009   1.275  0.5471 -0.5466  0.1392
  195MPD1    C2 2965   1.294   4.629   1.182  0.5627 -0.3847  0.6845
  195MPD1    C3 2966   1.262   4.661   1.052 -0.1623 -0.0994 -0.5267
  195MPD1    C4 2967   1.259   0.070   1.010  0.5152  0.2576  0.3102
  195MPD1    C5 2968   1.283   0.170   1.104  0.2225  0.3423  0.1079
  195MPD1     H 2969   1.294   4.528   1.221  1.4483 -0.5393  0.2910
  195MPD1    H1 2970   1.244   0.102   0.908 -2.0437 -1.3417  0.1663
  195MPD1    H2 2971   1.308   0.214   1.314 -0.8163 -0.2822  0.3936
  195MPD1    H3 2972   1.275   0.275   1.081  0.7802  0.6670  1.3705
  195MPD1     N 2973   1.246   4.555   0.954 -0.4658 -0.1510  0.8395
  195MPD1    H5 2974   1.213   4.587   0.863  0.4280 -2.3400 -0.2657
  195MPD1    N1 2975   1.357   4.691   1.405 -0.2843 -0.0552  0.3607
  195MPD1    H6 2976   1.403   0.051   1.444  0.7288 -0.5716  0.2595
  195MPD1    H7 2977   1.420   4.611   1.396  1.0414  0.9719  0.5110
  196MPD1     C 2978   0.205   3.723   0.377  0.2693  0.0026  0.5249
  196MPD1    C1 2979   0.277   3.834   0.333  0.6733  0.5211 -0.2371
  196MPD1    C2 2980   0.368   3.888   0.421  1.0673 -0.6676  0.4059
  196MPD1    C3 2981   0.394   3.837   0.544 -0.2136 -0.3121  0.4795
  196MPD1    C4 2982   0.325   3.722   0.578  0.3137 -1.1363 -0.2863
  196MPD1    C5 2983   0.229   3.670   0.499  0.1230  0.0866  0.2102
  196MPD1     H 2984   0.431   3.969   0.385 -0.6145 -0.2153 -1.5010
  196MPD1    H1 2985   0.346   3.673   0.672  0.9119  2.2459  1.3581
  196MPD1    H2 2986   0.146   3.665   0.307  0.3535  2.6843 -1.7787
  196MPD1    H3 2987   0.178   3.579   0.528  1.1399  0.3135  2.7221
  196MPD1     N 2988   0.500   3.879   0.622  0.3369 -0.7891 -0.3503
  196MPD1    H5 2989   0.509   3.840   0.715 -0.4733 -0.2190 -0.0349
  196MPD1    N1 2990   0.284   3.865   0.198  0.1706  0.4967  0.7247
  196MPD1    H6 2991   0.193   3.855   0.153  0.4583  1.1875 -0.0146
  196MPD1    H7 2992   0.313   3.959   0.174 -1.4936  1.2333  1.5500
  197MPD1     C 2993   4.461   0.782  17.325 -0.0219 -0.9836  0.3290
  197MPD1    C1 2994   4.586   0.758  17.379 -0.0356 -0.2106  1.1051
  197MPD1    C2 2995   4.704   0.831  17.340 -0.2650 -0.0296 -0.4995
  197MPD1    C3 2996   4.690   0.931  17.248 -0.2317 -0.8404 -0.1415
  197MPD1    C4 2997   4.565   0.954  17.197  0.1921 -0.4775  0.2998
  197MPD1    C5 2998   4.455   0.879  17.222 -0.4133  0.0402  0.8850
  197MPD1     H 2999   0.081   0.804  17.378 -0.3177 -0.5066 -0.6948
  197MPD1    H1 3000   4.558   1.033  17.123 -1.0973 -1.7447 -0.9354
  197MPD1    H2 3001   4.371   0.735  17.363  0.1781 -2.2193 -0.7392
  197MPD1    H3 3002   4.360   0.904  17.174  0.0549  0.1000 -0.0140
  197MPD1     N 3003   0.082   1.013  17.206 -0.6511  0.3591 -0.4607
  197MPD1    H5 3004   0.065   1.077  17.129  1.2829  0.3506 -0.8988
  197MPD1    N1 3005   4.594   0.681  17.495  0.1973 -0.1204 -0.1996
  197MPD1    H6 3006   4.684   0.637  17.509 -1.8244 -3.1236  3.3967
  197MPD1    H7 3007   4.535   0.598  17.487 -0.6122  0.3616  0.8954
  198MPD1     C 3008   1.643   4.325  15.276 -0.2065  0.8790  0.1394
  198MPD1    C1 3009   1.632   4.349  15.409  0.0085 -0.7956  0.4019
  198MPD1    C2 3010   1.684   4.466  15.456  0.1024 -0.4351 -0.1967
  198MPD1    C3 3011   1.715   4.573  15.366  0.3147  0.0162  0.9165
  198MPD1    C4 3012   1.698   4.551  15.229 -0.3411 -0.4392 -0.1115
  198MPD1    C5 3013   1.668   4.429  15.186  0.4685 -0.6024  0.4015
  198MPD1     H 3014   1.700   4.477  15.563 -0.4801  0.3093 -0.1896
  198MPD1    H1 3015   1.721   4.626  15.154  1.4692  0.5751  1.4589
  198MPD1    H2 3016   1.609   4.228  15.241  0.1407  0.2581  1.5002
  198MPD1    H3 3017   1.657   4.404  15.081  1.4948 -0.0394  0.1615
  198MPD1     N 3018   1.755   4.696  15.424 -0.1793  0.5719 -0.4711
  198MPD1    H5 3019   1.744   4.710  15.524  4.0685  0.3663  0.0195
  198MPD1    N1 3020   1.616   4.238  15.491  0.3443 -0.0930  0.3617
  198MPD1    H6 3021   1.594   4.258  15.588  0.0978 -0.6012  0.4148
  198MPD1    H7 3022   1.559   4.161  15.456 -0.5175  0.3439  0.8281
  199MPD1     C 3023   4.717   0.149   9.759  0.0391 -0.4019 -0.2500
  199MPD1    C1 3024   0.033   0.266   9.708 -1.3659 -0.0482  0.6020
  199MPD1    C2 3025   4.667   0.334   9.626  0.3834  0.1144 -0.2916
  199MPD1    C3 3026   4.555   0.285   9.573  0.0552 -0.2354  0.6848
  199MPD1    C4 3027   4.525   0.149   9.613 -0.3435 -0.1476 -0.5652
  199MPD1    C5 3028   4.599   0.096   9.716 -0.1833 -0.7311 -0.2974
  199MPD1     H 3029   4.688   0.436   9.598  0.0415  0.2309 -0.1293
  199MPD1    H1 3030   4.448   0.082   9.575 -1.1737 -0.9317  2.4504
  199MPD1    H2 3031   0.045   0.106   9.845  1.4091 -0.4301 -1.0550
  199MPD1    H3 3032   4.568   4.716   9.743 -0.4787 -0.7281 -0.6373
  199MPD1     N 3033   4.465   0.359   9.499 -0.0545 -0.3558  0.5046
  199MPD1    H5 3034   4.381   0.307   9.477 -0.1614  0.6651 -1.5365
  199MPD1    N1 3035   0.154   0.319   9.771 -0.0403  0.0266 -0.8031
  199MPD1    H6 3036   0.182   0.404   9.723  3.3285 -1.2946 -1.1549
  199MPD1    H7 3037   0.231   0.252   9.774  2.4251  2.8848 -0.9597
  200MPD1     C 3038   3.206   1.791  14.363 -0.5563 -0.0819  0.5512
  200MPD1    C1 3039   3.312   1.783  14.277 -0.5444  0.3642 -0.1853
  200MPD1    C2 3040   3.428   1.838  14.317 -0.4802 -0.0116 -0.1481
  200MPD1    C3 3041   3.445   1.896  14.438 -0.1848  0.0761  0.0139
  200MPD1    C4 3042   3.338   1.901  14.528  0.2394  0.7637  0.8001
  200MPD1    C5 3043   3.216   1.849  14.491  0.3638 -0.0768  0.1705
  200MPD1     H 3044   3.512   1.830  14.249 -0.9016 -0.3648 -0.6287
  200MPD1    H1 3045   3.341   1.957  14.621 -1.1839  0.2893  1.1283
  200MPD1    H2 3046   3.110   1.758  14.327 -0.4504  0.8258 -0.5410
  200MPD1    H3 3047   3.133   1.861  14.559  0.9903 -0.8910  1.0848
  200MPD1     N 3048   3.575   1.943  14.469 -0.6690 -0.0010 -0.5049
  200MPD1    H5 3049   3.636   1.964  14.391  1.2895 -0.4487  0.9093
  200MPD1    N1 3050   3.296   1.715  14.153  0.2220  0.0524  0.2319
  200MPD1    H6 3051   3.206   1.721  14.107  2.1150 -0.7257 -3.5654
  200MPD1    H7 3052   3.360   1.743  14.079  0.2011  0.4984  0.3793
  201MPD1     C 3053   0.375   3.719  13.315 -0.6534 -0.0704  0.1814
  201MPD1    C1 3054   0.386   3.657  13.437 -0.1589  0.9310 -0.1227
  201MPD1    C2 3055   0.501   3.675  13.517 -0.2658  0.2327  0.0457
  201MPD1    C3 3056   0.611   3.735  13.463 -0.0764 -0.0323  0.0092
  201MPD1    C4 3057   0.603   3.795  13.341  0.1923  0.1137 -0.6920
  201MPD1    C5 3058   0.486   3.780  13.264  0.1771 -0.0409 -0.0758
  201MPD1     H 3059   0.502   3.618  13.609  0.7255  1.3755  0.7341
  201MPD1    H1 3060   0.682   3.851  13.293  2.1808 -1.0122  1.3291
  201MPD1    H2 3061   0.284   3.726  13.257  0.2993 -3.8699 -1.8565
  201MPD1    H3 3062   0.476   3.836  13.171 -0.6735  0.3521  0.2479
  201MPD1     N 3063   0.732   3.737  13.534  0.3911 -0.1910 -0.6139
  201MPD1    H5 3064   0.736   3.695  13.627  1.0228 -1.2988 -1.1434
  201MPD1    N1 3065   0.266   3.589  13.482  0.2107  0.5517 -0.2694
  201MPD1    H6 3066   0.279   3.512  13.547 -0.8287  1.0761  0.5623
  201MPD1    H7 3067   0.220   3.554  13.398  0.2211  0.4533 -0.2342
  202MPD1     C 3068   0.159   3.373   8.967 -0.6023  0.5570  0.0362
  202MPD1    C1 3069   0.246   3.294   9.031 -1.2861  0.7116 -0.5695
  202MPD1    C2 3070   0.300   3.353   9.144 -0.2819 -0.2126  0.0976
  202MPD1    C3 3071   0.249   3.469   9.205  0.1013 -0.0527  0.2304
  202MPD1    C4 3072   0.155   3.539   9.135  0.3029 -0.1560  1.6535
  202MPD1    C5 3073   0.111   3.496   9.009 -0.3188  0.2990  0.6801
  202MPD1     H 3074   0.378   3.297   9.194 -0.0812  0.2502  0.3040
  202MPD1    H1 3075   0.103   3.630   9.164 -0.2184 -0.1296  0.6540
  202MPD1    H2 3076   0.112   3.329   8.880 -1.3109  1.0746  0.1590
  202MPD1    H3 3077   0.045   3.557   8.949  1.7222  1.1020 -0.7643
  202MPD1     N 3078   0.286   3.517   9.334  0.3874  0.1624  0.0241
  202MPD1    H5 3079   0.249   3.608   9.357  1.4449  0.2575  1.3609
  202MPD1    N1 3080   0.319   3.199   8.961  0.0450 -0.2987  0.2604
  202MPD1    H6 3081   0.262   3.130   8.912  1.7901 -1.6093  0.0778
  202MPD1    H7 3082   0.383   3.142   9.016 -1.2436  0.4684  2.5455
  203MPD1     C 3083   4.551   0.765  12.193 -0.1322  0.8408  0.3939
  203MPD1    C1 3084   4.493   0.663  12.126 -0.0914 -0.9803  0.1607
  203MPD1    C2 3085   4.542   0.535  12.131  0.4584 -0.1209 -0.0731
  203MPD1    C3 3086   4.640   0.511  12.224  0.4701 -0.4173 -0.2427
  203MPD1    C4 3087   4.707   0.618  12.285 -0.4174 -0.2340 -0.3781
  203MPD1    C5 3088   4.667   0.746  12.258 -0.3498  0.2653  0.9093
  203MPD1     H 3089   4.486   0.453  12.088 -0.3387 -0.1081  0.9387
  203MPD1    H1 3090   0.073   0.615  12.350 -0.7629  0.6869  0.1380
  203MPD1    H2 3091   4.533   0.869  12.167  1.1539  0.9473 -0.0481
  203MPD1    H3 3092   4.720   0.837  12.284  2.0379 -0.2856 -2.0081
  203MPD1     N 3093   4.670   0.380  12.260  0.3856  0.4063  0.2710
  203MPD1    H5 3094   4.617   0.303  12.222  0.8972  0.4141 -0.4486
  203MPD1    N1 3095   4.370   0.686  12.065  0.2325  0.5116  0.4163
  203MPD1    H6 3096   4.342   0.783  12.048  0.4486  0.5364  0.1898
  203MPD1    H7 3097   4.363   0.629  11.981 -0.8419 -0.7792  1.3872
  204MPD1     C 3098   4.116   1.637   0.391  0.3088 -0.0767 -0.4470
  204MPD1    C1 3099   4.184   1.605   0.285  0.1465 -0.1123  0.0475
  204MPD1    C2 3100   4.121   1.531   0.186  0.3668  1.1121  0.9561
  204MPD1    C3 3101   3.989   1.494   0.207 -0.3069 -0.6288  0.0835
  204MPD1    C4 3102   3.920   1.538   0.315  0.5052  0.3031  0.0470
  204MPD1    C5 3103   3.991   1.597   0.414  0.0068  0.1256  0.0527
  204MPD1     H 3104   4.170   1.490   0.098 -1.7096 -0.6938  0.6285
  204MPD1    H1 3105   3.816   1.515   0.332  0.5076 -0.9023 -1.5323
  204MPD1    H2 3106   4.158   1.697   0.471  1.8343 -0.4086 -0.9912
  204MPD1    H3 3107   3.960   1.615   0.516 -0.0774  2.7310 -0.4286
  204MPD1     N 3108   3.937   1.412   0.104 -0.4726  0.0769  0.5141
  204MPD1    H5 3109   3.996   1.389   0.025 -1.1971  0.5540 -0.1631
  204MPD1    N1 3110   4.321   1.638   0.271 -0.9041  0.0507  0.6464
  204MPD1    H6 3111   4.355   1.665   0.179 -1.5425 -0.9540  0.1069
  204MPD1    H7 3112   4.367   1.694   0.341 -3.2460  0.5091  1.8247
  205MPD1     C 3113   3.470   4.557  16.688  0.6973  0.0450  0.0517
  205MPD1    C1 3114   3.367   4.641  16.733 -0.5526 -0.1328  0.2964
  205MPD1    C2 3115   3.384   4.709  16.848 -0.2354  0.0590 -0.5268
  205MPD1    C3 3116   3.492   4.692  16.924  0.2177  0.5950  0.1166
  205MPD1    C4 3117   3.599   4.614  16.873 -0.5615  0.2138 -0.8983
  205MPD1    C5 3118   3.591   4.549  16.750 -0.6130 -0.2626  0.5436
  205MPD1     H 3119   3.305   0.057  16.871 -1.0705 -0.6278 -1.3171
  205MPD1    H1 3120   3.694   4.594  16.921 -0.9356  0.5176 -0.0209
  205MPD1    H2 3121   3.464   4.497  16.598  1.3008  0.5186 -0.3054
  205MPD1    H3 3122   3.668   4.479  16.720  1.8860  2.6425  0.1865
  205MPD1     N 3123   3.507   0.034  17.050  0.0913  0.2534  0.0309
  205MPD1    H5 3124   3.588   4.714  17.097 -0.5457  0.7467  1.5601
  205MPD1    N1 3125   3.257   4.666  16.654  0.0505 -0.0570 -0.9077
  205MPD1    H6 3126   3.255   4.608  16.570 -0.4109 -0.1271 -0.8477
  205MPD1    H7 3127   3.174   4.664  16.712  0.4076  0.0366 -0.3904
  206MPD1     C 3128   3.849   3.172  16.841  0.2049  0.1300  0.0957
  206MPD1    C1 3129   3.942   3.125  16.750  0.3098 -0.3451 -0.2233
  206MPD1    C2 3130   3.907   3.122  16.614  0.1084 -0.1036 -0.5320
  206MPD1    C3 3131   3.778   3.161  16.583  0.2194  0.5624  0.2997
  206MPD1    C4 3132   3.692   3.221  16.680  0.1311 -0.8275 -0.1707
  206MPD1    C5 3133   3.729   3.220  16.805  0.1111 -0.0791 -0.0349
  206MPD1     H 3134   3.976   3.077  16.543 -1.1941  1.1999 -2.6513
  206MPD1    H1 3135   3.591   3.255  16.659  0.9133  0.5195 -1.6842
  206MPD1    H2 3136   3.859   3.152  16.947 -1.1079  1.5134  0.4719
  206MPD1    H3 3137   3.660   3.247  16.884 -0.4062 -1.3656 -0.0566
  206MPD1     N 3138   3.726   3.151  16.453 -0.5472 -0.4606 -0.4321
  206MPD1    H5 3139   3.630   3.178  16.433 -0.0138  0.7143 -1.3752
  206MPD1    N1 3140   4.059   3.057  16.790  0.0671  0.0806  0.0713
  206MPD1    H6 3141   4.141   3.078  16.733 -0.4215 -0.8382 -0.9525
  206MPD1    H7 3142   4.091   3.078  16.885 -0.4734 -2.9642  0.9415
  207MPD1     C 3143   1.333   0.447   9.373  0.0627  0.7668  0.0289
  207MPD1    C1 3144   1.397   0.559   9.407  0.9039 -0.1028  0.2052
  207MPD1    C2 3145   1.508   0.546   9.496  0.7033  0.6853 -0.3737
  207MPD1    C3 3146   1.551   0.430   9.548  0.2285 -0.2364 -0.4572
  207MPD1    C4 3147   1.480   0.317   9.513  0.7880 -0.5701 -0.5332
  207MPD1    C5 3148   1.371   0.324   9.429  0.5364 -0.0149  0.0905
  207MPD1     H 3149   1.561   0.634   9.533  0.4936  0.8240 -0.4021
  207MPD1    H1 3150   1.503   0.219   9.553 -0.3642 -1.4909 -2.1148
  207MPD1    H2 3151   1.241   0.448   9.315 -1.0441 -1.1927  1.7344
  207MPD1    H3 3152   1.318   0.231   9.408 -0.2318  0.6119 -0.7743
  207MPD1     N 3153   1.658   0.413   9.639 -0.3577  0.6000 -0.3637
  207MPD1    H5 3154   1.681   0.317   9.665  0.3261  0.7997 -0.2267
  207MPD1    N1 3155   1.348   0.684   9.377  0.1995 -0.0549  0.1195
  207MPD1    H6 3156   1.329   0.680   9.277 -1.1843 -1.0089  0.4210
  207MPD1    H7 3157   1.417   0.757   9.391 -0.5403  0.5841  0.4233
  208MPD1     C 3158   4.597   0.380  17.276 -0.5146  1.3026 -0.0547
  208MPD1    C1 3159   4.474   0.361  17.319  0.4052  1.0202  0.0205
  208MPD1    C2 3160   4.436   0.253  17.397 -0.4074  0.6138 -0.2777
  208MPD1    C3 3161   4.530   0.158  17.434 -0.0016 -0.2624 -0.8170
  208MPD1    C4 3162   4.662   0.181  17.391 -0.0889  0.1860 -0.3020
  208MPD1    C5 3163   4.691   0.297  17.326  0.7874 -0.0042  0.2458
  208MPD1     H 3164   4.335   0.236  17.431 -0.3421  3.2091  1.1302
  208MPD1    H1 3165   0.024   0.130  17.438 -0.5861 -0.2743  0.0838
  208MPD1    H2 3166   4.617   0.454  17.199  0.1064 -0.0744 -1.2243
  208MPD1    H3 3167   0.074   0.306  17.299  0.4000  0.2576 -1.1749
  208MPD1     N 3168   4.496   0.050  17.521 -0.1165  0.0856  0.0711
  208MPD1    H5 3169   4.397   0.048  17.545  0.3238  0.7674  1.8931
  208MPD1    N1 3170   4.371   0.431  17.258 -0.1122  0.0097  0.2514
  208MPD1    H6 3171   4.409   0.516  17.216 -0.2025  0.3547  0.8759
  208MPD1    H7 3172   4.291   0.455  17.316 -0.0393 -0.8988  0.7333
  209MPD1     C 3173   1.530   3.897  11.088  0.1258 -0.2365  0.2725
  209MPD1    C1 3174   1.639   3.958  11.142 -0.2458 -0.4084 -0.5015
  209MPD1    C2 3175   1.704   4.047  11.058  0.1559  0.2332 -0.6547
  209MPD1    C3 3176   1.655   4.105  10.945 -0.0145  0.3445 -0.2000
  209MPD1    C4 3177   1.541   4.053  10.895 -0.1923  0.1954 -0.8290
  209MPD1    C5 3178   1.488   3.942  10.967  0.9878 -0.9718 -0.1167
  209MPD1     H 3179   1.789   4.101  11.099  1.3143 -2.4580  0.5291
  209MPD1    H1 3180   1.503   4.083  10.798  1.2362  3.7895 -0.2736
  209MPD1    H2 3181   1.484   3.820  11.150 -0.5245  0.0460  0.1421
  209MPD1    H3 3182   1.392   3.913  10.925  0.3584 -0.9906  1.3574
  209MPD1     N 3183   1.736   4.200  10.872 -0.1866  0.2021 -0.4085
  209MPD1    H5 3184   1.827   4.229  10.907 -0.4006 -1.0926  1.2455
  209MPD1    N1 3185   1.700   3.897  11.257  0.0169 -0.3928  0.2877
  209MPD1    H6 3186   1.645   3.849  11.328 -0.6692  0.6268  0.4463
  209MPD1    H7 3187   1.785   3.942  11.289  0.0209 -1.4130  1.6971
  210MPD1     C 3188   2.374   0.171  11.073  0.0172  0.3037  0.1808
  210MPD1    C1 3189   2.254   0.125  11.111 -0.5802 -0.0150 -0.2816
  210MPD1    C2 3190   2.188   0.025  11.038 -0.1408 -0.8558 -0.4369
  210MPD1    C3 3191   2.240   4.713  10.911  0.3405  0.3086 -0.3133
  210MPD1    C4 3192   2.350   0.064  10.866  0.2785  0.3018  0.0068
  210MPD1    C5 3193   2.420   0.146  10.947  0.0432  0.3490  0.0929
  210MPD1     H 3194   2.100   4.698  11.079 -0.4657 -0.2962 -0.4756
  210MPD1    H1 3195   2.382   0.052  10.763  0.3696 -0.4288  0.1137
  210MPD1    H2 3196   2.425   0.233  11.147 -0.6995  0.5977  0.4265
  210MPD1    H3 3197   2.507   0.200  10.912  1.1768 -1.2197  0.4670
  210MPD1     N 3198   2.177   4.624  10.819 -0.0350 -0.6082  0.2468
  210MPD1    H5 3199   2.217   4.619  10.727 -2.1750 -2.3868 -0.5927
  210MPD1    N1 3200   2.203   0.144  11.240  0.6466 -0.6645  0.0672
  210MPD1    H6 3201   2.230   0.233  11.281 -0.7666 -0.6692  1.0130
  210MPD1    H7 3202   2.101   0.140  11.241  0.6361  0.5678  3.4159
  211MPD1     C 3203   4.371   4.324  16.072  0.2658 -0.0716  0.3203
  211MPD1    C1 3204   4.397   4.462  16.057 -0.1060 -0.8315 -0.2876
  211MPD1    C2 3205   4.296   4.552  16.046  0.6180  0.2462  0.0881
  211MPD1    C3 3206   4.163   4.502  16.050  0.2815 -0.6431  0.5565
  211MPD1    C4 3207   4.140   4.372  16.074  0.2350 -0.4808 -0.5579
  211MPD1    C5 3208   4.242   4.280  16.095  0.4629  0.7558 -0.2936
  211MPD1     H 3209   4.313   4.657  16.024 -0.8472 -0.2152 -3.1837
  211MPD1    H1 3210   4.041   4.326  16.076 -0.5555  1.2898  0.8782
  211MPD1    H2 3211   4.455   4.255  16.071  1.1011  0.9223  0.3994
  211MPD1    H3 3212   4.216   4.175  16.100 -0.4809  0.9559 -0.9448
  211MPD1     N 3213   4.058   4.598  16.047  0.1361  0.4265 -0.5020
  211MPD1    H5 3214   4.080   4.696  16.033 -0.6761  0.8854  1.3616
  211MPD1    N1 3215   4.529   4.496  16.041 -0.3531 -0.0456  0.0376
  211MPD1    H6 3216   4.597   4.438  16.090  0.1096  2.8100  2.7338
  211MPD1    H7 3217   4.558   4.591  16.063 -1.3411  0.3516 -0.3847
  212MPD1     C 3218   3.474   3.466  17.084 -0.1549  0.5580 -0.0305
  212MPD1    C1 3219   3.423   3.403  16.975 -0.2211 -0.1172  0.0483
  212MPD1    C2 3220   3.372   3.270  16.995  0.1020 -0.0645 -0.2252
  212MPD1    C3 3221   3.413   3.196  17.107  0.1691 -0.3984 -1.4469
  212MPD1    C4 3222   3.472   3.264  17.210  0.7795 -0.0775  0.4560
  212MPD1    C5 3223   3.500   3.397  17.200  0.2571 -0.4387 -0.3581
  212MPD1     H 3224   3.316   3.219  16.917  0.2016  0.3092 -0.5429
  212MPD1    H1 3225   3.490   3.210  17.303 -2.7335 -0.7479  0.7313
  212MPD1    H2 3226   3.488   3.573  17.079  0.5667  0.5246  1.3445
  212MPD1    H3 3227   3.547   3.452  17.281 -2.3976 -1.2370  1.7108
  212MPD1     N 3228   3.382   3.063  17.114  0.0249  0.0145 -0.1399
  212MPD1    H5 3229   3.371   3.023  17.207  0.1047 -0.4143 -0.3160
  212MPD1    N1 3230   3.381   3.476  16.863 -0.1476  0.2361  0.4184
  212MPD1    H6 3231   3.374   3.413  16.783  0.1361  0.7050  0.0198
  212MPD1    H7 3232   3.440   3.558  16.848  2.3557 -1.5105  0.8404
  213MPD1     C 3233   1.520   3.743  15.774 -0.0445  0.4493  0.9820
  213MPD1    C1 3234   1.438   3.657  15.703  0.1768 -0.1766  0.2932
  213MPD1    C2 3235   1.355   3.717  15.615  0.3278  0.9617 -1.2233
  213MPD1    C3 3236   1.370   3.844  15.579  0.2313 -0.4836 -0.4351
  213MPD1    C4 3237   1.471   3.923  15.627 -0.5106 -0.8780  0.5278
  213MPD1    C5 3238   1.554   3.873  15.727 -0.6224 -0.4347 -0.2787
  213MPD1     H 3239   1.263   3.668  15.585  0.6575 -0.3654 -0.0535
  213MPD1    H1 3240   1.491   4.021  15.585 -1.3053 -0.6097  0.7781
  213MPD1    H2 3241   1.577   3.694  15.852  1.6439 -0.2728 -0.7066
  213MPD1    H3 3242   1.636   3.926  15.775  0.7056 -1.9389 -0.8574
  213MPD1     N 3243   1.280   3.897  15.482 -0.0813 -0.0286 -0.2692
  213MPD1    H5 3244   1.202   3.839  15.453  1.6858 -2.0573 -0.9820
  213MPD1    N1 3245   1.392   3.539  15.768 -0.0926 -0.0961  0.0464
  213MPD1    H6 3246   1.462   3.487  15.821  2.4554  2.0356 -1.2448
  213MPD1    H7 3247   1.348   3.475  15.702  0.9369 -1.2090  0.4449
  214MPD1     C 3248   0.334   3.881  15.202  0.0307  0.0798  0.4035
  214MPD1    C1 3249   0.421   3.836  15.298 -0.1386  0.2058 -0.1790
  214MPD1    C2 3250   0.556   3.865  15.295 -0.3300 -0.3166  0.0352
  214MPD1    C3 3251   0.592   3.959  15.202 -1.7009 -0.3544  0.0226
  214MPD1    C4 3252   0.507   4.012  15.109  0.3570  0.0718  0.5558
  214MPD1    C5 3253   0.379   3.968  15.105 -0.1816  0.2022 -0.1489
  214MPD1     H 3254   0.632   3.825  15.361  1.9990  0.6558 -2.0911
  214MPD1    H1 3255   0.528   4.095  15.042 -0.3996 -0.0798  0.1260
  214MPD1    H2 3256   0.234   3.839  15.194 -0.4045  1.0021  1.0085
  214MPD1    H3 3257   0.307   4.021  15.043  1.5554 -0.2790 -2.5805
  214MPD1     N 3258   0.729   4.009  15.207 -0.4034  1.0557 -0.2211
  214MPD1    H5 3259   0.756   4.073  15.133  0.7920  0.7987  0.0046
  214MPD1    N1 3260   0.377   3.720  15.364 -0.2238 -0.3270  0.0148
  214MPD1    H6 3261   0.282   3.738  15.393 -0.2397 -0.5423  0.1017
  214MPD1    H7 3262   0.426   3.706  15.453  0.6828 -1.3408 -0.6312
  215MPD1     C 3263   0.886   4.666  10.512 -0.2554 -0.4179 -0.3823
  215MPD1    C1 3264   0.935   0.069  10.560  0.3048 -0.8743  0.3950
  215MPD1    C2 3265   1.068   0.073  10.583  0.1698  0.3250 -0.5578
  215MPD1    C3 3266   1.154   4.697  10.539 -0.3732  0.5665  0.2269
  215MPD1    C4 3267   1.101   4.581  10.486  0.4432 -0.4623 -0.2821
  215MPD1    C5 3268   0.963   4.562  10.479 -0.6316 -0.8110  0.5010
  215MPD1     H 3269   1.108   0.168  10.617 -2.0063  1.0325 -0.0183
  215MPD1    H1 3270   1.163   4.495  10.463 -0.2856 -0.9747 -0.3490
  215MPD1    H2 3271   0.781   4.650  10.487 -0.3227  0.2519 -0.5192
  215MPD1    H3 3272   0.921   4.465  10.453 -1.2743 -0.2365 -0.6549
  215MPD1     N 3273   1.296   4.712  10.553  0.9805  0.0947  0.1250
  215MPD1    H5 3274   1.324   0.073  10.605 -1.2341 -0.1850  1.7723
  215MPD1    N1 3275   0.844   0.180  10.573  0.2751 -0.5649  0.2050
  215MPD1    H6 3276   0.871   0.251  10.642  0.1307 -1.0349  0.7448
  215MPD1    H7 3277   0.750   0.157  10.602 -0.6829  0.3917 -2.1245
  216MPD1     C 3278   3.593   2.757  16.372 -0.0525  0.4991 -0.0165
  216MPD1    C1 3279   3.625   2.629  16.340  0.4197  0.5469 -0.2127
  216MPD1    C2 3280   3.654   2.535  16.440  0.2759 -0.7531 -0.2706
  216MPD1    C3 3281   3.658   2.577  16.571 -0.3479  0.2545 -0.1333
  216MPD1    C4 3282   3.616   2.704  16.601 -0.0549 -0.1143 -0.7739
  216MPD1    C5 3283   3.583   2.791  16.507 -0.2146  0.0036  0.1505
  216MPD1     H 3284   3.674   2.432  16.412 -0.9766 -1.6668  2.2336
  216MPD1    H1 3285   3.601   2.735  16.703 -0.9387  0.8133 -1.1872
  216MPD1    H2 3286   3.573   2.842  16.308 -0.0596  2.0346  2.0156
  216MPD1    H3 3287   3.537   2.887  16.525  1.4280  1.2498 -2.3250
  216MPD1     N 3288   3.694   2.480  16.671 -0.2742  0.4897 -0.0039
  216MPD1    H5 3289   3.730   2.387  16.654 -0.7574  0.2711  0.1995
  216MPD1    N1 3290   3.652   2.597  16.206 -0.4059  0.5308 -0.5030
  216MPD1    H6 3291   3.597   2.657  16.144 -2.9046 -0.7557  0.4553
  216MPD1    H7 3292   3.642   2.496  16.195 -0.0759  0.1045  3.1229
  217MPD1     C 3293   3.528   2.423   8.343  0.9463 -0.2240 -0.4617
  217MPD1    C1 3294   3.547   2.547   8.301  0.1504  0.2428 -0.6385
  217MPD1    C2 3295   3.646   2.624   8.353  0.7161  1.0505 -0.3729
  217MPD1    C3 3296   3.719   2.582   8.460  0.0808 -0.1901 -0.1034
  217MPD1    C4 3297   3.678   2.463   8.517  0.0594 -0.1087  0.2288
  217MPD1    C5 3298   3.582   2.387   8.463  0.2586 -0.9497  0.4700
  217MPD1     H 3299   3.670   2.721   8.310  0.4996  1.0617 -0.4689
  217MPD1    H1 3300   3.724   2.422   8.605  3.4093  0.0558 -1.4515
  217MPD1    H2 3301   3.455   2.348   8.313 -1.0180  1.2145  0.8031
  217MPD1    H3 3302   3.547   2.296   8.510  1.4976 -2.2317 -1.0969
  217MPD1     N 3303   3.822   2.657   8.515  0.0696  0.5164 -0.1425
  217MPD1    H5 3304   3.879   2.613   8.587  0.9650  0.7915 -0.6918
  217MPD1    N1 3305   3.476   2.597   8.194 -0.5245  0.3068 -0.2659
  217MPD1    H6 3306   3.393   2.543   8.170 -0.9046  0.1151  1.4846
  217MPD1    H7 3307   3.457   2.697   8.189  3.0611  1.0201  0.3386
  218MPD1     C 3308   1.296   0.611  12.644 -0.4184 -0.6155 -0.7318
  218MPD1    C1 3309   1.427   0.579  12.635 -0.2029 -0.5111  0.2329
  218MPD1    C2 3310   1.484   0.502  12.728 -0.5787  0.3579  0.2188
  218MPD1    C3 3311   1.403   0.453  12.830  0.2168 -0.0262  0.4587
  218MPD1    C4 3312   1.278   0.497  12.847  0.0056  0.4163  0.4580
  218MPD1    C5 3313   1.216   0.563  12.742  0.6032 -0.2237 -0.5279
  218MPD1     H 3314   1.590   0.489  12.706 -0.7078  0.3622 -0.4130
  218MPD1    H1 3315   1.214   0.456  12.924  1.5624 -0.9707  1.0325
  218MPD1    H2 3316   1.260   0.671  12.560 -0.3969  1.8237  1.0094
  218MPD1    H3 3317   1.118   0.606  12.758  0.7902 -0.2577  0.6877
  218MPD1     N 3318   1.461   0.366  12.927 -0.2923 -0.0805 -0.0318
  218MPD1    H5 3319   1.557   0.344  12.902 -0.9456 -1.2531 -1.5069
  218MPD1    N1 3320   1.497   0.605  12.517 -0.1459 -0.0700  0.2941
  218MPD1    H6 3321   1.439   0.657  12.452 -1.2894 -2.6866 -0.7698
  218MPD1    H7 3322   1.591   0.646  12.519 -1.0251  1.8570  2.7433
  219MPD1     C 3323   2.091   0.468  13.680  0.2809 -0.4745 -0.1555
  219MPD1    C1 3324   2.069   0.524  13.552 -0.4597 -0.3930  0.3198
  219MPD1    C2 3325   1.980   0.465  13.466  0.4390  0.2084  0.0478
  219MPD1    C3 3326   1.924   0.342  13.500 -0.2894 -0.4496 -0.0620
  219MPD1    C4 3327   1.954   0.281  13.621  0.2321 -0.3494 -0.3070
  219MPD1    C5 3328   2.029   0.346  13.706  0.1811  0.6238  0.2852
  219MPD1     H 3329   1.959   0.518  13.374 -0.9574 -2.0708 -0.9313
  219MPD1    H1 3330   1.902   0.194  13.658 -1.8527  0.9833 -0.0645
  219MPD1    H2 3331   2.138   0.528  13.757  0.6422  0.9066 -1.4586
  219MPD1    H3 3332   2.042   0.295  13.800  1.3178 -0.1865 -0.3130
  219MPD1     N 3333   1.836   0.274  13.413  0.3420 -0.0605 -0.5436
  219MPD1    H5 3334   1.795   0.196  13.462  1.2360 -0.6831 -0.7786
  219MPD1    N1 3335   2.096   0.660  13.535  0.1582 -0.6886  0.7217
  219MPD1    H6 3336   2.112   0.690  13.438  0.8701 -1.7787  0.5004
  219MPD1    H7 3337   2.180   0.698  13.578 -0.1584  1.5436 -0.5941
  220MPD1     C 3338   1.028   1.176   9.438 -0.6880 -0.7565 -0.5638
  220MPD1    C1 3339   1.140   1.111   9.387 -0.6554  0.1599  0.6156
  220MPD1    C2 3340   1.164   0.977   9.421 -0.5284 -0.4851 -0.1240
  220MPD1    C3 3341   1.073   0.910   9.497  0.6376 -0.3365  0.0149
  220MPD1    C4 3342   0.957   0.975   9.543 -0.2450 -0.0790 -0.1509
  220MPD1    C5 3343   0.935   1.109   9.507  0.2589 -0.0657  0.1164
  220MPD1     H 3344   1.255   0.930   9.386 -0.3437 -2.3821  2.8541
  220MPD1    H1 3345   0.876   0.927   9.597 -0.3237 -1.7845 -1.8060
  220MPD1    H2 3346   0.991   1.273   9.404  0.5859 -0.5149 -1.2727
  220MPD1    H3 3347   0.839   1.158   9.522 -0.0256 -0.0777 -1.6423
  220MPD1     N 3348   1.112   0.782   9.522 -0.8175  0.1237 -0.0542
  220MPD1    H5 3349   1.204   0.749   9.496 -0.4299  0.5289  0.7899
  220MPD1    N1 3350   1.235   1.193   9.322 -0.0264 -0.7702 -0.5282
  220MPD1    H6 3351   1.298   1.144   9.258 -1.1534  0.0462 -2.2666
  220MPD1    H7 3352   1.198   1.268   9.264 -1.5401 -0.6509  0.6209
  221MPD1     C 3353   3.270   0.077  16.327  0.0669  0.5280 -0.1263
  221MPD1    C1 3354   3.363   0.155  16.384  0.1857 -0.3104 -0.4283
  221MPD1    C2 3355   3.486   0.094  16.406  0.1713 -0.6337 -0.0552
  221MPD1    C3 3356   3.517   4.687  16.375 -0.3744  0.5414 -0.1499
  221MPD1    C4 3357   3.425   4.617  16.304  1.1562 -0.1704  0.0552
  221MPD1    C5 3358   3.295   4.666  16.288  0.5378 -0.0832 -0.3766
  221MPD1     H 3359   3.558   0.153  16.462  0.6371 -0.6548 -0.6198
  221MPD1    H1 3360   3.451   4.516  16.275 -1.4781 -1.4073  2.0009
  221MPD1    H2 3361   3.167   0.109  16.323 -0.6425 -1.4539  2.3072
  221MPD1    H3 3362   3.215   4.605  16.247 -0.2521  1.7964 -1.6136
  221MPD1     N 3363   3.641   4.632  16.390  0.2737  0.7392 -0.0059
  221MPD1    H5 3364   3.653   4.540  16.349 -0.1243  0.2907  0.8790
  221MPD1    N1 3365   3.324   0.284  16.434  0.3674  0.7517  0.1686
  221MPD1    H6 3366   3.262   0.330  16.369  1.5924  2.4591  0.2185
  221MPD1    H7 3367   3.403   0.342  16.463  0.6896 -0.6328  2.1298
  222MPD1     C 3368   3.500   2.510  17.260  0.0938 -0.1743 -0.6286
  222MPD1    C1 3369   3.531   2.643  17.251  0.6001  0.1013 -0.5115
  222MPD1    C2 3370   3.480   2.734  17.342 -0.5124 -0.0610 -0.7391
  222MPD1    C3 3371   3.378   2.694  17.430  0.2373 -0.3917  0.2432
  222MPD1    C4 3372   3.353   2.559  17.439 -0.1420 -0.3190  0.2876
  222MPD1    C5 3373   3.412   2.463  17.360 -0.4325  0.2298  0.5074
  222MPD1     H 3374   3.505   2.839  17.334  1.3513 -0.4223  0.2622
  222MPD1    H1 3375   3.271   2.522  17.500 -0.8530 -1.3693 -1.2800
  222MPD1    H2 3376   3.539   2.440  17.187 -0.2754 -1.3036  0.2486
  222MPD1    H3 3377   3.372   2.363  17.370  0.9122 -0.5350 -1.6361
  222MPD1     N 3378   3.313   2.785  17.506 -0.2404  0.0341 -0.1044
  222MPD1    H5 3379   3.232   2.748  17.555  0.9718 -2.0992  0.2953
  222MPD1    N1 3380   3.635   2.683  17.173  0.0063  0.3886  0.3071
  222MPD1    H6 3381   3.635   2.781  17.148 -1.2269  0.3082 -0.0103
  222MPD1    H7 3382   3.624   2.633  17.085 -1.5556  1.6532 -0.2300
  223MPD1     C 3383   2.795   2.821   0.635  0.6323 -0.4704 -0.2316
  223MPD1    C1 3384   2.809   2.957   0.623  0.0612 -0.5479 -0.0311
  223MPD1    C2 3385   2.871   2.999   0.506 -0.5116  0.0604 -0.3248
  223MPD1    C3 3386   2.896   2.913   0.401  0.2295  0.5369 -0.1636
  223MPD1    C4 3387   2.884   2.777   0.420  0.7227  0.0067 -0.0467
  223MPD1    C5 3388   2.841   2.733   0.541 -0.9318 -0.1200  0.5536
  223MPD1     H 3389   2.893   3.102   0.484  1.4500 -0.9217 -2.9424
  223MPD1    H1 3390   2.904   2.704   0.342  2.0830  2.7204 -2.2215
  223MPD1    H2 3391   2.756   2.772   0.723 -1.7003 -0.2392 -1.1500
  223MPD1    H3 3392   2.812   2.629   0.536 -0.6685 -0.1500 -0.3467
  223MPD1     N 3393   2.962   2.973   0.295 -0.0098 -0.3092  0.1138
  223MPD1    H5 3394   2.979   3.073   0.297 -1.3346 -0.0792 -0.3755
  223MPD1    N1 3395   2.802   3.037   0.735 -0.5561 -0.3433  0.0749
  223MPD1    H6 3396   2.734   3.009   0.805  0.7296 -0.3544  1.3179
  223MPD1    H7 3397   2.791   3.137   0.724 -1.5501 -0.5704 -1.0262
  224MPD1     C 3398   0.700   4.524   9.292 -0.2630 -0.2336 -0.1621
  224MPD1    C1 3399   0.717   4.391   9.305 -0.0599 -0.5634  0.4868
  224MPD1    C2 3400   0.601   4.320   9.336  0.9467 -0.4386  0.4223
  224MPD1    C3 3401   0.478   4.379   9.344  0.7342  0.1304 -0.3741
  224MPD1    C4 3402   0.472   4.513   9.328  0.1834  0.5454 -0.5212
  224MPD1    C5 3403   0.579   4.592   9.298  0.5008 -1.1735 -0.1905
  224MPD1     H 3404   0.617   4.215   9.360  1.8762 -0.0581  1.4529
  224MPD1    H1 3405   0.377   4.565   9.332 -0.4605 -0.7280  0.9486
  224MPD1    H2 3406   0.786   4.589   9.277 -1.5134  1.0995 -1.6545
  224MPD1    H3 3407   0.579   4.701   9.293  0.0777 -1.2030 -0.8068
  224MPD1     N 3408   0.363   4.317   9.378 -0.0525  0.6511  0.2941
  224MPD1    H5 3409   0.279   4.374   9.385 -0.7619 -0.5328  1.5323
  224MPD1    N1 3410   0.843   4.333   9.308 -0.0891 -0.5090  0.2918
  224MPD1    H6 3411   0.909   4.399   9.267 -0.8911 -0.7706 -1.4258
  224MPD1    H7 3412   0.847   4.242   9.263  1.3510  0.6035 -1.8561
  225MPD1     C 3413   1.307   1.407  12.259  0.4483  0.2423 -0.9333
  225MPD1    C1 3414   1.225   1.292  12.255  0.1130  0.2864  0.6047
  225MPD1    C2 3415   1.158   1.264  12.139 -0.0512 -0.2168 -0.1651
  225MPD1    C3 3416   1.163   1.352  12.024 -0.8583 -0.3299 -0.7832
  225MPD1    C4 3417   1.220   1.475  12.041  0.2748 -0.5906 -0.7764
  225MPD1    C5 3418   1.298   1.502  12.156 -0.7646  0.8048  0.0535
  225MPD1     H 3419   1.117   1.165  12.126  2.4501 -1.1808 -0.8235
  225MPD1    H1 3420   1.212   1.551  11.965 -0.3335 -0.1489 -0.2757
  225MPD1    H2 3421   1.375   1.435  12.340 -0.4322  1.6307 -0.6702
  225MPD1    H3 3422   1.353   1.595  12.165 -1.4003  1.1069  0.7944
  225MPD1     N 3423   1.092   1.321  11.904 -0.4257  0.1865  0.9126
  225MPD1    H5 3424   1.100   1.389  11.829  2.1511 -0.9692  0.1400
  225MPD1    N1 3425   1.226   1.198  12.356 -0.2523  0.2575  0.2956
  225MPD1    H6 3426   1.253   1.229  12.449  1.2180  1.4776 -0.5242
  225MPD1    H7 3427   1.141   1.143  12.364  0.0683 -0.3413 -0.3528
  226MPD1     C 3428   0.345   0.663   9.783  0.5567 -0.0737  0.7534
  226MPD1    C1 3429   0.467   0.588   9.778  0.3060  0.2742  0.2363
  226MPD1    C2 3430   0.562   0.633   9.688  0.5771  0.3204  0.1751
  226MPD1    C3 3431   0.539   0.753   9.615 -0.0585  0.6260  0.3822
  226MPD1    C4 3432   0.414   0.818   9.621  1.0328 -0.8513 -0.2905
  226MPD1    C5 3433   0.316   0.765   9.697  0.7766  0.3364  0.7657
  226MPD1     H 3434   0.654   0.579   9.665  0.0542  0.4518 -2.2876
  226MPD1    H1 3435   0.382   0.896   9.553  0.1731 -1.7509 -0.9205
  226MPD1    H2 3436   0.278   0.647   9.866 -1.4822 -0.2360 -0.9273
  226MPD1    H3 3437   0.227   0.826   9.708  0.3834  0.0766 -1.0701
  226MPD1     N 3438   0.644   0.796   9.530 -0.1242 -0.0141 -0.3594
  226MPD1    H5 3439   0.724   0.733   9.535 -1.1589 -1.6122 -3.8080
  226MPD1    N1 3440   0.495   0.485   9.864 -0.2267  0.1092 -0.9799
  226MPD1    H6 3441   0.559   0.416   9.824  0.0972 -0.6858  0.8945
  226MPD1    H7 3442   0.417   0.443   9.915  0.2515 -0.9179 -1.0970
  227MPD1     C 3443   0.878   1.653   9.073  0.2014  0.0228 -0.3131
  227MPD1    C1 3444   0.745   1.616   9.083 -0.0530  0.4370 -0.2978
  227MPD1    C2 3445   0.723   1.482   9.120 -0.2921 -0.8651 -0.0661
  227MPD1    C3 3446   0.819   1.385   9.128  0.0269 -0.1469  0.1356
  227MPD1    C4 3447   0.953   1.425   9.101 -0.2472  0.1158 -0.7750
  227MPD1    C5 3448   0.978   1.557   9.074  0.9649 -0.7563  0.7804
  227MPD1     H 3449   0.623   1.450   9.146 -0.3845  0.4908  1.1945
  227MPD1    H1 3450   1.039   1.360   9.116  0.4291  1.0681 -0.5377
  227MPD1    H2 3451   0.902   1.758   9.063  0.1045  0.1265  0.5046
  227MPD1    H3 3452   1.080   1.591   9.061  0.8477 -0.4629  0.6116
  227MPD1     N 3453   0.785   1.245   9.152 -0.5697  0.8539  0.4567
  227MPD1    H5 3454   0.685   1.228   9.162 -0.1571 -2.1342 -0.4913
  227MPD1    N1 3455   0.645   1.703   9.102  0.2823  0.3015 -0.3948
  227MPD1    H6 3456   0.664   1.790   9.052 -0.1694  1.3290  1.2396
  227MPD1    H7 3457   0.556   1.664   9.070 -0.0393  0.3507  0.4282
  228MPD1     C 3458   2.405   3.650  12.174 -0.0436  0.1418 -0.0199
  228MPD1    C1 3459   2.341   3.709  12.277 -0.0359  0.3107  0.2491
  228MPD1    C2 3460   2.254   3.635  12.357 -0.0669  0.5779 -0.2880
  228MPD1    C3 3461   2.231   3.501  12.318 -0.1244  0.6441 -0.2784
  228MPD1    C4 3462   2.293   3.448  12.211  0.4539  0.3224  0.1992
  228MPD1    C5 3463   2.378   3.522  12.139  0.1347  0.4491  0.1391
  228MPD1     H 3464   2.205   3.674  12.445 -1.4102  1.3811 -1.3843
  228MPD1    H1 3465   2.259   3.349  12.180  1.7881 -0.7202  2.0606
  228MPD1    H2 3466   2.463   3.708  12.103 -1.3583  1.4146 -0.0627
  228MPD1    H3 3467   2.420   3.492  12.044 -0.3930  0.4299 -0.0863
  228MPD1     N 3468   2.165   3.418  12.412  0.1428 -0.3347  0.1216
  228MPD1    H5 3469   2.097   3.463  12.473  0.7388  0.3891  0.2568
  228MPD1    N1 3470   2.353   3.847  12.303 -0.1767  0.2838 -0.2750
  228MPD1    H6 3471   2.301   3.886  12.382 -1.6939 -0.9677 -0.6489
  228MPD1    H7 3472   2.451   3.873  12.305 -0.3610  0.8792  0.8705
  229MPD1     C 3473   1.813   2.499  14.625 -0.0342  0.2144  0.1896
  229MPD1    C1 3474   1.779   2.428  14.737 -0.0327  1.0798 -0.0311
  229MPD1    C2 3475   1.878   2.360  14.805  0.7543 -0.6026 -0.0607
  229MPD1    C3 3476   2.006   2.381  14.768  0.1967  0.7532  0.0343
  229MPD1    C4 3477   2.044   2.461  14.667  0.7635 -0.2069 -0.3556
  229MPD1    C5 3478   1.948   2.520  14.598  0.1911 -0.3748  0.0247
  229MPD1     H 3479   1.858   2.293  14.887 -1.0473  1.5333  1.2318
  229MPD1    H1 3480   2.150   2.473  14.648  1.1441 -1.3605  1.0060
  229MPD1    H2 3481   1.741   2.560  14.570 -0.0649  1.0832  1.1996
  229MPD1    H3 3482   1.970   2.569  14.503 -0.1085 -0.6243 -0.1727
  229MPD1     N 3483   2.118   2.330  14.838 -0.5502 -0.4683 -0.5983
  229MPD1    H5 3484   2.207   2.376  14.822  0.1088 -1.1789  0.9823
  229MPD1    N1 3485   1.646   2.397  14.763  0.2038  0.2436  0.9909
  229MPD1    H6 3486   1.583   2.477  14.752 -2.4108 -1.7728  1.2532
  229MPD1    H7 3487   1.629   2.359  14.856 -2.6180 -0.4103  0.2009
  230MPD1     C 3488   2.733   2.110  15.691 -0.3099  0.1042 -0.3791
  230MPD1    C1 3489   2.794   2.041  15.584 -0.1175 -0.4593 -0.9383
  230MPD1    C2 3490   2.711   2.011  15.478 -0.1009 -0.0208  0.0748
  230MPD1    C3 3491   2.582   2.067  15.460 -0.1204  0.7857  0.1315
  230MPD1    C4 3492   2.530   2.149  15.561  0.3235  0.7679 -0.0642
  230MPD1    C5 3493   2.607   2.167  15.673 -0.1038  0.0186  0.5008
  230MPD1     H 3494   2.745   1.954  15.393  2.1303  1.5018 -0.0494
  230MPD1    H1 3495   2.436   2.203  15.566  0.3439  0.7332  0.6842
  230MPD1    H2 3496   2.783   2.122  15.787 -2.3034  1.2944  0.4972
  230MPD1    H3 3497   2.560   2.214  15.759 -1.3287  1.5668 -1.0074
  230MPD1     N 3498   2.518   2.043  15.337 -0.1701  0.4511 -0.5802
  230MPD1    H5 3499   2.563   1.982  15.269 -0.8093  0.8001 -1.3159
  230MPD1    N1 3500   2.914   1.972  15.598 -0.0128  0.6740 -0.6923
  230MPD1    H6 3501   2.966   1.971  15.511 -2.0403  0.1696 -1.8888
  230MPD1    H7 3502   2.970   2.032  15.659 -2.1751 -0.0778  2.0116
  231MPD1     C 3503   1.117   4.500  15.524  0.0339 -0.5381 -0.0529
  231MPD1    C1 3504   1.031   4.410  15.470 -0.3480  0.2453 -0.4733
  231MPD1    C2 3505   0.996   4.422  15.336 -0.2174  0.4290  0.0393
  231MPD1    C3 3506   1.038   4.523  15.262  0.0062  0.0873  0.1984
  231MPD1    C4 3507   1.110   4.626  15.320  0.1269 -0.5389  0.4842
  231MPD1    C5 3508   1.151   4.609  15.449 -0.0507  0.4094 -0.0236
  231MPD1     H 3509   0.940   4.339  15.293  1.1461 -0.5959  0.2264
  231MPD1    H1 3510   1.133   4.719  15.269 -1.0856  0.3171  1.4716
  231MPD1    H2 3511   1.159   4.480  15.622  0.9538  3.0033  0.2515
  231MPD1    H3 3512   1.219   4.683  15.491 -1.5872  0.2375  2.7565
  231MPD1     N 3513   0.997   4.526  15.130  0.0615 -0.0162 -0.4524
  231MPD1    H5 3514   0.937   4.452  15.096 -0.2849  0.4278 -0.8129
  231MPD1    N1 3515   1.010   4.293  15.545 -0.8811  0.6639 -0.4078
  231MPD1    H6 3516   0.930   4.239  15.510 -0.7977 -1.1065  2.1426
  231MPD1    H7 3517   1.009   4.312  15.645 -0.3473 -0.9130 -0.0934
  232MPD1     C 3518   2.527   1.499   1.114 -0.1706 -0.4114  0.5433
  232MPD1    C1 3519   2.468   1.499   0.988 -0.1853 -0.2414  0.3711
  232MPD1    C2 3520   2.491   1.395   0.900  0.2284 -0.5712 -0.1830
  232MPD1    C3 3521   2.576   1.296   0.934 -0.5915  0.3433  0.2739
  232MPD1    C4 3522   2.637   1.300   1.058  0.1721 -0.1218 -0.1094
  232MPD1    C5 3523   2.603   1.399   1.147 -0.5861 -0.1395 -0.1047
  232MPD1     H 3524   2.439   1.393   0.805  1.1417 -2.6108 -0.6253
  232MPD1    H1 3525   2.711   1.226   1.089 -2.5301 -1.2502  3.7060
  232MPD1    H2 3526   2.504   1.562   1.199  0.9094 -0.6892  1.0542
  232MPD1    H3 3527   2.640   1.391   1.249  1.7930  0.0718 -0.9505
  232MPD1     N 3528   2.594   1.185   0.844 -0.6071 -0.3946  0.5160
  232MPD1    H5 3529   2.544   1.190   0.756  1.0581  0.3899 -0.3857
  232MPD1    N1 3530   2.364   1.588   0.970  0.0878 -0.2099 -0.2237
  232MPD1    H6 3531   2.389   1.673   1.021  1.6650 -0.7019 -0.1987
  232MPD1    H7 3532   2.338   1.608   0.873 -2.0693 -1.2425  0.1465
  233MPD1     C 3533   3.855   1.075   1.580 -0.5384  0.4847  0.6000
  233MPD1    C1 3534   3.778   0.971   1.618  0.5903  0.7234 -1.0175
  233MPD1    C2 3535   3.828   0.844   1.593 -0.3316 -0.2981  0.8530
  233MPD1    C3 3536   3.949   0.819   1.539 -0.6041  0.1674  0.3294
  233MPD1    C4 3537   4.032   0.924   1.504 -0.0901 -0.2632 -0.4318
  233MPD1    C5 3538   3.976   1.050   1.510 -0.0403 -0.0107  0.1444
  233MPD1     H 3539   3.765   0.761   1.621 -0.6923  0.4399  2.2527
  233MPD1    H1 3540   4.135   0.915   1.470  0.4139 -1.8334  1.4951
  233MPD1    H2 3541   3.808   1.173   1.580 -1.6310 -0.0536  1.8976
  233MPD1    H3 3542   4.029   1.132   1.465  1.4298 -1.2824 -0.4266
  233MPD1     N 3543   3.998   0.684   1.514 -0.2306  0.3421 -0.1200
  233MPD1    H5 3544   4.090   0.680   1.471 -0.7988 -1.2112 -1.1896
  233MPD1    N1 3545   3.651   0.987   1.662  0.5892  0.1561  0.6229
  233MPD1    H6 3546   3.636   1.081   1.698  0.7000  0.0399  0.9801
  233MPD1    H7 3547   3.633   0.914   1.731  1.0893 -1.0366 -0.5157
  234MPD1     C 3548   0.961   3.048   9.440 -0.4001 -0.6479  0.2172
  234MPD1    C1 3549   0.883   3.144   9.504  0.9446  0.2901 -0.8997
  234MPD1    C2 3550   0.750   3.150   9.470  0.2113 -0.5634 -0.4622
  234MPD1    C3 3551   0.691   3.049   9.403 -0.4798 -0.3794  0.1357
  234MPD1    C4 3552   0.765   2.951   9.344 -0.0535  0.3279 -0.8099
  234MPD1    C5 3553   0.896   2.949   9.371  0.8589 -0.2848  0.3604
  234MPD1     H 3554   0.680   3.225   9.507 -1.2552 -2.0418 -0.2478
  234MPD1    H1 3555   0.719   2.884   9.272  0.1803  1.6653 -2.1990
  234MPD1    H2 3556   1.069   3.049   9.457 -0.6006  1.6490  1.2862
  234MPD1    H3 3557   0.962   2.881   9.318 -0.0552 -1.1082  0.2732
  234MPD1     N 3558   0.545   3.042   9.384  0.2210  0.1483 -0.5411
  234MPD1    H5 3559   0.488   3.118   9.421  0.4298  0.1741 -0.2745
  234MPD1    N1 3560   0.943   3.254   9.570 -0.0930  0.0621 -0.5032
  234MPD1    H6 3561   0.881   3.305   9.633 -2.0413  1.2319 -3.3924
  234MPD1    H7 3562   1.034   3.240   9.614 -0.0264  1.5221 -0.1535
  235MPD1     C 3563   1.274   1.518   9.982 -0.1575 -0.3732  0.6055
  235MPD1    C1 3564   1.381   1.556   9.918  0.2519  0.2474  0.2439
  235MPD1    C2 3565   1.481   1.460   9.890  0.1105 -0.3990 -0.2532
  235MPD1    C3 3566   1.474   1.340   9.957 -0.2291  0.1117 -0.4897
  235MPD1    C4 3567   1.364   1.309  10.035  0.5224  0.1539  0.6455
  235MPD1    C5 3568   1.268   1.404  10.050  0.6509 -0.2158  0.8917
  235MPD1     H 3569   1.574   1.483   9.840  0.0512 -0.0220 -0.1900
  235MPD1    H1 3570   1.361   1.213  10.086 -3.4583 -1.4408 -2.5839
  235MPD1    H2 3571   1.185   1.580   9.984  0.7040  0.8750  0.7362
  235MPD1    H3 3572   1.176   1.383  10.103 -0.8011  2.9062 -0.3877
  235MPD1     N 3573   1.567   1.238   9.925  0.3858 -0.4741  0.6216
  235MPD1    H5 3574   1.622   1.248   9.840 -0.6654 -0.1049 -0.0191
  235MPD1    N1 3575   1.380   1.685   9.856 -0.0999 -0.0656  0.9054
  235MPD1    H6 3576   1.334   1.751   9.918  0.0165 -0.3889  1.3323
  235MPD1    H7 3577   1.469   1.723   9.825  1.1761 -3.0334  0.9046
  236MPD1     C 3578   1.212   2.347   9.239 -0.5937  0.2429  0.0417
  236MPD1    C1 3579   1.225   2.478   9.283 -0.4219 -0.0667 -0.3034
  236MPD1    C2 3580   1.292   2.501   9.406  0.1626 -0.3142  0.5578
  236MPD1    C3 3581   1.303   2.402   9.495  0.6773 -0.0362 -0.0581
  236MPD1    C4 3582   1.271   2.272   9.454 -0.0084  0.0029  0.6140
  236MPD1    C5 3583   1.231   2.245   9.321 -0.1427 -0.1398 -0.1603
  236MPD1     H 3584   1.315   2.604   9.432  0.3442 -0.3918  0.7048
  236MPD1    H1 3585   1.286   2.189   9.522 -5.4668 -0.0613  1.7654
  236MPD1    H2 3586   1.161   2.329   9.144 -2.1018  0.4405  0.8096
  236MPD1    H3 3587   1.197   2.147   9.291  0.4519 -0.2241 -0.5679
  236MPD1     N 3588   1.349   2.420   9.627 -0.0036 -0.6673 -0.7525
  236MPD1    H5 3589   1.341   2.336   9.682  0.0379  1.4915  2.5481
  236MPD1    N1 3590   1.170   2.579   9.204  0.2228  0.3815  0.2137
  236MPD1    H6 3591   1.164   2.550   9.106 -2.9602 -0.2005  0.5683
  236MPD1    H7 3592   1.224   2.665   9.209  2.4426 -1.0372  0.4889
  237MPD1     C 3593   1.141   0.234  15.245 -0.8823  0.1951 -0.2519
  237MPD1    C1 3594   1.105   0.281  15.123 -0.2735 -0.0255 -0.0077
  237MPD1    C2 3595   1.003   0.369  15.112  0.0295  0.0860 -0.6478
  237MPD1    C3 3596   0.925   0.388  15.231 -0.2374 -0.5422 -0.0775
  237MPD1    C4 3597   0.967   0.342  15.349  1.0282  0.0699  0.3773
  237MPD1    C5 3598   1.081   0.270  15.356 -0.8058  0.2339  0.3004
  237MPD1     H 3599   0.977   0.404  15.013 -1.6074 -0.5675 -0.4529
  237MPD1    H1 3600   0.905   0.360  15.437 -0.5498 -1.0769 -0.4922
  237MPD1    H2 3601   1.228   0.169  15.246 -1.4773 -0.5588  4.7257
  237MPD1    H3 3602   1.121   0.247  15.454 -0.0363  0.2108 -0.0221
  237MPD1     N 3603   0.801   0.458  15.228  0.7630  0.4047 -0.1447
  237MPD1    H5 3604   0.741   0.446  15.309 -0.5121 -1.1392 -1.3483
  237MPD1    N1 3605   1.189   0.264  15.013  0.1152  0.8349  0.1453
  237MPD1    H6 3606   1.135   0.282  14.929 -0.7215  0.9261  0.6976
  237MPD1    H7 3607   1.215   0.166  15.014 -0.0297  0.7897 -1.1909
  238MPD1     C 3608   2.067   3.433  16.054 -0.3677 -0.0925 -0.2004
  238MPD1    C1 3609   2.164   3.417  15.955 -0.1090  0.1460  0.3502
  238MPD1    C2 3610   2.162   3.511  15.854 -0.2195  0.2579 -0.0243
  238MPD1    C3 3611   2.081   3.626  15.863  0.2502  0.1963 -0.5964
  238MPD1    C4 3612   1.987   3.632  15.958 -0.1844  0.0642  0.7461
  238MPD1    C5 3613   1.967   3.531  16.048 -0.7554  0.0855  0.4523
  238MPD1     H 3614   2.234   3.496  15.774 -0.7452 -1.2683 -0.2063
  238MPD1    H1 3615   1.921   3.718  15.955 -1.9868 -1.2691  1.4955
  238MPD1    H2 3616   2.055   3.367  16.140  2.1531 -0.7449 -0.3668
  238MPD1    H3 3617   1.877   3.530  16.110 -0.6360  0.1842  0.6278
  238MPD1     N 3618   2.072   3.717  15.756  0.4707  0.1113 -0.0182
  238MPD1    H5 3619   1.978   3.756  15.752  0.5900  0.4404  0.3716
  238MPD1    N1 3620   2.256   3.303  15.943 -0.5549 -0.1068  0.8414
  238MPD1    H6 3621   2.278   3.251  16.027  0.9593  2.4598  2.0518
  238MPD1    H7 3622   2.341   3.330  15.893 -0.5160 -1.0835  0.3906
  239MPD1     C 3623   2.597   4.540  14.909  0.7461  0.0411 -0.4153
  239MPD1    C1 3624   2.716   4.550  14.844  0.5449  0.8151  0.4024
  239MPD1    C2 3625   2.721   4.628  14.729  0.0808  0.3579  0.4054
  239MPD1    C3 3626   2.602   4.692  14.690  0.4599 -0.5260  0.3885
  239MPD1    C4 3627   2.487   4.673  14.755  0.4453 -0.2302 -0.9233
  239MPD1    C5 3628   2.483   4.599  14.862 -0.5662  0.5223  0.3885
  239MPD1     H 3629   2.808   4.640  14.666  1.7805 -3.6178  2.0128
  239MPD1    H1 3630   2.393   4.713  14.717  1.0358  2.3414  0.3177
  239MPD1    H2 3631   2.591   4.482  15.000  1.7296  1.3317  0.4716
  239MPD1    H3 3632   2.392   4.576  14.917 -1.2315  0.7808 -0.6172
  239MPD1     N 3633   2.585   0.039  14.570 -0.2076 -0.9756 -0.5260
  239MPD1    H5 3634   2.490   0.063  14.542  0.0439  3.0728  1.9981
  239MPD1    N1 3635   2.821   4.470  14.889 -0.5225 -0.0661  0.4588
  239MPD1    H6 3636   2.916   4.500  14.870 -0.8855 -1.6529 -3.7546
  239MPD1    H7 3637   2.809   4.459  14.990  2.3978 -0.5014  0.7417
  240MPD1     C 3638   2.711   3.854  14.421  0.5966  0.3774  0.0789
  240MPD1    C1 3639   2.708   3.896  14.552 -0.5162 -0.3270  0.5100
  240MPD1    C2 3640   2.578   3.927  14.600  0.1302  0.6755  0.6418
  240MPD1    C3 3641   2.467   3.927  14.522  0.5026  1.1100  0.6953
  240MPD1    C4 3642   2.479   3.885  14.390 -0.3001 -0.8918  0.0036
  240MPD1    C5 3643   2.603   3.851  14.337 -0.2927  0.4395 -0.1721
  240MPD1     H 3644   2.571   3.950  14.705 -1.3652 -0.9836  0.9065
  240MPD1    H1 3645   2.399   3.887  14.317 -0.0071 -1.6105 -0.3326
  240MPD1    H2 3646   2.807   3.840  14.371  1.2202  1.1722  1.0433
  240MPD1    H3 3647   2.608   3.826  14.232  1.2082 -0.5474  0.1428
  240MPD1     N 3648   2.344   3.958  14.592 -0.2402 -0.3556  0.5208
  240MPD1    H5 3649   2.344   3.981  14.691 -2.1755 -0.6421  0.5931
  240MPD1    N1 3650   2.820   3.884  14.632 -1.2155 -0.0053  0.2269
  240MPD1    H6 3651   2.905   3.910  14.581 -2.1902  1.8683 -0.4666
  240MPD1    H7 3652   2.807   3.948  14.711 -0.9482  0.9887 -0.5268
  241MPD1     C 3653   2.235   4.348  15.299  0.0838  0.2008  0.1784
  241MPD1    C1 3654   2.103   4.345  15.256 -0.4103  0.6896  0.2404
  241MPD1    C2 3655   2.065   4.244  15.173 -0.6840 -0.7670 -0.6651
  241MPD1    C3 3656   2.162   4.161  15.117 -0.5620 -0.7364 -0.2926
  241MPD1    C4 3657   2.294   4.163  15.162  0.3587  0.0654  0.3717
  241MPD1    C5 3658   2.325   4.258  15.255  0.2137 -0.3718 -0.1778
  241MPD1     H 3659   1.964   4.229  15.137 -1.1387 -0.2631  0.4156
  241MPD1    H1 3660   2.372   4.101  15.121 -0.1489 -0.3428  0.0183
  241MPD1    H2 3661   2.269   4.411  15.381  1.7234  1.7194 -1.6845
  241MPD1    H3 3662   2.428   4.270  15.289 -0.6445  1.3367  1.8143
  241MPD1     N 3663   2.136   4.064  15.015  0.7618  0.4833 -0.0007
  241MPD1    H5 3664   2.223   4.044  14.967 -0.3617  2.2373 -2.7689
  241MPD1    N1 3665   2.005   4.419  15.326 -0.8781  0.8428 -0.0214
  241MPD1    H6 3666   2.043   4.512  15.342 -0.8955  1.2425 -2.4087
  241MPD1    H7 3667   1.922   4.452  15.277  0.7181  1.1736 -2.4858
  242MPD1     C 3668   1.098   2.495  15.740 -0.1330 -0.4423 -0.5285
  242MPD1    C1 3669   1.062   2.594  15.658 -0.1397  0.2769  0.1356
  242MPD1    C2 3670   1.125   2.604  15.538 -0.8009 -0.2077  0.1987
  242MPD1    C3 3671   1.201   2.499  15.490  0.2235  0.5513  0.1293
  242MPD1    C4 3672   1.229   2.387  15.578 -0.3747 -0.7357  0.3761
  242MPD1    C5 3673   1.169   2.390  15.701 -0.2069  0.7041  0.2258
  242MPD1     H 3674   1.104   2.692  15.478  0.6678 -0.0109 -0.0212
  242MPD1    H1 3675   1.303   2.313  15.552  0.8840  1.0280 -1.0934
  242MPD1    H2 3676   1.060   2.499  15.841 -1.4355 -2.2886 -0.9326
  242MPD1    H3 3677   1.184   2.303  15.763 -1.2948 -0.0952 -0.6228
  242MPD1     N 3678   1.263   2.497  15.363 -0.0267 -0.5459 -0.9139
  242MPD1    H5 3679   1.336   2.429  15.344  0.3208 -0.9040  1.6954
  242MPD1    N1 3680   0.976   2.698  15.706  0.0834 -0.2203 -0.2850
  242MPD1    H6 3681   0.905   2.660  15.767 -0.3444 -0.1800 -0.7643
  242MPD1    H7 3682   0.932   2.745  15.627 -2.1914 -0.3713  0.9160
  243MPD1     C 3683   4.166   2.162  17.042  0.1226 -0.6514  0.1330
  243MPD1    C1 3684   4.113   2.103  17.151 -0.5018  0.1863 -0.4907
  243MPD1    C2 3685   4.026   1.994  17.138  0.1296 -0.2124  0.2905
  243MPD1    C3 3686   3.989   1.942  17.015 -0.5131  0.1931  0.5794
  243MPD1    C4 3687   4.038   2.004  16.906  0.0669 -0.6019 -0.3463
  243MPD1    C5 3688   4.113   2.113  16.923  0.1989 -0.2447 -0.0251
  243MPD1     H 3689   3.979   1.956  17.228  1.8050  1.5595  1.9149
  243MPD1    H1 3690   4.010   1.969  16.808 -2.7574 -0.2587  0.3265
  243MPD1    H2 3691   4.233   2.247  17.044  2.5109 -2.4656 -1.8091
  243MPD1    H3 3692   4.162   2.147  16.833  1.0578  1.2084  0.9876
  243MPD1     N 3693   3.899   1.834  16.988 -0.1730  0.3760 -0.0539
  243MPD1    H5 3694   3.884   1.796  16.894  2.4639  1.6089 -0.9653
  243MPD1    N1 3695   4.142   2.144  17.287 -0.7466 -0.0227 -0.2587
  243MPD1    H6 3696   4.056   2.157  17.340 -0.4429 -0.3324  0.3150
  243MPD1    H7 3697   4.189   2.234  17.286 -0.3839 -0.2309 -1.6138
  244MPD1     C 3698   3.253   1.338  17.592  0.7439  0.2134 -0.4992
  244MPD1    C1 3699   3.324   1.455  17.607 -0.1205 -0.7176 -0.0356
  244MPD1    C2 3700   3.434   1.473  17.521 -0.3917  0.3105  0.3605
  244MPD1    C3 3701   3.446   1.401  17.400 -0.3560 -0.3089  0.1640
  244MPD1    C4 3702   3.362   1.289  17.382  0.1623 -0.3301  0.6840
  244MPD1    C5 3703   3.273   1.260  17.477  0.0748  0.1257  0.4947
  244MPD1     H 3704   3.498   1.559  17.534  1.8612 -1.3956  0.4877
  244MPD1    H1 3705   3.365   1.221  17.297 -0.0432 -0.0463  0.4493
  244MPD1    H2 3706   3.173   1.311  17.660  1.0421 -1.4103 -0.7851
  244MPD1    H3 3707   3.210   1.171  17.480  0.4889 -0.1767  0.1529
  244MPD1     N 3708   3.537   1.447  17.295 -0.1740 -0.5284  0.1461
  244MPD1    H5 3709   3.601   1.523  17.316  2.3154 -2.3024 -1.0082
  244MPD1    N1 3710   3.327   1.523   0.043  0.3592  0.4555  0.3145
  244MPD1    H6 3711   3.239   1.504   0.091  0.0200  2.0008  0.3146
  244MPD1    H7 3712   3.325   1.621   0.017 -0.0215  0.0143 -1.3086
  245MPD1     C 3713   0.666   1.912  12.759  1.0603 -0.4092 -0.2932
  245MPD1    C1 3714   0.589   2.026  12.773 -0.1512 -0.2086 -0.2654
  245MPD1    C2 3715   0.653   2.142  12.814  0.3974  0.3485 -0.9771
  245MPD1    C3 3716   0.775   2.139  12.877 -0.5254  0.5304 -0.2686
  245MPD1    C4 3717   0.842   2.019  12.871 -0.2539 -0.0543 -0.5257
  245MPD1    C5 3718   0.792   1.909  12.802 -0.0271  0.3141  0.2135
  245MPD1     H 3719   0.595   2.233  12.815  0.5419  0.4527 -1.9230
  245MPD1    H1 3720   0.944   2.014  12.908 -1.0231  0.8887  1.7246
  245MPD1    H2 3721   0.616   1.821  12.726 -2.1419  1.1831  0.1679
  245MPD1    H3 3722   0.852   1.819  12.793 -1.3052 -0.6318  1.3407
  245MPD1     N 3723   0.825   2.256  12.929  0.3002 -0.2656  0.1976
  245MPD1    H5 3724   0.775   2.345  12.928 -0.8065 -0.9035 -1.3274
  245MPD1    N1 3725   0.462   2.032  12.707 -0.7304 -0.6036  0.5840
  245MPD1    H6 3726   0.405   2.098  12.759  1.0862  1.1869  0.2670
  245MPD1    H7 3727   0.421   1.939  12.715 -0.6865 -0.8527 -2.0331
  246MPD1     C 3728   0.324   1.503   8.892 -0.8203 -0.3717 -0.1513
  246MPD1    C1 3729   0.407   1.400   8.851 -0.3874 -0.4055  0.3915
  246MPD1    C2 3730   0.540   1.424   8.817  0.6922  1.0119 -0.0196
  246MPD1    C3 3731   0.575   1.553   8.793  0.2302  0.4954 -0.1916
  246MPD1    C4 3732   0.492   1.663   8.820  0.5382 -0.1309 -0.5293
  246MPD1    C5 3733   0.370   1.631   8.877 -0.6154 -0.1163  0.7322
  246MPD1     H 3734   0.599   1.335   8.798 -1.0939 -0.0302 -0.7684
  246MPD1    H1 3735   0.513   1.765   8.791 -1.5107  0.0589 -1.3937
  246MPD1    H2 3736   0.221   1.486   8.921 -0.3392 -0.1919  1.6352
  246MPD1    H3 3737   0.292   1.706   8.881 -1.2580 -0.6399 -1.6135
  246MPD1     N 3738   0.706   1.574   8.737  0.2798 -0.2726  0.0931
  246MPD1    H5 3739   0.767   1.495   8.718 -1.1477 -1.5478  0.7472
  246MPD1    N1 3740   0.365   1.273   8.887 -0.0478 -0.0869 -0.2801
  246MPD1    H6 3741   0.264   1.274   8.872 -0.1416  1.9585  0.3815
  246MPD1    H7 3742   0.393   1.207   8.816  0.4278 -0.3760  0.1733
  247MPD1     C 3743   0.470   2.008  16.483 -0.3102  1.2888 -0.3396
  247MPD1    C1 3744   0.518   2.036  16.361  0.2061  0.5392 -0.6757
  247MPD1    C2 3745   0.522   1.957  16.253 -0.2308  0.6928 -0.2667
  247MPD1    C3 3746   0.476   1.827  16.263 -0.8667 -0.0477  0.1376
  247MPD1    C4 3747   0.422   1.798  16.385  0.2335 -0.1894  0.0535
  247MPD1    C5 3748   0.416   1.883  16.492  0.7744 -0.0278  0.0979
  247MPD1     H 3749   0.554   2.008  16.162 -1.5664 -0.1955 -1.2326
  247MPD1    H1 3750   0.375   1.701  16.401  1.1234 -0.1360  2.9969
  247MPD1    H2 3751   0.471   2.075  16.567 -1.9951  1.8263 -0.7426
  247MPD1    H3 3752   0.363   1.861  16.584  0.7521 -2.2268 -0.4429
  247MPD1     N 3753   0.461   1.743  16.150  0.2371 -0.1595  0.0346
  247MPD1    H5 3754   0.419   1.651  16.166 -0.4239  0.2553  0.6794
  247MPD1    N1 3755   0.576   2.163  16.350 -0.2961  0.3718  0.5371
  247MPD1    H6 3756   0.551   2.229  16.424 -1.0980  0.8355 -0.1408
  247MPD1    H7 3757   0.611   2.198  16.261  1.9376 -1.1268  0.8327
  248MPD1     C 3758   1.306   2.216   0.022  0.7721  0.8124  0.4305
  248MPD1    C1 3759   1.216   2.283   0.106 -0.2664 -0.3365  0.3367
  248MPD1    C2 3760   1.159   2.212   0.212  0.1550 -0.4975 -0.3806
  248MPD1    C3 3761   1.163   2.070   0.212  0.1677 -0.0887  0.2707
  248MPD1    C4 3762   1.247   2.007   0.125 -0.3863 -0.7385  0.5273
  248MPD1    C5 3763   1.313   2.080   0.031  0.1521 -0.0994  0.6065
  248MPD1     H 3764   1.111   2.265   0.292  0.4746  0.7125 -0.9845
  248MPD1    H1 3765   1.268   1.901   0.126 -1.4519 -0.9680 -2.3206
  248MPD1    H2 3766   1.375   2.265  17.642  1.0234 -0.9351 -0.5862
  248MPD1    H3 3767   1.384   2.036  17.650 -0.3600  0.7899 -0.5029
  248MPD1     N 3768   1.076   1.995   0.295 -0.4626  0.8721 -0.1898
  248MPD1    H5 3769   1.013   2.050   0.353 -2.7058 -2.2320  0.2758
  248MPD1    N1 3770   1.221   2.425   0.115  0.1470 -0.1015 -0.9292
  248MPD1    H6 3771   1.233   2.474   0.027 -2.4676  3.4368  0.6835
  248MPD1    H7 3772   1.141   2.472   0.158  0.9921 -0.4463  0.9930
  249MPD1     C 3773   2.332   4.349  10.577 -0.0950 -0.4076 -0.4638
  249MPD1    C1 3774   2.334   4.473  10.513 -0.0254  0.3797  0.1996
  249MPD1    C2 3775   2.262   4.493  10.397  0.0329 -0.1217  0.0671
  249MPD1    C3 3776   2.194   4.393  10.333  0.1239  0.4857 -0.2127
  249MPD1    C4 3777   2.189   4.274  10.399  0.4209  0.4028 -0.1256
  249MPD1    C5 3778   2.264   4.251  10.510 -0.7497  0.3695  0.5274
  249MPD1     H 3779   2.268   4.591  10.351 -0.2031  0.1260  0.5635
  249MPD1    H1 3780   2.147   4.187  10.351 -2.3273  1.1976  0.8318
  249MPD1    H2 3781   2.397   4.320  10.659 -0.5111 -1.3611 -0.4723
  249MPD1    H3 3782   2.269   4.153  10.556  1.2946  0.0565 -0.3496
  249MPD1     N 3783   2.141   4.419  10.199  0.1005  0.2426  0.2811
  249MPD1    H5 3784   2.150   4.508  10.151 -1.1743 -0.2095 -0.7899
  249MPD1    N1 3785   2.393   4.588  10.575  0.2790  0.2885 -0.4787
  249MPD1    H6 3786   2.413   4.654  10.501 -0.7318  0.5363 -0.5173
  249MPD1    H7 3787   2.486   4.565  10.611  0.3802  1.9618  0.3231
  250MPD2     C 3788   2.796   0.130  12.902 -0.3748 -0.4682  0.0701
  250MPD2    C1 3789   2.872   0.166  12.799 -0.7330  0.1515  0.4305
  250MPD2    C2 3790   2.852   0.124  12.675  0.0546 -0.2672  0.0204
  250MPD2    C3 3791   2.742   0.040  12.646 -0.3898 -0.0441 -0.5881
  250MPD2    C4 3792   2.663   0.006  12.746  0.0166  0.3829  0.1648
  250MPD2    C5 3793   2.691   0.044  12.878 -0.4342  0.2076  0.3503
  250MPD2     H 3794   2.912   0.160  12.592  0.1561 -1.1584 -0.3012
  250MPD2    H1 3795   2.580   4.659  12.731 -0.4713  1.3607 -1.5597
  250MPD2    H2 3796   2.829   0.148  13.004 -4.6536  1.5641  1.0879
  250MPD2    H3 3797   2.631   0.015  12.964 -0.9890 -0.5838 -0.2966
  250MPD2     N 3798   2.726   4.704  12.519  0.6628 -0.1040 -0.4775
  250MPD2    H5 3799   2.653   4.633  12.512  2.6159 -1.9105 -2.6297
  250MPD2    N1 3800   2.983   0.255  12.834 -0.4206 -0.3539 -0.1624
  250MPD2    H7 3801   2.995   0.280  12.932  0.6215 -1.5280  0.0013
  251TMC3    C1 3802   3.150   0.403  12.821 -0.0863  0.0366  1.0479
  251TMC3    C2 3803   3.075   0.512  12.869 -0.3876 -0.1564  0.1789
  251TMC3    C3 3804   3.128   0.635  12.872  0.5498 -0.2161 -0.3605
  251TMC3    C4 3805   3.259   0.441  12.746  0.4589 -0.5423  0.1304
  251TMC3    C5 3806   3.294   0.568  12.720  0.3048 -0.6400  0.8755
  251TMC3    C6 3807   3.240   0.667  12.796 -0.8140  0.2426 -0.2166
  251TMC3     C 3808   3.078   0.302  12.752 -0.0539  0.4866 -0.2267
  251TMC3     O 3809   3.103   0.276  12.631 -0.5620  0.3764  0.1987
  251TMC3     H 3810   2.976   0.498  12.911 -1.1057  2.0492 -0.8150
  251TMC3    H1 3811   3.317   0.359  12.704  0.1991 -0.3322 -0.6378
  251TMC3    H2 3812   3.289   0.764  12.792 -0.9984  0.4149  1.6421
  251TMC3    C7 3813   3.427   0.595  12.662 -0.2923  0.5062  0.5094
  251TMC3    C8 3814   3.071   0.730  12.956  0.3891 -0.4335 -0.2266
  251TMC3    O1 3815   3.493   0.684  12.718 -0.1160 -0.3030 -0.0263
  251TMC3    O2 3816   3.046   0.692  13.069  0.0367 -0.1784  0.0268
  252TMC3    C1 3817   4.492   1.760   8.986 -0.4368  0.4987  0.1732
  252TMC3    C2 3818   4.592   1.740   9.071 -0.0136  0.1236  0.0925
  252TMC3    C3 3819   4.623   1.615   9.100 -0.0806 -0.3601  0.3579
  252TMC3    C4 3820   4.410   1.664   8.950  0.1453 -0.0932  0.0195
  252TMC3    C5 3821   4.435   1.534   8.981  0.3245 -0.2329  0.2834
  252TMC3    C6 3822   4.551   1.509   9.052  0.3455 -0.3340  0.2708
  252TMC3     C 3823   4.503   1.888   8.921  0.2010  0.6442  0.0371
  252TMC3     O 3824   4.601   1.965   8.941 -0.2911 -0.3736  0.2228
  252TMC3     H 3825   4.654   1.821   9.109 -3.1058  2.0793  0.9951
  252TMC3    H1 3826   4.318   1.693   8.900 -0.7955 -2.8231  0.1444
  252TMC3    H2 3827   4.584   1.406   9.061 -0.6451 -0.5771  1.2046
  252TMC3    C7 3828   4.343   1.431   8.927  0.9663  0.3114 -0.2328
  252TMC3    C8 3829   0.034   1.579   9.157 -0.0806 -0.5026 -0.2569
  252TMC3    O1 3830   4.275   1.467   8.836 -0.3416 -0.1155 -0.2608
  252TMC3    O2 3831   0.081   1.469   9.130  0.1757 -0.2500 -0.3083
  253MPD2     C 3832   0.308   0.928  15.152 -0.3016  0.2084 -0.2644
  253MPD2    C1 3833   0.169   0.908  15.148  0.4792  0.2154  0.7079
  253MPD2    C2 3834   0.102   0.880  15.263 -0.0259 -0.3232  0.9929
  253MPD2    C3 3835   0.173   0.838  15.374 -0.0897 -0.4193 -0.1823
  253MPD2    C4 3836   0.313   0.858  15.375 -0.4315 -1.0732  0.2919
  253MPD2    C5 3837   0.380   0.905  15.267  0.0499 -0.6321 -0.7784
  253MPD2     H 3838   4.715   0.881  15.251  0.0969  0.1715  0.0011
  253MPD2    H1 3839   0.373   0.832  15.461  3.1698  0.2148 -1.8488
  253MPD2    H2 3840   0.355   0.973  15.066  1.4712 -2.2635 -0.5917
  253MPD2    H3 3841   0.486   0.927  15.277  0.2242 -2.7982  2.2845
  253MPD2     N 3842   0.109   0.792  15.492 -0.1118  0.0395  0.1272
  253MPD2    H5 3843   0.177   0.793  15.568  0.8423 -0.8008 -0.7208
  253MPD2    N1 3844   0.100   0.923  15.034 -0.0958 -0.0615  0.2338
  253MPD2    H7 3845   0.004   0.890  15.037  0.1856 -0.9896 -0.8373
  254TMC3    C1 3846   4.678   0.755  15.669 -0.2809  0.6437  0.4854
  254TMC3    C2 3847   4.557   0.783  15.730 -0.2845 -0.9755  0.4475
  254TMC3    C3 3848   4.556   0.760  15.866  0.2201 -0.1763  0.5020
  254TMC3    C4 3849   0.070   0.705  15.735  0.6299  0.2239  0.6391
  254TMC3    C5 3850   0.054   0.676  15.869 -1.1345  0.1392  0.6969
  254TMC3    C6 3851   4.657   0.701  15.935  0.8412 -0.1111 -0.0034
  254TMC3     C 3852   4.697   0.777  15.523 -0.3479 -0.0212  0.2617
  254TMC3     O 3853   4.600   0.777  15.447  0.1522 -0.1019  0.3104
  254TMC3     H 3854   4.462   0.804  15.681  1.0486 -0.2562 -1.8159
  254TMC3    H1 3855   0.151   0.651  15.687  0.7230  1.7470 -0.8995
  254TMC3    H2 3856   4.642   0.673  16.039 -0.8020 -1.9189 -0.7255
  254TMC3    C7 3857   0.169   0.622  15.935 -0.1720 -0.4089  0.4849
  254TMC3    C8 3858   4.467   0.832  15.957  0.1208  0.1833 -0.8810
  254TMC3    O1 3859   0.137   0.569  16.042  0.4520  0.2911  0.5414
  254TMC3    O2 3860   4.471   0.801  16.071  0.3686 -0.9089 -0.1497
  255MPD2     C 3861   3.100   2.502  10.326  0.6554  1.3271  0.3964
  255MPD2    C1 3862   3.201   2.587  10.288 -0.2779  0.6210  1.0715
  255MPD2    C2 3863   3.331   2.532  10.276 -0.0844  0.1033 -0.1608
  255MPD2    C3 3864   3.350   2.394  10.306 -0.9173 -0.9903 -0.4539
  255MPD2    C4 3865   3.241   2.319  10.346  0.6253 -0.3109 -0.0890
  255MPD2    C5 3866   3.122   2.376  10.340  0.1271  0.3338  0.4600
  255MPD2     H 3867   3.415   2.592  10.245 -0.0241 -1.6774 -3.4600
  255MPD2    H1 3868   3.248   2.213  10.369 -0.7485 -1.1510 -3.4181
  255MPD2    H2 3869   2.994   2.523  10.327  0.7158  1.6512  0.0759
  255MPD2    H3 3870   3.037   2.312  10.360  0.4426 -0.0463  0.6062
  255MPD2     N 3871   3.482   2.329  10.299  0.5778  0.8211  0.1716
  255MPD2    H5 3872   3.557   2.391  10.271  1.4654 -0.1399  0.4105
  255MPD2    N1 3873   3.178   2.720  10.247 -0.5909 -0.2008  0.5511
  255MPD2    H7 3874   3.079   2.741  10.232 -0.1899  0.3873 -1.2811
  256TMC3    C1 3875   3.230   2.931  10.159  0.2168 -0.6866  0.4027
  256TMC3    C2 3876   3.317   3.034  10.142 -0.2939  0.2392 -0.1500
  256TMC3    C3 3877   3.314   3.114  10.030  0.0903  0.3451 -0.2347
  256TMC3    C4 3878   3.130   2.910  10.064 -0.7722  0.2033  0.2119
  256TMC3    C5 3879   3.116   2.995   9.960 -0.3375 -0.1649  0.2161
  256TMC3    C6 3880   3.211   3.098   9.943 -0.3238  0.1190 -0.5903
  256TMC3     C 3881   3.268   2.822  10.242  0.0160  0.3346  1.1212
  256TMC3     O 3882   3.384   2.819  10.281 -0.3315  0.1381  0.0834
  256TMC3     H 3883   3.408   3.047  10.200 -0.9618  0.1340  0.9243
  256TMC3    H1 3884   3.064   2.825  10.075 -1.7279  1.0451  1.0067
  256TMC3    H2 3885   3.204   3.160   9.855  2.0315  0.4969 -0.5264
  256TMC3    C7 3886   3.045   2.947   9.839  0.5155  0.0048  0.5945
  256TMC3    C8 3887   3.391   3.237  10.029  0.0571  0.0703 -0.8649
  256TMC3    O1 3888   3.107   2.948   9.734  0.3388 -0.2077 -0.0649
  256TMC3    O2 3889   3.441   3.279  10.134  0.5187  0.1226  0.5484
  257MPD2     C 3890   2.388   0.801  13.067  0.2359 -0.2900 -0.8103
  257MPD2    C1 3891   2.339   0.694  12.994  0.5145  0.2574  0.6214
  257MPD2    C2 3892   2.306   0.579  13.067  0.4437  0.4102 -0.2461
  257MPD2    C3 3893   2.336   0.573  13.204  0.4622 -0.2654 -0.9857
  257MPD2    C4 3894   2.391   0.683  13.275  0.7428 -0.5066  0.5198
  257MPD2    C5 3895   2.403   0.802  13.204  0.2067  0.4612 -0.1457
  257MPD2     H 3896   2.277   0.491  13.010  1.6936 -0.0608 -0.1542
  257MPD2    H1 3897   2.402   0.675  13.382 -0.1960  1.1270  0.7318
  257MPD2    H2 3898   2.404   0.890  13.007 -2.1245  0.4746 -0.2809
  257MPD2    H3 3899   2.436   0.888  13.261  0.9625  0.2295 -0.2285
  257MPD2     N 3900   2.294   0.450  13.263 -0.1225  0.0548  0.2696
  257MPD2    H5 3901   2.239   0.383  13.211 -3.1981  0.9871  2.3681
  257MPD2    N1 3902   2.329   0.707  12.851  0.0486  0.1356 -0.4612
  257MPD2    H7 3903   2.360   0.796  12.813 -1.6060  0.1625 -1.7599
  258TMC3    C1 3904   2.329   0.264  13.392 -0.3268 -0.4749  0.0984
  258TMC3    C2 3905   2.353   0.192  13.282  0.1112  0.5033 -0.4349
  258TMC3    C3 3906   2.390   0.067  13.293 -0.8286 -0.1100 -1.0305
  258TMC3    C4 3907   2.344   0.206  13.515  0.7364 -0.5100  1.0092
  258TMC3    C5 3908   2.375   0.072  13.523  0.5837  0.6342 -0.5327
  258TMC3    C6 3909   2.393   4.721  13.411 -0.2227  0.2682  0.6190
  258TMC3     C 3910   2.339   0.410  13.384 -0.5799 -0.3463  0.2819
  258TMC3     O 3911   2.414   0.461  13.469 -0.4771  0.2877 -0.0740
  258TMC3     H 3912   2.352   0.232  13.181  1.2770  0.4380 -0.4724
  258TMC3    H1 3913   2.345   0.266  13.605 -3.1311 -1.9063  1.9885
  258TMC3    H2 3914   2.400   4.613  13.425  1.6834  0.5918  2.1879
  258TMC3    C7 3915   2.423   0.010  13.639 -0.0187  1.1226  0.2873
  258TMC3    C8 3916   2.423   4.716  13.172 -0.7351 -0.4737 -0.8562
  258TMC3    O1 3917   2.502   4.639  13.629  0.5806 -0.0433  0.1932
  258TMC3    O2 3918   2.393   0.047  13.063  0.3355 -0.0282  0.6560
  259MPD2     C 3919   1.486   1.666   1.020 -0.1367  0.3943  0.2660
  259MPD2    C1 3920   1.577   1.570   1.056 -0.1970 -0.3123 -0.2753
  259MPD2    C2 3921   1.649   1.505   0.957 -0.1760  0.3476 -0.1921
  259MPD2    C3 3922   1.640   1.539   0.824 -0.0860 -0.1592  0.6611
  259MPD2    C4 3923   1.561   1.650   0.791 -0.4842 -0.5594 -0.2495
  259MPD2    C5 3924   1.489   1.709   0.886  0.0209 -0.1781 -0.0543
  259MPD2     H 3925   1.716   1.422   0.978 -0.2614  0.1209 -0.8202
  259MPD2    H1 3926   1.545   1.680   0.688  2.3298 -1.2265 -0.8695
  259MPD2    H2 3927   1.428   1.714   1.098 -0.4108 -1.0783  0.9708
  259MPD2    H3 3928   1.424   1.790   0.856  0.8541  0.1697 -0.9210
  259MPD2     N 3929   1.694   1.456   0.719 -0.9116 -0.3601  0.1285
  259MPD2    H5 3930   1.726   1.366   0.753  1.8029  1.1840  1.6585
  259MPD2    N1 3931   1.585   1.543   1.196  0.1841 -0.5185  0.2120
  259MPD2    H7 3932   1.519   1.601   1.248  0.7053  0.2008  0.0803
  260TMC3    C1 3933   1.741   1.405   0.501 -0.5480 -0.0246 -0.5695
  260TMC3    C2 3934   1.839   1.419   0.405 -0.5625 -0.2069  0.3363
  260TMC3    C3 3935   1.871   1.308   0.333  0.0653  0.2907 -0.2170
  260TMC3    C4 3936   1.679   1.288   0.528 -0.1454 -0.4605  0.0660
  260TMC3    C5 3937   1.711   1.182   0.442 -0.3394  0.5277  0.7952
  260TMC3    C6 3938   1.813   1.186   0.351 -0.4006 -0.2474 -0.4893
  260TMC3     C 3939   1.720   1.507   0.597  0.0824 -0.9008  0.0401
  260TMC3     O 3940   1.744   1.627   0.571  0.4315  0.5667 -0.3195
  260TMC3     H 3941   1.899   1.510   0.402 -0.8712 -0.0398 -0.5313
  260TMC3    H1 3942   1.595   1.280   0.596  1.6274 -1.8061  2.1071
  260TMC3    H2 3943   1.831   1.098   0.289  3.0294  0.6781 -0.8016
  260TMC3    C7 3944   1.662   1.050   0.478  0.1431  0.1162  0.4031
  260TMC3    C8 3945   1.999   1.315   0.262  0.4757  0.6675  0.4547
  260TMC3    O1 3946   1.638   0.970   0.386 -0.2422  0.2510  0.2638
  260TMC3    O2 3947   2.037   1.419   0.210 -0.3490  0.3816  0.0142
  261MPD2     C 3948   2.984   0.039  11.700  0.1724 -1.0727  0.2496
  261MPD2    C1 3949   2.967   0.109  11.822  0.1210 -0.0675 -0.6477
  261MPD2    C2 3950   3.021   0.233  11.849  0.5102 -0.5882 -0.8809
  261MPD2    C3 3951   3.112   0.289  11.760  0.0360 -0.4286  1.0131
  261MPD2    C4 3952   3.131   0.226  11.632 -0.7746 -0.4475 -0.1973
  261MPD2    C5 3953   3.056   0.112  11.599 -0.1244  0.0130  0.6668
  261MPD2     H 3954   3.007   0.283  11.944  0.8724  0.7389 -1.5214
  261MPD2    H1 3955   3.196   0.272  11.559 -2.1629  1.6795 -0.0969
  261MPD2    H2 3956   2.926   4.674  11.671 -2.8388  0.7345  0.7852
  261MPD2    H3 3957   3.055   0.068  11.500  0.4620  1.9278 -0.2052
  261MPD2     N 3958   3.190   0.396  11.809  0.1142  0.1285  0.1258
  261MPD2    H5 3959   3.144   0.434  11.891 -0.7837  2.9396 -1.6758
  261MPD2    N1 3960   2.890   0.056  11.924  0.4228 -0.5407  0.1521
  261MPD2    H7 3961   2.881   0.103  12.013 -0.6168 -2.5234  1.0793
  262TMC3    C1 3962   3.358   0.556  11.811 -0.0866 -0.0043 -0.1628
  262TMC3    C2 3963   3.275   0.645  11.867  0.1191 -0.6309  0.4316
  262TMC3    C3 3964   3.332   0.770  11.900  0.3109 -0.7343 -0.6986
  262TMC3    C4 3965   3.491   0.578  11.784  0.5567  0.3012 -0.2735
  262TMC3    C5 3966   3.546   0.695  11.818  0.3306  0.1616  0.5182
  262TMC3    C6 3967   3.465   0.799  11.874  0.1570 -0.1144  0.0444
  262TMC3     C 3968   3.306   0.439  11.749 -0.6253  0.6812 -0.0031
  262TMC3     O 3969   3.362   0.403  11.651 -0.1531  0.6567 -0.1029
  262TMC3     H 3970   3.170   0.619  11.874 -0.0696  0.8268  3.1799
  262TMC3    H1 3971   3.537   0.501  11.722  1.3329  1.7144 -1.4733
  262TMC3    H2 3972   3.525   0.869  11.931  0.6425  0.2600 -0.9323
  262TMC3    C7 3973   3.642   0.737  11.719  0.2497 -0.4088  0.0968
  262TMC3    C8 3974   3.263   0.892  11.862  0.0968  0.0517  0.2870
  262TMC3    O1 3975   3.688   0.648  11.648  0.3674 -0.3145  0.3337
  262TMC3    O2 3976   3.329   0.994  11.844  0.3319  0.1688 -0.3893
  263MPD2     C 3977   4.199   4.484  11.362  0.4359 -0.2270  0.2120
  263MPD2    C1 3978   4.298   4.475  11.273 -0.2358  0.7761  0.3006
  263MPD2    C2 3979   4.273   4.514  11.142  0.3087 -0.8341 -0.3256
  263MPD2    C3 3980   4.154   4.561  11.093 -0.1346  0.4312  0.5427
  263MPD2    C4 3981   4.061   4.584  11.192 -0.3510  0.0629  0.5945
  263MPD2    C5 3982   4.085   4.537  11.316 -0.4690  0.1925 -0.0883
  263MPD2     H 3983   4.352   4.524  11.068  2.3758  1.5568  2.1567
  263MPD2    H1 3984   3.961   4.622  11.175 -0.5155 -0.7963 -0.3432
  263MPD2    H2 3985   4.220   4.450  11.463 -0.6679  2.3945  1.3214
  263MPD2    H3 3986   4.000   4.549  11.383 -1.5490 -0.2056 -1.3743
  263MPD2     N 3987   4.146   4.606  10.961  0.3583 -0.1812  0.1329
  263MPD2    H5 3988   4.225   4.590  10.900  0.0571  1.1742 -0.5873
  263MPD2    N1 3989   4.423   4.426  11.314 -0.0678  0.5465 -0.0051
  263MPD2    H7 3990   4.436   4.399  11.411 -0.2697 -1.2842 -0.4929
  264TMC3    C1 3991   4.068   4.713  10.766  0.1607 -0.0602 -0.2340
  264TMC3    C2 3992   4.013   0.116  10.740 -0.5768 -0.1005  0.3119
  264TMC3    C3 3993   4.047   0.182  10.623  0.0880 -0.0351  0.6281
  264TMC3    C4 3994   4.165   4.647  10.687  0.2867  0.2433  0.8656
  264TMC3    C5 3995   4.187   4.721  10.569 -0.4928  0.8869 -1.0425
  264TMC3    C6 3996   4.130   0.127  10.533  0.5446 -0.0407  0.2542
  264TMC3     C 3997   4.038   4.666  10.898  0.1027  0.4944 -0.3325
  264TMC3     O 3998   3.930   4.698  10.950 -0.1735  0.0015 -0.4218
  264TMC3     H 3999   3.944   0.166  10.807  1.7619  1.3345  1.6776
  264TMC3    H1 4000   4.214   4.555  10.715 -0.9859 -1.3196 -2.0374
  264TMC3    H2 4001   4.149   0.182  10.442 -2.2867 -1.5567 -1.2472
  264TMC3    C7 4002   4.324   0.000  10.520  0.2560  0.3526  0.2196
  264TMC3    C8 4003   4.081   0.321  10.642 -0.5791  0.6029 -0.3535
  264TMC3    O1 4004   4.381   4.614  10.503 -0.1850  0.1717 -0.2204
  264TMC3    O2 4005   4.182   0.355  10.582 -0.3562  0.2201 -0.8327
  265MPD2     C 4006   1.363   0.243  15.636  0.2936 -0.3170  0.8447
  265MPD2    C1 4007   1.354   0.347  15.544  0.5212  0.6926 -0.1045
  265MPD2    C2 4008   1.404   0.332  15.417 -0.2643 -0.6297 -0.7157
  265MPD2    C3 4009   1.452   0.209  15.368 -0.3474  0.8755 -0.0114
  265MPD2    C4 4010   1.440   0.099  15.454 -0.2224 -0.1303  0.3644
  265MPD2    C5 4011   1.396   0.118  15.582 -0.2512  0.1041  0.2247
  265MPD2     H 4012   1.410   0.421  15.356  1.5095 -1.6352 -2.0374
  265MPD2    H1 4013   1.467   0.001  15.416  2.5914  0.7442  0.1845
  265MPD2    H2 4014   1.323   0.245  15.737 -0.0978  0.0682  0.6765
  265MPD2    H3 4015   1.366   0.034  15.643  0.2317 -1.1136 -1.2155
  265MPD2     N 4016   1.507   0.189  15.234 -0.2167  0.1107  0.1061
  265MPD2    H5 4017   1.523   0.092  15.208 -2.0854 -0.1054 -0.2190
  265MPD2    N1 4018   1.297   0.467  15.582  0.0599 -0.2678 -0.1452
  265MPD2    H7 4019   1.287   0.547  15.520  0.1624 -2.1482 -2.5842
  266TMC3    C1 4020   1.170   0.601  15.733 -0.4635  0.3458 -0.0006
  266TMC3    C2 4021   1.148   0.650  15.863 -0.2025  0.0142  0.2839
  266TMC3    C3 4022   1.043   0.742  15.883  0.0367 -0.3496  0.5230
  266TMC3    C4 4023   1.079   0.625  15.629 -0.1724 -0.0989  0.7131
  266TMC3    C5 4024   0.976   0.712  15.654  0.1671  0.0210 -0.2989
  266TMC3    C6 4025   0.954   0.773  15.786 -0.7092  0.4583  0.6163
  266TMC3     C 4026   1.270   0.500  15.714  0.4827  0.5925 -0.4756
  266TMC3     O 4027   1.314   0.449  15.815 -0.5247 -0.3305  0.0744
  266TMC3     H 4028   1.212   0.626  15.947  0.0342  0.2519  0.1753
  266TMC3    H1 4029   1.093   0.574  15.534 -0.3539  2.5048 -0.7014
  266TMC3    H2 4030   0.878   0.847  15.805 -0.4951  0.1745  2.6103
  266TMC3    C7 4031   0.894   0.767  15.544  0.0933  0.1302 -0.9773
  266TMC3    C8 4032   0.998   0.762  16.019 -0.1317  0.2367  0.3627
  266TMC3    O1 4033   0.789   0.829  15.579 -0.1941  0.4376 -0.1992
  266TMC3    O2 4034   0.877   0.745  16.038  0.0149 -0.5274  0.2475
  267MPD2     C 4035   3.976   2.117  17.681 -0.5362 -0.0572 -0.3578
  267MPD2    C1 4036   3.994   2.243  17.617 -0.1405  0.0085 -0.1659
  267MPD2    C2 4037   3.928   2.266  17.500 -0.9895 -0.6942 -0.4492
  267MPD2    C3 4038   3.849   2.169  17.437  0.3424  0.0962 -0.0976
  267MPD2    C4 4039   3.850   2.041  17.489  0.3343 -0.6859 -0.0771
  267MPD2    C5 4040   3.902   2.021  17.611 -0.6239 -0.4036  0.1761
  267MPD2     H 4041   3.922   2.368  17.463  0.9173  0.1460  1.5165
  267MPD2    H1 4042   3.803   1.965  17.427 -0.8282 -0.9936  1.1820
  267MPD2    H2 4043   4.024   2.083   0.085  1.5472 -1.8919 -2.1217
  267MPD2    H3 4044   3.896   1.923  17.655  0.5025 -0.0029  1.2189
  267MPD2     N 4045   3.788   2.188  17.311 -0.6277  0.3050 -0.0240
  267MPD2    H5 4046   3.750   2.106  17.266 -1.1423  1.5123 -1.7980
  267MPD2    N1 4047   4.074   2.343  17.679  0.4404 -0.0330  0.4529
  267MPD2    H7 4048   4.105   2.320   0.085  0.2403 -0.8164  0.3286
  268TMC3    C1 4049   4.150   2.564   0.034 -0.1008  0.4890 -0.1391
  268TMC3    C2 4050   4.219   2.679  17.677  0.6110 -0.6208  0.1222
  268TMC3    C3 4051   4.225   2.793   0.065  0.0945  0.9704  0.9608
  268TMC3    C4 4052   4.095   2.565   0.158  0.2206 -0.3241  0.2666
  268TMC3    C5 4053   4.111   2.678   0.237 -0.1971 -1.0389  0.3403
  268TMC3    C6 4054   4.174   2.793   0.185 -0.1747  0.4069 -0.1860
  268TMC3     C 4055   4.099   2.466  17.620  0.2861 -0.3483  0.4793
  268TMC3     O 4056   4.113   2.507  17.505 -0.1509  0.5172  0.2526
  268TMC3     H 4057   4.276   2.676  17.585 -0.7874 -2.3692 -0.6928
  268TMC3    H1 4058   4.053   2.475   0.201 -0.3845 -0.4090 -0.5014
  268TMC3    H2 4059   4.182   2.881   0.249 -1.4574  1.8902 -2.0474
  268TMC3    C7 4060   4.110   2.648   0.382  0.3504 -0.5701 -0.0393
  268TMC3    C8 4061   4.262   2.923   0.014 -0.1259  0.6950  0.7797
  268TMC3    O1 4062   4.120   2.533   0.415 -0.2680  0.2677  0.9414
  268TMC3    O2 4063   4.234   3.017   0.088  0.5301  0.2835  0.4673
  269MPD2     C 4064   4.041   0.996  15.530  0.4253  0.2924 -0.7410
  269MPD2    C1 4065   3.964   1.054  15.628 -0.1286 -0.6196 -0.3015
  269MPD2    C2 4066   3.952   1.189  15.639  0.4855  0.5495 -0.3494
  269MPD2    C3 4067   4.009   1.269  15.544 -0.3788  0.4561 -0.0824
  269MPD2    C4 4068   4.080   1.208  15.442  0.7788 -0.3382 -0.1196
  269MPD2    C5 4069   4.097   1.075  15.434  0.3429  0.3166 -0.2500
  269MPD2     H 4070   3.908   1.241  15.723  0.0784  0.7131 -0.6650
  269MPD2    H1 4071   4.119   1.259  15.355  0.9573  1.3660  0.9673
  269MPD2    H2 4072   4.044   0.890  15.511  3.4853  0.0926  0.9213
  269MPD2    H3 4073   4.155   1.028  15.355  3.0213  2.8342  0.2081
  269MPD2     N 4074   3.990   1.408  15.551  0.1403  0.4720  0.0440
  269MPD2    H5 4075   3.917   1.438  15.615 -0.3462  0.6482 -0.5933
  269MPD2    N1 4076   3.908   0.966  15.726  1.1071  0.3953 -0.1757
  269MPD2    H7 4077   3.941   0.871  15.712 -0.9447 -0.2822 -0.3287
  270TMC3    C1 4078   3.771   0.908  15.910 -0.1382  0.0119  0.7832
  270TMC3    C2 4079   3.640   0.912  15.916  0.5291  0.2642  0.5773
  270TMC3    C3 4080   3.582   0.797  15.963  0.1416 -0.1422 -0.2102
  270TMC3    C4 4081   3.849   0.806  15.950  0.1825  0.1418 -0.4611
  270TMC3    C5 4082   3.791   0.704  16.011  0.0234 -0.1834  0.1045
  270TMC3    C6 4083   3.652   0.701  16.023 -0.7914 -0.2871  0.2633
  270TMC3     C 4084   3.820   1.016  15.820  0.3085  0.7056 -0.1101
  270TMC3     O 4085   3.764   1.124  15.836  0.8463  0.2303 -0.4841
  270TMC3     H 4086   3.587   0.979  15.849  0.2158 -1.8806 -1.3591
  270TMC3    H1 4087   3.956   0.807  15.933  0.1436 -0.0966 -0.7250
  270TMC3    H2 4088   3.594   0.615  16.057 -1.4737  0.3878  0.8071
  270TMC3    C7 4089   3.858   0.591  15.958  1.2094 -0.4681 -0.1529
  270TMC3    C8 4090   3.508   0.737  15.857  0.2052  0.3198 -0.1558
  270TMC3    O1 4091   3.984   0.590  15.964  0.0279 -0.1166  0.3636
  270TMC3    O2 4092   3.518   0.620  15.826  0.1121 -0.2442  0.1282
  271MPD2     C 4093   2.899   0.493  14.018  0.3470 -1.0206  0.3873
  271MPD2    C1 4094   2.819   0.544  14.124 -0.1805 -1.1996 -0.4988
  271MPD2    C2 4095   2.726   0.648  14.104 -0.0399 -0.6158 -0.3072
  271MPD2    C3 4096   2.706   0.689  13.975  0.1326 -0.3114  0.1357
  271MPD2    C4 4097   2.775   0.636  13.870 -0.5089  0.4634 -0.3626
  271MPD2    C5 4098   2.868   0.536  13.893  0.5263 -0.3976  0.5444
  271MPD2     H 4099   2.676   0.680  14.195  1.2724  0.6682 -0.0364
  271MPD2    H1 4100   2.754   0.666  13.768  2.8024  0.5784 -1.0358
  271MPD2    H2 4101   2.974   0.416  14.034  0.9143 -0.7892 -1.2167
  271MPD2    H3 4102   2.909   0.494  13.802 -1.2110 -0.5608 -0.1666
  271MPD2     N 4103   2.625   0.797  13.947  0.1134 -0.7468 -0.1386
  271MPD2    H5 4104   2.610   0.837  13.855  0.4039  1.6942  0.8647
  271MPD2    N1 4105   2.834   0.508  14.259  0.8389  0.3801 -0.3855
  271MPD2    H7 4106   2.781   0.560  14.327  0.4374 -1.7323  0.9006
  272TMC3    C1 4107   2.951   0.417  14.445 -0.0575 -0.6297 -0.8481
  272TMC3    C2 4108   3.031   0.318  14.495 -0.0258  0.1956  0.0205
  272TMC3    C3 4109   3.098   0.335  14.610 -0.2481 -0.7019 -0.2170
  272TMC3    C4 4110   2.954   0.542  14.498 -0.6144  0.2876  0.0835
  272TMC3    C5 4111   3.041   0.565  14.603  1.0276 -0.7200 -0.0085
  272TMC3    C6 4112   3.096   0.460  14.674 -0.4271  0.1303  0.0901
  272TMC3     C 4113   2.923   0.411  14.301 -0.6379 -0.2026 -0.0955
  272TMC3     O 4114   2.974   0.320  14.238 -0.3046 -0.1643  0.6713
  272TMC3     H 4115   3.043   0.227  14.437  0.2171 -0.5690  1.2685
  272TMC3    H1 4116   2.914   0.627  14.444 -0.6157  1.1232  1.4121
  272TMC3    H2 4117   3.141   0.463  14.772  0.7486  1.1447 -0.4835
  272TMC3    C7 4118   3.032   0.703  14.663  0.0006  0.3744  0.2939
  272TMC3    C8 4119   3.238   0.290  14.594 -0.5100 -0.7016 -0.5380
  272TMC3    O1 4120   2.958   0.783  14.605 -0.1246  0.5134  0.0853
  272TMC3    O2 4121   3.272   0.279  14.480  0.4493  0.1246  1.3158
  273MPD2     C 4122   4.711   3.811  12.101 -0.1903  0.0251 -0.0636
  273MPD2    C1 4123   0.125   3.774  12.069 -0.0173 -0.4405  0.6419
  273MPD2    C2 4124   0.160   3.728  11.940 -1.0485  0.1498 -0.3370
  273MPD2    C3 4125   0.057   3.700  11.847 -0.8099  0.8245 -0.4942
  273MPD2    C4 4126   4.648   3.747  11.886 -0.6154 -0.7778 -0.0931
  273MPD2    C5 4127   4.619   3.806  12.003  0.0362 -0.1043  0.0484
  273MPD2     H 4128   0.262   3.706  11.912 -0.1276  0.5942  2.7445
  273MPD2    H1 4129   4.564   3.730  11.820 -0.7859  0.5287 -0.2022
  273MPD2    H2 4130   4.685   3.856  12.196 -0.1835  0.2823 -0.1837
  273MPD2    H3 4131   4.518   3.844  12.018  0.3464  0.9743 -0.5520
  273MPD2     N 4132   0.073   3.643  11.720 -0.3284  0.0707  0.1640
  273MPD2    H5 4133   4.712   3.643  11.660  0.7611  2.9172 -1.3335
  273MPD2    N1 4134   0.227   3.809  12.172  0.0870  0.0581  0.4445
  273MPD2    H7 4135   0.189   3.860  12.251  1.7321 -1.1783  2.0456
  274TMC3    C1 4136   0.155   3.541  11.532  0.0198 -0.2731  0.9924
  274TMC3    C2 4137   0.035   3.487  11.512 -0.1070 -0.0735 -0.0801
  274TMC3    C3 4138   4.711   3.482  11.381 -0.3698 -0.0532  0.3754
  274TMC3    C4 4139   0.237   3.574  11.428 -0.5675 -0.3074 -0.0952
  274TMC3    C5 4140   0.189   3.566  11.299  0.5846  0.7258  0.0387
  274TMC3    C6 4141   0.062   3.512  11.266 -0.0993 -0.3420 -0.1562
  274TMC3     C 4142   0.190   3.601  11.659  0.1225  0.4359 -0.2367
  274TMC3     O 4143   0.308   3.594  11.697 -0.1276 -0.2103 -0.0648
  274TMC3     H 4144   4.692   3.451  11.592  1.6822  2.7455  2.5995
  274TMC3    H1 4145   0.333   3.621  11.445  0.0027 -0.8297 -1.9819
  274TMC3    H2 4146   0.013   3.535  11.173 -1.5287 -2.5239  0.0496
  274TMC3    C7 4147   0.259   3.632  11.190  0.7013  0.1505 -0.2305
  274TMC3    C8 4148   4.577   3.436  11.361 -0.3273  1.1212  0.5993
  274TMC3    O1 4149   0.199   3.694  11.100  0.3497 -0.2450  0.1023
  274TMC3    O2 4150   4.496   3.454  11.449 -0.4575 -0.0802  0.3264
  275MPD2     C 4151   4.457   1.535  14.500 -0.7096  0.1978 -0.3065
  275MPD2    C1 4152   4.361   1.631  14.477 -0.0202 -0.1610 -0.4471
  275MPD2    C2 4153   4.234   1.595  14.521  0.3252 -0.4353 -0.2574
  275MPD2    C3 4154   4.197   1.470  14.554 -0.5409 -0.0678  0.4695
  275MPD2    C4 4155   4.296   1.372  14.573 -0.5717  0.5734  0.4906
  275MPD2    C5 4156   4.423   1.405  14.549  0.3223 -0.3883  0.9160
  275MPD2     H 4157   4.161   1.674  14.516  1.6305  0.7601 -0.3431
  275MPD2    H1 4158   4.273   1.269  14.600 -0.5570 -0.3205 -2.8991
  275MPD2    H2 4159   4.561   1.560  14.482 -0.5709 -0.9275 -1.1002
  275MPD2    H3 4160   4.507   1.338  14.564  0.5846  0.3418  2.7688
  275MPD2     N 4161   4.062   1.437  14.584  0.0277 -0.1830  0.2591
  275MPD2    H5 4162   4.042   1.350  14.633  2.3619 -0.7963  0.1049
  275MPD2    N1 4163   4.385   1.770  14.444  0.4363 -0.1518 -0.4800
  275MPD2    H7 4164   4.305   1.832  14.445  0.4570 -0.1606  2.1357
  276TMC3    C1 4165   4.522   1.957  14.461  0.4393 -0.0710  0.4834
  276TMC3    C2 4166   4.443   1.979  14.576 -0.2207 -0.6312  0.7735
  276TMC3    C3 4167   4.498   2.034  14.682  0.1295  0.4741  0.8968
  276TMC3    C4 4168   4.653   2.003  14.450 -0.1801  0.4009 -0.4626
  276TMC3    C5 4169   4.704   2.069  14.561 -0.3961  0.6049  0.3539
  276TMC3    C6 4170   4.631   2.078  14.680  0.0448 -0.2515  0.3267
  276TMC3     C 4171   4.506   1.821  14.413  1.0109  0.0895  0.0315
  276TMC3     O 4172   4.610   1.758  14.391 -0.0884 -0.2331 -0.6803
  276TMC3     H 4173   4.336   1.964  14.581  0.0102 -2.1757  1.3285
  276TMC3    H1 4174   4.710   1.994  14.358 -1.4833 -1.2544 -1.1068
  276TMC3    H2 4175   4.672   2.116  14.773  2.1460  0.3711 -0.8605
  276TMC3    C7 4176   0.129   2.049  14.582 -0.4464  0.1206  1.2123
  276TMC3    C8 4177   4.451   1.991  14.808  0.1078 -0.7159  0.1374
  276TMC3    O1 4178   0.167   2.089  14.691  0.0634  0.3014  0.0822
  276TMC3    O2 4179   4.421   2.070  14.898  0.3993 -0.5497  1.3857
  277MPD2     C 4180   1.607   0.671  13.248 -0.0775 -0.0379 -0.4668
  277MPD2    C1 4181   1.474   0.663  13.211  0.2425 -0.4459  0.1298
  277MPD2    C2 4182   1.390   0.577  13.283 -0.7425  0.4138  0.2515
  277MPD2    C3 4183   1.446   0.495  13.381 -0.4970  0.2291  0.2240
  277MPD2    C4 4184   1.580   0.501  13.411 -0.3421  0.0357 -0.4390
  277MPD2    C5 4185   1.664   0.586  13.340 -0.6535 -0.0900 -0.0104
  277MPD2     H 4186   1.283   0.582  13.270 -0.7372 -1.5496 -0.5458
  277MPD2    H1 4187   1.625   0.432  13.481 -0.6223  1.2425  0.9430
  277MPD2    H2 4188   1.660   0.753  13.201  2.0625 -1.6262 -0.8777
  277MPD2    H3 4189   1.768   0.594  13.371 -0.4237  1.2759 -1.1187
  277MPD2     N 4190   1.355   0.413  13.450 -0.3263  0.4605 -0.3011
  277MPD2    H5 4191   1.255   0.422  13.433 -0.1042 -0.8484 -2.3199
  277MPD2    N1 4192   1.430   0.757  13.115  0.5464 -0.1679 -0.1638
  277MPD2    H7 4193   1.501   0.824  13.088  0.7212  0.3313  1.5517
  278TMC3    C1 4194   1.292   0.240  13.586  0.8744 -0.1808 -0.3700
  278TMC3    C2 4195   1.289   0.107  13.578 -0.5012 -0.5685  0.3943
  278TMC3    C3 4196   1.171   0.044  13.606 -0.1956 -0.2696 -0.2447
  278TMC3    C4 4197   1.190   0.316  13.635 -0.5495  0.2028 -0.9352
  278TMC3    C5 4198   1.071   0.254  13.667  0.0845 -0.1366  0.2225
  278TMC3    C6 4199   1.060   0.111  13.653 -0.4444 -0.4318 -0.1931
  278TMC3     C 4200   1.401   0.303  13.518 -0.6584 -0.6847  0.1072
  278TMC3     O 4201   1.509   0.243  13.504  0.1098 -0.0038  0.5500
  278TMC3     H 4202   1.370   0.046  13.540 -1.1860 -0.9637 -0.4525
  278TMC3    H1 4203   1.197   0.423  13.649  1.0452  0.1898 -1.6845
  278TMC3    H2 4204   0.972   0.055  13.681  1.2699 -1.4187  3.2439
  278TMC3    C7 4205   0.964   0.337  13.713 -0.1339 -0.6236 -0.3726
  278TMC3    C8 4206   1.162   4.618  13.621  1.0127 -0.2339  0.2346
  278TMC3    O1 4207   0.998   0.447  13.753 -0.6515  0.0115  0.1604
  278TMC3    O2 4208   1.051   4.565  13.607  0.5188 -0.2702 -0.2491
  279MPD2     C 4209   0.718   0.205   0.177 -0.7599 -0.3777  1.0056
  279MPD2    C1 4210   0.704   0.336   0.131 -0.2515  0.1355  0.4559
  279MPD2    C2 4211   0.754   0.362   0.004  0.7085 -0.3464  0.0954
  279MPD2    C3 4212   0.825   0.267  17.623 -0.0384 -0.6365 -0.0484
  279MPD2    C4 4213   0.862   0.146  17.675 -0.3428  0.1306  0.0054
  279MPD2    C5 4214   0.791   0.111   0.102 -0.2733  0.0135 -0.3802
  279MPD2     H 4215   0.742   0.461  17.651  2.8392 -0.1125  0.0288
  279MPD2    H1 4216   0.937   0.082  17.631  0.4028 -0.6164  2.3583
  279MPD2    H2 4217   0.672   0.169   0.268  1.8658  0.0343  2.4940
  279MPD2    H3 4218   0.800   0.012   0.145  0.0439 -0.2460 -1.0372
  279MPD2     N 4219   0.893   0.285  17.500  0.3005  0.2311  0.9924
  279MPD2    H5 4220   0.952   0.209  17.468 -0.3825 -0.0115  0.2946
  279MPD2    N1 4221   0.623   0.435   0.194 -0.0819  0.0535 -0.2524
  279MPD2    H7 4222   0.619   0.521   0.141 -1.4121 -0.2821 -0.6988
  280TMC3    C1 4223   0.446   0.510   0.329  0.0625 -0.4367 -0.0082
  280TMC3    C2 4224   0.329   0.467   0.386 -0.0235 -0.2376 -0.8200
  280TMC3    C3 4225   0.239   0.565   0.418 -0.2948  0.2442 -0.0511
  280TMC3    C4 4226   0.475   0.650   0.328  0.2834 -0.4287  0.9907
  280TMC3    C5 4227   0.386   0.744   0.368  0.6281 -0.1432 -0.2148
  280TMC3    C6 4228   0.264   0.703   0.395 -0.4746 -0.5800 -1.2343
  280TMC3     C 4229   0.547   0.411   0.305  0.4089 -0.2050 -0.5267
  280TMC3     O 4230   0.548   0.322   0.390  0.2307 -0.3404 -0.0243
  280TMC3     H 4231   0.304   0.363   0.401 -0.9760  0.0625 -0.3215
  280TMC3    H1 4232   0.574   0.682   0.298 -0.4100  0.4110 -0.3855
  280TMC3    H2 4233   0.185   0.773   0.420  0.4280 -0.9150  2.5320
  280TMC3    C7 4234   0.412   0.885   0.336  0.3107 -0.3964  0.1948
  280TMC3    C8 4235   0.120   0.533   0.496  0.8574  0.1558 -0.1795
  280TMC3    O1 4236   0.526   0.926   0.359  0.8460  0.1220 -0.4952
  280TMC3    O2 4237   0.057   0.633   0.527  0.4850 -0.5651 -0.5358
  281TMC3    C1 4238   4.268   0.804  12.790 -0.2402  0.2849 -0.3243
  281TMC3    C2 4239   4.154   0.789  12.721 -0.0449  0.3112 -0.5916
  281TMC3    C3 4240   4.105   0.668  12.710  0.9545 -0.1562  0.4342
  281TMC3    C4 4241   4.319   0.701  12.868 -0.3777  0.7658 -0.0188
  281TMC3    C5 4242   4.249   0.580  12.864  0.1504 -0.2994  0.5345
  281TMC3    C6 4243   4.140   0.557  12.778 -0.2802  0.1255 -0.5933
  281TMC3     C 4244   4.298   0.939  12.848 -0.2530 -0.1054  0.0037
  281TMC3     O 4245   4.417   0.963  12.856  0.2737  0.0019 -0.0875
  281TMC3     H 4246   4.128   0.862  12.645 -2.1898  0.8567  0.6792
  281TMC3    H1 4247   4.413   0.706  12.922 -0.5750  3.1166  0.0980
  281TMC3    H2 4248   4.094   0.459  12.769  2.8629 -1.3880 -0.1576
  281TMC3    C7 4249   4.283   0.484  12.968  0.6791  0.1129  0.0373
  281TMC3    C8 4250   3.973   0.651  12.654  0.4209 -0.3091  0.0093
  281TMC3    O1 4251   4.384   0.517  13.026  0.3397  0.3198 -0.6242
  281TMC3    O2 4252   3.899   0.746  12.673 -0.7661 -0.2083  0.3722
  282MPD2     C 4253   1.148   2.299  14.882  0.4774  0.2617 -0.2405
  282MPD2    C1 4254   1.040   2.373  14.915 -0.4100 -0.1115  0.2845
  282MPD2    C2 4255   0.970   2.442  14.812 -0.0260 -0.4526 -0.2984
  282MPD2    C3 4256   0.993   2.403  14.684  0.0917 -0.4527 -0.3889
  282MPD2    C4 4257   1.102   2.328  14.649  1.0049  0.1288 -0.2650
  282MPD2    C5 4258   1.183   2.280  14.753  0.3014  0.0045 -0.3640
  282MPD2     H 4259   0.880   2.498  14.836  1.2198  1.3956  0.0849
  282MPD2    H1 4260   1.130   2.310  14.546 -1.4087 -1.4619 -0.6562
  282MPD2    H2 4261   1.211   2.243  14.950  0.8189  0.6615 -0.2249
  282MPD2    H3 4262   1.263   2.209  14.733 -1.5236 -1.2850 -2.8885
  282MPD2     N 4263   0.905   2.439  14.584 -0.1463 -0.1648  0.0905
  282MPD2    H5 4264   0.827   2.500  14.608 -2.3965 -2.8930 -0.3187
  282MPD2    N1 4265   0.993   2.388  15.052 -0.1620  0.4345 -1.0052
  282MPD2    H7 4266   0.917   2.452  15.067 -1.1655 -1.5160  2.2219
  283TMC3    C1 4267   0.960   2.336  15.274  0.1325 -0.0596  0.0748
  283TMC3    C2 4268   0.887   2.452  15.297  0.6246 -0.1091 -0.1071
  283TMC3    C3 4269   0.812   2.455  15.414  0.7470 -0.0393  0.5522
  283TMC3    C4 4270   0.950   2.229  15.354 -0.3083  0.0288 -0.2552
  283TMC3    C5 4271   0.872   2.233  15.468 -0.2050  0.2234  1.2345
  283TMC3    C6 4272   0.811   2.350  15.505 -0.5641  0.4807 -0.4518
  283TMC3     C 4273   1.043   2.325  15.163 -0.7376 -0.7269  0.5740
  283TMC3     O 4274   1.145   2.254  15.170  0.0177 -0.2325 -0.4805
  283TMC3     H 4275   0.887   2.530  15.221  0.4920 -0.2530 -0.2543
  283TMC3    H1 4276   1.010   2.142  15.328 -0.8193 -0.6544  0.8578
  283TMC3    H2 4277   0.770   2.346  15.605  1.3479  0.2048  0.3013
  283TMC3    C7 4278   0.892   2.138  15.577 -0.5496  0.0485 -0.1359
  283TMC3    C8 4279   0.778   2.580  15.475 -0.3147 -0.0368  0.4334
  283TMC3    O1 4280   0.843   2.164  15.684  0.2342  0.2235  0.1585
  283TMC3    O2 4281   0.715   2.577  15.580  0.2717 -0.3220 -0.1518
  284MPD2     C 4282   4.152   1.523  11.732 -0.0554 -0.0211  0.1095
  284MPD2    C1 4283   4.262   1.454  11.697  0.7942  0.5174 -0.0745
  284MPD2    C2 4284   4.289   1.336  11.757  0.4427 -0.5288 -0.1818
  284MPD2    C3 4285   4.218   1.298  11.872  0.2811  0.0644  0.7244
  284MPD2    C4 4286   4.119   1.378  11.909  0.3634 -0.1420  1.3281
  284MPD2    C5 4287   4.075   1.493  11.845  0.6248 -0.0992 -0.4021
  284MPD2     H 4288   4.373   1.276  11.722  1.4177  0.7004  0.0543
  284MPD2    H1 4289   4.062   1.370  12.000  0.2585 -2.3202  1.0537
  284MPD2    H2 4290   4.135   1.621  11.688  0.0931 -1.1484 -2.4209
  284MPD2    H3 4291   3.991   1.557  11.872  1.7509  0.4737  1.7157
  284MPD2     N 4292   4.246   1.194  11.961  0.5302  0.1571  0.4370
  284MPD2    H5 4293   4.166   1.178  12.021  2.2534 -0.5476  2.5260
  284MPD2    N1 4294   4.350   1.505  11.604 -0.4781  0.1499  0.2128
  284MPD2    H7 4295   4.431   1.448  11.580 -0.6112  0.1851 -0.3233
  285TMC3    C1 4296   4.485   1.645  11.481  0.4178  0.0570 -0.7698
  285TMC3    C2 4297   4.544   1.539  11.411 -0.2305 -0.8048 -0.0443
  285TMC3    C3 4298   4.659   1.560  11.343 -0.4056  0.3895 -0.3695
  285TMC3    C4 4299   4.547   1.770  11.478  0.7199 -0.0519 -0.0164
  285TMC3    C5 4300   4.668   1.783  11.410 -0.2429  0.2421 -0.8503
  285TMC3    C6 4301   4.718   1.682  11.336  0.2314 -0.6851  1.5028
  285TMC3     C 4302   4.363   1.638  11.560 -0.6716  0.2385 -0.4884
  285TMC3     O 4303   4.309   1.738  11.609 -0.0739  0.1022 -0.3544
  285TMC3     H 4304   4.512   1.435  11.414  1.5419 -1.3353  0.4259
  285TMC3    H1 4305   4.502   1.857  11.525  0.0833 -0.0017 -0.7230
  285TMC3    H2 4306   0.090   1.693  11.283 -1.5868  2.1838 -1.1221
  285TMC3    C7 4307   0.010   1.912  11.420 -0.3324 -0.6642 -0.2378
  285TMC3    C8 4308   4.710   1.455  11.248 -0.2565 -0.1125  0.3296
  285TMC3    O1 4309   0.088   1.945  11.336  0.1313  0.5653  0.3075
  285TMC3    O2 4310   4.648   1.348  11.259 -0.5555  0.5846  0.7350
  286MPD2     C 4311   0.373   0.449   1.838 -0.7558 -0.3132 -0.0714
  286MPD2    C1 4312   0.325   0.408   1.713  0.3611  0.5208 -0.3359
  286MPD2    C2 4313   0.380   0.301   1.646 -0.0169  0.8813 -0.1165
  286MPD2    C3 4314   0.493   0.242   1.690  0.0529 -0.0325  0.0315
  286MPD2    C4 4315   0.545   0.282   1.809 -0.6957  0.7144 -0.3207
  286MPD2    C5 4316   0.484   0.385   1.879 -0.2222  0.0465  0.5827
  286MPD2     H 4317   0.330   0.273   1.554 -0.2311  1.1593 -0.0860
  286MPD2    H1 4318   0.637   0.242   1.849 -0.4341  1.1135 -0.5168
  286MPD2    H2 4319   0.330   0.523   1.904  1.3872  0.0627  0.9363
  286MPD2    H3 4320   0.537   0.409   1.971  1.3444 -3.5311  0.6347
  286MPD2     N 4321   0.567   0.144   1.627 -0.1969 -0.2507 -0.8663
  286MPD2    H5 4322   0.636   0.099   1.687  0.7622  3.5685  0.9073
  286MPD2    N1 4323   0.216   0.473   1.645  0.9046  0.5284 -0.0664
  286MPD2    H7 4324   0.178   0.442   1.556 -0.1128 -0.5553  0.7591
  287TMC3    C1 4325   0.619   4.700   1.463 -0.0646 -0.0398  0.1254
  287TMC3    C2 4326   0.613   4.669   1.327  0.8024  0.0445 -0.2621
  287TMC3    C3 4327   0.656   4.539   1.304  1.0447  0.4468  0.2182
  287TMC3    C4 4328   0.689   4.629   1.561 -0.0016 -0.6450  0.2562
  287TMC3    C5 4329   0.741   4.510   1.525  0.7733 -1.2676 -0.1165
  287TMC3    C6 4330   0.717   4.467   1.402 -0.4102  0.4037 -0.2644
  287TMC3     C 4331   0.541   0.101   1.500  0.3024  0.7464 -0.3361
  287TMC3     O 4332   0.461   0.146   1.418  0.2814  0.3516 -0.0414
  287TMC3     H 4333   0.570   0.015   1.253  2.3926  0.8152 -0.4980
  287TMC3    H1 4334   0.670   4.647   1.666 -1.5480 -2.4970  0.2997
  287TMC3    H2 4335   0.745   4.366   1.378 -1.8234  0.3154 -1.5800
  287TMC3    C7 4336   0.810   4.434   1.624  0.0191 -0.3779 -0.3495
  287TMC3    C8 4337   0.622   4.473   1.177 -0.4676  0.4847 -0.1695
  287TMC3    O1 4338   0.770   4.439   1.740 -0.2607 -0.0561 -0.1125
  287TMC3    O2 4339   0.599   4.353   1.183  0.3241  0.2163  0.0918
  288TMC3    C1 4340   1.954   4.368  14.256 -0.2167 -0.3082 -0.2836
  288TMC3    C2 4341   1.842   4.447  14.241  0.5888 -0.7538  0.0585
  288TMC3    C3 4342   1.786   4.458  14.118  0.1872 -1.1719  0.4334
  288TMC3    C4 4343   2.018   4.316  14.149  0.4101  0.2642 -0.0770
  288TMC3    C5 4344   1.963   4.336  14.027  0.0392 -0.1680  0.3201
  288TMC3    C6 4345   1.845   4.401  14.000 -0.8004 -0.0079  0.5850
  288TMC3     C 4346   2.010   4.328  14.387 -0.1422 -0.2371 -0.5311
  288TMC3     O 4347   2.132   4.303  14.390 -0.3803 -0.0318  0.3522
  288TMC3     H 4348   1.803   4.498  14.328 -0.3116 -1.9663  0.3612
  288TMC3    H1 4349   2.097   4.242  14.162  0.6341  0.4421 -0.4548
  288TMC3    H2 4350   1.786   4.382  13.911  2.2870  0.1478 -1.5120
  288TMC3    C7 4351   2.027   4.260  13.917 -0.2233 -0.0029  0.3651
  288TMC3    C8 4352   1.670   4.550  14.111  0.9563 -0.5123  0.1575
  288TMC3    O1 4353   2.119   4.189  13.946  0.4450  0.0471 -0.3196
  288TMC3    O2 4354   1.640   4.604  14.003 -0.3237 -0.0357  0.1945
  289MPD2     C 4355   1.418   3.894  14.669  0.1273  0.0598  0.0154
  289MPD2    C1 4356   1.508   3.944  14.579  0.0897 -1.5051 -0.5225
  289MPD2    C2 4357   1.459   4.001  14.458 -0.0184 -0.6144  0.5727
  289MPD2    C3 4358   1.331   3.982  14.422 -0.4022 -0.5239 -0.5840
  289MPD2    C4 4359   1.249   3.909  14.502 -0.2503  0.3665 -0.0698
  289MPD2    C5 4360   1.290   3.872  14.623 -0.0111  0.5313 -0.2235
  289MPD2     H 4361   1.528   4.039  14.383 -1.1311 -1.1654 -0.7252
  289MPD2    H1 4362   1.149   3.872  14.482 -0.0141 -0.0275 -0.5209
  289MPD2    H2 4363   1.448   3.854  14.766 -0.4012 -1.2645 -0.3706
  289MPD2    H3 4364   1.232   3.808  14.688  1.1668  1.2310  1.5125
  289MPD2     N 4365   1.279   4.025  14.299  0.6318  0.0887  0.8483
  289MPD2    H5 4366   1.182   3.997  14.289  0.3490  0.9555  1.2045
  289MPD2    N1 4367   1.641   3.951  14.632 -0.4486 -0.1232 -0.5844
  289MPD2    H7 4368   1.663   3.894  14.712 -0.9994  0.3534 -0.0948
  290TMC3    C1 4369   1.240   4.164  14.117  0.5927 -0.7976 -0.3943
  290TMC3    C2 4370   1.215   4.296  14.080  0.1949 -0.1941 -0.3392
  290TMC3    C3 4371   1.114   4.321  13.988 -0.0097  0.4578  0.1048
  290TMC3    C4 4372   1.158   4.062  14.061 -0.0598 -0.3015 -0.0468
  290TMC3    C5 4373   1.053   4.098  13.980 -0.7632  0.1048  0.3875
  290TMC3    C6 4374   1.030   4.226  13.936 -0.1536  0.6073 -0.1707
  290TMC3     C 4375   1.334   4.124  14.218 -0.0230  0.3633  0.1707
  290TMC3     O 4376   1.440   4.185  14.233 -0.2692 -0.5114 -0.1827
  290TMC3     H 4377   1.271   4.381  14.117  0.3471 -0.6858  0.5665
  290TMC3    H1 4378   1.180   3.959  14.086 -1.0578 -0.2578  1.0214
  290TMC3    H2 4379   0.947   4.257  13.873 -1.5795 -0.8561  0.9841
  290TMC3    C7 4380   0.944   4.006  13.949  0.7287 -0.2140 -0.1010
  290TMC3    C8 4381   1.063   4.462  13.983 -0.0583 -0.0134  0.3063
  290TMC3    O1 4382   0.854   4.055  13.884  0.9080 -0.0539  0.2242
  290TMC3    O2 4383   0.938   4.459  13.983  0.1814  0.2099  0.3053
  291MPD2     C 4384   1.159   3.524   0.935  0.2489  0.2501  0.0991
  291MPD2    C1 4385   1.069   3.585   0.849  0.0115  0.6180  0.4798
  291MPD2    C2 4386   1.085   3.725   0.819  0.3881  0.3899  0.4922
  291MPD2    C3 4387   1.184   3.800   0.877  0.9919 -0.0987  0.0934
  291MPD2    C4 4388   1.262   3.733   0.963  0.4877 -0.9832 -0.6039
  291MPD2    C5 4389   1.254   3.604   0.985  0.4793  0.2126 -0.7636
  291MPD2     H 4390   1.011   3.775   0.757 -0.3144 -0.4526  0.6499
  291MPD2    H1 4391   1.333   3.799   1.011 -2.2056  0.5145  1.3403
  291MPD2    H2 4392   1.149   3.417   0.954 -0.0646 -0.0517 -1.7611
  291MPD2    H3 4393   1.323   3.562   1.058 -0.2808  0.7178  0.2391
  291MPD2     N 4394   1.206   3.940   0.851  0.5866 -0.0997  0.3072
  291MPD2    H5 4395   1.276   3.989   0.905 -1.5543 -0.5467  3.5012
  291MPD2    N1 4396   0.974   3.512   0.777  0.2591  0.1506 -0.6649
  291MPD2    H7 4397   0.912   3.565   0.717  0.4101  0.4051 -0.5948
  292TMC3    C1 4398   0.839   3.331   0.709 -0.3162  0.2937  0.0045
  292TMC3    C2 4399   0.731   3.404   0.738  0.0476 -0.2359 -0.3573
  292TMC3    C3 4400   0.615   3.377   0.672  0.0319  0.3259 -0.4823
  292TMC3    C4 4401   0.843   3.245   0.602 -0.4018  0.9141  0.2626
  292TMC3    C5 4402   0.729   3.222   0.534  0.3494 -0.0345 -0.8676
  292TMC3    C6 4403   0.612   3.289   0.567 -0.0763 -0.0587 -0.1112
  292TMC3     C 4404   0.965   3.373   0.761  0.2174 -0.2611 -0.3824
  292TMC3     O 4405   1.040   3.283   0.793 -0.0432 -0.4761  0.1052
  292TMC3     H 4406   0.730   3.477   0.818  1.4720  1.9086 -2.2679
  292TMC3    H1 4407   0.937   3.195   0.583 -1.7639 -1.9859  1.0610
  292TMC3    H2 4408   0.514   3.265   0.527  0.8893 -1.2360 -1.7631
  292TMC3    C7 4409   0.742   3.161   0.399  0.0436 -0.0903  0.6608
  292TMC3    C8 4410   0.494   3.426   0.743 -0.8410 -0.5411  0.5994
  292TMC3    O1 4411   0.852   3.122   0.362 -0.3308 -0.6508  0.4729
  292TMC3    O2 4412   0.510   3.514   0.822 -0.4340 -0.5714 -0.4057
  293MPD2     C 4413   2.547   0.417  12.389  0.1575 -0.2840  0.2767
  293MPD2    C1 4414   2.460   0.353  12.478 -0.2411 -0.8084  0.2850
  293MPD2    C2 4415   2.489   0.361  12.616  0.0851  0.1509 -0.9877
  293MPD2    C3 4416   2.593   0.436  12.661 -0.2474  0.3476  0.1826
  293MPD2    C4 4417   2.679   0.487  12.568 -0.4332  0.2253 -1.1138
  293MPD2    C5 4418   2.656   0.486  12.438 -0.0901  1.2200  0.3120
  293MPD2     H 4419   2.436   0.300  12.689  0.1181  1.0550 -0.2065
  293MPD2    H1 4420   2.768   0.535  12.606  0.2944 -0.5097 -1.8756
  293MPD2    H2 4421   2.539   0.421  12.281  0.0047 -0.9736  0.2621
  293MPD2    H3 4422   2.737   0.523  12.376  0.0557  0.6341  0.1526
  293MPD2     N 4423   2.612   0.451  12.798 -0.4263 -0.2818  0.8512
  293MPD2    H5 4424   2.557   0.393  12.860  0.7980  0.6354  2.8161
  293MPD2    N1 4425   2.360   0.281  12.416 -0.5511  0.8937  0.0733
  293MPD2    H7 4426   2.358   0.289  12.315 -0.4858  1.7371  0.1347
  294TMC3    C1 4427   2.150   0.162  12.402 -0.8141  0.2223  0.1954
  294TMC3    C2 4428   2.042   0.122  12.466 -0.0717  0.7637 -0.1911
  294TMC3    C3 4429   1.946   0.056  12.395 -0.1997 -0.3049  0.6563
  294TMC3    C4 4430   2.169   0.140  12.267  0.6822  0.1175 -0.0344
  294TMC3    C5 4431   2.060   0.081  12.192  0.8324  0.0906  0.2484
  294TMC3    C6 4432   1.951   0.031  12.260  0.3040 -0.3036  0.3319
  294TMC3     C 4433   2.257   0.229  12.484 -0.5012 -0.3451 -0.3533
  294TMC3     O 4434   2.248   0.214  12.603  0.1717 -0.1176 -0.0848
  294TMC3     H 4435   2.040   0.129  12.574 -0.5181  1.3467 -0.2347
  294TMC3    H1 4436   2.267   0.149  12.222  0.2586 -2.7197 -1.5076
  294TMC3    H2 4437   1.866   4.719  12.202 -2.1594  0.3778  3.5852
  294TMC3    C7 4438   2.058   0.060  12.054 -0.5183 -0.3522 -0.7564
  294TMC3    C8 4439   1.848   4.695  12.468  0.3768  0.4826  0.1526
  294TMC3    O1 4440   1.992   4.689  12.011 -0.2439  0.8474  0.1168
  294TMC3    O2 4441   1.837   0.017  12.583 -0.1701 -0.3890 -0.1388
  295MPD2     C 4442   3.545   3.913   0.873  0.7694 -0.1997 -0.3888
  295MPD2    C1 4443   3.457   3.838   0.800 -0.7365 -0.9517  0.8492
  295MPD2    C2 4444   3.421   3.709   0.839  1.2251 -0.4278 -0.8253
  295MPD2    C3 4445   3.470   3.666   0.968 -0.0471 -0.4264  0.1984
  295MPD2    C4 4446   3.556   3.748   1.038  0.2279  0.5501  0.5226
  295MPD2    C5 4447   3.595   3.871   0.989  0.4123 -0.3566 -0.4298
  295MPD2     H 4448   3.358   3.647   0.776 -0.0403 -1.1093  1.1287
  295MPD2    H1 4449   3.587   3.720   1.138  1.5350  0.5433  0.1090
  295MPD2    H2 4450   3.586   4.008   0.841  1.0428  0.4721  1.8956
  295MPD2    H3 4451   3.665   3.931   1.046  0.6666 -1.3441  0.3069
  295MPD2     N 4452   3.423   3.546   1.031  0.1799 -0.7128 -0.1812
  295MPD2    H5 4453   3.456   3.523   1.124 -1.4160 -0.5347  0.4193
  295MPD2    N1 4454   3.413   3.885   0.675 -0.3436  0.1866 -0.4623
  295MPD2    H7 4455   3.348   3.821   0.631 -0.7945  1.3690 -1.5046
  296TMC3    C1 4456   3.273   3.373   1.081 -0.7545 -0.6604 -0.1848
  296TMC3    C2 4457   3.343   3.333   1.192 -0.2419 -0.8777 -0.4355
  296TMC3    C3 4458   3.263   3.270   1.287  0.1615 -0.4643 -0.2136
  296TMC3    C4 4459   3.139   3.344   1.062  0.1035 -0.2357 -0.1841
  296TMC3    C5 4460   3.075   3.272   1.161 -0.0834 -0.0961 -0.0337
  296TMC3    C6 4461   3.133   3.237   1.280  0.1998  0.0291 -0.7324
  296TMC3     C 4462   3.328   3.463   0.980 -0.8942  0.0905  0.2534
  296TMC3     O 4463   3.285   3.456   0.869  0.7654  0.0889 -0.1543
  296TMC3     H 4464   3.450   3.346   1.201 -0.3498 -1.4681  1.6202
  296TMC3    H1 4465   3.088   3.373   0.970 -2.2206 -1.2074  0.8090
  296TMC3    H2 4466   3.087   3.175   1.357  1.5728 -2.1195 -1.6351
  296TMC3    C7 4467   2.931   3.267   1.147  0.0629 -0.0117  0.8715
  296TMC3    C8 4468   3.321   3.259   1.425 -0.8014  0.6156 -0.3553
  296TMC3    O1 4469   2.896   3.295   1.033 -0.3404  0.2792  0.1725
  296TMC3    O2 4470   3.252   3.210   1.513  0.0669  0.6700  0.1569
  297MPD2     C 4471   0.284   0.891  16.284 -0.7175 -0.0889  0.1425
  297MPD2    C1 4472   0.324   0.967  16.179 -0.2963 -0.0979  0.2403
  297MPD2    C2 4473   0.456   1.010  16.177 -0.7250  0.3583  0.2164
  297MPD2    C3 4474   0.542   0.987  16.280 -0.7850 -0.4954  0.0663
  297MPD2    C4 4475   0.500   0.914  16.391  0.1094  0.1211 -0.2884
  297MPD2    C5 4476   0.371   0.871  16.394  0.3622 -0.2221  0.2134
  297MPD2     H 4477   0.499   1.061  16.092 -0.2714  0.8214  0.7177
  297MPD2    H1 4478   0.562   0.899  16.478 -0.9660 -3.0412 -0.0498
  297MPD2    H2 4479   0.187   0.848  16.307 -0.7404  0.5146  1.1684
  297MPD2    H3 4480   0.336   0.819  16.482  0.4329 -2.0409 -0.8492
  297MPD2     N 4481   0.675   1.038  16.273 -0.3215  0.2126 -0.3266
  297MPD2    H5 4482   0.704   1.080  16.185  0.4782  0.8555  0.2371
  297MPD2    N1 4483   0.232   1.023  16.083 -0.5529 -0.5984 -0.4066
  297MPD2    H7 4484   0.257   1.086  16.008  1.9607 -0.6235  0.4106
  298TMC3    C1 4485   0.022   1.112  16.013  0.3385 -0.4086 -0.5416
  298TMC3    C2 4486   0.046   1.077  15.882 -0.0015  0.2333  0.0121
  298TMC3    C3 4487   4.708   1.157  15.793 -0.3452 -0.4446  0.1275
  298TMC3    C4 4488   4.658   1.209  16.055 -0.4934  0.2344  0.0750
  298TMC3    C5 4489   4.593   1.277  15.959 -0.4178  0.4249 -0.0385
  298TMC3    C6 4490   4.621   1.262  15.825 -0.2504  0.7481 -0.0075
  298TMC3     C 4491   0.100   1.048  16.118 -0.0442  0.2970 -0.5742
  298TMC3     O 4492   0.036   1.014  16.218  0.4609  0.2389  0.4553
  298TMC3     H 4493   0.098   0.984  15.861 -0.5212  0.2750 -1.4533
  298TMC3    H1 4494   4.626   1.229  16.157 -5.2089  0.1011 -1.3791
  298TMC3    H2 4495   4.598   1.344  15.758  0.1434  2.1644  1.5899
  298TMC3    C7 4496   4.530   1.392  16.009  0.2234 -0.2479  0.3686
  298TMC3    C8 4497   0.027   1.139  15.659  0.3368  0.0576  0.2225
  298TMC3    O1 4498   4.575   1.433  16.115  0.0591  0.4006  0.0590
  298TMC3    O2 4499   0.129   1.075  15.638 -0.9439 -0.4541  0.1880
  299MPD2     C 4500   1.193   0.395  10.358 -1.3870 -0.0885  0.5925
  299MPD2    C1 4501   1.226   0.515  10.299 -0.4814 -0.5760  0.1679
  299MPD2    C2 4502   1.155   0.557  10.189  0.8283  0.1160 -0.0367
  299MPD2    C3 4503   1.039   0.485  10.156 -0.7819 -0.9764 -0.6697
  299MPD2    C4 4504   1.011   0.368  10.220 -0.3382 -0.7791 -0.6579
  299MPD2    C5 4505   1.088   0.316  10.318  0.2903 -0.3864  0.3171
  299MPD2     H 4506   1.169   0.649  10.134  0.8393 -0.9308 -1.7920
  299MPD2    H1 4507   0.916   0.325  10.190 -1.1992  1.3342 -0.9420
  299MPD2    H2 4508   1.255   0.358  10.439  0.9953  1.0665 -0.6999
  299MPD2    H3 4509   1.061   0.230  10.378 -0.4879 -0.9227 -0.8117
  299MPD2     N 4510   0.931   0.526  10.071  0.6489  0.5042 -0.6857
  299MPD2    H5 4511   0.848   0.467  10.066  1.3864 -0.4085 -2.1780
  299MPD2    N1 4512   1.323   0.596  10.361  0.1800 -0.0358  0.0915
  299MPD2    H7 4513   1.364   0.559  10.446  0.0700  0.7859  0.4979
  300TMC3    C1 4514   0.798   0.699   9.965 -0.0772  0.2108 -0.5885
  300TMC3    C2 4515   0.779   0.802   9.883 -0.4112  0.4717  0.3908
  300TMC3    C3 4516   0.669   0.886   9.889  0.2449 -0.1470 -0.3250
  300TMC3    C4 4517   0.700   0.661  10.056  0.3490  0.3095 -0.1964
  300TMC3    C5 4518   0.599   0.754  10.067 -0.1739  0.0575 -0.2792
  300TMC3    C6 4519   0.579   0.864   9.990  0.3666  0.1998 -0.6895
  300TMC3     C 4520   0.930   0.645   9.991  0.9557  0.6047  0.1273
  300TMC3     O 4521   1.026   0.716   9.961 -0.7803  0.3219  0.0232
  300TMC3     H 4522   0.848   0.824   9.802  1.6478 -0.7249  1.8301
  300TMC3    H1 4523   0.717   0.592  10.139  0.6156  0.9613  0.2918
  300TMC3    H2 4524   0.486   0.918   9.995 -1.1235 -2.4806  0.3504
  300TMC3    C7 4525   0.501   0.727  10.162 -0.9190  0.1240 -0.1316
  300TMC3    C8 4526   0.688   1.014   9.839  1.0684  0.0066  0.2532
  300TMC3    O1 4527   0.442   0.819  10.219 -0.2423 -0.4876 -0.3053
  300TMC3    O2 4528   0.806   1.038   9.828 -0.3040 -0.3754 -0.6618
  301MPD2     C 4529   2.792   1.672   1.739 -0.1396 -0.8115  0.3966
  301MPD2    C1 4530   2.688   1.643   1.655  0.0908  0.2821  0.0083
  301MPD2    C2 4531   2.668   1.510   1.625  0.0240 -0.1554 -0.6749
  301MPD2    C3 4532   2.755   1.407   1.660 -0.3417 -0.6027  0.3590
  301MPD2    C4 4533   2.862   1.441   1.741 -0.1953  0.2517  0.4017
  301MPD2    C5 4534   2.871   1.570   1.777  0.4175  0.4904  0.5584
  301MPD2     H 4535   2.593   1.478   1.554  0.0821 -0.2579 -0.6896
  301MPD2    H1 4536   2.906   1.362   1.801 -1.2550 -0.2698  0.4828
  301MPD2    H2 4537   2.819   1.772   1.770 -1.1715 -0.0346 -1.2110
  301MPD2    H3 4538   2.945   1.584   1.854  0.9695  2.4572 -0.3229
  301MPD2     N 4539   2.746   1.272   1.616  0.1889 -0.1197 -0.0797
  301MPD2    H5 4540   2.826   1.213   1.633  1.2056  0.9039 -1.3500
  301MPD2    N1 4541   2.599   1.745   1.609  0.2806  0.7548  0.5550
  301MPD2    H7 4542   2.517   1.718   1.554  0.0734  2.7545 -0.1079
  302TMC3    C1 4543   2.692   1.110   1.454 -0.6768  0.4162  0.2000
  302TMC3    C2 4544   2.825   1.089   1.427  0.4929 -0.4977 -0.2086
  302TMC3    C3 4545   2.857   1.006   1.315 -0.1216  0.3226 -0.1225
  302TMC3    C4 4546   2.595   1.050   1.380 -0.5620 -0.3894  0.7317
  302TMC3    C5 4547   2.625   0.959   1.284 -0.3886 -0.5526 -0.0091
  302TMC3    C6 4548   2.760   0.937   1.248  0.2795  0.3097  0.1664
  302TMC3     C 4549   2.653   1.225   1.533  1.0958 -0.4937 -0.4129
  302TMC3     O 4550   2.544   1.273   1.506 -0.0592 -0.0124 -0.3876
  302TMC3     H 4551   2.902   1.150   1.472  0.1198  1.2327 -1.9181
  302TMC3    H1 4552   2.490   1.071   1.397  0.0035  1.5134  1.8723
  302TMC3    H2 4553   2.783   0.876   1.161  0.1062 -0.3672  0.5971
  302TMC3    C7 4554   2.522   0.918   1.193 -0.2021  0.2710  0.1997
  302TMC3    C8 4555   2.989   1.018   1.256 -0.8337 -0.0155  0.1160
  302TMC3    O1 4556   2.548   0.814   1.137 -0.1953  0.2511 -0.0939
  302TMC3    O2 4557   3.071   1.082   1.326  0.0029  0.0896 -0.0747
  303MPD2     C 4558   3.255   0.448  10.062 -0.3583  0.0202  0.3336
  303MPD2    C1 4559   3.194   0.334  10.096 -0.1534  0.4021 -0.4341
  303MPD2    C2 4560   3.206   0.222  10.005  0.4761  0.1657 -0.2048
  303MPD2    C3 4561   3.289   0.238   9.890 -0.5662 -0.5653  0.1018
  303MPD2    C4 4562   3.343   0.362   9.862 -0.4227  0.3464  0.1010
  303MPD2    C5 4563   3.316   0.465   9.940  0.4949  0.5265 -0.7677
  303MPD2     H 4564   3.154   0.130  10.028  1.0085 -0.1779 -0.3867
  303MPD2    H1 4565   3.410   0.376   9.778 -0.6639  1.0914  0.0345
  303MPD2    H2 4566   3.244   0.534  10.127  1.4723  2.0454 -1.9909
  303MPD2    H3 4567   3.350   0.565   9.915 -1.9793  1.7922  0.8894
  303MPD2     N 4568   3.318   0.125   9.803  0.2660 -0.5517  0.3429
  303MPD2    H5 4569   3.385   0.149   9.731  2.6620 -0.9456  2.4761
  303MPD2    N1 4570   3.132   0.319  10.223 -0.7134 -0.3052 -0.6336
  303MPD2    H7 4571   3.139   0.396  10.288 -2.8536 -0.9769  0.3792
  304TMC3    C1 4572   3.015   0.236  10.396  0.3667 -0.3963  0.3979
  304TMC3    C2 4573   2.904   0.159  10.430  0.1152 -0.7623  0.6559
  304TMC3    C3 4574   2.881   0.139  10.558  0.4078  0.0776 -0.4870
  304TMC3    C4 4575   3.103   0.280  10.487 -0.3397 -0.2254  0.0589
  304TMC3    C5 4576   3.073   0.241  10.617 -0.9074 -0.3579  0.5098
  304TMC3    C6 4577   2.953   0.192  10.657  0.3925 -0.5617 -0.3430
  304TMC3     C 4578   3.068   0.210  10.267 -0.5949  0.0002 -0.0240
  304TMC3     O 4579   3.016   0.116  10.203 -0.4312  0.6238 -0.1522
  304TMC3     H 4580   2.849   0.120  10.345 -1.1478  1.6182  0.3569
  304TMC3    H1 4581   3.209   0.298  10.478 -0.3779  0.5734  1.2152
  304TMC3    H2 4582   2.938   0.164  10.761 -1.9461  1.1964 -0.2330
  304TMC3    C7 4583   3.180   0.152  10.671 -0.3880 -0.5031 -0.0323
  304TMC3    C8 4584   2.827   0.008  10.574  0.3972  0.4846 -0.1497
  304TMC3    O1 4585   3.250   0.096  10.587 -0.4007 -0.6252  0.4480
  304TMC3    O2 4586   2.833   4.644  10.485  0.0377 -0.5169 -0.1177
  305MPD2     C 4587   0.856   2.276  13.614  0.1653  0.1551  0.1258
  305MPD2    C1 4588   0.989   2.243  13.638 -0.0262  0.0050 -0.4284
  305MPD2    C2 4589   1.071   2.184  13.543  0.7348  0.3383 -0.5439
  305MPD2    C3 4590   1.030   2.167  13.413 -0.6518  0.0424 -0.4748
  305MPD2    C4 4591   0.892   2.195  13.386  0.1805 -0.4246  0.0605
  305MPD2    C5 4592   0.808   2.242  13.488 -0.0913  0.2961 -0.0369
  305MPD2     H 4593   1.172   2.159  13.574  0.8407 -1.3435 -2.2313
  305MPD2    H1 4594   0.847   2.166  13.291 -0.6899  0.9066  0.0694
  305MPD2    H2 4595   0.789   2.326  13.683 -2.3760 -2.2047 -0.6162
  305MPD2    H3 4596   0.703   2.258  13.464  0.4766  1.3197 -1.8355
  305MPD2     N 4597   1.106   2.110  13.316 -0.5722 -0.3061 -0.5041
  305MPD2    H5 4598   1.066   2.092  13.225 -1.9649 -1.9169  0.4291
  305MPD2    N1 4599   1.041   2.273  13.771  0.6270 -0.4232 -0.0765
  305MPD2    H7 4600   0.987   2.345  13.818 -2.5399 -2.8649  0.0276
  306TMC3    C1 4601   1.165   2.238  13.963  0.6599 -0.0874 -0.6249
  306TMC3    C2 4602   1.191   2.135  14.053 -0.2243 -0.4050  0.6625
  306TMC3    C3 4603   1.214   2.182  14.184 -0.0991  0.7259  0.5426
  306TMC3    C4 4604   1.155   2.368  13.994  0.5303 -0.4457  0.4940
  306TMC3    C5 4605   1.191   2.401  14.125  0.3621  0.2330  0.8325
  306TMC3    C6 4606   1.221   2.310  14.220  0.3497  0.5660 -0.1301
  306TMC3     C 4607   1.134   2.196  13.830  0.6844  0.1274 -0.0741
  306TMC3     O 4608   1.168   2.079  13.812 -0.1239 -0.2832  0.3844
  306TMC3     H 4609   1.199   2.028  14.037  4.9507  0.2590 -1.2464
  306TMC3    H1 4610   1.148   2.444  13.917  0.0341 -1.1688 -0.1703
  306TMC3    H2 4611   1.213   2.333  14.326  0.5699 -1.7451  0.3699
  306TMC3    C7 4612   1.152   2.535  14.176  0.0357 -0.1567  0.2620
  306TMC3    C8 4613   1.199   2.085  14.291 -0.2361  0.4352  0.1623
  306TMC3    O1 4614   1.088   2.607  14.098 -0.5442  0.1062 -0.2183
  306TMC3    O2 4615   1.112   2.009  14.265 -0.0737  0.1070  0.5230
  307MPD2     C 4616   4.298   4.615   0.619 -0.0231 -0.0629  0.3933
  307MPD2    C1 4617   4.190   4.702   0.620  0.3136  0.5281  0.7941
  307MPD2    C2 4618   4.111   4.721   0.732 -0.1598  0.1264 -0.4057
  307MPD2    C3 4619   4.124   4.632   0.836 -0.4611  0.0762 -0.2348
  307MPD2    C4 4620   4.226   4.545   0.840 -0.0671  0.0416  0.6548
  307MPD2    C5 4621   4.314   4.538   0.733  0.0198  0.5404  0.0079
  307MPD2     H 4622   4.030   0.071   0.724 -0.3289  0.1803  1.7731
  307MPD2    H1 4623   4.223   4.469   0.917  0.4163 -0.8193 -0.1889
  307MPD2    H2 4624   4.372   4.592   0.543  0.1637 -0.7588  0.7896
  307MPD2    H3 4625   4.398   4.469   0.736 -0.9512 -0.6044  0.6668
  307MPD2     N 4626   4.034   4.662   0.940  0.7691 -0.5642 -0.0287
  307MPD2    H5 4627   3.970   0.016   0.917  1.0592  0.0731  1.2431
  307MPD2    N1 4628   4.154   0.055   0.503 -0.1574  0.0027 -0.1667
  307MPD2    H7 4629   4.078   0.121   0.503 -0.5440 -0.4417  0.6164
  308TMC3    C1 4630   3.673   4.671   1.127 -0.2142  0.2062  0.6297
  308TMC3    C2 4631   3.676   0.086   1.151  0.0499  1.0895 -0.2277
  308TMC3    C3 4632   3.803   0.129   1.165  0.3284  0.5174 -0.6500
  308TMC3    C4 4633   3.781   4.589   1.115  0.3307 -0.7859 -0.2327
  308TMC3    C5 4634   3.904   4.645   1.131 -0.2794 -0.0434 -0.0658
  308TMC3    C6 4635   3.920   0.056   1.150  0.7021 -0.6025  0.3576
  308TMC3     C 4636   3.559   4.619   1.065 -0.0221  0.3905 -0.5916
  308TMC3     O 4637   3.550   4.496   1.073 -0.4310 -0.3956  0.4088
  308TMC3     H 4638   3.586   0.146   1.154 -0.4698  0.3302 -0.6171
  308TMC3    H1 4639   3.776   4.484   1.091  1.4060 -1.2197  1.4130
  308TMC3    H2 4640   4.017   0.105   1.163 -0.4282  2.0595 -1.0777
  308TMC3    C7 4641   4.000   4.579   1.045  0.4004 -0.4846  0.3837
  308TMC3    C8 4642   3.824   0.274   1.178 -0.3343  0.7250 -0.2623
  308TMC3    O1 4643   4.030   4.462   1.056  0.1338  0.1096  0.1587
  308TMC3    O2 4644   3.926   0.306   1.240  0.1782 -0.6367 -0.2133
  309MPD2     C 4645   3.187   0.708  17.279  0.0095  0.7709  0.2782
  309MPD2    C1 4646   3.093   0.758  17.188  0.0868 -0.0496  0.4640
  309MPD2    C2 4647   2.979   0.821  17.243  0.2329  0.7138 -0.2654
  309MPD2    C3 4648   2.962   0.820  17.384 -0.3499 -0.3510 -0.3075
  309MPD2    C4 4649   3.059   0.777  17.470  0.3338 -0.2158  0.4432
  309MPD2    C5 4650   3.170   0.718  17.411  0.6455  0.0318  0.2898
  309MPD2     H 4651   2.906   0.853  17.170 -4.0132  2.3549  4.7217
  309MPD2    H1 4652   3.048   0.783  17.577  0.0305 -0.1154  0.4065
  309MPD2    H2 4653   3.284   0.669  17.249 -1.1639 -1.4123 -0.6967
  309MPD2    H3 4654   3.250   0.684  17.476 -0.0384  0.4743  1.3643
  309MPD2     N 4655   2.848   0.871  17.448  0.2567  0.1680  0.1622
  309MPD2    H5 4656   2.831   0.838  17.543 -0.2317 -1.7109 -0.5794
  309MPD2    N1 4657   3.101   0.748  17.048  0.0519 -0.0739  0.3533
  309MPD2    H7 4658   3.031   0.792  16.988 -1.1177  0.6712  2.2763
  310TMC3    C1 4659   3.233   0.733  16.855 -0.8024  0.3771 -0.5672
  310TMC3    C2 4660   3.221   0.871  16.823 -0.6037  0.4994 -0.5185
  310TMC3    C3 4661   3.282   0.923  16.712 -0.5455 -0.3852  0.1328
  310TMC3    C4 4662   3.331   0.664  16.795  0.7905 -0.0053 -0.3031
  310TMC3    C5 4663   3.408   0.718  16.701  0.1556  0.4301  0.0311
  310TMC3    C6 4664   3.372   0.836  16.641  0.1066  0.2785 -0.1216
  310TMC3     C 4665   3.203   0.680  16.991 -0.4693 -0.3504  0.2499
  310TMC3     O 4666   3.277   0.597  17.037 -0.1174  0.8265  0.5894
  310TMC3     H 4667   3.152   0.933  16.879  0.6040  1.2600  0.1309
  310TMC3    H1 4668   3.348   0.560  16.819  1.2685  0.2286  0.3788
  310TMC3    H2 4669   3.431   0.875  16.559 -0.5506  1.7277  0.0921
  310TMC3    C7 4670   3.495   0.631  16.629 -0.4575 -0.1128  0.4884
  310TMC3    C8 4671   3.225   1.019  16.620 -0.1586  0.3177  0.0104
  310TMC3    O1 4672   3.455   0.526  16.582 -0.1203 -0.1405  0.6502
  310TMC3    O2 4673   3.278   1.041  16.514  0.6075  0.1921  0.6482
  311MPD2     C 4674   0.565   1.707  12.402 -0.5126  0.0979 -0.2846
  311MPD2    C1 4675   0.544   1.840  12.420  0.1929  0.5176 -0.2422
  311MPD2    C2 4676   0.416   1.890  12.447  0.2682 -0.4741  0.6645
  311MPD2    C3 4677   0.314   1.797  12.459 -0.2016  0.1410  0.5487
  311MPD2    C4 4678   0.335   1.662  12.424  0.2921  0.3872  0.1847
  311MPD2    C5 4679   0.461   1.622  12.386 -0.3731  0.4321 -0.4116
  311MPD2     H 4680   0.392   1.994  12.463 -2.4167 -1.0061  0.1367
  311MPD2    H1 4681   0.253   1.592  12.421  0.0968  0.6533 -0.6337
  311MPD2    H2 4682   0.666   1.674  12.382 -0.0092  0.0687  2.3821
  311MPD2    H3 4683   0.475   1.517  12.363 -0.6223  0.6405 -1.5255
  311MPD2     N 4684   0.182   1.844  12.494 -0.9235 -0.1181  0.7391
  311MPD2    H5 4685   0.180   1.946  12.498 -0.1076 -0.1204  1.1502
  311MPD2    N1 4686   0.647   1.942  12.416 -0.2326 -0.2818  0.0681
  311MPD2    H7 4687   0.610   2.034  12.437 -2.4206 -1.3737  1.0164
  312TMC3    C1 4688   4.689   1.828  12.599  0.0829  0.0795  0.1361
  312TMC3    C2 4689   4.564   1.810  12.564 -0.2700 -0.5381  0.3116
  312TMC3    C3 4690   4.470   1.886  12.625  0.6100  0.2507 -0.0116
  312TMC3    C4 4691   0.004   1.945  12.666 -0.0351  0.0608 -0.0874
  312TMC3    C5 4692   4.631   2.022  12.721 -0.6546  0.4435  0.4911
  312TMC3    C6 4693   4.496   1.996  12.700  0.3162 -0.4862  0.3160
  312TMC3     C 4694   0.071   1.761  12.520  0.5278 -0.4306 -0.6468
  312TMC3     O 4695   0.049   1.642  12.495  0.8060 -0.2353  0.6397
  312TMC3     H 4696   4.534   1.728  12.500  2.0557 -0.1002 -1.3359
  312TMC3    H1 4697   0.106   1.958  12.700  0.1112 -1.4770  0.0816
  312TMC3    H2 4698   4.421   2.061  12.744  1.5221 -0.1638  1.9087
  312TMC3    C7 4699   4.676   2.151  12.760 -0.4079 -0.0479 -0.0691
  312TMC3    C8 4700   4.334   1.870  12.561  0.2872  0.7830 -1.0383
  312TMC3    O1 4701   0.066   2.189  12.720  0.3163 -0.0113  0.2511
  312TMC3    O2 4702   4.317   1.774  12.484 -0.3203 -0.2442  0.6106
  313MPD2     C 4703   0.443   1.473  10.305  0.0892  0.9225  0.0147
  313MPD2    C1 4704   0.333   1.423  10.380 -0.1088 -0.0954 -0.3413
  313MPD2    C2 4705   0.277   1.305  10.342  0.6130 -0.5184  0.0424
  313MPD2    C3 4706   0.316   1.234  10.225 -0.7407  0.0078  0.0079
  313MPD2    C4 4707   0.416   1.289  10.141  0.1457  0.0571 -0.1610
  313MPD2    C5 4708   0.480   1.404  10.190  0.4027  1.5299  0.1042
  313MPD2     H 4709   0.196   1.271  10.405  1.3855 -2.0454  0.2201
  313MPD2    H1 4710   0.461   1.255  10.048  1.0565  3.9766 -1.1518
  313MPD2    H2 4711   0.499   1.561  10.333  1.5202 -0.4111  1.3346
  313MPD2    H3 4712   0.558   1.443  10.126  1.7730 -0.7378  0.4013
  313MPD2     N 4713   0.243   1.120  10.199  0.3130  0.2594  0.7014
  313MPD2    H5 4714   0.177   1.085  10.267  0.6010 -0.7004  0.4888
  313MPD2    N1 4715   0.274   1.487  10.493 -0.1700  0.3493  0.2056
  313MPD2    H7 4716   0.201   1.429  10.533  0.3610 -1.2777 -1.1692
  314TMC3    C1 4717   0.246   1.651  10.657  0.4431  0.0661 -0.4340
  314TMC3    C2 4718   0.317   1.738  10.737  0.3255 -0.4975 -0.1646
  314TMC3    C3 4719   0.250   1.838  10.799  0.1316  0.0390 -0.3762
  314TMC3    C4 4720   0.120   1.682  10.619  0.5293  0.3046 -0.0248
  314TMC3    C5 4721   0.059   1.787  10.672  0.1912  0.3093  0.5415
  314TMC3    C6 4722   0.124   1.865  10.767  0.0666  0.6757 -0.8485
  314TMC3     C 4723   0.327   1.590  10.559  0.2265  0.0352  0.6042
  314TMC3     O 4724   0.441   1.637  10.550 -0.0187  0.8817  0.1802
  314TMC3     H 4725   0.424   1.727  10.753  0.2697  0.4721  0.9231
  314TMC3    H1 4726   0.071   1.629  10.537  0.0326 -0.2462  0.6263
  314TMC3    H2 4727   0.058   1.942  10.806 -1.0873 -0.3148 -0.8175
  314TMC3    C7 4728   4.717   1.881  10.575  0.7781 -1.6837 -0.3363
  314TMC3    C8 4729   0.319   1.954  10.852 -0.0904 -0.2863  0.6543
  314TMC3    O1 4730   4.605   1.919  10.600  1.0031  0.4742 -0.0901
  314TMC3    O2 4731   0.264   2.059  10.835  0.1877  0.1413  0.6791
  315MPD2     C 4732   4.152   0.815  17.554  0.2905 -0.2265 -0.8101
  315MPD2    C1 4733   4.233   0.856  17.655  0.3080 -0.5747 -0.4275
  315MPD2    C2 4734   4.306   0.975  17.639 -0.0908 -0.4082 -0.1071
  315MPD2    C3 4735   4.295   1.049  17.521  0.3485  0.1088  0.3393
  315MPD2    C4 4736   4.193   1.012  17.434 -0.0224 -0.1109 -0.1117
  315MPD2    C5 4737   4.128   0.893  17.440 -0.4148  0.4461  0.3883
  315MPD2     H 4738   4.389   0.992   0.020  0.1884 -2.3208  0.0453
  315MPD2    H1 4739   4.176   1.059  17.338 -3.0515  0.3051  0.6333
  315MPD2    H2 4740   4.103   0.718  17.551 -3.3011  1.5588  1.1759
  315MPD2    H3 4741   4.067   0.854  17.359 -1.9553  3.4946  0.0752
  315MPD2     N 4742   4.389   1.148  17.498 -0.2361  0.1450 -0.2074
  315MPD2    H5 4743   4.451   1.168  17.576  0.6527 -1.4105 -0.5114
  315MPD2    N1 4744   4.268   0.777   0.080  0.8107 -0.0930  0.1171
  315MPD2    H7 4745   4.311   0.821   0.161 -0.0336 -1.5858  1.3814
  316TMC3    C1 4746   4.536   1.278  17.360  0.5363 -0.6052 -0.1189
  316TMC3    C2 4747   4.639   1.270  17.452  0.3664 -0.6383 -0.4537
  316TMC3    C3 4748   0.041   1.298  17.407 -0.0277 -0.1124  0.7338
  316TMC3    C4 4749   4.554   1.326  17.234  0.0532 -0.6860  0.6251
  316TMC3    C5 4750   4.679   1.355  17.200  0.4334 -0.1927 -0.5350
  316TMC3    C6 4751   0.066   1.348  17.282  0.0114 -0.8755  0.0506
  316TMC3     C 4752   4.408   1.218  17.376 -0.1959  0.4206 -0.1160
  316TMC3     O 4753   4.333   1.216  17.282 -0.2746  0.3410 -0.4981
  316TMC3     H 4754   4.615   1.255  17.557 -0.0986 -1.5398 -0.6857
  316TMC3    H1 4755   4.474   1.322  17.160 -0.4357  0.2026  1.1009
  316TMC3    H2 4756   0.161   1.383  17.241 -1.3279  0.7293 -1.6696
  316TMC3    C7 4757   4.714   1.376  17.063 -0.1602 -0.1962 -0.0058
  316TMC3    C8 4758   0.155   1.318  17.502  0.4264 -0.0951 -0.2482
  316TMC3    O1 4759   0.104   1.338  17.021 -0.2819  0.3535 -0.1108
  316TMC3    O2 4760   0.239   1.405  17.478  0.5393  0.4525 -0.5319
  317MPD2     C 4761   1.418   3.509  13.582  0.5178  0.1796 -0.0256
  317MPD2    C1 4762   1.458   3.485  13.453 -0.2209 -0.4111 -0.1530
  317MPD2    C2 4763   1.583   3.433  13.432 -0.5493  0.3117  0.9300
  317MPD2    C3 4764   1.669   3.413  13.538  0.5983 -0.5739 -0.4254
  317MPD2    C4 4765   1.626   3.449  13.660 -0.2051  0.6226 -0.1150
  317MPD2    C5 4766   1.503   3.503  13.684 -0.2465 -0.6950  0.0405
  317MPD2     H 4767   1.619   3.409  13.333 -0.7616  1.3582  0.6072
  317MPD2    H1 4768   1.693   3.425  13.742  1.3505 -0.6992 -1.7886
  317MPD2    H2 4769   1.320   3.551  13.601  0.2910 -0.8592  1.0861
  317MPD2    H3 4770   1.456   3.526  13.779  0.7170  3.1969 -0.4108
  317MPD2     N 4771   1.795   3.359  13.507 -0.5288 -0.0825  0.3202
  317MPD2    H5 4772   1.812   3.337  13.410 -1.9230 -0.3251  0.1349
  317MPD2    N1 4773   1.378   3.515  13.342  0.0592 -0.2021 -0.3959
  317MPD2    H7 4774   1.414   3.494  13.250  2.2548  0.6297  0.2698
  318TMC3    C1 4775   1.990   3.246  13.510 -0.0240  0.8953 -0.3444
  318TMC3    C2 4776   2.020   3.120  13.531 -0.2653 -0.1954 -0.0084
  318TMC3    C3 4777   2.108   3.058  13.444  0.7985  0.8648 -0.5499
  318TMC3    C4 4778   2.034   3.320  13.406  0.0348  0.2560 -0.7117
  318TMC3    C5 4779   2.132   3.265  13.327 -0.3149 -0.2587  0.7412
  318TMC3    C6 4780   2.168   3.134  13.349  0.6206 -0.2646  0.2829
  318TMC3     C 4781   1.883   3.299  13.594 -0.2823 -0.2117 -0.1704
  318TMC3     O 4782   1.876   3.285  13.717  0.2674 -0.0673  0.2440
  318TMC3     H 4783   1.981   3.060  13.613  0.4064 -0.2464  0.2714
  318TMC3    H1 4784   2.006   3.425  13.405  1.3898  0.6317  0.4911
  318TMC3    H2 4785   2.219   3.084  13.267 -0.9653  0.7182 -1.2827
  318TMC3    C7 4786   2.135   3.316  13.188 -0.8151 -0.4059  0.0333
  318TMC3    C8 4787   2.060   2.938  13.371  0.0305 -0.3556 -0.4618
  318TMC3    O1 4788   2.049   3.392  13.152  0.1527 -0.6371 -0.4697
  318TMC3    O2 4789   2.137   2.886  13.294  0.1290 -0.6102  0.0193
  319MPD2     C 4790   2.672   0.490  16.240 -0.1375  0.3162 -0.0862
  319MPD2    C1 4791   2.590   0.548  16.334  0.0005 -0.3862 -0.1911
  319MPD2    C2 4792   2.487   0.624  16.289 -0.6865  0.0903 -0.0598
  319MPD2    C3 4793   2.474   0.655  16.148  0.1833 -0.4434  1.0468
  319MPD2    C4 4794   2.559   0.590  16.061  0.2320  0.2213  0.9806
  319MPD2    C5 4795   2.666   0.519  16.105 -0.1674  0.0088  0.0194
  319MPD2     H 4796   2.426   0.669  16.366  0.7536  1.4730  0.2747
  319MPD2    H1 4797   2.561   0.615  15.955 -0.9614  0.8959  1.1201
  319MPD2    H2 4798   2.753   0.426  16.273  0.7619  1.5299  0.0473
  319MPD2    H3 4799   2.738   0.481  16.034 -0.9196  1.0344 -1.2995
  319MPD2     N 4800   2.379   0.738  16.094 -0.0125  0.1869  0.3915
  319MPD2    H5 4801   2.366   0.732  15.993 -0.3859  0.7063  0.4055
  319MPD2    N1 4802   2.604   0.525  16.475  0.1384 -1.0308 -0.7099
  319MPD2    H7 4803   2.530   0.559  16.535  2.3764  2.7191 -0.0450
  320TMC3    C1 4804   2.204   0.881  16.095  0.4640 -0.6335 -0.4377
  320TMC3    C2 4805   2.204   0.854  15.958  0.2852  0.0030  0.5296
  320TMC3    C3 4806   2.084   0.832  15.902 -0.3856  0.7663  0.8167
  320TMC3    C4 4807   2.088   0.878  16.161 -0.0133  0.3550  0.6650
  320TMC3    C5 4808   1.967   0.842  16.102 -0.1730  0.7526 -0.5221
  320TMC3    C6 4809   1.961   0.824  15.967 -0.0264  0.6659  0.6403
  320TMC3     C 4810   2.302   0.817  16.171  0.5608 -0.2069 -0.3366
  320TMC3     O 4811   2.301   0.843  16.292 -0.2350 -0.4645  0.3534
  320TMC3     H 4812   2.285   0.864  15.887 -1.9789 -1.4101 -2.2458
  320TMC3    H1 4813   2.094   0.876  16.269  2.5300 -1.1751  0.5037
  320TMC3    H2 4814   1.885   0.755  15.931  2.1183 -1.3155 -0.0122
  320TMC3    C7 4815   1.881   0.771  16.189 -0.8535  0.1214  0.0902
  320TMC3    C8 4816   2.089   0.791  15.766  0.6231 -0.0654  0.2328
  320TMC3    O1 4817   1.938   0.699  16.273 -0.6102  0.2815  0.3187
  320TMC3    O2 4818   2.182   0.721  15.727  0.0135 -0.7586  0.1642
  321TMC3    C1 4819   2.649   0.399  16.655  0.3079  0.6957 -0.0431
  321TMC3    C2 4820   2.652   0.266  16.689  0.2090  0.3516 -0.6838
  321TMC3    C3 4821   2.604   0.234  16.817 -0.1659 -0.4863  0.2212
  321TMC3    C4 4822   2.606   0.498  16.742 -0.8907  0.5373 -1.0841
  321TMC3    C5 4823   2.568   0.467  16.871  0.0267  0.6475  0.2038
  321TMC3    C6 4824   2.559   0.330  16.903 -0.0663  0.5572  0.3590
  321TMC3     C 4825   2.689   0.436  16.529 -0.2758  0.1582 -0.3934
  321TMC3     O 4826   2.772   0.360  16.478 -0.3464  0.2115  0.3712
  321TMC3     H 4827   2.689   0.188  16.623 -1.1772  0.8476 -2.0465
  321TMC3    H1 4828   2.617   0.603  16.717  0.0190  0.5613 -0.5974
  321TMC3    H2 4829   2.544   0.307  17.008 -0.6048  1.3173  0.4492
  321TMC3    C7 4830   2.640   0.550  16.965 -0.3854 -0.0291 -0.3378
  321TMC3    C8 4831   2.681   0.128  16.885 -0.1125 -0.4708 -0.0079
  321TMC3    O1 4832   2.762   0.560  16.960  0.5814 -0.4780 -0.1089
  321TMC3    O2 4833   2.653   0.112  17.005 -0.3976  0.6194 -0.0402
  322MPD2     C 4834   1.361   1.807  13.478 -0.4522  0.6147 -0.0950
  322MPD2    C1 4835   1.346   1.742  13.594 -0.4395  0.4787  1.1330
  322MPD2    C2 4836   1.297   1.615  13.594 -0.6616  0.2592 -0.1637
  322MPD2    C3 4837   1.276   1.549  13.476  0.1798  0.0556  0.2066
  322MPD2    C4 4838   1.280   1.619  13.358  0.4960  0.5758  0.1447
  322MPD2    C5 4839   1.321   1.745  13.363  0.9538 -0.8164  0.5808
  322MPD2     H 4840   1.293   1.559  13.687 -1.5836  0.3071 -0.1752
  322MPD2    H1 4841   1.266   1.580  13.258  0.8069  0.1082  0.2804
  322MPD2    H2 4842   1.404   1.906  13.472  0.3650  0.2891  0.4545
  322MPD2    H3 4843   1.344   1.800  13.272 -1.5273 -0.4681  0.1708
  322MPD2     N 4844   1.253   1.409  13.494  0.0065 -0.1404 -0.4239
  322MPD2    H5 4845   1.250   1.369  13.587 -1.2270 -0.9007 -0.8046
  322MPD2    N1 4846   1.380   1.811  13.715  0.1496  0.0020 -0.5095
  322MPD2    H7 4847   1.439   1.894  13.714  0.0207  0.1189  0.7413
  323TMC3    C1 4848   1.400   1.836  13.952  0.0923 -0.3663  0.1115
  323TMC3    C2 4849   1.477   1.952  13.936 -0.1532  0.4183  0.4618
  323TMC3    C3 4850   1.558   1.986  14.032 -1.0380  0.2280  0.9320
  323TMC3    C4 4851   1.396   1.766  14.073  0.7082 -0.5668 -0.2631
  323TMC3    C5 4852   1.482   1.814  14.174 -0.6713  0.8163 -0.2728
  323TMC3    C6 4853   1.557   1.927  14.157  0.7338 -0.4467  0.4167
  323TMC3     C 4854   1.343   1.764  13.840 -0.0456 -0.5132 -0.0215
  323TMC3     O 4855   1.262   1.679  13.871  0.6711  0.2964 -0.4527
  323TMC3     H 4856   1.476   2.012  13.845  1.5351  0.0265  0.1829
  323TMC3    H1 4857   1.334   1.678  14.090 -0.2546  0.5174  1.7362
  323TMC3    H2 4858   1.627   1.952  14.236  2.5396 -0.4120 -1.1686
  323TMC3    C7 4859   1.555   1.716  14.245 -0.1789  0.2854  0.4317
  323TMC3    C8 4860   1.664   2.090  14.028  0.6302 -0.1417  0.2578
  323TMC3    O1 4861   1.674   1.730  14.236  0.3650 -0.3106  0.2293
  323TMC3    O2 4862   1.739   2.097  14.127  0.6892  0.3940  0.0459
  324MPD2     C 4863   3.479   3.595  14.604 -0.5535  0.0265 -0.1207
  324MPD2    C1 4864   3.482   3.479  14.529  0.1068 -0.0728 -0.0807
  324MPD2    C2 4865   3.362   3.414  14.506 -0.1300 -0.3612 -0.1648
  324MPD2    C3 4866   3.241   3.461  14.553 -0.0677 -0.0291 -0.4572
  324MPD2    C4 4867   3.238   3.577  14.623  0.0485  0.1345  0.0592
  324MPD2    C5 4868   3.354   3.639  14.649 -0.0212  0.2264  0.1565
  324MPD2     H 4869   3.362   3.325  14.444  2.3678 -2.2030  2.5005
  324MPD2    H1 4870   3.144   3.622  14.655  0.1786  0.0312  0.5918
  324MPD2    H2 4871   3.565   3.654  14.633  0.0824 -0.8291 -0.2663
  324MPD2    H3 4872   3.362   3.724  14.715 -0.8454  0.9648 -0.6976
  324MPD2     N 4873   3.118   3.405  14.520  0.2821 -0.2779  0.0880
  324MPD2    H5 4874   3.030   3.439  14.557  0.6407  1.4492 -0.6296
  324MPD2    N1 4875   3.607   3.447  14.477 -0.4647  0.1944  0.1173
  324MPD2    H7 4876   3.683   3.508  14.506  0.5275 -1.5660  1.1960
  325TMC3    C1 4877   2.964   3.246  14.447 -0.5569  1.0806 -0.3188
  325TMC3    C2 4878   2.929   3.157  14.349  0.4959  0.6703 -0.4169
  325TMC3    C3 4879   2.816   3.094  14.364 -0.3882  0.2437  0.2438
  325TMC3    C4 4880   2.880   3.274  14.549 -0.6452  0.9761 -0.4330
  325TMC3    C5 4881   2.765   3.199  14.558  0.2630  0.0857 -0.9040
  325TMC3    C6 4882   2.723   3.112  14.465  0.5544  0.0106 -0.2266
  325TMC3     C 4883   3.095   3.304  14.435  0.0452 -0.3281 -0.1908
  325TMC3     O 4884   3.165   3.263  14.342 -0.7382 -0.1934 -0.5672
  325TMC3     H 4885   2.987   3.146  14.258  1.8609  1.0043  0.4177
  325TMC3    H1 4886   2.901   3.336  14.635  1.4288  0.2238 -0.3843
  325TMC3    H2 4887   2.644   3.043  14.492  1.4505 -1.4980 -1.4229
  325TMC3    C7 4888   2.672   3.239  14.659  1.2038  0.3630 -0.4226
  325TMC3    C8 4889   2.789   2.981  14.272 -0.3808  0.5659 -1.0370
  325TMC3    O1 4890   2.715   3.290  14.762  0.7033 -0.2575  0.2474
  325TMC3    O2 4891   2.867   2.968  14.176 -0.7315 -0.1772  0.1021
  326MPD2     C 4892   4.283   3.984  11.325 -0.8362 -0.8680  0.6704
  326MPD2    C1 4893   4.271   3.912  11.206 -0.1341 -0.0473  0.6753
  326MPD2    C2 4894   4.374   3.924  11.112 -0.1403 -0.0360  0.0100
  326MPD2    C3 4895   4.493   3.986  11.153  0.2691  0.6820  0.3447
  326MPD2    C4 4896   4.513   4.030  11.277  0.2322 -0.3741  1.0358
  326MPD2    C5 4897   4.407   4.042  11.366 -0.0727  0.1611  0.0777
  326MPD2     H 4898   4.357   3.891  11.010 -0.8935 -0.8122  0.3885
  326MPD2    H1 4899   4.608   4.068  11.313  0.4295  0.3577 -0.2716
  326MPD2    H2 4900   4.199   3.987  11.394 -0.6625 -0.5628  0.8715
  326MPD2    H3 4901   4.427   4.082  11.464 -1.6212 -0.7769  0.7889
  326MPD2     N 4902   4.606   3.981  11.077 -0.1061  0.4558 -0.0241
  326MPD2    H5 4903   4.698   4.016  11.101  2.5699 -3.8216 -4.0998
  326MPD2    N1 4904   4.153   3.848  11.168 -0.2473  0.0237  0.6817
  326MPD2    H7 4905   4.144   3.810  11.074  1.1169  1.2887  0.0549
  327TMC3    C1 4906   3.967   3.703  11.197  0.1292  0.5517  0.6248
  327TMC3    C2 4907   3.918   3.741  11.081 -0.9519  0.3308 -0.3907
  327TMC3    C3 4908   3.836   3.660  11.007 -0.0691  0.4079 -1.1349
  327TMC3    C4 4909   3.947   3.577  11.243  0.3658  0.4569 -0.3751
  327TMC3    C5 4910   3.882   3.488  11.168  0.1080  0.3175  0.5557
  327TMC3    C6 4911   3.816   3.531  11.052 -0.4239  0.3774 -1.2947
  327TMC3     C 4912   4.068   3.791  11.264 -0.3436  0.2139 -0.4855
  327TMC3     O 4913   4.085   3.777  11.384 -0.0011 -0.1272 -0.2461
  327TMC3     H 4914   3.941   3.838  11.039 -0.3844  0.2217 -0.3217
  327TMC3    H1 4915   3.976   3.556  11.345  2.9891 -1.2312 -1.4525
  327TMC3    H2 4916   3.756   3.458  10.999 -1.2557  1.5415 -1.9732
  327TMC3    C7 4917   3.977   3.393  11.123  0.1853  0.2852  0.2063
  327TMC3    C8 4918   3.839   3.681  10.866  0.1008 -0.7363 -0.0998
  327TMC3    O1 4919   3.975   3.377  10.997  0.2141  0.5727  0.2657
  327TMC3    O2 4920   3.816   3.793  10.820 -0.9048  0.4171  0.0022
  328MPD2     C 4921   1.462   3.630  17.629  0.2034 -0.1113  0.0103
  328MPD2    C1 4922   1.348   3.636  17.544 -0.8209 -0.1295 -0.2622
  328MPD2    C2 4923   1.372   3.623  17.406 -0.2999 -0.1890  0.8085
  328MPD2    C3 4924   1.485   3.568  17.351  0.2187  0.1659 -0.6438
  328MPD2    C4 4925   1.586   3.543  17.444 -0.3206 -0.2103  0.3348
  328MPD2    C5 4926   1.573   3.577  17.576 -1.2606  0.0078 -0.4047
  328MPD2     H 4927   1.289   3.635  17.338  1.4578  1.5964 -1.0171
  328MPD2    H1 4928   1.685   3.511  17.413  0.4546  1.9434  0.6649
  328MPD2    H2 4929   1.456   3.640   0.050 -0.3656 -1.0623  0.0653
  328MPD2    H3 4930   1.657   3.567  17.643 -1.6053 -1.4058 -0.1756
  328MPD2     N 4931   1.502   3.553  17.206 -0.3639  0.4384 -0.6206
  328MPD2    H5 4932   1.593   3.566  17.162  0.1334 -0.8731  0.0243
  328MPD2    N1 4933   1.231   3.694  17.590  0.1990  0.2891  0.1113
  328MPD2    H7 4934   1.227   3.737  17.682 -0.4250  0.1715  0.1411
  329TMC3    C1 4935   1.014   3.767  17.554 -0.0646 -0.3373  0.8506
  329TMC3    C2 4936   1.060   3.895  17.558  0.5445 -0.8128 -0.2698
  329TMC3    C3 4937   0.978   3.993  17.505 -0.2259  0.3919 -0.6715
  329TMC3    C4 4938   0.895   3.740  17.489  0.2770 -0.5374  0.2898
  329TMC3    C5 4939   0.827   3.837  17.425 -1.5020 -0.2273  0.0431
  329TMC3    C6 4940   0.872   3.963  17.420 -0.8395  0.4424 -0.2802
  329TMC3     C 4941   1.114   3.671  17.524 -0.9131 -0.3548  0.6838
  329TMC3     O 4942   1.088   3.580  17.449 -0.1037  0.1476  0.4491
  329TMC3     H 4943   1.150   3.921  17.613  1.6056 -1.4091 -1.7543
  329TMC3    H1 4944   0.851   3.641  17.500  1.3092 -0.8856  1.3391
  329TMC3    H2 4945   0.814   4.040  17.370  0.1276 -0.2080 -2.4383
  329TMC3    C7 4946   0.760   3.792  17.306  0.5255  0.1010  0.1090
  329TMC3    C8 4947   0.985   4.126  17.563  0.2307 -0.0904 -0.2150
  329TMC3    O1 4948   0.689   3.868  17.249  0.4603  0.4361  1.0656
  329TMC3    O2 4949   0.926   4.216  17.505  0.0647 -0.2244  0.0005
  330TMC3    C1 4950   4.389   2.565   9.218  0.0698  0.8094 -0.6604
  330TMC3    C2 4951   4.354   2.437   9.193  0.1727  0.6580  0.3122
  330TMC3    C3 4952   4.445   2.345   9.200  0.7288  0.1551 -0.3800
  330TMC3    C4 4953   4.520   2.604   9.244  1.0878  0.0406 -0.3615
  330TMC3    C5 4954   4.612   2.504   9.247 -0.1566  0.2827  0.1607
  330TMC3    C6 4955   4.578   2.373   9.227 -0.1509  0.6369  0.6289
  330TMC3     C 4956   4.294   2.672   9.180  0.3165  0.1077 -0.4803
  330TMC3     O 4957   4.349   2.775   9.208 -0.3971  0.1414  0.3359
  330TMC3     H 4958   4.249   2.413   9.182  0.2045  1.0657 -0.8861
  330TMC3    H1 4959   4.555   2.705   9.262 -0.3841  0.5407 -0.2762
  330TMC3    H2 4960   4.658   2.299   9.223  1.3771  2.3825 -0.9066
  330TMC3    C7 4961   0.024   2.529   9.278 -0.4043 -0.1080 -0.6439
  330TMC3    C8 4962   4.403   2.206   9.191 -0.6418  0.4396 -0.1680
  330TMC3    O1 4963   0.107   2.452   9.230  0.6523 -0.4565 -0.2214
  330TMC3    O2 4964   4.478   2.121   9.231 -0.0979  0.9487 -0.3291
  331MPD2     C 4965   2.379   2.095  12.324  0.1010 -0.1341 -0.0965
  331MPD2    C1 4966   2.506   2.078  12.283 -0.2529 -0.1419 -0.3203
  331MPD2    C2 4967   2.546   1.972  12.195  0.2471  0.1281 -0.0863
  331MPD2    C3 4968   2.446   1.883  12.155  0.5808 -0.2010  0.4854
  331MPD2    C4 4969   2.317   1.896  12.196 -0.0642  0.0237  0.2518
  331MPD2    C5 4970   2.280   2.002  12.278  0.7882  0.3596  0.0727
  331MPD2     H 4971   2.650   1.964  12.166 -0.0248  0.6098 -1.2083
  331MPD2    H1 4972   2.242   1.820  12.176 -2.5199  2.6254 -0.2870
  331MPD2    H2 4973   2.355   2.167  12.402 -0.3817 -0.8331  0.4013
  331MPD2    H3 4974   2.179   2.006  12.319  0.9511 -2.2650  0.6924
  331MPD2     N 4975   2.487   1.793  12.054 -0.1569 -0.2907 -0.3222
  331MPD2    H5 4976   2.589   1.788  12.052 -0.1892 -0.7859 -0.7533
  331MPD2    N1 4977   2.596   2.173  12.332 -0.3551 -0.2952  0.1699
  331MPD2    H7 4978   2.559   2.243  12.395  0.5322 -1.2736  1.7887
  332TMC3    C1 4979   2.484   1.607  11.918 -0.5198  0.0152 -0.6027
  332TMC3    C2 4980   2.569   1.667  11.825  0.3950 -0.1815 -0.7136
  332TMC3    C3 4981   2.699   1.619  11.807 -0.6815 -0.0825  0.3100
  332TMC3    C4 4982   2.528   1.500  11.988 -0.8363 -0.2446  0.1793
  332TMC3    C5 4983   2.659   1.459  11.975 -0.3069 -0.1262  0.3774
  332TMC3    C6 4984   2.748   1.521  11.889  0.1392  0.1136 -0.8052
  332TMC3     C 4985   2.401   1.699  11.992  0.5027 -0.6309 -0.0052
  332TMC3     O 4986   2.286   1.665  12.018  0.3562  0.4583 -0.6734
  332TMC3     H 4987   2.540   1.760  11.777  1.4685 -0.8056 -2.6049
  332TMC3    H1 4988   2.461   1.463  12.065  0.5538 -0.4825  1.2752
  332TMC3    H2 4989   2.854   1.499  11.883  0.9769  3.8764 -0.1148
  332TMC3    C7 4990   2.709   1.400  12.095 -0.3543 -0.2012  0.0191
  332TMC3    C8 4991   2.803   1.696  11.741 -0.5889 -0.3630  0.2946
  332TMC3    O1 4992   2.631   1.356  12.176 -0.5247 -0.4587 -0.3112
  332TMC3    O2 4993   2.914   1.677  11.785  0.8962  0.1955  0.1496
  333MPD2     C 4994   2.577   2.082  10.925 -0.3023  0.4665 -0.8617
  333MPD2    C1 4995   2.710   2.033  10.918 -0.1452 -0.4349 -0.2844
  333MPD2    C2 4996   2.732   1.910  10.981 -0.0601  0.5238  0.3943
  333MPD2    C3 4997   2.631   1.839  11.044  0.8045  0.2368  0.7434
  333MPD2    C4 4998   2.505   1.893  11.050  0.5993 -0.2019  0.3154
  333MPD2    C5 4999   2.479   2.013  10.991  0.4772 -0.6182 -0.1176
  333MPD2     H 5000   2.835   1.885  11.001  0.1492 -1.3162 -3.1240
  333MPD2    H1 5001   2.419   1.841  11.091  0.3964 -0.9309 -1.0491
  333MPD2    H2 5002   2.553   2.177  10.879  0.1152  1.0850  0.2063
  333MPD2    H3 5003   2.376   2.042  11.007  0.4401  0.0403 -1.5456
  333MPD2     N 5004   2.666   1.711  11.092  0.1758  0.4127  0.4537
  333MPD2    H5 5005   2.759   1.676  11.070 -0.0206  1.4226 -2.0567
  333MPD2    N1 5006   2.822   2.112  10.867  0.0352 -0.0213 -0.1464
  333MPD2    H7 5007   2.797   2.208  10.844  0.1791 -0.6241 -2.8137
  334TMC3    C1 5008   3.049   2.145  10.801  0.8029  0.5678  0.2156
  334TMC3    C2 5009   3.144   2.087  10.724  0.3273 -0.8679  0.8344
  334TMC3    C3 5010   3.241   2.161  10.680 -0.3539 -0.3003 -0.0517
  334TMC3    C4 5011   3.021   2.280  10.810 -0.7556 -0.3334 -0.5057
  334TMC3    C5 5012   3.126   2.356  10.762 -0.1014 -0.2933 -0.5069
  334TMC3    C6 5013   3.243   2.296  10.707 -0.3113 -0.6944 -0.4705
  334TMC3     C 5014   2.935   2.052  10.820 -0.0575  0.2633  0.4352
  334TMC3     O 5015   2.950   1.932  10.799 -0.2218  0.4378 -0.4684
  334TMC3     H 5016   3.153   1.979  10.727 -1.3175 -0.9847  1.4578
  334TMC3    H1 5017   2.934   2.316  10.864  0.4118 -0.3306  1.3994
  334TMC3    H2 5018   3.322   2.360  10.671 -2.2412  1.7099 -0.4024
  334TMC3    C7 5019   3.129   2.499  10.798  0.2781 -0.3129 -0.0505
  334TMC3    C8 5020   3.358   2.089  10.633  0.2232  0.4566  1.2094
  334TMC3    O1 5021   3.239   2.544  10.831 -0.0698 -0.0554  0.2490
  334TMC3    O2 5022   3.342   1.981  10.582  0.2682  0.0282  0.0590
  335TMC3    C1 5023   2.320   3.837  17.427 -0.2866  0.2687  0.4341
  335TMC3    C2 5024   2.271   3.747  17.333  0.2901 -0.1526 -0.3006
  335TMC3    C3 5025   2.337   3.738  17.211  0.4394 -0.2121 -0.0666
  335TMC3    C4 5026   2.441   3.902  17.414 -0.0008  0.3645  0.6364
  335TMC3    C5 5027   2.503   3.889  17.289 -0.0638  0.1156  0.0291
  335TMC3    C6 5028   2.454   3.801  17.190  1.0266 -0.1131 -0.6858
  335TMC3     C 5029   2.255   3.848  17.558  0.5860  0.4710  0.4992
  335TMC3     O 5030   2.208   3.742  17.600  0.4974  0.0732 -0.0854
  335TMC3     H 5031   2.177   3.699  17.358  1.2632 -1.7127  0.3586
  335TMC3    H1 5032   2.483   3.951  17.502  3.1729  1.5640 -1.5255
  335TMC3    H2 5033   2.510   3.801  17.098  2.2084  1.8593  0.0197
  335TMC3    C7 5034   2.647   3.921  17.288 -0.3160 -0.3635  0.0608
  335TMC3    C8 5035   2.310   3.627  17.124 -0.0017  0.9875  0.1673
  335TMC3    O1 5036   2.720   3.854  17.220  0.1484 -0.5759  0.3080
  335TMC3    O2 5037   2.354   3.649  17.011  0.7992  0.6580  0.3823
  336MPD2     C 5038   2.072   1.471  16.380 -0.3208 -0.0264  0.1076
  336MPD2    C1 5039   2.142   1.450  16.260  0.0988  0.0850 -0.8393
  336MPD2    C2 5040   2.246   1.358  16.252 -0.3951  0.3563  0.7260
  336MPD2    C3 5041   2.275   1.285  16.368  0.5810  0.2715  0.2781
  336MPD2    C4 5042   2.209   1.308  16.491 -0.1852  0.1206  0.1782
  336MPD2    C5 5043   2.099   1.390  16.496 -0.3930 -0.2210  0.2340
  336MPD2     H 5044   2.296   1.349  16.157 -1.2872 -0.7415  0.3666
  336MPD2    H1 5045   2.237   1.266  16.587  1.5693 -0.9573 -0.8037
  336MPD2    H2 5046   1.993   1.544  16.395 -0.4300 -0.0705 -0.2667
  336MPD2    H3 5047   2.030   1.399  16.579 -0.5709  1.0946 -0.0704
  336MPD2     N 5048   2.387   1.208  16.388  0.1372  0.2476  0.3067
  336MPD2    H5 5049   2.396   1.161  16.478  3.1582  0.8364  0.3150
  336MPD2    N1 5050   2.112   1.535  16.141  0.6915 -0.4240 -0.4241
  336MPD2    H7 5051   2.150   1.503  16.052  0.7805 -1.6573  0.0638
  337TMC3    C1 5052   2.028   1.717  16.030  0.0914 -0.2795  0.2287
  337TMC3    C2 5053   1.931   1.659  15.953 -1.0162 -0.1043  0.1826
  337TMC3    C3 5054   1.895   1.729  15.840  0.2367 -0.5816  0.0697
  337TMC3    C4 5055   2.094   1.829  15.997  0.2745  0.3869 -1.0132
  337TMC3    C5 5056   2.069   1.885  15.875 -0.5009  0.1880  0.4211
  337TMC3    C6 5057   1.969   1.836  15.790 -0.4954  0.4787  0.2172
  337TMC3     C 5058   2.058   1.655  16.158  0.3806  0.0574 -0.8941
  337TMC3     O 5059   2.075   1.738  16.249 -0.6427 -0.1941 -0.3141
  337TMC3     H 5060   1.877   1.576  15.997 -0.4442 -1.3786 -1.5184
  337TMC3    H1 5061   2.170   1.863  16.066 -1.7094  1.8667  0.4391
  337TMC3    H2 5062   1.919   1.893  15.713 -0.0128 -0.0071 -0.4536
  337TMC3    C7 5063   2.117   2.021  15.845  0.6913 -0.4524  0.3871
  337TMC3    C8 5064   1.757   1.735  15.814  0.0678 -0.2284 -0.1425
  337TMC3    O1 5065   2.072   2.068  15.742  0.3202  0.3106  0.2601
  337TMC3    O2 5066   1.686   1.672  15.886 -0.1535  0.1798  0.4333
  338MPD2     C 5067   3.294   0.657   1.197 -0.2329  0.6108  1.2047
  338MPD2    C1 5068   3.165   0.655   1.160  0.4888 -0.0362  0.9130
  338MPD2    C2 5069   3.064   0.665   1.258 -0.5284 -0.3714 -0.2301
  338MPD2    C3 5070   3.091   0.685   1.392  0.7299  0.9553  0.3743
  338MPD2    C4 5071   3.221   0.682   1.428 -0.0939 -0.3166  0.2616
  338MPD2    C5 5072   3.321   0.681   1.328 -0.1676  1.0659  0.0919
  338MPD2     H 5073   2.959   0.673   1.229 -0.0390 -1.1979 -2.2145
  338MPD2    H1 5074   3.257   0.705   1.528 -0.7097 -0.5891  0.5493
  338MPD2    H2 5075   3.381   0.649   1.133  0.1340 -2.0601  2.0386
  338MPD2    H3 5076   3.423   0.715   1.339  0.5350 -0.9444 -0.2556
  338MPD2     N 5077   2.979   0.692   1.476 -0.7566 -0.4123  0.2570
  338MPD2    H5 5078   2.888   0.672   1.434 -0.2448 -0.5312 -0.7971
  338MPD2    N1 5079   3.139   0.637   1.021  0.0915  0.2720  0.2796
  338MPD2    H7 5080   3.209   0.586   0.968 -0.9886 -0.7287 -0.1804
  339TMC3    C1 5081   2.871   0.652   1.678 -0.2738  0.5589 -0.3153
  339TMC3    C2 5082   2.890   0.545   1.759  0.0843  0.7502  0.1414
  339TMC3    C3 5083   2.810   0.435   1.753 -0.2689  0.3776  0.0655
  339TMC3    C4 5084   2.760   0.649   1.597 -0.1590  0.4614  0.1613
  339TMC3    C5 5085   2.678   0.541   1.593 -0.0604 -0.6504  0.1501
  339TMC3    C6 5086   2.704   0.430   1.668 -0.4183  0.4268 -0.5006
  339TMC3     C 5087   2.987   0.714   1.613  0.6108 -0.1489  0.1641
  339TMC3     O 5088   3.081   0.746   1.681 -0.0634 -0.2693  0.1566
  339TMC3     H 5089   2.983   0.533   1.813  0.4167 -0.1209 -0.6240
  339TMC3    H1 5090   2.732   0.742   1.549 -1.7257  0.6750  1.5021
  339TMC3    H2 5091   2.636   0.347   1.653 -0.9984  0.8775 -0.4043
  339TMC3    C7 5092   2.620   0.523   1.461 -0.0240 -0.0386 -0.0250
  339TMC3    C8 5093   2.849   0.321   1.839 -0.1843 -0.2852  0.0069
  339TMC3    O1 5094   2.543   0.610   1.420  0.8156 -0.3178 -0.3016
  339TMC3    O2 5095   2.969   0.306   1.859 -0.3192 -0.5910  0.6031
  340MPD2     C 5096   2.633   2.717   9.664 -0.4902  0.5204 -0.7860
  340MPD2    C1 5097   2.754   2.725   9.606 -0.1362 -0.0781  0.7403
  340MPD2    C2 5098   2.849   2.790   9.676  0.4080  0.9621 -0.6685
  340MPD2    C3 5099   2.818   2.855   9.793 -0.5250 -0.3208  0.2757
  340MPD2    C4 5100   2.689   2.864   9.834 -0.3321 -0.1324  0.3210
  340MPD2    C5 5101   2.597   2.793   9.765  0.4496 -0.2863  0.1553
  340MPD2     H 5102   2.955   2.788   9.651  0.6298 -1.6329  0.4972
  340MPD2    H1 5103   2.661   2.917   9.924  0.7091  1.2019 -0.1573
  340MPD2    H2 5104   2.554   2.659   9.617 -1.4733 -1.2887  3.1239
  340MPD2    H3 5105   2.493   2.797   9.797  0.1812  2.6555 -0.9963
  340MPD2     N 5106   2.909   2.926   9.871  0.2914 -0.5485 -0.5631
  340MPD2    H5 5107   2.876   2.954   9.963  1.6358 -1.4332  0.1940
  340MPD2    N1 5108   2.792   2.643   9.492  0.4457 -0.3218  0.3949
  340MPD2    H7 5109   2.721   2.579   9.459  0.0110  0.3395  0.0446
  341TMC3    C1 5110   2.920   2.562   9.297  0.4535  0.1946  0.0058
  341TMC3    C2 5111   2.811   2.498   9.251 -0.5159  0.1677 -0.1821
  341TMC3    C3 5112   2.840   2.402   9.160 -0.2317  0.1166 -0.9701
  341TMC3    C4 5113   3.047   2.561   9.243  0.3055  0.2732  0.0546
  341TMC3    C5 5114   3.067   2.472   9.138  0.1655 -0.5697 -0.6520
  341TMC3    C6 5115   2.967   2.384   9.109  0.3663  0.4767 -0.3441
  341TMC3     C 5116   2.905   2.652   9.409  0.7367 -0.0701 -0.3456
  341TMC3     O 5117   2.996   2.732   9.416 -0.3188  0.2739  0.3035
  341TMC3     H 5118   2.711   2.518   9.287 -0.3873  1.1828 -0.3691
  341TMC3    H1 5119   3.133   2.605   9.292  0.3832  0.3498 -0.1516
  341TMC3    H2 5120   2.986   2.301   9.041  2.5802  0.4511  0.3250
  341TMC3    C7 5121   3.203   2.418   9.121  0.0347 -0.3569 -0.2196
  341TMC3    C8 5122   2.777   2.274   9.197  0.6046 -0.5127  0.5583
  341TMC3    O1 5123   3.218   2.299   9.131 -0.2967  0.4710  0.0394
  341TMC3    O2 5124   2.848   2.174   9.200  0.2445  0.3443 -0.2249
  342MPD2     C 5125   0.613   1.936   0.144  0.3020  0.5858  0.1957
  342MPD2    C1 5126   0.732   1.943   0.070 -1.1246 -0.1977  0.2756
  342MPD2    C2 5127   0.779   2.063   0.013 -0.4312  0.5919  0.2676
  342MPD2    C3 5128   0.697   2.173   0.009 -0.4414  0.4104 -0.8034
  342MPD2    C4 5129   0.574   2.163   0.068  0.4282  0.0211 -0.0419
  342MPD2    C5 5130   0.536   2.048   0.135 -0.0359  0.2716  0.1590
  342MPD2     H 5131   0.877   2.071  17.654 -0.7480  0.1714 -0.4738
  342MPD2    H1 5132   0.498   2.239   0.059  1.4817  1.4466  3.2908
  342MPD2    H2 5133   0.580   1.851   0.203 -1.1239  1.4009  0.5482
  342MPD2    H3 5134   0.439   2.054   0.184 -0.0895 -1.2290  0.2159
  342MPD2     N 5135   0.740   2.302  17.638  0.2330  0.1569 -0.0829
  342MPD2    H5 5136   0.675   2.376  17.663  0.4506  0.0731  0.7409
  342MPD2    N1 5137   0.817   1.831   0.051 -0.6636  0.7919 -0.2458
  342MPD2    H7 5138   0.903   1.841  17.685  0.3933  2.9330  1.8767
  343TMC3    C1 5139   0.891   1.598   0.018 -0.5866 -0.6507  1.1560
  343TMC3    C2 5140   1.024   1.639  17.678  0.2355 -0.3765 -0.0274
  343TMC3    C3 5141   1.098   1.563  17.597  0.8619  0.0973 -0.7102
  343TMC3    C4 5142   0.844   1.471  17.678 -0.0748  1.0751  0.4526
  343TMC3    C5 5143   0.923   1.395  17.598  0.5776 -0.6975 -0.2512
  343TMC3    C6 5144   1.049   1.443  17.558 -0.0753 -0.1210  0.3748
  343TMC3     C 5145   0.790   1.694   0.066 -0.4125 -0.2606 -0.6783
  343TMC3     O 5146   0.692   1.645   0.117  0.0446 -0.8043  0.0926
  343TMC3     H 5147   1.068   1.724   0.040  0.8187  0.9225 -2.8331
  343TMC3    H1 5148   0.739   1.444  17.684 -0.4829  3.0695  2.1987
  343TMC3    H2 5149   1.102   1.385  17.483  1.7549  1.9247  0.0930
  343TMC3    C7 5150   0.875   1.257  17.565 -0.2768  0.4018  0.4414
  343TMC3    C8 5151   1.237   1.607  17.593  0.3754 -0.1068  0.1446
  343TMC3    O1 5152   0.752   1.236  17.581  0.3780  0.1389  0.2624
  343TMC3    O2 5153   1.247   1.732  17.583 -0.6120 -0.0681 -0.3498
  344MPD2     C 5154   2.015   1.076  10.391  0.7317 -0.4872  0.7228
  344MPD2    C1 5155   1.886   1.108  10.345  0.1737 -0.0543  0.2392
  344MPD2    C2 5156   1.869   1.215  10.262  0.1763  0.1131  0.5464
  344MPD2    C3 5157   1.980   1.296  10.225  0.7285 -0.1442  0.2776
  344MPD2    C4 5158   2.101   1.266  10.283 -0.7762 -0.6884 -0.2212
  344MPD2    C5 5159   2.115   1.166  10.370 -0.2730 -0.7715 -0.1123
  344MPD2     H 5160   1.770   1.250  10.233  0.9000  1.4582 -0.3507
  344MPD2    H1 5161   2.186   1.330  10.262 -1.6527  0.7581  0.5910
  344MPD2    H2 5162   2.038   0.995  10.460  1.1024 -1.9449 -1.1346
  344MPD2    H3 5163   2.213   1.142  10.409  0.2184  1.7661  0.1617
  344MPD2     N 5164   1.985   1.409  10.138  0.0441  0.3350  0.1081
  344MPD2    H5 5165   2.080   1.432  10.114  0.4591 -0.1970  1.2165
  344MPD2    N1 5166   1.776   1.020  10.359 -0.5041  0.1564  0.0787
  344MPD2    H7 5167   1.697   1.045  10.300 -0.1855  0.8843 -0.0486
  345TMC3    C1 5168   1.940   1.584   9.996  0.3516 -0.4491 -0.1028
  345TMC3    C2 5169   2.077   1.610   9.990 -0.2338  0.4004  0.8820
  345TMC3    C3 5170   2.109   1.719   9.908 -0.0399 -0.0977  0.0787
  345TMC3    C4 5171   1.849   1.654   9.926 -0.2656  0.0155  0.3089
  345TMC3    C5 5172   1.891   1.757   9.843  0.4707 -0.5123  0.0572
  345TMC3    C6 5173   2.024   1.791   9.838  0.0351  0.1117  0.1045
  345TMC3     C 5174   1.882   1.472  10.081  0.7827  0.7487  0.3092
  345TMC3     O 5175   1.764   1.458  10.111  0.4959  0.3107 -0.4363
  345TMC3     H 5176   2.140   1.565  10.067  0.0823 -2.1045 -0.8371
  345TMC3    H1 5177   1.742   1.639   9.933  0.0760 -2.6475 -0.4127
  345TMC3    H2 5178   2.054   1.872   9.771 -0.7095  0.7927  0.5974
  345TMC3    C7 5179   1.787   1.837   9.782 -0.6563 -0.6001 -0.5591
  345TMC3    C8 5180   2.242   1.755   9.911 -0.1111  0.2715 -0.3551
  345TMC3    O1 5181   1.671   1.795   9.773 -0.3225 -0.1737 -0.4579
  345TMC3    O2 5182   2.314   1.665   9.942  0.2836  0.0133 -0.4008
  346MPD2     C 5183   2.069   2.592  13.875  0.4986  0.1504  0.0403
  346MPD2    C1 5184   2.091   2.732  13.885 -0.0853 -0.5308 -0.2892
  346MPD2    C2 5185   2.050   2.793  14.003 -0.0572  0.4976  0.2083
  346MPD2    C3 5186   1.990   2.731  14.104  0.8352  0.6485  0.2146
  346MPD2    C4 5187   1.961   2.595  14.099 -0.4599  0.1924  0.2789
  346MPD2    C5 5188   2.012   2.531  13.982 -0.7476  0.4331  0.1765
  346MPD2     H 5189   2.076   2.899  14.005  0.5903  0.3347  0.4143
  346MPD2    H1 5190   1.919   2.535  14.178 -1.5780  1.3816  0.5865
  346MPD2    H2 5191   2.103   2.534  13.790  1.4928  0.0126  0.5265
  346MPD2    H3 5192   1.999   2.424  13.974  0.2868  0.4723 -1.9359
  346MPD2     N 5193   1.951   2.803  14.216  0.4119 -0.0447  0.1019
  346MPD2    H5 5194   1.984   2.899  14.214 -1.6728  0.6597 -1.1746
  346MPD2    N1 5195   2.163   2.810  13.792  0.0817 -0.1569  0.0454
  346MPD2    H7 5196   2.187   2.902  13.825  0.0905 -0.2113  0.1922
  347TMC3    C1 5197   1.861   2.865  14.424 -0.1990 -0.1996 -0.1601
  347TMC3    C2 5198   1.961   2.962  14.425  0.7926  0.2253 -0.4837
  347TMC3    C3 5199   1.930   3.071  14.505  1.1336  0.7153 -0.1519
  347TMC3    C4 5200   1.744   2.869  14.502  0.4049  0.0545 -0.4050
  347TMC3    C5 5201   1.735   2.973  14.587  0.0481 -0.6493 -0.1482
  347TMC3    C6 5202   1.823   3.079  14.592  0.7610 -0.8271  0.5451
  347TMC3     C 5203   1.868   2.766  14.325  0.7202  0.2390  0.2278
  347TMC3     O 5204   1.805   2.663  14.331 -0.0609 -0.1082  0.4843
  347TMC3     H 5205   2.063   2.944  14.391  0.5378  0.8607 -1.5624
  347TMC3    H1 5206   1.684   2.779  14.504  0.0308  0.3393  1.7430
  347TMC3    H2 5207   1.801   3.166  14.652  0.5476  0.0412 -0.7706
  347TMC3    C7 5208   1.618   2.972  14.682 -0.5385 -0.1714  0.3498
  347TMC3    C8 5209   2.044   3.158  14.521 -0.1731  0.8907 -0.3381
  347TMC3    O1 5210   1.524   2.907  14.633  0.4113  0.3352 -0.0927
  347TMC3    O2 5211   2.117   3.154  14.424 -0.3399 -0.2582 -0.3828
  348MPD2     C 5212   0.406   2.505  12.030  0.3026  0.0466 -0.1780
  348MPD2    C1 5213   0.468   2.628  12.029  0.1072  0.2483  0.7874
  348MPD2    C2 5214   0.424   2.720  11.937 -0.1821 -0.7487 -0.2682
  348MPD2    C3 5215   0.319   2.701  11.850 -0.7519  0.0913  0.6312
  348MPD2    C4 5216   0.253   2.576  11.854  0.7572 -0.9696 -0.3386
  348MPD2    C5 5217   0.299   2.478  11.945 -0.3062 -0.4773  0.9990
  348MPD2     H 5218   0.476   2.815  11.932  0.7686 -1.3058 -1.2075
  348MPD2    H1 5219   0.172   2.557  11.785 -0.8508  1.3288  0.9016
  348MPD2    H2 5220   0.421   2.427  12.104  3.8375  1.2273  0.3527
  348MPD2    H3 5221   0.246   2.384  11.942 -1.4880  0.2486 -1.0508
  348MPD2     N 5222   0.281   2.800  11.751 -0.2699 -0.2924  0.3919
  348MPD2    H5 5223   0.324   2.892  11.750  0.9358 -0.8625  0.9055
  348MPD2    N1 5224   0.578   2.662  12.110  0.1698  0.2942  0.1404
  348MPD2    H7 5225   0.610   2.758  12.107 -0.6464  0.4732 -2.7425
  349TMC3    C1 5226   0.783   2.590  12.182  0.6073 -0.8061 -0.1759
  349TMC3    C2 5227   0.828   2.467  12.176 -0.0231 -0.1200  0.5436
  349TMC3    C3 5228   0.890   2.426  12.056  0.3105 -0.1986 -0.2973
  349TMC3    C4 5229   0.825   2.683  12.086 -0.2217 -0.3356  0.2485
  349TMC3    C5 5230   0.889   2.640  11.973 -0.2659 -0.3796 -0.0160
  349TMC3    C6 5231   0.910   2.516  11.952 -0.1020  0.1446  0.3874
  349TMC3     C 5232   0.639   2.579  12.203 -0.0422  0.5421 -0.5485
  349TMC3     O 5233   0.592   2.478  12.249  0.3145 -0.2116 -0.2581
  349TMC3     H 5234   0.820   2.405  12.265  0.2818  0.2121  0.8040
  349TMC3    H1 5235   0.809   2.790  12.095  1.8358  0.0871 -1.0246
  349TMC3    H2 5236   0.959   2.484  11.860 -2.2774 -1.2454 -0.2884
  349TMC3    C7 5237   0.889   2.734  11.862 -0.2256 -0.7867  0.3577
  349TMC3    C8 5238   0.875   2.287  12.029 -0.6287  0.3901 -0.3454
  349TMC3    O1 5239   0.924   2.848  11.895 -0.4455  0.3829  0.3217
  349TMC3    O2 5240   0.822   2.215  12.108  0.3362 -0.0721  0.0165
  350MPD2     C 5241   4.214   0.580   9.710 -0.5125  0.5804  0.3244
  350MPD2    C1 5242   4.278   0.476   9.780  0.9211 -0.9182  0.5215
  350MPD2    C2 5243   4.403   0.502   9.834 -0.0001 -0.7270 -0.2756
  350MPD2    C3 5244   4.448   0.633   9.840 -0.3258 -0.1840  0.3776
  350MPD2    C4 5245   4.384   0.734   9.776  0.3900 -0.1353 -0.0346
  350MPD2    C5 5246   4.271   0.703   9.707  0.4216  0.1976 -0.0096
  350MPD2     H 5247   4.462   0.421   9.876  1.1408 -0.6123 -1.6777
  350MPD2    H1 5248   4.431   0.831   9.778  0.6017 -0.2091 -1.4132
  350MPD2    H2 5249   4.121   0.564   9.657  1.2216 -0.8384 -2.2594
  350MPD2    H3 5250   4.218   0.777   9.649 -0.7151 -1.0786 -0.5927
  350MPD2     N 5251   4.579   0.649   9.903 -0.6360 -0.0679 -0.4769
  350MPD2    H5 5252   4.624   0.571   9.950 -0.4868 -0.5763 -1.4451
  350MPD2    N1 5253   4.225   0.347   9.774  0.1988 -0.1086 -0.2622
  350MPD2    H7 5254   4.265   0.280   9.839  1.0260 -0.6567 -1.3300
  351TMC3    C1 5255   4.081   0.164   9.743 -0.6629 -0.1212  0.1092
  351TMC3    C2 5256   4.189   0.079   9.759  0.3878  0.2789  0.3816
  351TMC3    C3 5257   4.156   4.679   9.810  0.0295 -0.3240  0.0015
  351TMC3    C4 5258   3.956   0.134   9.780 -0.5487  0.7756  0.2387
  351TMC3    C5 5259   3.929   0.011   9.832  0.3650  0.4078 -1.0125
  351TMC3    C6 5260   4.036   4.649   9.867 -0.0815  0.3169  0.1279
  351TMC3     C 5261   4.113   0.305   9.705 -0.0704 -0.1387 -0.2679
  351TMC3     O 5262   4.045   0.368   9.623 -0.2049 -0.4274 -0.7932
  351TMC3     H 5263   4.292   0.103   9.736  0.2430 -0.2920 -0.8825
  351TMC3    H1 5264   3.881   0.213   9.773 -0.5611  0.7302 -0.1415
  351TMC3    H2 5265   4.024   4.552   9.912  0.5095  0.4623  0.6077
  351TMC3    C7 5266   3.796   4.712   9.892 -0.8482 -0.4619  0.0950
  351TMC3    C8 5267   4.260   4.586   9.797 -0.0593 -0.0698  0.2242
  351TMC3    O1 5268   3.717   0.079   9.875 -0.4440 -0.3099 -0.0761
  351TMC3    O2 5269   4.336   4.594   9.697  0.0437  0.1293  0.4084
  352MPD2     C 5270   2.621   2.662   1.296  0.0847 -0.1428  0.6210
  352MPD2    C1 5271   2.510   2.672   1.386 -0.8774  0.1463 -0.3404
  352MPD2    C2 5272   2.492   2.567   1.478  0.4919 -1.0419  0.0737
  352MPD2    C3 5273   2.579   2.460   1.493 -0.3274 -0.6566 -0.5767
  352MPD2    C4 5274   2.683   2.452   1.411  0.8744  0.5679  0.0404
  352MPD2    C5 5275   2.698   2.553   1.320 -0.5307 -0.2041  0.6857
  352MPD2     H 5276   2.399   2.569   1.534 -0.4776  2.3258 -1.6626
  352MPD2    H1 5277   2.751   2.368   1.416  0.2431  0.1096  0.8352
  352MPD2    H2 5278   2.632   2.741   1.223 -1.3980 -0.1109  0.4386
  352MPD2    H3 5279   2.786   2.536   1.258 -1.5171  0.4682 -0.8957
  352MPD2     N 5280   2.555   2.349   1.571 -0.7231 -0.3915 -0.4811
  352MPD2    H5 5281   2.613   2.265   1.568  0.3072  0.3292 -0.6903
  352MPD2    N1 5282   2.412   2.775   1.371 -0.6202  0.3094 -0.6606
  352MPD2    H7 5283   2.416   2.829   1.285 -0.6111  0.6211 -0.4639
  353TMC3    C1 5284   2.431   2.177   1.653  0.4984 -0.3880  0.1461
  353TMC3    C2 5285   2.533   2.100   1.608 -0.7140 -0.4405 -0.1279
  353TMC3    C3 5286   2.508   1.962   1.614  0.5258 -0.8237  0.8275
  353TMC3    C4 5287   2.301   2.130   1.666  0.5277 -0.3994  0.5277
  353TMC3    C5 5288   2.278   1.998   1.638 -0.1253 -0.5267 -0.1498
  353TMC3    C6 5289   2.381   1.912   1.625 -0.8901  0.7233  0.0082
  353TMC3     C 5290   2.439   2.319   1.636 -0.4068 -0.4584 -1.3635
  353TMC3     O 5291   2.339   2.390   1.647  0.5968  0.2988 -0.8266
  353TMC3     H 5292   2.635   2.133   1.590  0.3736 -3.0010  1.2427
  353TMC3    H1 5293   2.212   2.190   1.681  0.5795  0.5461 -3.0841
  353TMC3    H2 5294   2.360   1.806   1.620 -2.0207  0.8724  1.5698
  353TMC3    C7 5295   2.139   1.958   1.615  0.5072  0.1723 -0.4778
  353TMC3    C8 5296   2.623   1.874   1.631  0.3209  0.9031  0.2699
  353TMC3    O1 5297   2.047   2.021   1.666 -0.3825  0.0588 -0.3620
  353TMC3    O2 5298   2.730   1.933   1.639 -0.0629 -0.1036  0.3332
  354TMC3    C1 5299   4.290   4.057  13.211  0.1843 -0.1931  0.4100
  354TMC3    C2 5300   4.348   4.175  13.173 -0.0483 -0.0181 -0.1077
  354TMC3    C3 5301   4.357   4.189  13.034  0.3322  0.1451  0.2453
  354TMC3    C4 5302   4.262   3.955  13.126  0.1383 -0.1178  0.3127
  354TMC3    C5 5303   4.277   3.976  12.989 -0.7017  0.8305 -0.8069
  354TMC3    C6 5304   4.320   4.097  12.945 -0.1890 -0.1536 -0.0789
  354TMC3     C 5305   4.249   4.042  13.354  0.8696  0.2403  0.2263
  354TMC3     O 5306   4.194   3.937  13.386  0.0387  1.0208  0.6170
  354TMC3     H 5307   4.360   4.261  13.238  1.7328 -0.4940  0.1991
  354TMC3    H1 5308   4.215   3.864  13.163  4.0798 -3.5732 -3.1316
  354TMC3    H2 5309   4.323   4.109  12.837 -1.3739  3.8868  0.3666
  354TMC3    C7 5310   4.309   3.854  12.914 -0.7568 -0.7943  0.5600
  354TMC3    C8 5311   4.420   4.303  12.980 -0.1614 -0.3939 -0.3158
  354TMC3    O1 5312   4.276   3.747  12.967  0.5034 -0.0590  0.0788
  354TMC3    O2 5313   4.413   4.316  12.858  0.0991 -0.4069 -0.1224
  355MPD2     C 5314   4.330   0.081  11.354  1.7464 -0.6759  0.2759
  355MPD2    C1 5315   4.388   0.111  11.236  0.1573  0.3973 -1.7128
  355MPD2    C2 5316   4.525   0.108  11.227  0.3219 -0.6985  0.0150
  355MPD2    C3 5317   4.609   0.087  11.332 -0.0722  1.2398 -0.5460
  355MPD2    C4 5318   4.555   0.055  11.455  0.6175 -0.2486 -0.5644
  355MPD2    C5 5319   4.416   0.057  11.465  0.1856  0.4853  0.4141
  355MPD2     H 5320   4.570   0.121  11.130  0.5001  0.7952  0.2937
  355MPD2    H1 5321   4.618   0.055  11.542 -1.1486  0.3659  0.7164
  355MPD2    H2 5322   4.223   0.087  11.370  1.7222 -0.0652 -0.1100
  355MPD2    H3 5323   4.368   0.047  11.562 -1.2388  0.4151 -0.3016
  355MPD2     N 5324   0.029   0.101  11.330  0.0574  0.2586 -0.4097
  355MPD2    H5 5325   0.063   0.103  11.425 -1.5430 -1.0063  0.2129
  355MPD2    N1 5326   4.294   0.139  11.128 -0.3952 -0.5117  0.5648
  355MPD2    H7 5327   4.197   0.111  11.139  0.8117 -4.5048  1.0343
  356TMC3    C1 5328   0.235   0.211  11.256 -0.2833  0.1953  0.1002
  356TMC3    C2 5329   0.288   0.272  11.146  0.1331 -0.2813  0.1528
  356TMC3    C3 5330   0.358   0.392  11.170  0.4364  0.6180 -0.7250
  356TMC3    C4 5331   0.259   0.265  11.381 -0.5174 -0.3820 -0.3824
  356TMC3    C5 5332   0.324   0.388  11.394 -0.5024 -0.1746 -0.3300
  356TMC3    C6 5333   0.392   0.448  11.290 -0.1585  0.0689 -0.0597
  356TMC3     C 5334   0.097   0.166  11.230 -0.7965 -0.0882 -1.0068
  356TMC3     O 5335   0.053   0.196  11.121 -0.0816  0.1236  0.0227
  356TMC3     H 5336   0.287   0.230  11.047  1.0112  0.7810 -0.3101
  356TMC3    H1 5337   0.206   0.226  11.467  0.6378 -2.3464 -0.5763
  356TMC3    H2 5338   0.437   0.546  11.304 -2.4424  1.1809 -0.4705
  356TMC3    C7 5339   0.352   0.423  11.532 -0.5813  0.1550 -0.3910
  356TMC3    C8 5340   0.370   0.470  11.046 -0.2321  0.2640 -0.6698
  356TMC3    O1 5341   0.320   0.342  11.615 -0.0764 -0.1511 -0.2504
  356TMC3    O2 5342   0.294   0.443  10.954 -0.3401 -0.3060 -0.3257
  357MPD2     C 5343   4.676   0.543   0.987 -1.1244 -0.1442  0.0487
  357MPD2    C1 5344   4.685   0.436   1.070  0.3096 -0.5283 -0.4017
  357MPD2    C2 5345   4.573   0.408   1.154 -0.1044 -0.2745  0.5344
  357MPD2    C3 5346   4.465   0.498   1.165 -0.9174  0.4095  0.0296
  357MPD2    C4 5347   4.466   0.600   1.072 -0.1689 -0.7822 -0.8220
  357MPD2    C5 5348   4.565   0.624   0.981 -0.2236 -0.4795 -0.1098
  357MPD2     H 5349   4.567   0.317   1.213  1.9081 -1.0576 -0.4641
  357MPD2    H1 5350   4.378   0.662   1.060  0.5732  0.6894  1.3526
  357MPD2    H2 5351   0.038   0.572   0.924  0.1828 -0.6641  1.5161
  357MPD2    H3 5352   4.556   0.705   0.909 -0.2408 -0.7103 -0.3692
  357MPD2     N 5353   4.347   0.484   1.249 -0.0218 -0.0915  0.5827
  357MPD2    H5 5354   4.268   0.540   1.221  0.7226  1.2464  1.1506
  357MPD2    N1 5355   0.059   0.335   1.039  0.5998  0.1841 -0.1640
  357MPD2    H7 5356   0.121   0.349   0.960 -0.0860 -1.3894 -0.9734
  358TMC3    C1 5357   0.178   0.132   1.072  0.2166  0.5560  0.3217
  358TMC3    C2 5358   0.144   0.085   0.942 -0.0453  0.0937  0.3507
  358TMC3    C3 5359   0.172   4.677   0.912  0.5009  0.4702  0.8429
  358TMC3    C4 5360   0.237   0.048   1.167 -0.2885 -0.4506 -0.1560
  358TMC3    C5 5361   0.258   4.641   1.127 -1.1431 -0.1066  0.4720
  358TMC3    C6 5362   0.225   4.590   1.006  0.1812  0.1624  0.2590
  358TMC3     C 5363   0.085   0.230   1.128  0.2514 -0.0414 -0.7094
  358TMC3     O 5364   0.037   0.204   1.238  0.2740 -0.6061 -0.2270
  358TMC3     H 5365   0.095   0.147   0.868  1.6077 -1.0335 -1.6725
  358TMC3    H1 5366   0.255   0.077   1.270  0.2593  3.3283 -1.3265
  358TMC3    H2 5367   0.252   4.488   0.981 -0.2989 -0.1121  0.8539
  358TMC3    C7 5368   0.290   4.536   1.229 -0.1167  0.5215  0.6199
  358TMC3    C8 5369   0.112   4.613   0.793 -1.0051  0.4294 -0.2738
  358TMC3    O1 5370   0.290   4.420   1.184 -0.0321 -0.2339 -0.0459
  358TMC3    O2 5371   0.100   4.685   0.694 -0.1902 -0.4985  0.3199
  359MPD2     C 5372   0.335   3.788  12.871  0.3649 -0.0864 -0.1153
  359MPD2    C1 5373   0.333   3.716  12.753  0.2296  1.0121 -0.0692
  359MPD2    C2 5374   0.267   3.594  12.751  0.4062 -0.0604 -0.7941
  359MPD2    C3 5375   0.202   3.538  12.858 -0.7093  0.0934  0.5827
  359MPD2    C4 5376   0.192   3.615  12.974 -1.0265 -0.1639  0.7578
  359MPD2    C5 5377   0.262   3.737  12.978 -0.2020  0.0138  0.1775
  359MPD2     H 5378   0.278   3.535  12.661 -0.4459  0.1957 -1.0689
  359MPD2    H1 5379   0.119   3.589  13.049  0.1309 -3.9725  0.5727
  359MPD2    H2 5380   0.378   3.886  12.881 -0.6075  0.3928 -0.6052
  359MPD2    H3 5381   0.249   3.805  13.061  2.2321 -0.7600  1.2035
  359MPD2     N 5382   0.133   3.413  12.855 -0.1767 -0.4597  0.1835
  359MPD2    H5 5383   0.075   3.393  12.936 -0.5331  0.7282  0.2234
  359MPD2    N1 5384   0.408   3.754  12.642 -0.0835  0.3973 -0.0525
  359MPD2    H7 5385   0.405   3.695  12.559 -1.2997 -1.5673  1.3974
  360TMC3    C1 5386   0.493   3.904  12.492 -0.2079 -0.3077  0.3687
  360TMC3    C2 5387   0.623   3.944  12.460 -0.2806 -0.4535  0.0291
  360TMC3    C3 5388   0.665   3.921  12.329  0.1321 -0.0806  0.4618
  360TMC3    C4 5389   0.401   3.849  12.407 -0.4569  0.9211  0.1731
  360TMC3    C5 5390   0.442   3.841  12.275 -0.2462  0.7161 -1.0391
  360TMC3    C6 5391   0.571   3.875  12.237  0.0054 -0.1705 -0.1502
  360TMC3     C 5392   0.480   3.866  12.636 -0.2439 -0.2812  0.3897
  360TMC3     O 5393   0.507   3.945  12.722  0.2689 -0.4847  0.2209
  360TMC3     H 5394   0.696   3.955  12.539 -1.2104 -0.2309  0.8658
  360TMC3    H1 5395   0.303   3.814  12.438 -0.2868 -0.4198 -0.8022
  360TMC3    H2 5396   0.599   3.868  12.133 -1.6176  0.0986 -0.6090
  360TMC3    C7 5397   0.362   3.780  12.161  0.0553 -0.7553  0.4421
  360TMC3    C8 5398   0.802   3.949  12.280  0.7273  0.2562  0.1079
  360TMC3    O1 5399   0.427   3.721  12.076  0.3941 -0.4191 -0.5679
  360TMC3    O2 5400   0.864   4.042  12.327  0.1183  0.5321  0.1026
  361MPD2     C 5401   1.587   2.167  16.932 -0.2642  0.3616  0.7062
  361MPD2    C1 5402   1.642   2.271  16.996 -0.4554 -0.7560  0.9590
  361MPD2    C2 5403   1.774   2.261  17.045 -0.3248 -0.1033 -0.8751
  361MPD2    C3 5404   1.843   2.148  17.002  0.4595 -0.9731  0.1636
  361MPD2    C4 5405   1.783   2.053  16.927 -0.3646 -0.8716 -0.1042
  361MPD2    C5 5406   1.649   2.056  16.899  0.0507  0.2768 -0.1942
  361MPD2     H 5407   1.822   2.342  17.100 -1.3433 -0.3969  0.4573
  361MPD2    H1 5408   1.844   1.968  16.900  0.3469 -0.4846  0.2768
  361MPD2    H2 5409   1.485   2.176  16.895  0.3326 -0.6946 -1.2082
  361MPD2    H3 5410   1.606   1.976  16.839  0.7379 -0.1809 -0.0697
  361MPD2     N 5411   1.971   2.117  17.052  0.2357  0.4147  0.0018
  361MPD2    H5 5412   2.015   2.032  17.018  1.5811  0.8499  0.6595
  361MPD2    N1 5413   1.559   2.376  17.037 -0.0929  0.3625  0.0747
  361MPD2    H7 5414   1.605   2.460  17.071  0.4997  0.0795 -0.0133
  362TMC3    C1 5415   1.379   2.513  17.043 -0.2389 -0.2005  0.0552
  362TMC3    C2 5416   1.254   2.503  17.097 -0.8205  0.6683 -0.7241
  362TMC3    C3 5417   1.161   2.600  17.072 -0.1834 -0.3429 -0.3590
  362TMC3    C4 5418   1.409   2.609  16.958 -1.1748  0.3615 -0.2081
  362TMC3    C5 5419   1.312   2.702  16.924  0.0400  0.0888  0.5802
  362TMC3    C6 5420   1.191   2.706  16.988  0.0028 -0.1188 -0.6482
  362TMC3     C 5421   1.424   2.391  17.003  0.0148  0.6415  0.1909
  362TMC3     O 5422   1.339   2.330  16.935  0.2270  0.5100  0.2025
  362TMC3     H 5423   1.232   2.416  17.158  0.2814 -0.5561 -2.0759
  362TMC3    H1 5424   1.510   2.610  16.919 -0.7088 -0.1747  0.9725
  362TMC3    H2 5425   1.114   2.778  16.963 -0.0705 -0.1956 -0.6411
  362TMC3    C7 5426   1.304   2.770  16.800  0.0924  0.2967 -0.0418
  362TMC3    C8 5427   1.027   2.565  17.092 -1.3192 -0.6624 -0.4343
  362TMC3    O1 5428   1.217   2.855  16.784  0.1142  0.8773 -0.3343
  362TMC3    O2 5429   0.999   2.447  17.106  0.0018  0.3066 -0.0082
  363TMC3    C1 5430   0.950   4.559   9.675  0.0490  0.2699  0.1600
  363TMC3    C2 5431   0.829   4.516   9.721  0.1446  0.4088 -0.5692
  363TMC3    C3 5432   0.724   4.588   9.675 -0.2511 -0.3197 -0.0433
  363TMC3    C4 5433   0.968   4.651   9.573  0.0112  0.0636  0.0861
  363TMC3    C5 5434   0.856   4.719   9.531 -0.9079  0.0263  0.7527
  363TMC3    C6 5435   0.730   4.691   9.583 -0.3435  0.0680  0.3872
  363TMC3     C 5436   1.075   4.509   9.733  0.4111  0.8495 -0.5991
  363TMC3     O 5437   1.175   4.536   9.672  0.0924 -0.1475 -0.1285
  363TMC3     H 5438   0.812   4.436   9.793  3.9825 -0.8607 -1.0640
  363TMC3    H1 5439   1.065   4.676   9.533 -0.6684  1.8123 -0.4937
  363TMC3    H2 5440   0.641   0.020   9.547 -0.6660  0.0581  1.1579
  363TMC3    C7 5441   0.861   0.114   9.446 -0.2661  0.2583  0.0113
  363TMC3    C8 5442   0.593   4.534   9.692  0.4904 -0.1377  0.0973
  363TMC3    O1 5443   0.781   0.203   9.461 -0.1270 -0.0122 -0.1033
  363TMC3    O2 5444   0.498   4.606   9.682  0.2510 -0.0286 -0.2590
  364MPD2     C 5445   4.109   3.584  10.451  0.0672 -1.0345 -0.7077
  364MPD2    C1 5446   4.022   3.687  10.484 -0.1280  0.1727  0.0400
  364MPD2    C2 5447   3.949   3.671  10.602 -0.1431  0.2145  0.4020
  364MPD2    C3 5448   3.964   3.568  10.686 -0.2789 -0.2288  0.0451
  364MPD2    C4 5449   4.056   3.471  10.657 -0.7498 -0.3113 -0.7031
  364MPD2    C5 5450   4.126   3.484  10.540 -0.6388  0.3505  0.3679
  364MPD2     H 5451   3.869   3.740  10.625 -0.4856 -0.2035  0.4614
  364MPD2    H1 5452   4.076   3.388  10.724 -3.1399 -1.8378 -1.8819
  364MPD2    H2 5453   4.161   3.592  10.357 -0.6808 -0.0350 -1.0392
  364MPD2    H3 5454   4.182   3.399  10.505 -0.4081  0.4049  0.5969
  364MPD2     N 5455   3.911   3.575  10.819  0.3900  0.1140  0.7570
  364MPD2    H5 5456   3.922   3.500  10.886  1.0364  0.4429  1.0217
  364MPD2    N1 5457   4.019   3.797  10.399 -0.2890 -0.1742 -0.1166
  364MPD2    H7 5458   4.068   3.787  10.311 -3.5592  0.9534 -2.0513
  365TMC3    C1 5459   3.965   4.007  10.318 -0.1490  0.1872  0.0296
  365TMC3    C2 5460   3.969   3.968  10.185 -0.5439  0.2748  0.4904
  365TMC3    C3 5461   3.993   4.062  10.090 -0.3255  0.5119  0.2956
  365TMC3    C4 5462   3.983   4.136  10.362  0.8048  0.0118  0.1003
  365TMC3    C5 5463   3.993   4.231  10.262 -0.3070 -0.0585 -0.7528
  365TMC3    C6 5464   3.991   4.198  10.125  0.1087  0.3677  0.8947
  365TMC3     C 5465   3.952   3.917  10.423  0.4128  0.4482  0.1833
  365TMC3     O 5466   3.893   3.956  10.523  0.4175  0.3818 -0.2797
  365TMC3     H 5467   3.950   3.864  10.161  0.2158  0.6081 -1.6160
  365TMC3    H1 5468   3.979   4.164  10.466 -1.4682  1.4141 -0.3607
  365TMC3    H2 5469   4.010   4.272  10.049 -3.1422 -0.4978 -0.7689
  365TMC3    C7 5470   3.956   4.371  10.290  0.5462 -0.2089 -0.1823
  365TMC3    C8 5471   4.003   4.030   9.948 -0.5398 -0.3523  0.6946
  365TMC3    O1 5472   3.992   4.452  10.208 -0.4214  0.6268 -0.0269
  365TMC3    O2 5473   3.973   4.118   9.869  0.3466 -0.6014 -1.3886
  366MPD2     C 5474   2.608   0.593  14.831  0.0524 -0.0640 -0.1186
  366MPD2    C1 5475   2.590   0.624  14.962  0.0360  0.4093 -0.7950
  366MPD2    C2 5476   2.690   0.596  15.053 -0.3313 -0.2726  0.2611
  366MPD2    C3 5477   2.807   0.550  15.012 -0.5945 -0.1914 -1.0833
  366MPD2    C4 5478   2.827   0.505  14.883  0.1109  0.4962  0.5356
  366MPD2    C5 5479   2.721   0.520  14.799 -0.4228 -0.5995  0.6004
  366MPD2     H 5480   2.672   0.608  15.159 -0.9866 -0.8192  0.2078
  366MPD2    H1 5481   2.920   0.463  14.846 -0.9376  0.3428 -1.9081
  366MPD2    H2 5482   2.546   0.613  14.744  1.1984  0.0243 -0.9042
  366MPD2    H3 5483   2.742   0.473  14.704  1.4905 -1.7384  1.6043
  366MPD2     N 5484   2.927   0.548  15.093 -0.5264  0.1222  0.4977
  366MPD2    H5 5485   3.003   0.489  15.061  0.8509  2.2896 -0.2792
  366MPD2    N1 5486   2.483   0.701  15.022  0.4753  0.7724 -0.0217
  366MPD2    H7 5487   2.495   0.739  15.115  0.4072  1.5690 -0.3377
  367TMC3    C1 5488   2.317   0.859  15.019  0.6882 -0.6176 -0.4651
  367TMC3    C2 5489   2.352   0.879  15.147 -0.3339  0.4362  0.6692
  367TMC3    C3 5490   2.281   0.973  15.218  0.7166  0.0301 -0.5095
  367TMC3    C4 5491   2.209   0.919  14.952 -0.3340  0.1206  0.0468
  367TMC3    C5 5492   2.150   1.018  15.029 -0.4675 -0.1913 -0.7422
  367TMC3    C6 5493   2.184   1.045  15.159  0.1598  0.2463  0.1713
  367TMC3     C 5494   2.380   0.760  14.944 -0.4004 -0.4248  0.0976
  367TMC3     O 5495   2.352   0.746  14.825  0.1377  0.1167 -0.2355
  367TMC3     H 5496   2.449   0.849  15.184 -0.5301  0.0366  0.8605
  367TMC3    H1 5497   2.191   0.914  14.846  0.7002  0.7092 -0.1566
  367TMC3    H2 5498   2.124   1.115  15.216 -1.1076  0.2374 -1.1574
  367TMC3    C7 5499   2.017   1.051  14.992  0.5644 -0.3043  0.0734
  367TMC3    C8 5500   2.361   1.026  15.324 -0.4382 -0.5782  0.0119
  367TMC3    O1 5501   1.973   1.157  15.036 -0.8115  0.3851 -0.0968
  367TMC3    O2 5502   2.454   0.965  15.363  0.7500 -0.5097  0.3070
  368MPD2     C 5503   3.474   2.165  12.626  0.0052 -0.4104  0.7629
  368MPD2    C1 5504   3.477   2.269  12.723  0.4794 -0.3838  0.4073
  368MPD2    C2 5505   3.596   2.292  12.789  0.6154 -0.5071  0.1434
  368MPD2    C3 5506   3.706   2.206  12.763 -0.1230 -0.4095 -0.5488
  368MPD2    C4 5507   3.689   2.101  12.677 -0.1684  0.1395 -0.2762
  368MPD2    C5 5508   3.581   2.086  12.603  0.5068 -0.3984 -0.3959
  368MPD2     H 5509   3.606   2.366  12.867  0.5144 -2.0581  1.6412
  368MPD2    H1 5510   3.761   2.020  12.667  1.2381  1.5946 -1.9858
  368MPD2    H2 5511   3.387   2.131  12.572  1.6102 -1.8305 -0.9257
  368MPD2    H3 5512   3.561   2.002  12.538 -1.7516  0.7984 -1.2474
  368MPD2     N 5513   3.838   2.220  12.828  0.1850  0.6759  0.3337
  368MPD2    H5 5514   3.912   2.155  12.804 -0.0301 -0.5147  2.8987
  368MPD2    N1 5515   3.363   2.347  12.736 -0.2565  0.1085  0.1496
  368MPD2    H7 5516   3.282   2.318  12.682 -0.8266  0.6371  0.7199
  369TMC3    C1 5517   3.240   2.544  12.766 -0.1751 -0.8998  0.6477
  369TMC3    C2 5518   3.245   2.680  12.767 -0.7590 -0.2813 -0.0374
  369TMC3    C3 5519   3.129   2.749  12.769 -0.3246  0.1661 -0.2116
  369TMC3    C4 5520   3.126   2.473  12.765 -0.3629 -0.3671  0.0599
  369TMC3    C5 5521   3.006   2.543  12.761  0.1606 -0.0094 -0.0095
  369TMC3    C6 5522   3.008   2.676  12.761 -0.0672  0.2792 -0.7589
  369TMC3     C 5523   3.367   2.477  12.787 -0.5234 -0.7956 -0.2410
  369TMC3     O 5524   3.462   2.547  12.817  0.4348 -0.0538  0.3918
  369TMC3     H 5525   3.342   2.727  12.751 -1.0271 -0.4842 -2.2506
  369TMC3    H1 5526   3.118   2.365  12.771  0.9095 -0.3903  1.3178
  369TMC3    H2 5527   2.913   2.727  12.761  0.1332  0.6470 -3.2225
  369TMC3    C7 5528   2.905   2.492  12.846  0.2092 -0.2501  0.5034
  369TMC3    C8 5529   3.134   2.884  12.724 -0.5278  0.1027 -0.5063
  369TMC3    O1 5530   2.956   2.422  12.935 -0.2509 -0.1057 -0.4124
  369TMC3    O2 5531   3.051   2.915  12.639  0.7912 -0.0561  0.2737
  370TMC3    C1 5532   2.852   3.424  16.519  0.4492 -0.1882  0.7612
  370TMC3    C2 5533   2.763   3.371  16.606 -0.1734  0.0377  0.2978
  370TMC3    C3 5534   2.701   3.251  16.571 -0.7872  0.2873 -0.6156
  370TMC3    C4 5535   2.885   3.362  16.398 -0.4451  1.0686 -0.6406
  370TMC3    C5 5536   2.824   3.248  16.364 -0.4688 -0.1704 -0.2589
  370TMC3    C6 5537   2.724   3.195  16.447  0.1190  0.5112 -0.6580
  370TMC3     C 5538   2.948   3.517  16.573 -0.6612 -0.2905 -0.0690
  370TMC3     O 5539   2.983   3.499  16.689  0.2665 -0.2612 -0.1181
  370TMC3     H 5540   2.748   3.414  16.705  4.0552 -0.2814  1.0418
  370TMC3    H1 5541   2.963   3.399  16.332  1.2310 -1.0349  0.1495
  370TMC3    H2 5542   2.675   3.105  16.412 -3.8325  1.5576  2.0822
  370TMC3    C7 5543   2.838   3.200  16.231 -0.4810  0.0897  0.6551
  370TMC3    C8 5544   2.653   3.166  16.677  0.7339  0.6938 -0.0622
  370TMC3    O1 5545   2.880   3.286  16.151 -0.4584  0.2041 -0.2652
  370TMC3    O2 5546   2.608   3.056  16.647  0.1191  0.5467 -0.7602
  371TMC3    C1 5547   3.975   1.629  15.471 -0.9949  0.5852  0.0143
  371TMC3    C2 5548   3.877   1.662  15.555 -0.5153  0.1437 -0.1755
  371TMC3    C3 5549   3.833   1.787  15.575  0.3006  0.0382  0.5516
  371TMC3    C4 5550   4.021   1.718  15.376  0.1244  0.7041  0.5175
  371TMC3    C5 5551   3.954   1.839  15.381  0.5087  0.0373  0.9096
  371TMC3    C6 5552   3.866   1.876  15.478 -0.5861  0.4801 -0.0838
  371TMC3     C 5553   4.025   1.494  15.456  0.7392 -0.4118 -0.6428
  371TMC3     O 5554   4.088   1.471  15.354 -0.0217  0.3126  0.1545
  371TMC3     H 5555   3.838   1.593  15.630 -1.5895  1.1590  0.1972
  371TMC3    H1 5556   4.107   1.702  15.312  0.9011 -1.0395  2.0131
  371TMC3    H2 5557   3.800   1.960  15.458 -1.3784 -0.4084 -1.1801
  371TMC3    C7 5558   3.952   1.923  15.266 -0.1790 -0.9415 -0.6049
  371TMC3    C8 5559   3.690   1.779  15.572 -0.0753  0.0190 -0.2813
  371TMC3    O1 5560   3.898   2.029  15.277  0.4685 -0.5426  0.2575
  371TMC3    O2 5561   3.633   1.717  15.486  0.3296 -0.1458  0.1319
  372MPD2     C 5562   3.178   2.712  13.124 -0.4135 -0.2159  0.3867
  372MPD2    C1 5563   3.280   2.653  13.191 -0.4784  0.3459 -0.4293
  372MPD2    C2 5564   3.245   2.542  13.264  0.1435 -0.7711  0.0260
  372MPD2    C3 5565   3.110   2.497  13.269  0.1701  0.1805 -0.6052
  372MPD2    C4 5566   3.012   2.561  13.199  0.5431 -0.3249  0.6143
  372MPD2    C5 5567   3.049   2.668  13.132  0.2406  0.5927 -1.0020
  372MPD2     H 5568   3.316   2.483  13.321 -1.0320 -1.1957  1.0617
  372MPD2    H1 5569   2.912   2.523  13.178  0.9747 -1.0925 -0.0504
  372MPD2    H2 5570   3.188   2.799  13.061 -0.6595  0.2801  1.0300
  372MPD2    H3 5571   2.972   2.721  13.078  0.0461 -1.2958 -2.5657
  372MPD2     N 5572   3.076   2.384  13.340  0.3651 -0.5360  0.0140
  372MPD2    H5 5573   3.155   2.328  13.373  0.7209  0.5828  1.0468
  372MPD2    N1 5574   3.419   2.682  13.174  0.0186 -0.1932  0.3416
  372MPD2    H7 5575   3.493   2.628  13.217 -0.3314 -1.1067 -0.2016
  373TMC3    C1 5576   2.966   2.211  13.433 -0.8882  0.5938 -0.5188
  373TMC3    C2 5577   2.940   2.205  13.567  0.1128  0.3688  0.1361
  373TMC3    C3 5578   3.016   2.125  13.643  0.0801 -0.5203 -0.3200
  373TMC3    C4 5579   3.058   2.125  13.372 -0.4430 -0.0984 -0.3356
  373TMC3    C5 5580   3.118   2.035  13.456  0.5697  0.0260 -0.4045
  373TMC3    C6 5581   3.113   2.049  13.592  0.2789  0.0369  0.3196
  373TMC3     C 5582   2.949   2.334  13.365 -0.0281  0.3221 -1.0928
  373TMC3     O 5583   2.836   2.373  13.331 -0.6349  0.0079  0.5446
  373TMC3     H 5584   2.859   2.271  13.595  1.3670  0.2359  4.0260
  373TMC3    H1 5585   3.082   2.126  13.266  0.5704 -0.3111 -0.1126
  373TMC3    H2 5586   3.154   1.972  13.656 -2.0623 -1.4761  0.0096
  373TMC3    C7 5587   3.225   1.954  13.397 -0.6104  0.1728  0.0019
  373TMC3    C8 5588   3.046   2.174  13.774 -0.2932  0.0043  0.3836
  373TMC3    O1 5589   3.206   1.924  13.278 -0.8204 -0.0314 -0.1842
  373TMC3    O2 5590   3.154   2.148  13.817 -0.0995 -0.6300 -0.0184
  374TMC3    C1 5591   4.673   2.271   9.659  0.8448 -0.1189  0.2980
  374TMC3    C2 5592   4.665   2.409   9.659  0.2031  0.2953 -0.3753
  374TMC3    C3 5593   4.564   2.469   9.730  0.0104 -0.0883 -0.4212
  374TMC3    C4 5594   4.583   2.193   9.721 -0.6051 -0.1670 -0.4876
  374TMC3    C5 5595   4.480   2.258   9.783 -1.1999 -0.1396  0.0542
  374TMC3    C6 5596   4.471   2.400   9.797  0.0638 -0.2118 -0.2932
  374TMC3     C 5597   0.043   2.206   9.559 -0.1597 -0.8575  0.0360
  374TMC3     O 5598   0.027   2.089   9.520  0.0195 -0.5884  0.7598
  374TMC3     H 5599   0.012   2.471   9.602  0.0696  2.5718  1.9508
  374TMC3    H1 5600   4.599   2.086   9.715  2.3322  0.3567 -2.2409
  374TMC3    H2 5601   4.395   2.455   9.851  1.9575  1.3648  0.7500
  374TMC3    C7 5602   4.389   2.175   9.861 -0.9495  0.2827  0.1191
  374TMC3    C8 5603   4.552   2.614   9.710  0.3419 -0.0364 -1.0152
  374TMC3    O1 5604   4.342   2.227   9.960  0.0441 -0.1864  0.0675
  374TMC3    O2 5605   4.583   2.654   9.598  0.0579 -0.2879 -0.4213
  375MPD2     C 5606   3.837   3.573  17.120 -0.9227 -0.2108  0.5686
  375MPD2    C1 5607   3.799   3.641  17.004 -0.1020  0.2781  0.8954
  375MPD2    C2 5608   3.849   3.591  16.885 -0.1191  0.1374 -1.1835
  375MPD2    C3 5609   3.946   3.489  16.880  0.4939  0.3079 -0.4394
  375MPD2    C4 5610   3.982   3.426  17.005 -0.1459  0.4480  0.3339
  375MPD2    C5 5611   3.916   3.460  17.120 -0.6682 -0.1453  0.2439
  375MPD2     H 5612   3.820   3.648  16.798 -1.0740 -1.8395 -2.1691
  375MPD2    H1 5613   4.061   3.354  17.019 -1.4013 -1.0351 -0.2243
  375MPD2    H2 5614   3.806   3.598  17.221 -0.0976 -1.4966  1.1420
  375MPD2    H3 5615   3.933   3.407  17.213  0.2034  0.0003  0.1584
  375MPD2     N 5616   4.023   3.440  16.771 -0.1980 -0.4738 -0.1800
  375MPD2    H5 5617   4.096   3.371  16.788 -0.4580 -0.3119  1.5907
  375MPD2    N1 5618   3.715   3.752  17.005  0.0603  0.0262  0.0488
  375MPD2    H7 5619   3.687   3.789  16.914  0.2555  2.2405  0.8834
  376TMC3    C1 5620   4.088   3.407  16.540 -0.6763  0.3503 -0.2888
  376TMC3    C2 5621   4.215   3.363  16.585  0.0544 -0.4148 -0.2899
  376TMC3    C3 5622   4.292   3.280  16.501 -1.2871 -0.0702 -0.8251
  376TMC3    C4 5623   4.046   3.385  16.410  0.1394 -0.2584 -0.7448
  376TMC3    C5 5624   4.116   3.295  16.333 -0.5929 -0.4436  0.6595
  376TMC3    C6 5625   4.242   3.243  16.380 -0.5683 -0.3261 -0.3577
  376TMC3     C 5626   3.994   3.471  16.637  0.3770  0.3053  0.2909
  376TMC3     O 5627   3.898   3.531  16.588  0.1410  0.5433  0.2402
  376TMC3     H 5628   4.261   3.385  16.680 -0.5184  2.5592 -0.7021
  376TMC3    H1 5629   3.944   3.415  16.391  0.6586  1.1949 -1.2174
  376TMC3    H2 5630   4.318   3.197  16.317 -0.0544 -1.0120  0.7404
  376TMC3    C7 5631   4.075   3.291  16.193 -0.3505  1.1674 -0.1331
  376TMC3    C8 5632   4.426   3.314  16.499 -0.3236 -0.5587  0.3514
  376TMC3    O1 5633   4.014   3.390  16.166  0.2428 -0.1893 -0.5205
  376TMC3    O2 5634   4.461   3.424  16.464 -0.1825 -0.3481 -0.2894
  377MPD2     C 5635   2.137   3.127  11.931  0.1116  0.2930  0.0565
  377MPD2    C1 5636   2.211   3.060  12.031  0.5675  0.4197  0.2066
  377MPD2    C2 5637   2.149   3.016  12.149  0.6324  0.1570  0.6322
  377MPD2    C3 5638   2.011   3.027  12.151  0.6725  0.0496  0.4163
  377MPD2    C4 5639   1.937   3.090  12.051  0.0777 -0.7092 -0.2116
  377MPD2    C5 5640   2.000   3.150  11.940 -0.0137  0.8952  0.4373
  377MPD2     H 5641   2.201   2.960  12.225  1.6842  0.6209  0.2603
  377MPD2    H1 5642   1.829   3.098  12.049  0.2176  0.6479 -2.6728
  377MPD2    H2 5643   2.191   3.159  11.843 -0.1123  0.1071 -0.1495
  377MPD2    H3 5644   1.948   3.201  11.859 -0.8979 -2.0323 -0.8280
  377MPD2     N 5645   1.931   2.976  12.254 -0.6426  0.2377  0.0943
  377MPD2    H5 5646   1.835   3.009  12.261 -0.3508  0.9712  0.6962
  377MPD2    N1 5647   2.345   3.038  12.003  0.2246 -0.9534 -0.1711
  377MPD2    H7 5648   2.365   3.059  11.905 -0.0251  0.2773  0.0443
  378TMC3    C1 5649   2.741   3.046  11.889 -0.3486  0.1601 -1.1208
  378TMC3    C2 5650   2.607   3.041  11.913 -0.1700 -0.8525  0.4302
  378TMC3    C3 5651   2.580   2.977  12.029  0.3406  0.3805 -0.5828
  378TMC3    C4 5652   2.836   3.005  11.969  0.7850  0.3784 -0.3685
  378TMC3    C5 5653   2.799   2.959  12.091  1.3474  0.2965  0.5160
  378TMC3    C6 5654   2.670   2.950  12.121 -0.3430 -0.0099 -0.2194
  378TMC3     C 5655   2.767   3.072  11.750 -0.0972 -0.2837  0.4262
  378TMC3     O 5656   2.717   3.000  11.666  0.6959  0.0609  0.2196
  378TMC3     H 5657   2.543   3.085  11.837 -0.7786 -4.0723 -0.9386
  378TMC3    H1 5658   2.941   3.009  11.944  1.3957 -2.8930  1.7553
  378TMC3    H2 5659   2.646   2.908  12.218 -0.9993 -0.6135 -0.6460
  378TMC3    C7 5660   2.896   2.904  12.179  0.4723  0.1657 -0.5949
  378TMC3    C8 5661   2.446   2.979  12.088 -0.5051  0.2440  0.9060
  378TMC3    O1 5662   2.854   2.885  12.294 -0.5676 -0.1111  0.2999
  378TMC3    O2 5663   2.430   2.935  12.198  0.5156 -0.3059  0.0752
  379MPD2     C 5664   2.806   1.250  16.462  0.3371  0.0742 -0.8867
  379MPD2    C1 5665   2.919   1.210  16.396  0.0507 -0.7174  0.4991
  379MPD2    C2 5666   3.019   1.143  16.464 -0.0987 -0.2167  0.4200
  379MPD2    C3 5667   3.004   1.119  16.597  0.0192 -0.2463  0.2301
  379MPD2    C4 5668   2.901   1.176  16.663 -0.0532 -0.5772  0.4975
  379MPD2    C5 5669   2.789   1.233  16.600 -1.0276  0.0275 -0.2484
  379MPD2     H 5670   3.095   1.096  16.403 -0.2617  2.4089 -1.7824
  379MPD2    H1 5671   2.905   1.174  16.771 -4.7769  1.3735  0.6815
  379MPD2    H2 5672   2.726   1.303  16.413  1.4082  0.2004 -2.4752
  379MPD2    H3 5673   2.709   1.290  16.644 -1.5773 -1.1631  0.2897
  379MPD2     N 5674   3.099   1.061  16.673 -0.1641  0.2102 -0.1662
  379MPD2    H5 5675   3.064   1.023  16.760  1.9812 -1.6453 -0.1085
  379MPD2    N1 5676   2.923   1.235  16.258  0.0769  0.0525 -0.0650
  379MPD2    H7 5677   2.849   1.283  16.207 -0.8802  0.1286  1.3755
  380TMC3    C1 5678   2.982   1.186  16.036  0.1805  0.7616 -0.1466
  380TMC3    C2 5679   3.081   1.184  15.949  0.0848  0.0295 -0.8652
  380TMC3    C3 5680   3.037   1.186  15.820 -0.0192 -0.0380  0.6238
  380TMC3    C4 5681   2.849   1.175  16.007 -0.0877  0.6067  0.2530
  380TMC3    C5 5682   2.816   1.161  15.875 -0.2055 -0.5314  0.0080
  380TMC3    C6 5683   2.909   1.167  15.777 -0.0452  0.3070  0.4662
  380TMC3     C 5684   3.023   1.194  16.177  0.2875  0.6323 -0.7217
  380TMC3     O 5685   3.130   1.144  16.208 -0.1188 -0.3606 -0.0341
  380TMC3     H 5686   3.184   1.200  15.980 -0.3102  1.4249 -0.2511
  380TMC3    H1 5687   2.767   1.179  16.078 -0.3492 -0.0091 -0.0139
  380TMC3    H2 5688   2.881   1.155  15.673 -1.2893  2.1613  0.5957
  380TMC3    C7 5689   2.702   1.244  15.838  0.9194 -0.8240  0.8685
  380TMC3    C8 5690   3.123   1.221  15.712  0.2038 -0.1966  0.4192
  380TMC3    O1 5691   2.674   1.330  15.920  0.6338 -0.3326  0.3691
  380TMC3    O2 5692   3.076   1.238  15.602 -0.6900 -0.2217  0.1181
  381TMC3    C1 5693   2.635   2.226  16.262  0.7971  1.0536  0.3262
  381TMC3    C2 5694   2.695   2.349  16.245 -0.7411  0.2363 -0.3461
  381TMC3    C3 5695   2.700   2.435  16.352 -0.5667 -0.4906  0.1400
  381TMC3    C4 5696   2.585   2.183  16.383 -0.8232 -0.2416  0.0778
  381TMC3    C5 5697   2.610   2.261  16.489 -0.8758 -0.1440  0.0847
  381TMC3    C6 5698   2.664   2.391  16.479  0.4582  0.4819  0.1902
  381TMC3     C 5699   2.634   2.143  16.147  0.0209  0.1073 -0.5639
  381TMC3     O 5700   2.677   2.186  16.041  1.0190 -0.3678  0.2894
  381TMC3     H 5701   2.729   2.388  16.149  0.5008 -1.4988 -0.6074
  381TMC3    H1 5702   2.521   2.097  16.399 -0.7588 -0.5172 -1.0869
  381TMC3    H2 5703   2.697   2.437  16.571  1.0512 -0.6769  0.5647
  381TMC3    C7 5704   2.572   2.200  16.615 -0.3809 -0.5682 -0.5313
  381TMC3    C8 5705   2.796   2.545  16.342  0.4788  0.4776 -0.2349
  381TMC3    O1 5706   2.556   2.078  16.619  0.0121  0.1212  0.2468
  381TMC3    O2 5707   2.859   2.560  16.236  0.4207  0.4277 -0.3685
  382MPD2     C 5708   2.081   4.116  17.332 -0.4910 -0.0349 -0.1310
  382MPD2    C1 5709   2.065   4.238  17.396  0.1818 -0.5238 -0.6105
  382MPD2    C2 5710   1.943   4.290  17.425 -0.0918 -0.7638  0.5040
  382MPD2    C3 5711   1.827   4.217  17.396  0.0847  0.2723 -0.2061
  382MPD2    C4 5712   1.839   4.098  17.325 -0.1452 -0.2248  0.4073
  382MPD2    C5 5713   1.961   4.042  17.303  0.0386  0.6014  0.3868
  382MPD2     H 5714   1.935   4.375  17.493 -1.9057 -0.6071  0.1060
  382MPD2    H1 5715   1.751   4.048  17.287 -0.2238  0.3845 -0.2179
  382MPD2    H2 5716   2.175   4.071  17.302  0.0816  2.3661 -1.9061
  382MPD2    H3 5717   1.981   3.940  17.272  0.2236  0.2432  1.6901
  382MPD2     N 5718   1.697   4.272  17.418  0.2895  0.0575 -0.2324
  382MPD2    H5 5719   1.625   4.215  17.375 -0.0042  0.3920 -0.1888
  382MPD2    N1 5720   2.176   4.312  17.442 -0.6873  0.7039  0.1432
  382MPD2    H7 5721   2.151   4.387  17.506 -1.0601  0.3705  0.3911
  383TMC3    C1 5722   1.513   4.392  17.494 -0.5256  0.0393 -0.4250
  383TMC3    C2 5723   1.439   4.331  17.399 -0.3589 -0.0796  0.4378
  383TMC3    C3 5724   1.303   4.373  17.392 -0.1212  0.5051 -0.2037
  383TMC3    C4 5725   1.468   4.487  17.580 -0.5109  0.2165 -0.5606
  383TMC3    C5 5726   1.337   4.524  17.558 -0.6533 -0.5464 -1.1020
  383TMC3    C6 5727   1.257   4.482  17.456  0.8546 -0.5852 -0.1167
  383TMC3     C 5728   1.660   4.378  17.494  0.1486  1.1754 -0.1569
  383TMC3     O 5729   1.727   4.443  17.573  0.6375 -0.5655  0.1809
  383TMC3     H 5730   1.477   4.257  17.330  2.2201  1.2955  0.3951
  383TMC3    H1 5731   1.532   4.530  17.657 -0.9196  1.4682 -0.9253
  383TMC3    H2 5732   1.151   4.505  17.444  0.6641 -1.1126  0.5491
  383TMC3    C7 5733   1.287   4.629  17.636  0.0871 -0.2107  0.0788
  383TMC3    C8 5734   1.212   4.295  17.305 -0.6726 -0.0872  0.0383
  383TMC3    O1 5735   1.193   4.686  17.582 -0.4029 -0.2483 -0.2793
  383TMC3    O2 5736   1.102   4.340  17.290 -0.6311 -0.1857  0.6460
  384MPD2     C 5737   3.641   1.174  12.027 -0.3413  0.1047 -0.3660
  384MPD2    C1 5738   3.639   1.047  12.094 -0.5253 -0.4411  0.1480
  384MPD2    C2 5739   3.742   0.958  12.059 -0.4272 -0.9041  0.6440
  384MPD2    C3 5740   3.832   1.004  11.958  0.1907 -0.3407 -0.2383
  384MPD2    C4 5741   3.831   1.127  11.891  0.1542 -0.2701 -0.4338
  384MPD2    C5 5742   3.738   1.217  11.934 -0.0352 -0.1351  0.1060
  384MPD2     H 5743   3.753   0.868  12.118  1.8115 -0.4386  0.9545
  384MPD2    H1 5744   3.899   1.165  11.815  0.6373 -2.4128 -1.0682
  384MPD2    H2 5745   3.577   1.251  12.066 -0.2041  1.7147 -3.3025
  384MPD2    H3 5746   3.730   1.316  11.889 -2.8623 -0.9516 -1.2019
  384MPD2     N 5747   3.930   0.907  11.926  0.5254  0.1096  0.3405
  384MPD2    H5 5748   3.923   0.817  11.971 -0.6277 -0.0638 -0.1941
  384MPD2    N1 5749   3.540   1.006  12.186  0.1212 -0.2832 -0.3719
  384MPD2    H7 5750   3.542   0.911  12.220  1.8050  0.4288  1.5680
  385TMC3    C1 5751   4.091   0.784  11.816 -0.6888 -0.1423 -0.2098
  385TMC3    C2 5752   4.089   0.738  11.685 -0.2562 -0.2017  0.7124
  385TMC3    C3 5753   4.047   0.612  11.652  0.4702 -0.4437  0.0055
  385TMC3    C4 5754   4.059   0.700  11.914 -0.2776 -0.1757 -0.4027
  385TMC3    C5 5755   3.996   0.583  11.877 -0.0362 -0.9905 -0.5676
  385TMC3    C6 5756   3.979   0.540  11.749 -0.8830  0.4227 -0.0307
  385TMC3     C 5757   4.027   0.914  11.825  0.2223 -0.4274  0.1371
  385TMC3     O 5758   4.058   0.997  11.741 -0.3272  0.5620 -0.0847
  385TMC3     H 5759   4.124   0.806  11.609 -0.9538  1.3496  1.7671
  385TMC3    H1 5760   4.066   0.735  12.017  1.2330 -0.4019 -0.4291
  385TMC3    H2 5761   3.945   0.439  11.727  1.5169 -0.5613  0.7849
  385TMC3    C7 5762   3.880   0.566  11.956  0.6362  0.5311  0.2367
  385TMC3    C8 5763   4.076   0.557  11.522 -0.0929 -0.4920  0.0835
  385TMC3    O1 5764   3.844   0.663  12.022 -0.0135 -0.2169 -0.4166
  385TMC3    O2 5765   4.155   0.628  11.462 -0.0428  0.5730 -0.0531
  386TMC3    C1 5766   4.381   3.002  11.581  0.1377  0.4671  0.5490
  386TMC3    C2 5767   4.352   3.048  11.454  0.2432 -0.3813  0.2726
  386TMC3    C3 5768   4.290   2.954  11.373  0.4761  0.5611  0.1929
  386TMC3    C4 5769   4.315   2.905  11.650  0.6289 -0.2867  0.9644
  386TMC3    C5 5770   4.230   2.831  11.566 -0.7128 -0.8604  0.1504
  386TMC3    C6 5771   4.234   2.840  11.430 -0.6739  0.0235  0.4463
  386TMC3     C 5772   4.488   3.077  11.647  0.7179  0.1226 -0.4400
  386TMC3     O 5773   4.503   3.190  11.607 -0.2952 -0.2787 -0.0593
  386TMC3     H 5774   4.375   3.148  11.419 -0.0414 -0.1453  0.7568
  386TMC3    H1 5775   4.310   2.886  11.757  0.6838 -0.5626  0.9177
  386TMC3    H2 5776   4.177   2.771  11.368 -2.1084  1.5742  0.0577
  386TMC3    C7 5777   4.097   2.848  11.617  0.1291 -0.1820 -0.1140
  386TMC3    C8 5778   4.179   3.021  11.305  0.2469  0.1813 -0.4572
  386TMC3    O1 5779   4.085   2.924  11.714 -0.3187  0.0084  0.0910
  386TMC3    O2 5780   4.139   3.128  11.350 -0.1629  0.1347  0.0995
  387MPD2     C 5781   2.439   3.208   9.196 -0.0616  0.5223  0.0438
  387MPD2    C1 5782   2.376   3.263   9.303 -0.6935  0.1644  0.2487
  387MPD2    C2 5783   2.265   3.203   9.359 -0.0885  0.4588  0.2695
  387MPD2    C3 5784   2.215   3.088   9.302 -0.0341  0.4886  0.0335
  387MPD2    C4 5785   2.277   3.026   9.193 -0.4033  0.4016  0.3805
  387MPD2    C5 5786   2.384   3.095   9.137  0.2276  0.6059 -0.3539
  387MPD2     H 5787   2.223   3.244   9.451 -2.0085  0.9822 -0.8364
  387MPD2    H1 5788   2.256   2.930   9.148  0.1433 -0.2205  1.4545
  387MPD2    H2 5789   2.525   3.253   9.147  1.0792 -0.6513  0.9975
  387MPD2    H3 5790   2.436   3.051   9.053 -1.0690  1.0482 -1.3820
  387MPD2     N 5791   2.110   3.020   9.376 -0.2477 -0.0080 -0.1882
  387MPD2    H5 5792   2.087   3.058   9.467 -1.6247 -1.3378  0.0139
  387MPD2    N1 5793   2.430   3.368   9.383  0.3307 -0.2664 -0.4458
  387MPD2    H7 5794   2.374   3.402   9.460  2.9161  1.3723  0.7392
  388TMC3    C1 5795   2.597   3.473   9.498  0.5752  0.6302  0.0301
  388TMC3    C2 5796   2.709   3.553   9.495 -0.4487  0.2187 -0.6589
  388TMC3    C3 5797   2.773   3.577   9.617 -0.5583  0.4973  0.0765
  388TMC3    C4 5798   2.560   3.412   9.610  0.0131  0.5264 -0.4444
  388TMC3    C5 5799   2.629   3.438   9.725 -0.1125  0.5830  0.4780
  388TMC3    C6 5800   2.726   3.536   9.736 -0.2365 -0.0283  0.4242
  388TMC3     C 5801   2.562   3.409   9.379  0.1744 -0.2928  0.1611
  388TMC3     O 5802   2.645   3.396   9.293  0.0643 -0.2292  0.7480
  388TMC3     H 5803   2.740   3.597   9.400 -0.9579  2.1336  0.0586
  388TMC3    H1 5804   2.489   3.330   9.606 -1.4064  1.8538 -2.5247
  388TMC3    H2 5805   2.775   3.572   9.826 -0.4079 -1.7195  1.1952
  388TMC3    C7 5806   2.576   3.384   9.850 -0.8259  0.5249  0.4612
  388TMC3    C8 5807   2.879   3.666   9.620 -0.1562 -0.0469  0.0860
  388TMC3    O1 5808   2.583   3.447   9.954  0.3258 -0.3278  0.7791
  388TMC3    O2 5809   2.876   3.746   9.715  0.3419 -0.0031 -0.6871
  389MPD2     C 5810   1.103   1.489  10.681  0.4886 -0.5100 -0.1876
  389MPD2    C1 5811   0.992   1.461  10.611 -0.2963  0.1160  0.7069
  389MPD2    C2 5812   0.876   1.422  10.686 -0.7704 -0.6507 -0.1172
  389MPD2    C3 5813   0.880   1.407  10.825 -0.5279 -0.1089  0.1710
  389MPD2    C4 5814   0.998   1.437  10.892 -0.3229  0.0585  0.5879
  389MPD2    C5 5815   1.106   1.474  10.816 -0.1692 -0.0917 -0.4090
  389MPD2     H 5816   0.781   1.403  10.639 -0.2992 -1.7050 -0.6290
  389MPD2    H1 5817   1.009   1.439  11.000 -1.3810 -2.8636  0.7405
  389MPD2    H2 5818   1.195   1.525  10.635 -0.0446  2.8078  1.3823
  389MPD2    H3 5819   1.192   1.508  10.873 -0.2866  0.7248 -0.7204
  389MPD2     N 5820   0.775   1.360  10.904  0.3024 -0.0253  0.3025
  389MPD2    H5 5821   0.785   1.363  11.005  1.7558  2.1274  0.0833
  389MPD2    N1 5822   1.008   1.487  10.475 -0.3677 -0.1627 -1.3260
  389MPD2    H7 5823   1.102   1.510  10.442  0.7339 -1.6362  0.7949
  390TMC3    C1 5824   0.588   1.249  10.973 -0.3914 -0.6304 -0.8971
  390TMC3    C2 5825   0.520   1.130  10.977 -0.3932  0.0841  0.1174
  390TMC3    C3 5826   0.441   1.111  11.089  0.6228 -0.2648  0.2245
  390TMC3    C4 5827   0.564   1.345  11.070 -0.5201  0.3334  0.3968
  390TMC3    C5 5828   0.477   1.325  11.169  0.1500  0.5161  0.1720
  390TMC3    C6 5829   0.408   1.208  11.183 -0.7605 -0.2752 -0.1199
  390TMC3     C 5830   0.680   1.273  10.862 -0.5428 -0.5458 -0.4659
  390TMC3     O 5831   0.662   1.211  10.757  0.3160  0.3231 -0.1934
  390TMC3     H 5832   0.532   1.053  10.902  0.1326  1.5703 -1.3263
  390TMC3    H1 5833   0.616   1.440  11.074 -0.7592  0.4583  0.5360
  390TMC3    H2 5834   0.328   1.192  11.254  0.6303  0.7592  1.6559
  390TMC3    C7 5835   0.433   1.440  11.252  0.7029  0.1611 -0.6843
  390TMC3    C8 5836   0.364   0.987  11.097 -0.0990  0.0406  0.1623
  390TMC3    O1 5837   0.464   1.555  11.227  0.4012  0.1524  0.5081
  390TMC3    O2 5838   0.349   0.927  10.994 -0.6951 -0.1749  0.2218
  391MPD2     C 5839   4.432   2.717  11.160 -0.5030 -0.1796 -0.0583
  391MPD2    C1 5840   4.523   2.810  11.145  0.1048  0.3904 -0.2781
  391MPD2    C2 5841   4.544   2.865  11.017  0.4488 -0.3199 -0.1840
  391MPD2    C3 5842   4.464   2.835  10.914  0.0846 -0.0346  0.3591
  391MPD2    C4 5843   4.370   2.738  10.929  0.0536  0.3193 -0.2040
  391MPD2    C5 5844   4.355   2.685  11.053  0.0563  0.4138  0.1341
  391MPD2     H 5845   4.602   2.950  10.985  1.7312 -1.7539 -1.6759
  391MPD2    H1 5846   4.310   2.699  10.847  3.0243 -0.8285 -1.8434
  391MPD2    H2 5847   4.414   2.666  11.254 -0.0665 -2.3882 -1.1732
  391MPD2    H3 5848   4.270   2.620  11.071  0.7229 -1.0250 -1.9927
  391MPD2     N 5849   4.500   2.892  10.791  0.5351 -0.5732 -0.4846
  391MPD2    H5 5850   4.578   2.956  10.792 -0.2189  0.3540 -0.8149
  391MPD2    N1 5851   4.598   2.835  11.262 -0.0146 -0.2747 -0.6311
  391MPD2    H7 5852   4.565   2.780  11.341 -0.9125 -1.2665 -1.6994
  392TMC3    C1 5853   4.499   2.970  10.565  0.5656 -0.3487  0.9101
  392TMC3    C2 5854   4.424   2.994  10.453 -0.6374 -0.1313  0.2757
  392TMC3    C3 5855   4.499   3.036  10.342 -0.2553  0.7191 -0.6086
  392TMC3    C4 5856   4.634   2.990  10.568  0.2683  0.0018  0.0460
  392TMC3    C5 5857   4.695   3.042  10.462  0.4161 -0.7042  0.1567
  392TMC3    C6 5858   4.630   3.061  10.343  0.1146  0.5471  0.5186
  392TMC3     C 5859   4.434   2.884  10.670 -0.5480 -0.0420 -0.2011
  392TMC3     O 5860   4.319   2.843  10.649 -0.2968  0.3460 -0.3393
  392TMC3     H 5861   4.319   2.970  10.441  0.0174 -2.1815 -1.3018
  392TMC3    H1 5862   4.695   2.957  10.651  0.7826 -1.1391 -0.7719
  392TMC3    H2 5863   4.683   3.089  10.253 -1.3188  2.2451  0.2069
  392TMC3    C7 5864   0.110   3.092  10.483  0.5138  0.0651  0.0491
  392TMC3    C8 5865   4.446   2.991  10.222 -0.3693  0.4813 -0.3792
  392TMC3    O1 5866   0.134   3.107  10.604 -0.0805  0.2186  0.1302
  392TMC3    O2 5867   4.387   2.886  10.226  0.1718 -0.1934  0.0235
  393TMC3    C1 5868   3.854   0.723  10.568  0.2481 -0.0153 -0.1023
  393TMC3    C2 5869   3.749   0.806  10.554 -0.0169 -0.0249 -0.6411
  393TMC3    C3 5870   3.759   0.930  10.608 -0.4288  0.4211  0.3759
  393TMC3    C4 5871   3.975   0.767  10.612  0.2697  0.0636 -0.2025
  393TMC3    C5 5872   3.982   0.889  10.672 -0.1847  0.5233 -1.1166
  393TMC3    C6 5873   3.874   0.975  10.670 -0.4449 -0.6277  0.5345
  393TMC3     C 5874   3.856   0.617  10.471 -0.0237 -0.2579 -0.0556
  393TMC3     O 5875   3.944   0.627  10.390  0.6050  0.0023 -0.3241
  393TMC3     H 5876   3.661   0.769  10.502 -0.6638 -0.7368  0.9562
  393TMC3    H1 5877   4.059   0.699  10.606  0.0838 -0.1903  0.0862
  393TMC3    H2 5878   3.887   1.071  10.718 -1.3822 -0.6124  0.7697
  393TMC3    C7 5879   4.108   0.940  10.716  0.0176 -0.0389 -0.0200
  393TMC3    C8 5880   3.659   1.027  10.556 -0.0214  0.6148 -0.0285
  393TMC3    O1 5881   4.119   1.030  10.797 -0.6368 -0.1107 -0.1992
  393TMC3    O2 5882   3.582   1.005  10.462 -0.4635 -0.3422 -0.2444
  394TMC3    C1 5883   0.928   1.563  10.268  0.1036  0.1544 -0.4218
  394TMC3    C2 5884   0.824   1.557  10.181 -0.0280 -0.0490 -0.5307
  394TMC3    C3 5885   0.817   1.653  10.089 -0.0505 -0.7509  0.1220
  394TMC3    C4 5886   1.016   1.667  10.269  0.2840  0.1631  0.1862
  394TMC3    C5 5887   1.007   1.753  10.160 -0.0955  0.7526  0.1490
  394TMC3    C6 5888   0.908   1.750  10.070  0.7211 -0.4266  0.7056
  394TMC3     C 5889   0.899   1.501  10.397 -0.0440  0.1221 -0.1661
  394TMC3     O 5890   0.781   1.496  10.433 -0.0120 -0.4540  0.4494
  394TMC3     H 5891   0.756   1.473  10.179 -2.0100  1.5293  1.5720
  394TMC3    H1 5892   1.075   1.693  10.356 -1.2388  0.0702  1.2489
  394TMC3    H2 5893   0.894   1.830   9.998 -0.2306 -1.5575 -0.3795
  394TMC3    C7 5894   1.126   1.832  10.126 -0.4802  0.0143 -0.2467
  394TMC3    C8 5895   0.718   1.640   9.984 -0.1494  0.1424 -0.2990
  394TMC3    O1 5896   1.104   1.904  10.032 -0.4795 -0.0331 -0.5179
  394TMC3    O2 5897   0.647   1.734   9.949 -0.0557 -0.6278  0.6702
  395TMC3    C1 5898   0.223   3.571  14.773 -0.2013 -0.2636 -0.1205
  395TMC3    C2 5899   0.101   3.630  14.771 -0.3763  0.1826 -0.7117
  395TMC3    C3 5900   0.091   3.765  14.789 -0.2752  0.1743  0.6713
  395TMC3    C4 5901   0.336   3.649  14.776  0.0954 -0.2371 -0.0631
  395TMC3    C5 5902   0.325   3.783  14.777 -0.0126 -0.3584  0.2776
  395TMC3    C6 5903   0.203   3.842  14.772  0.4784 -1.1470  0.5752
  395TMC3     C 5904   0.238   3.446  14.830 -0.0393  0.8153  0.2660
  395TMC3     O 5905   0.167   3.357  14.788 -0.1893 -0.1109  0.1889
  395TMC3     H 5906   0.011   3.571  14.756 -1.0050  0.9577 -0.0107
  395TMC3    H1 5907   0.436   3.606  14.775 -0.1054 -0.7013 -0.4745
  395TMC3    H2 5908   0.197   3.950  14.781  1.1494 -1.0028 -0.6819
  395TMC3    C7 5909   0.430   3.878  14.756  0.0983 -0.9125  0.5897
  395TMC3    C8 5910   0.020   3.812  14.908 -0.6147 -0.5760 -0.1483
  395TMC3    O1 5911   0.400   3.994  14.761 -0.3028 -0.0294 -0.3042
  395TMC3    O2 5912   0.010   3.932  14.930  0.4559 -0.1876  0.0069
  396MPD2     C 5913   0.032   4.497  16.903 -0.0330  0.5620 -0.4438
  396MPD2    C1 5914   0.097   4.603  16.954 -0.3976 -0.3855 -0.2838
  396MPD2    C2 5915   0.182   4.674  16.869 -0.2042  0.1297 -0.1281
  396MPD2    C3 5916   0.206   4.639  16.736  0.1615 -0.1843 -0.3349
  396MPD2    C4 5917   0.140   4.523  16.688  0.3916 -0.9875  0.6179
  396MPD2    C5 5918   0.052   4.455  16.772 -0.1483 -0.1228 -0.4535
  396MPD2     H 5919   0.245   0.029  16.912 -0.9445  0.3413  0.5878
  396MPD2    H1 5920   0.140   4.484  16.587  1.0689 -0.7663  0.5314
  396MPD2    H2 5921   4.678   4.441  16.959  0.1026  0.1873 -0.6358
  396MPD2    H3 5922   4.705   4.376  16.745 -1.0081  0.2926  0.4940
  396MPD2     N 5923   0.295   4.715  16.660  0.5393 -0.4700  0.1966
  396MPD2    H5 5924   0.345   0.066  16.710  0.6409 -1.7322  1.9138
  396MPD2    N1 5925   0.083   4.613  17.092 -0.3837 -0.5842 -0.4196
  396MPD2    H7 5926   0.041   4.539  17.148  1.4045 -3.0213 -2.3015
  397TMC3    C1 5927   0.228   4.651  17.262  0.2014  0.0460  0.1479
  397TMC3    C2 5928   0.343   4.627  17.189 -0.2172  0.4819 -0.5301
  397TMC3    C3 5929   0.411   4.512  17.203 -0.2299  0.2468 -0.0352
  397TMC3    C4 5930   0.180   4.552  17.342  0.3233  0.0326 -0.7910
  397TMC3    C5 5931   0.258   4.444  17.367 -0.0148 -0.0448  0.1870
  397TMC3    C6 5932   0.369   4.415  17.294 -0.8534  0.8408  0.9209
  397TMC3     C 5933   0.138   4.713  17.171  0.4927  0.1198  0.1957
  397TMC3     O 5934   0.168   0.107  17.138 -0.3586  0.0871  0.8016
  397TMC3     H 5935   0.356   4.698  17.107  0.8306  1.5203  0.5293
  397TMC3    H1 5936   0.101   4.578  17.412 -0.6338 -0.7396 -1.5820
  397TMC3    H2 5937   0.434   4.332  17.319 -0.5916  0.4773 -0.9133
  397TMC3    C7 5938   0.212   4.340  17.464  0.2088 -0.8561  0.7054
  397TMC3    C8 5939   0.470   4.459  17.077  0.7235  0.4674 -0.4073
  397TMC3    O1 5940   0.290   4.253  17.506  0.0618  0.2546 -0.0532
  397TMC3    O2 5941   0.449   4.343  17.054 -0.2665  0.3583 -0.2400
  398MPD2     C 5942   3.031   0.315   0.323 -0.1020  0.2051 -0.3083
  398MPD2    C1 5943   3.138   0.297   0.410 -0.6152  0.1372 -1.1320
  398MPD2    C2 5944   3.204   0.408   0.447  0.1873 -0.4525  0.8932
  398MPD2    C3 5945   3.167   0.535   0.414 -0.2097 -0.1777  0.4976
  398MPD2    C4 5946   3.063   0.551   0.321  0.1299 -0.2190  0.1872
  398MPD2    C5 5947   3.003   0.437   0.273 -0.2527 -0.3107  0.5532
  398MPD2     H 5948   3.284   0.395   0.519 -0.1449  0.7190  1.4701
  398MPD2    H1 5949   3.033   0.648   0.284  0.1322 -1.1419 -2.1982
  398MPD2    H2 5950   2.966   0.235   0.289  0.6797 -1.5961  2.4128
  398MPD2    H3 5951   2.928   0.456   0.197 -2.1607  0.4806  2.5975
  398MPD2     N 5952   3.233   0.642   0.475  0.8344  0.1866  0.1943
  398MPD2    H5 5953   3.312   0.620   0.535  1.3979  0.4035 -0.4662
  398MPD2    N1 5954   3.179   0.170   0.463 -0.1998 -0.2181 -0.0847
  398MPD2    H7 5955   3.257   0.164   0.528  2.1232  0.8470 -2.7819
  399TMC3    C1 5956   3.182   4.663   0.494  0.3400 -0.1075 -0.2019
  399TMC3    C2 5957   3.299   4.678   0.565 -0.1440 -0.0869  0.6615
  399TMC3    C3 5958   3.360   4.569   0.609 -0.3794 -0.0952  0.3989
  399TMC3    C4 5959   3.135   4.541   0.462  0.2267  0.3594 -0.4224
  399TMC3    C5 5960   3.197   4.430   0.520 -0.6686 -0.2577 -0.6418
  399TMC3    C6 5961   3.305   4.443   0.605 -0.3039 -0.4558 -0.5484
  399TMC3     C 5962   3.115   0.055   0.432  0.0497 -0.5570  1.1144
  399TMC3     O 5963   3.017   0.033   0.361 -0.0959 -0.3982 -0.2544
  399TMC3     H 5964   3.350   0.052   0.580 -1.9448  0.6475  2.1433
  399TMC3    H1 5965   3.056   4.519   0.392 -1.9794  0.4229  2.0384
  399TMC3    H2 5966   3.349   4.349   0.636  1.4714  0.2092 -1.0795
  399TMC3    C7 5967   3.144   4.293   0.507  1.2357  0.3647 -0.7950
  399TMC3    C8 5968   3.498   4.577   0.647 -0.6689 -0.3072  0.5524
  399TMC3    O1 5969   3.134   4.226   0.607  0.3099 -0.2747  0.4817
  399TMC3    O2 5970   3.554   4.682   0.619  0.0228  0.4077  1.0927
  400TMC3    C1 5971   1.441   3.630  16.999 -0.1527 -0.7373 -0.0154
  400TMC3    C2 5972   1.340   3.634  16.908  0.1284  0.5739 -0.1136
  400TMC3    C3 5973   1.313   3.751  16.845  0.3099  0.3197  0.4012
  400TMC3    C4 5974   1.523   3.738  17.021 -0.4228  0.5968  0.1792
  400TMC3    C5 5975   1.485   3.856  16.965 -0.3518  0.4919 -0.4237
  400TMC3    C6 5976   1.379   3.864  16.876  0.2851 -0.1210  0.1690
  400TMC3     C 5977   1.401   3.556  17.118  0.1357 -0.7128 -0.3937
  400TMC3     O 5978   1.282   3.529  17.129 -0.0308 -0.0534  0.1447
  400TMC3     H 5979   1.268   3.553  16.910 -0.2211  0.8613 -0.9897
  400TMC3    H1 5980   1.611   3.738  17.085  3.3887  2.1104 -5.0464
  400TMC3    H2 5981   1.340   3.958  16.839 -0.3685 -1.0686 -1.5337
  400TMC3    C7 5982   1.563   3.971  17.004  0.4203 -0.2618  0.4558
  400TMC3    C8 5983   1.197   3.764  16.756 -0.2119 -0.6324 -0.6341
  400TMC3    O1 5984   1.666   3.947  17.064  0.2347  0.3808 -0.4330
  400TMC3    O2 5985   1.159   3.876  16.732 -0.0767 -0.0931  0.0030
  401MPD2     C 5986   4.315   2.825   1.030 -0.6877 -1.3491  0.5060
  401MPD2    C1 5987   4.371   2.787   0.904 -0.0241 -0.3388  0.4091
  401MPD2    C2 5988   4.430   2.667   0.897 -0.1644 -0.0157  0.2161
  401MPD2    C3 5989   4.429   2.576   1.010  0.3382  0.7444 -0.1390
  401MPD2    C4 5990   4.365   2.615   1.128  0.2622  1.2544  0.2609
  401MPD2    C5 5991   4.305   2.737   1.133 -1.0343  0.2241 -0.3662
  401MPD2     H 5992   4.472   2.639   0.801  0.2869 -0.7683  0.6352
  401MPD2    H1 5993   4.370   2.550   1.215 -1.2771 -1.7017 -1.8409
  401MPD2    H2 5994   4.256   2.915   1.045  2.0365  0.1557  2.1601
  401MPD2    H3 5995   4.252   2.756   1.226 -0.7412  2.8580 -0.7322
  401MPD2     N 5996   4.503   2.456   0.995 -0.0224  0.8141 -0.3830
  401MPD2    H5 5997   4.541   2.442   0.902  0.7936 -0.6974  0.1815
  401MPD2    N1 5998   4.367   2.867   0.792  0.1957  0.2702  0.2273
  401MPD2    H7 5999   4.434   2.838   0.721 -0.3754 -0.6793  0.0667
  402TMC3    C1 6000   4.595   2.242   1.035 -1.1973 -0.0547 -0.7074
  402TMC3    C2 6001   4.632   2.156   1.133  0.3450 -0.1920  0.1867
  402TMC3    C3 6002   0.015   2.072   1.098 -0.9543 -0.1585  0.3587
  402TMC3    C4 6003   4.644   2.244   0.908 -0.7145 -0.3473 -0.2461
  402TMC3    C5 6004   0.018   2.157   0.874  0.7092 -0.1886  0.0124
  402TMC3    C6 6005   0.066   2.067   0.966  0.4524  0.4651  0.2069
  402TMC3     C 6006   4.510   2.348   1.085  0.0603 -0.4217 -0.2945
  402TMC3     O 6007   4.474   2.352   1.202  0.1138 -0.1742 -0.7015
  402TMC3     H 6008   4.592   2.155   1.234  1.5171  1.6512  0.6589
  402TMC3    H1 6009   4.615   2.304   0.823 -2.3685  0.2606  0.7512
  402TMC3    H2 6010   0.142   1.993   0.946  1.4127  1.1850  1.1666
  402TMC3    C7 6011   0.092   2.178   0.756  0.2947  0.1447 -0.3212
  402TMC3    C8 6012   0.058   1.961   1.185  1.0282  0.6249 -0.3726
  402TMC3    O1 6013   0.048   2.270   0.682 -0.1858  0.2144 -0.1555
  402TMC3    O2 6014   0.128   1.869   1.138 -0.5413  0.6484 -0.7519
  403MPD2     C 6015   2.686   1.001  13.481  0.2516 -0.0956  0.6343
  403MPD2    C1 6016   2.764   0.885  13.494 -0.2434  0.1667 -0.2064
  403MPD2    C2 6017   2.828   0.872  13.612 -0.0816  0.3951 -0.7387
  403MPD2    C3 6018   2.818   0.963  13.715  0.1522  0.0618 -0.8505
  403MPD2    C4 6019   2.726   1.063  13.705 -0.7290 -0.2308 -0.0504
  403MPD2    C5 6020   2.662   1.079  13.586  0.0172  0.4975  0.5825
  403MPD2     H 6021   2.896   0.788  13.625  0.2437  0.6491 -0.7948
  403MPD2    H1 6022   2.697   1.129  13.786 -1.4925  0.4960 -0.9154
  403MPD2    H2 6023   2.638   1.031  13.388  0.5257  1.0103  0.8506
  403MPD2    H3 6024   2.591   1.161  13.582 -1.1554 -0.5224  0.6096
  403MPD2     N 6025   2.896   0.929  13.825  0.3087  0.5570  0.3413
  403MPD2    H5 6026   2.959   0.850  13.817  0.5009  0.8724 -1.3449
  403MPD2    N1 6027   2.787   0.785  13.398  0.1060  0.4412  0.5235
  403MPD2    H7 6028   2.847   0.710  13.430  0.0382 -0.4882 -1.5065
  404TMC3    C1 6029   2.730   0.661  13.206  0.5043 -0.4725 -0.1219
  404TMC3    C2 6030   2.720   0.544  13.278 -0.0147  0.9761  0.0028
  404TMC3    C3 6031   2.707   0.428  13.209 -0.1281  0.7387 -0.1466
  404TMC3    C4 6032   2.712   0.657  13.065  0.0393  0.7759 -0.0848
  404TMC3    C5 6033   2.673   0.538  13.009  1.6788 -0.2676 -0.2473
  404TMC3    C6 6034   2.679   0.423  13.073  0.5900 -0.6033  0.0919
  404TMC3     C 6035   2.733   0.789  13.272 -0.5428 -0.3309 -0.1383
  404TMC3     O 6036   2.701   0.891  13.208 -0.3326  0.0914  0.6079
  404TMC3     H 6037   2.729   0.551  13.385  1.2484 -1.3071  0.0565
  404TMC3    H1 6038   2.701   0.754  13.017 -0.4000  0.3434 -0.8745
  404TMC3    H2 6039   2.668   0.330  13.018  1.9669 -1.7353  1.7213
  404TMC3    C7 6040   2.684   0.546  12.863  0.2598 -0.3979 -0.5218
  404TMC3    C8 6041   2.724   0.300  13.275 -0.6084  0.2421 -0.3910
  404TMC3    O1 6042   2.741   0.638  12.811 -0.2611 -0.1252  0.5186
  404TMC3    O2 6043   2.784   0.209  13.220 -0.5601  0.4110  0.5508
  405MPD2     C 6044   3.354   2.303  14.978  1.1755 -1.1377  0.2975
  405MPD2    C1 6045   3.392   2.320  14.844 -0.4444  0.1224  0.4643
  405MPD2    C2 6046   3.282   2.323  14.755 -0.0912  0.4793 -0.6717
  405MPD2    C3 6047   3.153   2.304  14.803 -1.3750  0.3415 -0.8156
  405MPD2    C4 6048   3.130   2.283  14.940  0.3208 -0.2911  0.3322
  405MPD2    C5 6049   3.228   2.292  15.028  0.3309  0.1414  0.0895
  405MPD2     H 6050   3.284   2.341  14.648 -1.9591  0.3429 -0.7318
  405MPD2    H1 6051   3.034   2.268  14.987 -0.7738 -0.7768 -2.1193
  405MPD2    H2 6052   3.436   2.301  15.049  1.5223 -0.3059 -0.0741
  405MPD2    H3 6053   3.214   2.278  15.135  0.9654 -1.9615 -0.1020
  405MPD2     N 6054   3.060   2.270  14.712  0.3811  0.1424 -0.1219
  405MPD2    H5 6055   3.075   2.279  14.612  2.3775  0.1276  0.1847
  405MPD2    N1 6056   3.525   2.302  14.794  0.3279 -0.6810 -0.3409
  405MPD2    H7 6057   3.595   2.276  14.863  0.2688 -0.7768 -0.3166
  406TMC3    C1 6058   2.695   2.231  14.458  0.1011 -0.1588 -0.4025
  406TMC3    C2 6059   2.780   2.213  14.354  0.4061 -0.1068  0.2051
  406TMC3    C3 6060   2.911   2.181  14.376 -0.1159  0.5028 -0.6915
  406TMC3    C4 6061   2.742   2.223  14.589 -1.1282 -0.1523  0.2699
  406TMC3    C5 6062   2.872   2.179  14.614 -0.0161 -0.0967  0.3442
  406TMC3    C6 6063   2.956   2.155  14.503 -0.1811  0.0787  0.3080
  406TMC3     C 6064   2.562   2.275  14.426  0.2048  0.6166  0.6967
  406TMC3     O 6065   2.546   2.355  14.335  0.1678  0.3346  0.1165
  406TMC3     H 6066   2.745   2.237  14.254  1.0435 -1.0295 -0.2374
  406TMC3    H1 6067   2.681   2.236  14.678 -1.3054 -0.2222  0.1590
  406TMC3    H2 6068   3.053   2.108  14.516  0.1372  1.0603  1.5195
  406TMC3    C7 6069   2.929   2.225  14.735 -0.0192  0.1891  0.1225
  406TMC3    C8 6070   2.999   2.159  14.265  1.2951 -0.5071 -0.3344
  406TMC3    O1 6071   2.860   2.239  14.836  0.2631 -0.3349  0.1576
  406TMC3    O2 6072   2.947   2.092  14.174  0.3539 -0.1392  0.3110
  407MPD2     C 6073   1.429   2.838   9.161  0.4426 -0.1977 -0.2915
  407MPD2    C1 6074   1.509   2.784   9.260  0.9047  0.3462 -0.0888
  407MPD2    C2 6075   1.517   2.834   9.387 -0.6092 -0.0789  0.5958
  407MPD2    C3 6076   1.451   2.954   9.419  0.2532  0.5074 -0.3768
  407MPD2    C4 6077   1.371   3.005   9.323  0.2208 -0.1006 -0.1729
  407MPD2    C5 6078   1.364   2.954   9.200  0.3888 -0.4138  0.1724
  407MPD2     H 6079   1.577   2.780   9.459 -0.2730 -0.5439 -0.0408
  407MPD2    H1 6080   1.327   3.100   9.347  0.9257  0.0716  0.4368
  407MPD2    H2 6081   1.404   2.809   9.060 -0.0899  0.8224 -0.4565
  407MPD2    H3 6082   1.298   3.006   9.131 -0.5456 -1.2750  0.4154
  407MPD2     N 6083   1.440   3.007   9.550 -1.3119  0.8296  0.3065
  407MPD2    H5 6084   1.371   3.082   9.556 -0.5992  1.7933 -3.5518
  407MPD2    N1 6085   1.573   2.661   9.230 -0.2236 -0.3023 -0.7139
  407MPD2    H7 6086   1.624   2.618   9.307 -0.7862 -0.9713 -0.7075
  408TMC3    C1 6087   1.631   2.460   9.136 -0.3671 -0.7320  0.0031
  408TMC3    C2 6088   1.748   2.450   9.194  0.2489  0.4155 -0.2863
  408TMC3    C3 6089   1.816   2.329   9.195  0.2988 -0.0948  0.6205
  408TMC3    C4 6090   1.575   2.348   9.086 -0.4754  0.2250 -0.3206
  408TMC3    C5 6091   1.642   2.228   9.081  0.0253  0.0350 -0.0114
  408TMC3    C6 6092   1.762   2.219   9.143  0.0950  0.1982  0.4360
  408TMC3     C 6093   1.562   2.585   9.117  0.0885  0.4296  0.6469
  408TMC3     O 6094   1.492   2.594   9.018 -0.1539  0.2395  0.4390
  408TMC3     H 6095   1.780   2.545   9.235  2.5313 -0.0896 -0.9354
  408TMC3    H1 6096   1.470   2.348   9.060 -0.3840  0.7858 -0.6787
  408TMC3    H2 6097   1.817   2.126   9.154  0.8186  0.5767 -0.0232
  408TMC3    C7 6098   1.565   2.112   9.035  0.2615 -0.1009 -0.1365
  408TMC3    C8 6099   1.932   2.311   9.277  0.4781  0.2198 -0.2740
  408TMC3    O1 6100   1.469   2.133   8.962  0.0169 -0.0811  0.1678
  408TMC3    O2 6101   1.943   2.207   9.340 -0.2580  0.3435 -0.0649
  409MPD2     C 6102   0.195   3.526  16.803  0.8790 -0.4355  0.0135
  409MPD2    C1 6103   0.280   3.573  16.892  0.5871  0.0311 -0.0667
  409MPD2    C2 6104   0.347   3.690  16.866 -0.1742  0.0659  0.1602
  409MPD2    C3 6105   0.344   3.752  16.742  0.5375 -0.2760 -0.3369
  409MPD2    C4 6106   0.252   3.697  16.647  0.4357 -0.6787 -0.4582
  409MPD2    C5 6107   0.180   3.587  16.677  0.1741 -0.7612  0.0788
  409MPD2     H 6108   0.413   3.727  16.944  0.1230  0.7587 -0.4152
  409MPD2    H1 6109   0.238   3.752  16.554 -1.2600  0.5981  0.5563
  409MPD2    H2 6110   0.151   3.427  16.813 -0.6969  0.1750 -1.0244
  409MPD2    H3 6111   0.112   3.547  16.603  0.5595  0.4688 -0.9348
  409MPD2     N 6112   0.430   3.861  16.699 -0.2050  0.0446  0.2100
  409MPD2    H5 6113   0.427   3.882  16.599  2.1177  2.2569  0.6189
  409MPD2    N1 6114   0.318   3.494  17.005 -0.0112  0.1155 -0.1441
  409MPD2    H7 6115   0.377   3.535  17.077 -1.0704  0.5942  0.4547
  410TMC3    C1 6116   0.614   4.022  16.728 -0.0156 -0.6726  0.2604
  410TMC3    C2 6117   0.692   4.082  16.822  1.0207  0.2338 -0.3181
  410TMC3    C3 6118   0.805   4.147  16.780  0.2773 -0.2010  0.0730
  410TMC3    C4 6119   0.647   4.011  16.595  0.5054  0.1577  0.0906
  410TMC3    C5 6120   0.764   4.074  16.556 -0.7388  0.1290  0.0727
  410TMC3    C6 6121   0.848   4.144  16.650 -0.1988 -0.5314 -0.1345
  410TMC3     C 6122   0.513   3.933  16.787 -0.1661  0.0683  0.3207
  410TMC3     O 6123   0.524   3.918  16.906 -0.0323 -0.2093  0.1596
  410TMC3     H 6124   0.660   4.095  16.924 -0.7314 -1.9347 -0.6013
  410TMC3    H1 6125   0.585   3.960  16.523 -0.0975 -1.2745  1.6214
  410TMC3    H2 6126   0.945   4.184  16.622 -0.7508 -0.2237 -1.6333
  410TMC3    C7 6127   0.790   4.078  16.417 -0.2032  0.4107 -0.2418
  410TMC3    C8 6128   0.912   4.144  16.881  0.3558 -0.1077 -0.3213
  410TMC3    O1 6129   0.754   3.980  16.359 -0.1432 -0.6243 -0.8437
  410TMC3    O2 6130   0.993   4.234  16.888 -0.5940 -0.3393  0.0697
  411MPD2     C 6131   0.942   0.293  14.430 -0.9195 -0.5588  0.1325
  411MPD2    C1 6132   0.856   0.224  14.511 -0.3750  0.4801 -0.5806
  411MPD2    C2 6133   0.826   0.090  14.495  0.6174  0.1425 -0.2264
  411MPD2    C3 6134   0.889   0.018  14.392  0.1978  0.3323 -0.5523
  411MPD2    C4 6135   0.989   0.088  14.331  0.8458  1.1840 -0.3804
  411MPD2    C5 6136   1.017   0.222  14.341  0.5795  0.4561  0.7108
  411MPD2     H 6137   0.747   0.043  14.553  2.1328 -0.3661  1.4200
  411MPD2    H1 6138   1.042   0.032  14.255  0.2797  0.7350 -0.4469
  411MPD2    H2 6139   0.949   0.401  14.440 -0.9597 -0.4712 -0.7836
  411MPD2    H3 6140   1.086   0.283  14.283  1.7705  0.6757  2.3436
  411MPD2     N 6141   0.862   4.601  14.373 -0.0483  0.5616 -0.1030
  411MPD2    H5 6142   0.905   4.554  14.294  1.8643  0.1868  1.1762
  411MPD2    N1 6143   0.786   0.300  14.608  0.9422 -0.2996  0.0010
  411MPD2    H7 6144   0.781   0.401  14.611 -0.2873 -0.3907  0.7644
  412TMC3    C1 6145   0.731   4.405  14.364 -0.1395  0.2996 -0.5512
  412TMC3    C2 6146   0.678   4.304  14.438 -0.0317  0.5399 -0.0439
  412TMC3    C3 6147   0.646   4.194  14.376 -0.4324 -0.9919 -0.0437
  412TMC3    C4 6148   0.756   4.390  14.231 -0.4832  0.1987  0.8714
  412TMC3    C5 6149   0.730   4.267  14.170 -0.3064 -0.2575 -0.0267
  412TMC3    C6 6150   0.688   4.158  14.249 -0.6085  0.2566 -0.0802
  412TMC3     C 6151   0.757   4.532  14.438  0.1207  0.5591  0.4122
  412TMC3     O 6152   0.674   4.555  14.519  0.3219 -0.1257  0.1325
  412TMC3     H 6153   0.639   4.320  14.538 -1.7769 -2.7940 -0.2115
  412TMC3    H1 6154   0.788   4.476  14.175 -0.1694 -0.2018  0.4414
  412TMC3    H2 6155   0.668   4.062  14.204 -0.2537  1.5066 -2.8887
  412TMC3    C7 6156   0.652   4.256  14.040  0.1644 -0.1274  0.3023
  412TMC3    C8 6157   0.521   4.136  14.424  0.2596  0.4795 -0.1041
  412TMC3    O1 6158   0.550   4.181  14.041  0.0644 -0.3727  0.0093
  412TMC3    O2 6159   0.488   4.156  14.538  0.6057 -0.1525 -0.1003
  413MPD2     C 6160   1.832   2.436  15.399  0.0511  0.2594  0.5475
  413MPD2    C1 6161   1.835   2.507  15.282  0.2287  0.5864  0.4150
  413MPD2    C2 6162   1.957   2.528  15.217 -0.6243 -0.0932 -0.2593
  413MPD2    C3 6163   2.073   2.482  15.276  0.1761 -0.2243  0.0264
  413MPD2    C4 6164   2.061   2.400  15.385  0.1960  0.0332  0.3098
  413MPD2    C5 6165   1.946   2.387  15.457  0.5515  0.1603 -0.1067
  413MPD2     H 6166   1.966   2.566  15.116 -1.3760  1.6841  0.3559
  413MPD2    H1 6167   2.141   2.332  15.412  0.0156 -0.9619 -1.6943
  413MPD2    H2 6168   1.735   2.427  15.446 -0.8346  0.7226 -1.2314
  413MPD2    H3 6169   1.939   2.325  15.546  2.3960  2.5796  1.7254
  413MPD2     N 6170   2.199   2.509  15.218 -0.2876  0.3165 -0.4598
  413MPD2    H5 6171   2.196   2.550  15.125  2.3612 -0.5533 -0.9130
  413MPD2    N1 6172   1.712   2.541  15.223 -0.8043  0.1283  0.1346
  413MPD2    H7 6173   1.633   2.505  15.275 -0.4244 -1.8424 -0.6292
  414TMC3    C1 6174   2.437   2.501  15.202 -0.1666  0.1440  0.1443
  414TMC3    C2 6175   2.543   2.431  15.242  0.7677  0.0345  0.1264
  414TMC3    C3 6176   2.630   2.382  15.141  0.0854 -0.6675 -0.0711
  414TMC3    C4 6177   2.414   2.531  15.071 -0.2807  0.7043 -0.1763
  414TMC3    C5 6178   2.513   2.490  14.974 -0.3700  0.0330  0.3002
  414TMC3    C6 6179   2.607   2.404  15.004  0.5237 -0.6058  0.5228
  414TMC3     C 6180   2.317   2.494  15.287 -0.2215  0.0000  0.0646
  414TMC3     O 6181   2.332   2.469  15.407 -0.2907 -0.3431  0.7298
  414TMC3     H 6182   2.550   2.395  15.344  0.3091  0.3274  0.2591
  414TMC3    H1 6183   2.333   2.592  15.033 -0.2521 -0.0679 -1.4980
  414TMC3    H2 6184   2.671   2.356  14.930  0.6532  1.0448 -0.4341
  414TMC3    C7 6185   2.461   2.498  14.840  0.2795 -0.5211  0.2710
  414TMC3    C8 6186   2.743   2.302  15.182 -0.7153 -0.6616 -0.9929
  414TMC3    O1 6187   2.343   2.486  14.824  0.0155  0.8314  0.0344
  414TMC3    O2 6188   2.759   2.193  15.125  0.5191 -0.4423 -0.1019
  415TMC3    C1 6189   3.368   4.618   9.739 -0.0873 -0.1621 -0.6511
  415TMC3    C2 6190   3.455   4.661   9.648  0.9604 -0.3535  0.1862
  415TMC3    C3 6191   3.544   4.568   9.599  0.3628 -0.2233 -0.4279
  415TMC3    C4 6192   3.368   4.492   9.795  0.6215 -0.3516 -0.6001
  415TMC3    C5 6193   3.465   4.403   9.753 -0.1843  0.2998 -0.1523
  415TMC3    C6 6194   3.554   4.440   9.644  0.2498  0.2253 -0.3187
  415TMC3     C 6195   3.284   4.715   9.817  0.4450 -0.3859  0.4610
  415TMC3     O 6196   3.193   4.675   9.889  0.2472  0.2497 -0.3338
  415TMC3     H 6197   3.435   0.034   9.599  0.7826  0.6791  2.2625
  415TMC3    H1 6198   3.305   4.467   9.879 -0.2398  1.6577 -0.6334
  415TMC3    H2 6199   3.626   4.367   9.610  0.8159  1.6197 -2.1047
  415TMC3    C7 6200   3.508   4.293   9.837  0.6016 -0.2078  0.1237
  415TMC3    C8 6201   3.621   4.610   9.482 -0.1708  0.2294  0.6240
  415TMC3    O1 6202   3.616   4.246   9.808  0.5345 -0.4378  0.2449
  415TMC3    O2 6203   3.665   4.527   9.405  0.5926 -0.2337  0.3753
  416MPD2     C 6204   0.523   4.005  11.376 -0.1889  0.4056 -0.7270
  416MPD2    C1 6205   0.398   3.998  11.322  0.2836 -0.6933 -0.0178
  416MPD2    C2 6206   0.360   3.887  11.251  0.2747  0.0582  0.2712
  416MPD2    C3 6207   0.444   3.781  11.239 -0.2001 -0.1417 -0.2944
  416MPD2    C4 6208   0.571   3.793  11.290  0.3790 -0.1597  0.1084
  416MPD2    C5 6209   0.613   3.905  11.356 -0.8846 -0.2253 -0.0390
  416MPD2     H 6210   0.259   3.882  11.214 -0.9397 -1.7277  3.7709
  416MPD2    H1 6211   0.632   3.704  11.300 -1.0817 -1.2805 -0.9044
  416MPD2    H2 6212   0.549   4.098  11.426 -0.6388  0.5394 -0.7420
  416MPD2    H3 6213   0.708   3.916  11.409 -2.1728 -2.4990  2.7074
  416MPD2     N 6214   0.393   3.651  11.218 -0.3545 -0.2313  0.4423
  416MPD2    H5 6215   0.450   3.573  11.248 -0.5648  1.1091  4.3189
  416MPD2    N1 6216   0.311   4.106  11.343  0.2166  0.0922  0.5586
  416MPD2    H7 6217   0.340   4.165  11.420 -0.6422  1.7589 -0.3896
  417TMC3    C1 6218   0.106   4.236  11.340 -0.6044 -0.2371  0.4653
  417TMC3    C2 6219   0.112   4.260  11.476  0.8937 -0.1534 -0.2283
  417TMC3    C3 6220   0.017   4.347  11.532 -0.2933 -0.7032  1.0070
  417TMC3    C4 6221   0.016   4.300  11.265 -0.1268 -0.0788 -0.5790
  417TMC3    C5 6222   4.646   4.385  11.323  0.1169  0.3880  0.7489
  417TMC3    C6 6223   4.641   4.410  11.457  0.3016 -0.2647  0.0117
  417TMC3     C 6224   0.185   4.133  11.278  0.1325  0.1490  0.3159
  417TMC3     O 6225   0.133   4.068  11.189 -0.5167  0.3534 -0.0827
  417TMC3     H 6226   0.184   4.208  11.538 -0.8278 -0.6957  1.3132
  417TMC3    H1 6227   0.017   4.285  11.157 -0.2574 -3.5181 -0.0979
  417TMC3    H2 6228   4.561   4.468  11.503 -0.5387  0.5460 -2.4445
  417TMC3    C7 6229   4.540   4.436  11.238  0.1143 -0.4139 -0.1723
  417TMC3    C8 6230   0.027   4.381  11.670  0.1445  0.7637  0.1353
  417TMC3    O1 6231   4.556   4.445  11.118 -0.3914 -0.2679 -0.1601
  417TMC3    O2 6232   0.002   4.494  11.699 -0.1254 -0.4307  0.2943
  418TMC3    C1 6233   3.508   0.921   0.526  0.1544 -0.0509 -0.6397
  418TMC3    C2 6234   3.375   0.927   0.488  0.1796  0.2422  0.3364
  418TMC3    C3 6235   3.288   0.842   0.552  0.2729 -0.0090  0.1617
  418TMC3    C4 6236   3.540   0.855   0.641 -0.0450 -0.1450 -0.1844
  418TMC3    C5 6237   3.448   0.781   0.717 -0.8238 -0.4710 -0.4204
  418TMC3    C6 6238   3.316   0.774   0.669  0.0971 -0.3754 -0.6470
  418TMC3     C 6239   3.609   0.967   0.431 -0.2879  0.7031  0.4866
  418TMC3     O 6240   3.592   1.059   0.354  0.7406 -0.0745  0.7137
  418TMC3     H 6241   3.345   0.961   0.389 -0.8792 -1.5412  0.0522
  418TMC3    H1 6242   3.640   0.869   0.680 -0.7284  0.7515  1.2807
  418TMC3    H2 6243   3.237   0.725   0.726  0.4969 -0.8650 -0.5172
  418TMC3    C7 6244   3.466   0.709   0.843 -0.3385 -0.2541  0.2048
  418TMC3    C8 6245   3.196   0.776   0.467  0.5653  0.1611  0.9943
  418TMC3    O1 6246   3.385   0.621   0.868 -0.2410 -0.4346  0.1556
  418TMC3    O2 6247   3.135   0.840   0.378  0.5902  0.4565  0.2191
  419MPD2     C 6248   2.030   3.681  12.840  0.3427  0.1457  0.1778
  419MPD2    C1 6249   1.900   3.721  12.833  0.3036 -0.1943 -0.6631
  419MPD2    C2 6250   1.841   3.754  12.951 -0.4911  0.2928 -0.0335
  419MPD2    C3 6251   1.885   3.733  13.076  0.0215 -0.2171  1.0759
  419MPD2    C4 6252   2.016   3.682  13.081  0.0246 -0.0406  0.0087
  419MPD2    C5 6253   2.085   3.664  12.959  0.7672 -0.7819 -0.2848
  419MPD2     H 6254   1.751   3.811  12.932  0.0423  1.3622  0.6563
  419MPD2    H1 6255   2.070   3.671  13.175  0.4830  1.3197 -0.0896
  419MPD2    H2 6256   2.090   3.667  12.752 -1.3484  3.4520 -1.5158
  419MPD2    H3 6257   2.190   3.638  12.958  1.0103  0.1822  0.9580
  419MPD2     N 6258   1.806   3.755  13.185 -0.2285  0.0276  0.7936
  419MPD2    H5 6259   1.718   3.799  13.162 -0.4076 -1.8248 -1.9533
  419MPD2    N1 6260   1.835   3.731  12.710  0.3477  0.6700  0.7503
  419MPD2    H7 6261   1.744   3.775  12.715  0.5626  0.9951  1.9824
  420TMC3    C1 6262   1.725   3.742  13.407  0.1449  0.0682 -0.1069
  420TMC3    C2 6263   1.629   3.827  13.363  0.2885 -0.0296 -1.2732
  420TMC3    C3 6264   1.586   3.927  13.442  0.2894 -0.4031 -0.0989
  420TMC3    C4 6265   1.766   3.757  13.540 -0.3226 -0.1493  0.1046
  420TMC3    C5 6266   1.724   3.862  13.619  0.1388  0.2885 -0.4390
  420TMC3    C6 6267   1.635   3.951  13.570 -0.9773 -0.0434  0.4685
  420TMC3     C 6268   1.833   3.704  13.313 -0.2742  0.3487 -0.1827
  420TMC3     O 6269   1.932   3.654  13.367  0.0680 -0.0364  0.2816
  420TMC3     H 6270   1.591   3.823  13.262  2.1750 -2.8370 -1.8752
  420TMC3    H1 6271   1.849   3.697  13.575 -0.3251  0.9338  1.9564
  420TMC3    H2 6272   1.606   4.038  13.628 -1.3984  0.1160  0.0145
  420TMC3    C7 6273   1.759   3.858  13.757 -0.6674  0.1644 -0.2422
  420TMC3    C8 6274   1.464   4.000  13.402 -0.3717  0.1564  0.6975
  420TMC3    O1 6275   1.868   3.805  13.781  0.1491 -0.0211  0.3277
  420TMC3    O2 6276   1.374   3.939  13.350  0.2666 -0.1600 -0.0238
  421TMC3    C1 6277   2.986   0.943  14.052 -0.2301 -0.2411 -1.1366
  421TMC3    C2 6278   3.024   1.044  14.137 -0.6538  0.2415  0.1551
  421TMC3    C3 6279   3.149   1.040  14.194 -0.0004 -0.6538  0.1192
  421TMC3    C4 6280   3.054   0.833  14.034 -0.0995  0.1248 -0.0792
  421TMC3    C5 6281   3.175   0.824  14.102  0.1140 -0.1530  0.0977
  421TMC3    C6 6282   3.229   0.930  14.173 -0.0550 -0.6781  0.7607
  421TMC3     C 6283   2.890   0.992  13.950 -0.2938 -0.0972  0.3409
  421TMC3     O 6284   2.815   1.090  13.972 -0.8019  0.2202 -0.0333
  421TMC3     H 6285   2.964   1.134  14.136 -0.5679  0.2987  0.1295
  421TMC3    H1 6286   3.018   0.749  13.976  1.1965 -0.3285 -0.2164
  421TMC3    H2 6287   3.330   0.922  14.213 -0.2404 -1.4638  1.0835
  421TMC3    C7 6288   3.264   0.713  14.092 -0.3602  0.8355  0.0946
  421TMC3    C8 6289   3.228   1.167  14.187 -0.8309 -0.0048  0.3683
  421TMC3    O1 6290   3.365   0.718  14.165 -0.0968 -0.4069 -0.0621
  421TMC3    O2 6291   3.344   1.157  14.148  0.1397  0.6542  0.2687
  422TMC3    C1 6292   1.068   2.130  12.332  0.0262 -0.3682  0.0392
  422TMC3    C2 6293   1.050   2.239  12.418  0.0539 -0.1220  0.0839
  422TMC3    C3 6294   0.930   2.247  12.484 -0.4357  1.4255 -0.5749
  422TMC3    C4 6295   0.984   2.029  12.318  0.0504  0.8514  0.3016
  422TMC3    C5 6296   0.863   2.042  12.386 -0.2223 -0.7241  0.3723
  422TMC3    C6 6297   0.831   2.149  12.469 -0.1869  0.4844 -0.3375
  422TMC3     C 6298   1.179   2.134  12.239 -0.5491  0.7744 -0.0296
  422TMC3     O 6299   1.228   2.238  12.212  0.4691 -0.5373 -0.6420
  422TMC3     H 6300   1.116   2.325  12.414 -0.7490  0.6210  2.8595
  422TMC3    H1 6301   0.999   1.948  12.247  1.7426  2.5972 -1.2982
  422TMC3    H2 6302   0.744   2.149  12.533 -0.7955  0.9659 -1.1656
  422TMC3    C7 6303   0.783   1.920  12.400 -0.2784  0.0506 -0.2156
  422TMC3    C8 6304   0.915   2.362  12.570  0.9778 -0.0029 -0.0094
  422TMC3    O1 6305   0.846   1.816  12.380  0.5463  0.0835 -0.4184
  422TMC3    O2 6306   1.012   2.439  12.565  0.0923 -0.0294  0.4156
  423MPD2     C 6307   2.243   3.253   0.885  0.3629 -1.0113 -0.6400
  423MPD2    C1 6308   2.272   3.122   0.915  0.1679 -0.0573 -0.5137
  423MPD2    C2 6309   2.329   3.041   0.821 -0.4271 -0.5377 -1.2580
  423MPD2    C3 6310   2.391   3.100   0.707  0.4123 -0.2517 -0.1248
  423MPD2    C4 6311   2.361   3.232   0.683  0.8546 -0.0710 -0.7116
  423MPD2    C5 6312   2.289   3.307   0.771  0.2601 -0.6161 -0.4192
  423MPD2     H 6313   2.347   2.937   0.842  1.5038  0.1422  0.3990
  423MPD2    H1 6314   2.390   3.277   0.589 -0.2101  1.1141 -0.4638
  423MPD2    H2 6315   2.199   3.325   0.954  2.8688 -0.7056  0.6489
  423MPD2    H3 6316   2.277   3.411   0.744  3.2485 -0.4364 -1.0422
  423MPD2     N 6317   2.452   3.021   0.609 -0.4452  0.7072 -0.3840
  423MPD2    H5 6318   2.463   3.065   0.518  0.9370 -0.8299 -0.9704
  423MPD2    N1 6319   2.241   3.068   1.041 -0.0846 -0.3973 -0.4267
  423MPD2    H7 6320   2.280   2.978   1.065 -0.5464 -0.6033 -0.4338
  424TMC3    C1 6321   2.125   3.036   1.240 -1.0881  0.1509  0.4293
  424TMC3    C2 6322   2.215   2.939   1.275  0.7270 -0.2647  1.0199
  424TMC3    C3 6323   2.222   2.903   1.406 -0.2829  0.1203 -0.5025
  424TMC3    C4 6324   2.028   3.080   1.331 -0.1694  0.5065  0.1936
  424TMC3    C5 6325   2.031   3.031   1.455  0.4840 -0.3181 -0.1765
  424TMC3    C6 6326   2.132   2.945   1.503  0.5368  0.4901 -0.0150
  424TMC3     C 6327   2.145   3.121   1.123  0.3482 -0.6425  0.1650
  424TMC3     O 6328   2.090   3.228   1.119  0.3651 -0.0117 -0.4172
  424TMC3     H 6329   2.276   2.893   1.197 -1.2937 -0.6937 -0.3216
  424TMC3    H1 6330   1.956   3.155   1.299 -1.0415 -0.0530  0.8708
  424TMC3    H2 6331   2.150   2.915   1.605 -0.4792 -0.7804 -0.2130
  424TMC3    C7 6332   1.906   3.042   1.532 -0.0326  0.2237 -0.0152
  424TMC3    C8 6333   2.310   2.803   1.457  0.3330  0.5404 -0.4796
  424TMC3    O1 6334   1.815   3.095   1.473  0.5956 -0.6039 -0.3272
  424TMC3    O2 6335   2.313   2.766   1.577  0.6605  0.1543  0.9321
  425MPD2     C 6336   1.650   2.481  17.500  0.2035  0.3170 -0.0243
  425MPD2    C1 6337   1.575   2.398  17.426  0.4463 -0.7518  0.0436
  425MPD2    C2 6338   1.438   2.431  17.408  0.8870 -0.1442 -0.3220
  425MPD2    C3 6339   1.387   2.545  17.466 -0.2623 -0.2883  0.0435
  425MPD2    C4 6340   1.469   2.630  17.544  0.0396  0.2664 -0.4804
  425MPD2    C5 6341   1.597   2.590  17.564 -0.3505  0.6287 -0.4371
  425MPD2     H 6342   1.368   2.374  17.349  1.6643  0.8397 -2.2142
  425MPD2    H1 6343   1.441   2.720  17.596  1.4601  0.2327  0.3353
  425MPD2    H2 6344   1.755   2.465  17.521 -0.5778 -2.5525  1.6776
  425MPD2    H3 6345   1.649   2.648  17.639 -0.0771  0.6813 -0.6714
  425MPD2     N 6346   1.250   2.564  17.443  0.4587 -0.6384 -0.0111
  425MPD2    H5 6347   1.196   2.490  17.399  1.2405  0.0478 -2.0978
  425MPD2    N1 6348   1.634   2.284  17.380  0.3758  0.3741 -0.1254
  425MPD2    H7 6349   1.729   2.262  17.409  0.5752  0.3134 -0.8208
  426TMC3    C1 6350   1.663   2.074  17.297  1.0529 -0.1427  0.2491
  426TMC3    C2 6351   1.610   1.971  17.230 -0.2993  0.1059 -0.3402
  426TMC3    C3 6352   1.693   1.865  17.201 -0.3038 -0.8914 -0.6055
  426TMC3    C4 6353   1.786   2.066  17.363 -0.6121  0.4028  0.3002
  426TMC3    C5 6354   1.859   1.953  17.340  0.1678 -0.3881  0.0179
  426TMC3    C6 6355   1.818   1.863  17.246  0.0728  0.5605 -0.5193
  426TMC3     C 6356   1.570   2.185  17.316 -0.0203 -0.0694 -0.0774
  426TMC3     O 6357   1.452   2.175  17.277  0.2735  0.1758  0.0762
  426TMC3     H 6358   1.507   1.978  17.196 -0.5387  0.2094  0.4121
  426TMC3    H1 6359   1.836   2.147  17.416 -0.5541  0.1323  0.6579
  426TMC3    H2 6360   1.874   1.775  17.218  0.0613  0.5529 -0.5186
  426TMC3    C7 6361   1.902   1.884  17.461  0.1572  0.4183 -0.5841
  426TMC3    C8 6362   1.646   1.751  17.126  0.2251 -0.6057  0.3112
  426TMC3    O1 6363   1.942   1.771  17.440 -0.3497 -0.2684  0.1665
  426TMC3    O2 6364   1.727   1.701  17.056 -0.7023 -0.1166 -0.5693
  427MPD2     C 6365   4.526   4.566  14.876  0.1226  0.2308 -0.5278
  427MPD2    C1 6366   4.521   4.587  15.012 -0.3593 -0.5535 -0.0533
  427MPD2    C2 6367   4.400   4.619  15.071 -0.0128 -0.6329  0.7421
  427MPD2    C3 6368   4.290   4.620  14.986 -0.1980 -0.3096 -0.1320
  427MPD2    C4 6369   4.297   4.593  14.847 -0.0738  0.2380 -0.5228
  427MPD2    C5 6370   4.417   4.576  14.787  0.3662  0.2406  0.2131
  427MPD2     H 6371   4.381   4.639  15.176 -1.8788 -2.5920  0.7725
  427MPD2    H1 6372   4.207   4.579  14.788  0.8198  0.6128 -1.9675
  427MPD2    H2 6373   4.612   4.519  14.830  0.6005  1.6520 -1.1015
  427MPD2    H3 6374   4.425   4.553  14.681  0.6515  0.1791  0.2481
  427MPD2     N 6375   4.161   4.650  15.029  0.3055  0.2479  0.0330
  427MPD2    H5 6376   4.090   4.636  14.958  0.2243  2.3203 -0.2709
  427MPD2    N1 6377   4.631   4.558  15.094 -0.3209 -0.3394 -0.3623
  427MPD2    H7 6378   4.614   4.558  15.194 -1.9942 -0.8668 -0.6412
  428TMC3    C1 6379   0.114   4.465  15.140 -0.1164 -0.9823 -0.1880
  428TMC3    C2 6380   0.059   4.385  15.236  0.9319  0.3053  0.4612
  428TMC3    C3 6381   0.140   4.280  15.275  0.4207  0.0080  0.4781
  428TMC3    C4 6382   0.247   4.463  15.099 -0.3848  0.3240  0.5611
  428TMC3    C5 6383   0.329   4.367  15.149  0.3072 -0.0703 -0.2117
  428TMC3    C6 6384   0.269   4.267  15.223 -1.3427 -0.4742 -0.0655
  428TMC3     C 6385   0.033   4.534  15.044 -1.1304  0.2847 -0.5817
  428TMC3     O 6386   0.083   4.553  14.931  0.1620  0.4738  0.4246
  428TMC3     H 6387   4.674   4.380  15.255  0.4384  1.0466 -2.1009
  428TMC3    H1 6388   0.281   4.539  15.029 -0.2542  0.3337  0.6346
  428TMC3    H2 6389   0.342   4.200  15.268 -0.0629  1.1767  0.3142
  428TMC3    C7 6390   0.468   4.389  15.172  0.4486  0.6504 -0.3911
  428TMC3    C8 6391   0.106   4.179  15.375  0.8848  0.5370  0.1480
  428TMC3    O1 6392   0.535   4.311  15.243  0.4869 -0.0226  1.1866
  428TMC3    O2 6393   0.190   4.089  15.392 -0.4684 -0.8640  0.4866
  429MPD2     C 6394   0.579   4.649  17.479 -0.0302  0.3081  0.1920
  429MPD2    C1 6395   0.682   4.555  17.467 -0.0712  0.1656 -0.1947
  429MPD2    C2 6396   0.782   4.565  17.375  0.9761  0.1622 -0.2175
  429MPD2    C3 6397   0.793   4.690  17.312 -0.0098  0.0989  0.3564
  429MPD2    C4 6398   0.703   0.073  17.330  0.7195 -0.4778  0.7495
  429MPD2    C5 6399   0.593   0.047  17.408  0.2585  0.4284  0.4553
  429MPD2     H 6400   0.848   4.483  17.350 -0.5105 -0.0941 -3.3809
  429MPD2    H1 6401   0.716   0.168  17.278 -0.7409 -0.3435  0.6313
  429MPD2    H2 6402   0.497   4.644  17.549  0.5047  1.7747  0.9143
  429MPD2    H3 6403   0.517   0.124  17.406  0.4606  0.6036 -0.5565
  429MPD2     N 6404   0.898   4.706  17.214 -0.3517 -0.5881 -0.0017
  429MPD2    H5 6405   0.950   4.620  17.197 -3.6103 -2.2784 -1.3648
  429MPD2    N1 6406   0.679   4.435  17.539 -1.1893  0.5060 -0.0572
  429MPD2    H7 6407   0.752   4.371  17.510 -1.9078 -0.0049 -0.7273
  430TMC3    C1 6408   1.031   0.063  17.039  0.0953  0.4528 -0.2778
  430TMC3    C2 6409   1.036   0.135  16.924  0.1462  0.2743  0.3646
  430TMC3    C3 6410   1.153   0.118  16.851  0.7270  0.7116 -0.6469
  430TMC3    C4 6411   1.127   4.702  17.087 -0.2351 -0.1065  0.1483
  430TMC3    C5 6412   1.238   4.687  17.017 -0.7142 -0.7190 -0.0102
  430TMC3    C6 6413   1.249   0.027  16.892 -1.1211 -0.1703 -0.5673
  430TMC3     C 6414   0.924   0.094  17.133 -0.5974 -0.4559 -0.6135
  430TMC3     O 6415   0.855   0.195  17.109 -0.0246 -0.3809  0.0937
  430TMC3     H 6416   0.956   0.196  16.887  2.1033  2.1878 -0.6830
  430TMC3    H1 6417   1.117   4.656  17.185  1.1879 -0.3813  0.1761
  430TMC3    H2 6418   1.340   0.009  16.837 -0.8392  1.9594 -0.8238
  430TMC3    C7 6419   1.301   4.559  17.024  0.2099 -0.5176  0.0883
  430TMC3    C8 6420   1.163   0.142  16.711 -0.2351 -0.4323  0.4602
  430TMC3    O1 6421   1.231   4.463  17.048 -0.4106 -0.2559 -0.8329
  430TMC3    O2 6422   1.221   0.059  16.641  0.0510 -0.9612 -0.1598
  431MPD2     C 6423   1.687   4.483  12.596  0.3699 -0.0687  0.6743
  431MPD2    C1 6424   1.751   4.465  12.477 -0.1532  0.1399  0.1587
  431MPD2    C2 6425   1.748   4.340  12.420 -0.3519  0.3859 -0.3821
  431MPD2    C3 6426   1.679   4.234  12.483 -0.2962 -1.0335  0.1346
  431MPD2    C4 6427   1.624   4.255  12.605 -0.1507  0.1511  0.1491
  431MPD2    C5 6428   1.628   4.382  12.665 -0.8696 -0.3345 -0.3808
  431MPD2     H 6429   1.811   4.331  12.332  1.9457 -1.7920  1.4755
  431MPD2    H1 6430   1.580   4.177  12.666  0.0304 -0.1236 -0.0693
  431MPD2    H2 6431   1.684   4.582  12.640 -0.3738  0.3528 -0.3463
  431MPD2    H3 6432   1.583   4.393  12.763  2.4472 -0.2114  1.1298
  431MPD2     N 6433   1.684   4.100  12.432 -0.4673 -0.5293  0.2701
  431MPD2    H5 6434   1.621   4.040  12.484 -1.2409  1.6986  1.8953
  431MPD2    N1 6435   1.821   4.570  12.410 -0.4540 -0.5538 -0.0604
  431MPD2    H7 6436   1.864   4.544  12.322  0.2332 -1.7057  0.6279
  432TMC3    C1 6437   1.764   3.899  12.335 -1.1047 -0.9351  0.0450
  432TMC3    C2 6438   1.810   3.833  12.229 -0.0668  0.5423 -0.3886
  432TMC3    C3 6439   1.843   3.700  12.247 -0.3223 -0.7911  0.1052
  432TMC3    C4 6440   1.770   3.837  12.463  0.5349 -0.1922 -0.5511
  432TMC3    C5 6441   1.803   3.706  12.474 -0.1638 -1.1737 -0.3605
  432TMC3    C6 6442   1.838   3.634  12.364  0.4730 -0.0345  0.9313
  432TMC3     C 6443   1.769   4.043  12.335 -0.3604  0.0516  0.1334
  432TMC3     O 6444   1.855   4.100  12.265 -0.6396 -0.4032 -0.1962
  432TMC3     H 6445   1.828   3.886  12.137 -1.5089 -1.1862 -1.6705
  432TMC3    H1 6446   1.755   3.897  12.552 -1.7381 -2.7357  0.7678
  432TMC3    H2 6447   1.872   3.531  12.372  1.8360  0.3861  0.5478
  432TMC3    C7 6448   1.881   3.673  12.590  0.2123  0.5433 -0.5086
  432TMC3    C8 6449   1.909   3.630  12.135  0.1253  0.1748  0.8244
  432TMC3    O1 6450   1.978   3.602  12.558 -1.0482 -0.3072 -0.2373
  432TMC3    O2 6451   1.870   3.518  12.114 -0.3537  0.3875  0.5561
  433MPD2     C 6452   1.369   3.502  10.855 -0.5120 -0.4501  0.0232
  433MPD2    C1 6453   1.267   3.409  10.877  0.5753  0.1758 -0.3875
  433MPD2    C2 6454   1.211   3.411  11.003 -0.2257  0.0175  0.0318
  433MPD2    C3 6455   1.244   3.497  11.110 -0.1357  0.1180 -0.3683
  433MPD2    C4 6456   1.349   3.586  11.082 -0.0935 -0.8715 -0.0254
  433MPD2    C5 6457   1.401   3.589  10.956 -0.4491 -0.0035  0.3793
  433MPD2     H 6458   1.134   3.348  11.046 -1.1405 -0.8595 -2.8803
  433MPD2    H1 6459   1.383   3.661  11.152 -0.0291  1.0887 -2.1645
  433MPD2    H2 6460   1.417   3.510  10.758  0.5624  1.1719  0.6890
  433MPD2    H3 6461   1.493   3.640  10.931 -0.5218  0.5872  1.3034
  433MPD2     N 6462   1.184   3.477  11.238 -0.8371  0.2826  0.4180
  433MPD2    H5 6463   1.113   3.405  11.235 -0.9079  0.4336 -2.3004
  433MPD2    N1 6464   1.223   3.320  10.773  0.8194  0.1995 -0.1029
  433MPD2    H7 6465   1.282   3.325  10.690 -2.4792  0.1078 -2.4154
  434TMC3    C1 6466   1.133   3.109  10.699  0.5819  0.3799  0.2134
  434TMC3    C2 6467   1.130   2.986  10.764 -0.2598 -0.3624  0.1176
  434TMC3    C3 6468   1.173   2.878  10.691 -0.4228 -0.2176  0.5475
  434TMC3    C4 6469   1.194   3.133  10.579  0.3388  0.5654  0.2696
  434TMC3    C5 6470   1.246   3.021  10.512  0.0760 -0.9625 -0.4754
  434TMC3    C6 6471   1.240   2.897  10.568  0.3752  0.1642  0.5499
  434TMC3     C 6472   1.131   3.222  10.787  0.9052 -0.0211 -0.5669
  434TMC3     O 6473   1.054   3.205  10.879  0.2294  0.4557 -0.1150
  434TMC3     H 6474   1.075   2.975  10.857  1.4706 -2.3780  0.8885
  434TMC3    H1 6475   1.181   3.229  10.530  1.7063  0.1730 -0.8784
  434TMC3    H2 6476   1.263   2.806  10.513  0.9901 -0.4980  1.8983
  434TMC3    C7 6477   1.270   3.028  10.367  0.8897  0.4809  0.7806
  434TMC3    C8 6478   1.200   2.760  10.775 -0.4044  0.6089  0.2276
  434TMC3    O1 6479   1.222   3.119  10.296  0.1661  0.1957  0.2421
  434TMC3    O2 6480   1.142   2.757  10.883  0.5155 -0.2311  0.3903
  435MPD2     C 6481   2.854   3.573  15.657  0.4714 -0.7749 -0.2272
  435MPD2    C1 6482   2.837   3.585  15.788  0.1791  0.4644 -0.4909
  435MPD2    C2 6483   2.893   3.490  15.869 -0.7207  0.0702 -0.6368
  435MPD2    C3 6484   2.990   3.405  15.828  0.1812 -0.0359 -0.2552
  435MPD2    C4 6485   3.017   3.403  15.691 -0.1948 -0.1582  0.4043
  435MPD2    C5 6486   2.949   3.489  15.608 -0.9173  0.1091 -0.3128
  435MPD2     H 6487   2.886   3.502  15.977  0.7804  1.0587 -0.6346
  435MPD2    H1 6488   3.088   3.340  15.638  0.7920  1.2210  0.1026
  435MPD2    H2 6489   2.820   3.648  15.587 -0.7236 -0.3013  0.8610
  435MPD2    H3 6490   2.969   3.490  15.501 -2.3347 -2.0971 -0.6080
  435MPD2     N 6491   3.061   3.329  15.918 -0.1125  0.1808 -0.0189
  435MPD2    H5 6492   3.032   3.330  16.016 -0.0936  1.6924 -0.0324
  435MPD2    N1 6493   2.743   3.677  15.838  0.7176  0.0438 -0.1793
  435MPD2    H7 6494   2.717   3.663  15.935 -1.8204 -0.3847 -0.9175
  436TMC3    C1 6495   2.544   3.888  16.095  0.6826  1.0219  0.3511
  436TMC3    C2 6496   2.627   3.827  16.002 -0.0054  0.3084 -0.3774
  436TMC3    C3 6497   2.577   3.829  15.870  0.0311 -0.2318  0.8050
  436TMC3    C4 6498   2.411   3.930  16.066  0.7914  0.7247  0.7978
  436TMC3    C5 6499   2.364   3.913  15.940  0.0269 -0.3450  0.1699
  436TMC3    C6 6500   2.446   3.858  15.839 -0.3315  0.2896  0.0750
  436TMC3     C 6501   2.595   3.893  16.231  0.0883 -0.0845  0.2434
  436TMC3     O 6502   2.718   3.893  16.248 -0.2697  0.0303 -0.3559
  436TMC3     H 6503   2.731   3.821  16.033 -0.2231  2.6326  0.7467
  436TMC3    H1 6504   2.349   3.987  16.135 -1.5466 -1.6444  0.6538
  436TMC3    H2 6505   2.406   3.838  15.740 -0.9954 -1.0587  0.6167
  436TMC3    C7 6506   2.238   3.972  15.896  0.2248  0.5447 -0.2248
  436TMC3    C8 6507   2.651   3.756  15.771  0.1972  0.1154  0.2393
  436TMC3    O1 6508   2.227   4.006  15.775  0.1125  0.3299 -0.5007
  436TMC3    O2 6509   2.629   3.769  15.650  0.3268 -0.2791  0.2964
  437TMC3    C1 6510   1.311   0.297  12.144  0.1626  0.3827  0.2951
  437TMC3    C2 6511   1.209   0.294  12.051 -0.8143 -0.2039 -0.5759
  437TMC3    C3 6512   1.243   0.305  11.918 -0.3658  0.1974  0.3221
  437TMC3    C4 6513   1.443   0.307  12.108  0.3741  0.4524 -0.6974
  437TMC3    C5 6514   1.467   0.318  11.972  0.1372  0.0632  0.4704
  437TMC3    C6 6515   1.370   0.323  11.874 -0.4750 -0.5443  0.2487
  437TMC3     C 6516   1.278   0.272  12.283 -0.0137  0.3003  0.8152
  437TMC3     O 6517   1.161   0.266  12.308  0.6645  0.0726 -0.6780
  437TMC3     H 6518   1.112   0.257  12.081 -0.9434  1.1043  0.6161
  437TMC3    H1 6519   1.529   0.293  12.173 -0.2139 -0.6433 -0.1621
  437TMC3    H2 6520   1.382   0.320  11.766  0.0332  0.1662  0.2821
  437TMC3    C7 6521   1.594   0.327  11.911 -0.3676  0.0357 -0.2831
  437TMC3    C8 6522   1.133   0.285  11.825  0.6964 -0.6767 -0.2064
  437TMC3    O1 6523   1.602   0.329  11.789  0.3545  0.7534  0.6506
  437TMC3    O2 6524   1.029   0.229  11.866  0.4767 -0.3711  0.0427
  438MPD2     C 6525   4.211   1.556  16.985 -0.7902  0.5394 -0.5899
  438MPD2    C1 6526   4.199   1.419  16.995 -0.4035  0.5050  0.0796
  438MPD2    C2 6527   4.134   1.372  17.104  0.2619 -0.6446 -0.0210
  438MPD2    C3 6528   4.071   1.448  17.204 -0.2530  0.1281  0.2829
  438MPD2    C4 6529   4.104   1.583  17.193  0.2245 -0.1590 -0.1299
  438MPD2    C5 6530   4.174   1.632  17.088  0.6377  0.2552  0.8003
  438MPD2     H 6531   4.121   1.265  17.108 -0.3696 -0.5355  0.7968
  438MPD2    H1 6532   4.079   1.664  17.261 -1.3329  0.3885 -1.3594
  438MPD2    H2 6533   4.264   1.598  16.901 -1.9015  2.4212 -0.3480
  438MPD2    H3 6534   4.194   1.738  17.076  0.0738  0.5007  1.9675
  438MPD2     N 6535   3.975   1.405  17.295  0.2696  0.4349 -0.6730
  438MPD2    H5 6536   3.941   1.474  17.362  0.5347  1.2377 -1.3609
  438MPD2    N1 6537   4.251   1.327  16.906 -0.0630 -0.1999 -0.1813
  438MPD2    H7 6538   4.255   1.234  16.947  0.4514  0.2307  0.7399
  439TMC3    C1 6539   4.347   1.244  16.708  0.1656  0.6082  0.4029
  439TMC3    C2 6540   4.305   1.214  16.579  0.0674  0.0875  0.7705
  439TMC3    C3 6541   4.346   1.089  16.525  0.4086  0.5114 -0.7001
  439TMC3    C4 6542   4.418   1.161  16.783 -0.9414  0.2325  0.2109
  439TMC3    C5 6543   4.442   1.036  16.728 -0.2250 -0.2368  0.5078
  439TMC3    C6 6544   4.412   0.996  16.604  0.1422  0.5644 -0.4420
  439TMC3     C 6545   4.283   1.357  16.775 -0.3133  0.1080  0.0249
  439TMC3     O 6546   4.268   1.456  16.702 -0.5297  0.0909  0.0115
  439TMC3     H 6547   4.238   1.282  16.528  0.5732 -0.5455 -0.7168
  439TMC3    H1 6548   4.456   1.179  16.883 -0.4357 -0.3197  0.1221
  439TMC3    H2 6549   4.427   0.899  16.559 -2.1389  0.0074 -0.0076
  439TMC3    C7 6550   4.536   0.959  16.817 -0.1920 -0.0863  0.4609
  439TMC3    C8 6551   4.304   1.047  16.394  0.3324  0.1678 -0.0290
  439TMC3    O1 6552   4.629   1.007  16.884  0.1896 -0.3284  0.3978
  439TMC3    O2 6553   4.319   0.932  16.372  0.4319 -0.0780  0.4159
  440MPD2     C 6554   2.731   1.868  14.724  0.5735 -0.0473 -0.3288
  440MPD2    C1 6555   2.756   1.942  14.832 -0.5018 -0.5379 -0.0898
  440MPD2    C2 6556   2.884   1.933  14.895  0.3150 -0.3565 -0.4505
  440MPD2    C3 6557   2.975   1.837  14.857 -0.2652  0.0744  0.1198
  440MPD2    C4 6558   2.945   1.758  14.746 -0.2471  0.0795  0.4542
  440MPD2    C5 6559   2.824   1.775  14.676 -0.1918  0.5643  0.6407
  440MPD2     H 6560   2.914   1.997  14.978 -1.6916  0.0600 -0.0483
  440MPD2    H1 6561   3.026   1.710  14.693  0.3021  1.8236 -0.2983
  440MPD2    H2 6562   2.641   1.886  14.665  1.1172 -0.8250 -1.3894
  440MPD2    H3 6563   2.808   1.723  14.582  1.6403  1.1423  0.0165
  440MPD2     N 6564   3.100   1.841  14.927  0.2273 -0.1009  0.4894
  440MPD2    H5 6565   3.117   1.908  15.001  0.8090 -1.3852  1.4978
  440MPD2    N1 6566   2.666   2.039  14.882  0.2958 -0.0008 -0.2463
  440MPD2    H7 6567   2.702   2.087  14.964  0.8359  1.6678 -1.4579
  441TMC3    C1 6568   3.273   1.756  15.037 -0.2184  0.5288 -0.4965
  441TMC3    C2 6569   3.293   1.880  15.083 -0.2396  0.0661  0.1407
  441TMC3    C3 6570   3.341   1.888  15.211 -0.8826 -0.4458  0.2647
  441TMC3    C4 6571   3.284   1.642  15.108 -0.0918 -0.7121 -0.3728
  441TMC3    C5 6572   3.329   1.653  15.233  0.7672  0.6869 -0.0031
  441TMC3    C6 6573   3.347   1.777  15.291 -0.3287 -0.0596 -0.5361
  441TMC3     C 6574   3.189   1.743  14.922  0.5245 -0.2945 -0.0812
  441TMC3     O 6575   3.185   1.634  14.863  0.1248  0.9492 -0.2390
  441TMC3     H 6576   3.267   1.971  15.030  1.4754  0.9965  0.8972
  441TMC3    H1 6577   3.274   1.543  15.063 -0.5278 -0.4114 -0.9394
  441TMC3    H2 6578   3.363   1.791  15.397 -0.2673  2.9973 -0.9480
  441TMC3    C7 6579   3.318   1.538  15.323 -0.2680  0.2628  0.3715
  441TMC3    C8 6580   3.312   2.008  15.288  0.6611  0.2367  0.4109
  441TMC3    O1 6581   3.230   1.459  15.300  0.2346  0.4714 -0.3540
  441TMC3    O2 6582   3.405   2.077  15.320 -0.2034  0.5198 -0.0915
  442MPD2     C 6583   1.401   1.763  16.629  0.0283  0.4249 -0.7029
  442MPD2    C1 6584   1.287   1.715  16.693 -0.1472  0.0052 -0.3253
  442MPD2    C2 6585   1.220   1.616  16.629  0.0458  0.3830 -0.2613
  442MPD2    C3 6586   1.267   1.560  16.515  0.1113 -0.4082  0.4027
  442MPD2    C4 6587   1.386   1.597  16.458 -0.1045  0.2152 -0.5178
  442MPD2    C5 6588   1.448   1.703  16.517 -0.3613  0.1172 -0.6270
  442MPD2     H 6589   1.123   1.587  16.666 -0.4628  0.9809 -1.1223
  442MPD2    H1 6590   1.427   1.547  16.371  2.3447  3.4094 -1.2227
  442MPD2    H2 6591   1.470   1.831  16.676 -0.0076 -0.6293  0.8548
  442MPD2    H3 6592   1.545   1.728  16.475  0.0677 -0.6785 -0.1172
  442MPD2     N 6593   1.197   1.462  16.440  0.0758 -0.0815 -0.0027
  442MPD2    H5 6594   1.247   1.429  16.358 -1.4486 -1.4119 -0.3941
  442MPD2    N1 6595   1.240   1.760  16.824  0.3974  0.0090 -0.0199
  442MPD2    H7 6596   1.162   1.712  16.868  1.6316 -1.2086  0.8193
  443TMC3    C1 6597   1.233   1.892  17.027 -0.0112 -0.2541  0.5205
  443TMC3    C2 6598   1.205   2.021  17.057  0.6937 -0.4632 -0.3232
  443TMC3    C3 6599   1.094   2.070  17.115 -0.0381 -0.1112  0.3011
  443TMC3    C4 6600   1.140   1.803  17.080  0.3129 -0.0229  0.0077
  443TMC3    C5 6601   1.030   1.847  17.157 -0.4157  0.5824  0.5230
  443TMC3    C6 6602   1.003   1.983  17.179  0.0141  0.3694 -0.2302
  443TMC3     C 6603   1.286   1.868  16.896 -0.0225 -0.3608  0.0517
  443TMC3     O 6604   1.370   1.950  16.861 -0.4176  0.2888 -0.2687
  443TMC3     H 6605   1.282   2.090  17.022 -0.9027  1.8081  0.6317
  443TMC3    H1 6606   1.163   1.698  17.067  0.3105  0.0444 -0.5401
  443TMC3    H2 6607   0.902   2.016  17.204  0.3876  1.0482  0.3808
  443TMC3    C7 6608   0.932   1.751  17.209 -0.0014 -0.3641 -0.4648
  443TMC3    C8 6609   1.014   2.127  17.011  0.1483  0.3998  0.1362
  443TMC3    O1 6610   0.952   1.635  17.170  0.1407  0.5170 -0.1070
  443TMC3    O2 6611   0.911   2.068  16.985  0.5071  0.3702 -0.2680
  444MPD2     C 6612   1.531   1.617  17.514 -0.6030  0.4787 -0.3883
  444MPD2    C1 6613   1.451   1.504  17.499 -0.2327  0.0283  0.3909
  444MPD2    C2 6614   1.504   1.397  17.425  0.2665  0.0671  0.3992
  444MPD2    C3 6615   1.635   1.404  17.371  0.4483 -0.0436 -0.3505
  444MPD2    C4 6616   1.713   1.514  17.393  0.1602  0.0328  0.7476
  444MPD2    C5 6617   1.656   1.617  17.458 -0.0905 -0.1809 -0.4988
  444MPD2     H 6618   1.448   1.308  17.399 -2.2038  1.5908  0.5604
  444MPD2    H1 6619   1.807   1.538  17.343 -1.4136 -2.0988 -3.2859
  444MPD2    H2 6620   1.491   1.707  17.557 -1.1998 -0.5157  1.1248
  444MPD2    H3 6621   1.711   1.710  17.469 -0.9292  0.1590  0.7372
  444MPD2     N 6622   1.672   1.293  17.293  0.2962  0.1986  0.2806
  444MPD2    H5 6623   1.605   1.219  17.272 -1.8863  2.2457  0.0400
  444MPD2    N1 6624   1.316   1.502  17.550  0.0525  0.1056  0.4027
  444MPD2    H7 6625   1.266   1.414  17.550  0.4365 -0.1174  0.6891
  445TMC3    C1 6626   1.800   1.158  17.162  0.0061 -0.4799 -0.5262
  445TMC3    C2 6627   1.692   1.145  17.077 -0.3298  0.0465  0.3383
  445TMC3    C3 6628   1.704   1.049  16.982 -0.2229 -0.2005 -0.5483
  445TMC3    C4 6629   1.919   1.092  17.142 -0.0485  0.1594 -0.3015
  445TMC3    C5 6630   1.917   0.995  17.048 -0.5197  0.3702  0.2294
  445TMC3    C6 6631   1.819   0.973  16.963 -0.2773 -1.0514  0.1165
  445TMC3     C 6632   1.804   1.274  17.244 -0.1062  0.0485  0.6310
  445TMC3     O 6633   1.905   1.336  17.250  0.3840  0.6542 -0.1506
  445TMC3     H 6634   1.600   1.201  17.068  1.1828  2.4839  0.1791
  445TMC3    H1 6635   2.010   1.117  17.196  0.6060 -2.2871 -0.2851
  445TMC3    H2 6636   1.813   0.875  16.919 -0.4633 -1.3641  0.8499
  445TMC3    C7 6637   2.046   0.957  16.997  0.3131 -0.1897  0.6179
  445TMC3    C8 6638   1.600   1.028  16.885 -0.2780  0.0359  0.0367
  445TMC3    O1 6639   2.029   0.911  16.886  0.1887 -0.3085 -0.1263
  445TMC3    O2 6640   1.634   1.016  16.768  0.1504 -0.3915 -0.2376
  446MPD2     C 6641   0.788   3.034  11.189  0.8239  0.1768  0.2295
  446MPD2    C1 6642   0.813   2.909  11.128 -0.2000 -0.0086 -0.2656
  446MPD2    C2 6643   0.943   2.869  11.104 -0.9155  0.6367 -0.0094
  446MPD2    C3 6644   1.045   2.952  11.134  0.9294 -0.3371 -0.5997
  446MPD2    C4 6645   1.016   3.078  11.176 -0.3215 -0.2864 -0.0621
  446MPD2    C5 6646   0.891   3.109  11.212  0.0584  0.4859  0.1641
  446MPD2     H 6647   0.961   2.769  11.068 -0.6883  1.6125 -2.6030
  446MPD2    H1 6648   1.089   3.158  11.169 -0.1041 -0.1927  3.5857
  446MPD2    H2 6649   0.691   3.077  11.213 -0.7968 -1.6298 -3.0729
  446MPD2    H3 6650   0.867   3.206  11.254  0.0759  0.8217 -0.5962
  446MPD2     N 6651   1.174   2.905  11.100 -0.8625  0.2507  0.0265
  446MPD2    H5 6652   1.181   2.819  11.045  0.4568 -0.7884  1.8240
  446MPD2    N1 6653   0.701   2.832  11.082  0.4094 -0.5386  0.6397
  446MPD2    H7 6654   0.720   2.738  11.049 -0.6068 -0.3482 -0.4824
  447TMC3    C1 6655   1.395   2.928  11.018  0.0505 -0.4171 -0.3837
  447TMC3    C2 6656   1.453   3.002  10.930  0.3487  0.1285  0.2512
  447TMC3    C3 6657   1.559   2.956  10.859  0.2291 -0.3091  0.4540
  447TMC3    C4 6658   1.425   2.794  11.026  0.1691  0.9681  0.0421
  447TMC3    C5 6659   1.532   2.744  10.951 -0.7550  0.5329 -0.9647
  447TMC3    C6 6660   1.597   2.823  10.862 -0.0979 -0.1831 -0.2139
  447TMC3     C 6661   1.285   2.985  11.091  0.1991  0.0916 -0.4257
  447TMC3     O 6662   1.313   3.095  11.133  0.9316  0.2580  0.2129
  447TMC3     H 6663   1.424   3.106  10.924 -0.8449 -0.1491  1.2780
  447TMC3    H1 6664   1.383   2.735  11.106  2.7788 -0.4199  0.3651
  447TMC3    H2 6665   1.684   2.794  10.804  1.0871  0.4127  1.2933
  447TMC3    C7 6666   1.618   2.630  10.992 -1.4568  0.2571 -0.1955
  447TMC3    C8 6667   1.565   3.018  10.732 -0.8640 -0.4750  0.1084
  447TMC3    O1 6668   1.713   2.606  10.915 -0.0374 -0.3870  0.2622
  447TMC3    O2 6669   1.465   3.076  10.689  0.0176 -0.3324 -0.2353
  448TMC3    C1 6670   0.091   2.887  16.867 -0.0158  0.2111  0.3351
  448TMC3    C2 6671   0.011   2.795  16.817  0.0224  0.5246 -0.3765
  448TMC3    C3 6672   4.595   2.812  16.835 -0.7979  0.1088 -1.1061
  448TMC3    C4 6673   0.043   2.993  16.935  0.2086 -0.1955 -0.3191
  448TMC3    C5 6674   4.625   3.001  16.950 -0.6978  0.1697  0.2062
  448TMC3    C6 6675   4.531   2.911  16.898 -1.0451  0.8595 -0.0946
  448TMC3     C 6676   0.230   2.880  16.828 -0.1327 -0.1469  0.0048
  448TMC3     O 6677   0.269   2.771  16.788  0.0871  0.0791 -0.3100
  448TMC3     H 6678   0.050   2.714  16.758  3.1188  2.0355 -0.3802
  448TMC3    H1 6679   0.104   3.076  16.970 -2.7019  1.4635  0.8732
  448TMC3    H2 6680   4.426   2.900  16.920 -0.2829 -3.0980  1.5973
  448TMC3    C7 6681   4.590   3.089  17.066 -0.0360 -0.7543  0.0666
  448TMC3    C8 6682   4.512   2.721  16.756 -0.0377  0.0267 -0.3040
  448TMC3    O1 6683   4.652   3.192  17.096  0.0083  0.3268  0.0108
  448TMC3    O2 6684   4.569   2.622  16.710 -0.1756  0.4740  0.4213
  449MPD2     C 6685   4.546   1.540  12.898  0.1987  0.1451  1.2346
  449MPD2    C1 6686   4.677   1.581  12.874  0.0173 -0.4453  0.2330
  449MPD2    C2 6687   0.017   1.691  12.930 -0.0860 -0.6640 -1.0869
  449MPD2    C3 6688   4.664   1.773  13.008  0.0368 -0.9370 -0.1476
  449MPD2    C4 6689   4.534   1.739  13.037 -0.1671 -0.9380  0.5146
  449MPD2    C5 6690   4.477   1.624  12.982  0.5691  0.1986  0.0300
  449MPD2     H 6691   0.121   1.711  12.909  0.4047 -0.9792  1.0612
  449MPD2    H1 6692   4.477   1.795  13.111 -0.7537  0.5988 -1.1065
  449MPD2    H2 6693   4.493   1.461  12.846  0.9064  0.3769  0.1741
  449MPD2    H3 6694   4.376   1.591  13.002  0.3831  0.7561  0.0080
  449MPD2     N 6695   0.003   1.886  13.069  0.0144 -0.5035 -0.8965
  449MPD2    H5 6696   0.102   1.903  13.057  0.4150 -2.4158 -0.2106
  449MPD2    N1 6697   0.037   1.505  12.785 -0.3250  0.2836 -0.0499
  449MPD2    H7 6698   0.132   1.539  12.773 -0.1675  0.9537  2.9506
  450TMC3    C1 6699   0.138   1.340  12.680  0.9376  0.0931  0.1990
  450TMC3    C2 6700   0.175   1.217  12.728  0.4122 -0.7608 -0.0656
  450TMC3    C3 6701   0.306   1.192  12.763  0.6514  0.0894  0.0495
  450TMC3    C4 6702   0.236   1.437  12.661 -0.2993  0.2508 -0.1483
  450TMC3    C5 6703   0.364   1.413  12.709  0.1282  0.4970  0.6052
  450TMC3    C6 6704   0.403   1.290  12.759  0.6238  0.4996 -0.2268
  450TMC3     C 6705   0.012   1.384  12.728  0.1243 -0.0603  0.9324
  450TMC3     O 6706   4.649   1.302  12.753 -0.3634 -0.3789  0.3475
  450TMC3     H 6707   0.096   1.144  12.741  0.4663 -1.0615 -1.4421
  450TMC3    H1 6708   0.211   1.535  12.623 -0.1137  0.0942 -0.6718
  450TMC3    H2 6709   0.494   1.276  12.815  0.3003  0.6055  0.3204
  450TMC3    C7 6710   0.418   1.538  12.776  0.2772 -0.3129 -0.5344
  450TMC3    C8 6711   0.352   1.052  12.785 -0.1845  0.0303  0.0690
  450TMC3    O1 6712   0.353   1.641  12.772 -0.2214 -0.4450 -0.1662
  450TMC3    O2 6713   0.260   0.970  12.800 -0.0217  0.5579  0.6053
  451MPD2     C 6714   1.736   3.718   2.069 -0.5325 -0.4287 -0.1921
  451MPD2    C1 6715   1.810   3.798   1.985  0.6329  0.0593 -0.5402
  451MPD2    C2 6716   1.918   3.741   1.925  0.2798  0.0812 -0.9351
  451MPD2    C3 6717   1.961   3.614   1.955  0.2709 -0.8139 -0.5227
  451MPD2    C4 6718   1.886   3.535   2.038 -0.4813 -0.3494 -0.5681
  451MPD2    C5 6719   1.777   3.590   2.099  0.8709 -0.4661  0.1242
  451MPD2     H 6720   1.973   3.802   1.854  3.4986 -0.6442  0.9734
  451MPD2    H1 6721   1.919   3.436   2.064 -0.6967 -0.8602 -2.2675
  451MPD2    H2 6722   1.651   3.759   2.122 -0.0785  0.7024 -0.3239
  451MPD2    H3 6723   1.731   3.538   2.183  0.5438 -1.2620 -0.5470
  451MPD2     N 6724   2.075   3.550   1.899 -0.1817  0.2129  0.5978
  451MPD2    H5 6725   2.079   3.451   1.922 -1.3866 -0.4807 -2.1976
  451MPD2    N1 6726   1.776   3.935   1.960 -0.4928 -0.4601  0.2744
  451MPD2    H7 6727   1.683   3.974   1.972 -0.5811 -0.7733  0.5861
  452TMC3    C1 6728   2.267   3.513   1.771 -1.1854 -0.0355 -0.0320
  452TMC3    C2 6729   2.349   3.464   1.872 -0.5447  0.4642 -0.3952
  452TMC3    C3 6730   2.481   3.450   1.845  0.0277 -0.8182 -0.5952
  452TMC3    C4 6731   2.326   3.548   1.650 -0.7593 -0.3740 -0.3628
  452TMC3    C5 6732   2.459   3.523   1.626 -0.2804  0.9116  0.4632
  452TMC3    C6 6733   2.542   3.475   1.728  0.2317  0.7352  0.2033
  452TMC3     C 6734   2.168   3.606   1.818 -0.2708 -0.1341  0.3796
  452TMC3     O 6735   2.174   3.718   1.774  0.2305 -0.0152  0.6379
  452TMC3     H 6736   2.298   3.424   1.958 -1.1202  1.1426 -0.4166
  452TMC3    H1 6737   2.260   3.591   1.576 -0.6198 -0.9064 -0.7996
  452TMC3    H2 6738   2.639   3.429   1.713  0.8578  3.0462 -2.8190
  452TMC3    C7 6739   2.517   3.565   1.498  0.0585 -0.3822  0.3192
  452TMC3    C8 6740   2.550   3.363   1.931 -0.0935  0.2117  0.4906
  452TMC3    O1 6741   2.435   3.614   1.417  0.4549  0.5836  0.6182
  452TMC3    O2 6742   2.648   3.298   1.887 -0.3260  0.0889 -0.0580
  453TMC3    C1 6743   3.220   1.675  11.565  0.1863 -0.5840  0.3543
  453TMC3    C2 6744   3.152   1.571  11.625 -1.0099 -0.4589 -0.3158
  453TMC3    C3 6745   3.035   1.533  11.565 -0.7912 -0.0152  0.6940
  453TMC3    C4 6746   3.192   1.730  11.441 -0.1799 -0.3396 -0.5419
  453TMC3    C5 6747   3.077   1.679  11.382  0.9678 -0.2717  0.7275
  453TMC3    C6 6748   3.005   1.578  11.442  0.0784 -0.7617  0.1494
  453TMC3     C 6749   3.344   1.723  11.629  0.5974 -1.0191  0.4373
  453TMC3     O 6750   3.420   1.798  11.570 -0.1603  0.3020  0.2266
  453TMC3     H 6751   3.184   1.517  11.714  0.2333  2.0736  0.7713
  453TMC3    H1 6752   3.270   1.785  11.391  1.2993 -3.6306 -1.8518
  453TMC3    H2 6753   2.927   1.522  11.392  0.6035 -0.6895 -0.7370
  453TMC3    C7 6754   3.061   1.691  11.233  0.1280 -0.3558 -0.0628
  453TMC3    C8 6755   2.961   1.405  11.598  0.5624 -0.1070 -0.3807
  453TMC3    O1 6756   3.000   1.602  11.182 -0.0820  0.5180 -0.3880
  453TMC3    O2 6757   2.853   1.394  11.541 -0.1043  0.6053  0.0054
  454MPD2     C 6758   1.981   1.252  15.827 -0.3725 -0.0966 -0.8054
  454MPD2    C1 6759   1.858   1.309  15.849  0.0715 -0.0493 -0.0773
  454MPD2    C2 6760   1.811   1.316  15.979 -0.0577  0.0989  0.6890
  454MPD2    C3 6761   1.897   1.256  16.071 -0.1996  0.8365  0.5614
  454MPD2    C4 6762   2.008   1.193  16.047 -0.2230 -0.3597 -0.5427
  454MPD2    C5 6763   2.053   1.190  15.919 -0.3100 -0.9186 -0.0271
  454MPD2     H 6764   1.716   1.364  15.996  0.5326  1.3913  0.3496
  454MPD2    H1 6765   2.073   1.147  16.122 -1.2689 -1.4868 -0.3286
  454MPD2    H2 6766   2.022   1.244  15.726 -0.4569  0.7390 -0.9067
  454MPD2    H3 6767   2.140   1.132  15.889  0.0351  0.0690 -0.9270
  454MPD2     N 6768   1.859   1.255  16.208 -0.5633 -0.2869  0.3867
  454MPD2    H5 6769   1.904   1.192  16.274  1.3651 -1.6096 -2.2349
  454MPD2    N1 6770   1.762   1.350  15.746 -0.2432 -0.0806 -0.3188
  454MPD2    H7 6771   1.668   1.375  15.773 -0.0872 -1.4554  1.5096
  455TMC3    C1 6772   1.711   1.287  16.390 -1.2475  0.3721  0.2308
  455TMC3    C2 6773   1.670   1.374  16.487 -0.0769  0.2501 -0.5591
  455TMC3    C3 6774   1.568   1.343  16.573 -0.0627 -0.1632  0.7071
  455TMC3    C4 6775   1.651   1.164  16.375  0.1785 -0.0492  0.1742
  455TMC3    C5 6776   1.549   1.136  16.454  0.4734 -0.0554 -0.3436
  455TMC3    C6 6777   1.504   1.220  16.554  0.0412  0.3531 -0.1616
  455TMC3     C 6778   1.759   1.335  16.266 -0.2670 -0.6485  0.5373
  455TMC3     O 6779   1.710   1.439  16.231 -0.3072 -0.1233 -0.4079
  455TMC3     H 6780   1.701   1.477  16.496  0.9677 -0.2447  1.5034
  455TMC3    H1 6781   1.685   1.106  16.289 -0.0896  2.1145 -1.3988
  455TMC3    H2 6782   1.423   1.193  16.620  0.7848 -1.8125 -0.1268
  455TMC3    C7 6783   1.454   1.063  16.380 -0.1582  0.6687 -0.1061
  455TMC3    C8 6784   1.566   1.417  16.701  0.4491  0.1636  0.4426
  455TMC3    O1 6785   1.473   1.057  16.262  0.2338  0.4325  0.2770
  455TMC3    O2 6786   1.666   1.488  16.716 -0.1184  0.1701  0.3318
  456MPD2     C 6787   4.237   1.567  15.880 -0.0049 -0.4536  0.2764
  456MPD2    C1 6788   4.346   1.550  15.958 -0.1751  0.2068  0.1720
  456MPD2    C2 6789   4.368   1.641  16.066  0.0125 -0.8701 -0.3408
  456MPD2    C3 6790   4.283   1.741  16.092 -0.4340  0.4494 -0.2454
  456MPD2    C4 6791   4.179   1.765  16.007  0.4193 -0.9331  0.3681
  456MPD2    C5 6792   4.160   1.675  15.906  0.0000 -0.4035  0.1879
  456MPD2     H 6793   4.457   1.637  16.128 -1.4508  0.6420  1.8468
  456MPD2    H1 6794   4.109   1.848  16.013  0.5061 -0.6592 -2.3933
  456MPD2    H2 6795   4.203   1.505  15.797  1.0781  0.3389 -0.7535
  456MPD2    H3 6796   4.071   1.693  15.847 -0.2471  0.4504  0.8137
  456MPD2     N 6797   4.295   1.807  16.215  0.3523  0.3218 -0.1174
  456MPD2    H5 6798   4.367   1.769  16.276 -1.6693 -1.6740  1.0191
  456MPD2    N1 6799   4.423   1.434  15.933 -0.0531 -0.3180 -0.4113
  456MPD2    H7 6800   4.381   1.377  15.860  0.6384 -1.9298  0.4452
  457TMC3    C1 6801   4.250   1.949  16.389 -0.0256  0.0044  0.0391
  457TMC3    C2 6802   4.235   2.085  16.430  0.4139  0.8865  0.0014
  457TMC3    C3 6803   4.273   2.118  16.558  0.1120  0.5721 -0.6911
  457TMC3    C4 6804   4.291   1.856  16.478  0.6267  0.1517  0.0217
  457TMC3    C5 6805   4.330   1.890  16.604 -0.3678  1.1928 -0.0339
  457TMC3    C6 6806   4.325   2.022  16.643  0.0720 -0.6670 -0.3528
  457TMC3     C 6807   4.222   1.917  16.250  0.0552 -0.2906 -0.2878
  457TMC3     O 6808   4.152   1.996  16.185 -0.1767 -0.8306  0.2947
  457TMC3     H 6809   4.214   2.163  16.358 -0.4587 -0.0058 -0.7124
  457TMC3    H1 6810   4.276   1.753  16.449  1.0603 -0.2074  1.1075
  457TMC3    H2 6811   4.357   2.043  16.744  2.7343  0.5362 -1.4337
  457TMC3    C7 6812   4.382   1.793  16.695 -0.5007  0.2025  0.5225
  457TMC3    C8 6813   4.293   2.261  16.587  0.3053 -0.0532  0.4409
  457TMC3    O1 6814   4.362   1.809  16.813  0.2623  0.4277 -0.3932
  457TMC3    O2 6815   4.366   2.273  16.685 -0.1560 -0.0094 -0.8407
  458MPD2     C 6816   2.079   0.504  11.958 -0.4437  0.1551 -0.1294
  458MPD2    C1 6817   2.027   0.510  12.084 -0.5569 -0.2812 -0.0912
  458MPD2    C2 6818   1.897   0.464  12.097  0.1777  0.3769  0.6351
  458MPD2    C3 6819   1.817   0.416  11.988  0.2781 -0.0981  0.5264
  458MPD2    C4 6820   1.882   0.399  11.863  1.0932  0.0250 -0.2410
  458MPD2    C5 6821   2.014   0.443  11.856 -0.0500  0.1212 -0.1384
  458MPD2     H 6822   1.848   0.491  12.190 -0.0633 -2.5960  1.3709
  458MPD2    H1 6823   1.825   0.365  11.777  1.0726 -1.0671  0.2068
  458MPD2    H2 6824   2.185   0.526  11.953  0.0582 -2.2689 -0.6171
  458MPD2    H3 6825   2.065   0.443  11.760  0.1020 -0.7518 -0.0507
  458MPD2     N 6826   1.686   0.369  12.005 -0.1908 -0.1924 -0.3196
  458MPD2    H5 6827   1.658   0.376  12.103 -0.9839  2.1665 -0.7148
  458MPD2    N1 6828   2.101   0.562  12.189 -0.1650 -0.0745  0.3558
  458MPD2    H7 6829   2.180   0.623  12.173  0.0901 -0.4328  0.2403
  459TMC3    C1 6830   2.180   0.588  12.412 -1.2610 -0.5374  0.8442
  459TMC3    C2 6831   2.287   0.656  12.354 -0.0484 -0.2832 -0.6943
  459TMC3    C3 6832   2.377   0.707  12.441  0.1165  0.6202  0.2673
  459TMC3    C4 6833   2.164   0.582  12.546 -0.0601  0.2196 -0.6933
  459TMC3    C5 6834   2.258   0.648  12.628 -0.2501 -0.7485 -0.2067
  459TMC3    C6 6835   2.372   0.700  12.576  0.1346 -0.3865  0.2937
  459TMC3     C 6836   2.083   0.532  12.318 -0.2934  0.6648  0.1782
  459TMC3     O 6837   2.002   0.455  12.373 -0.0974 -0.2415 -0.1622
  459TMC3     H 6838   2.300   0.656  12.246 -0.5790 -0.4536 -0.7594
  459TMC3    H1 6839   2.071   0.545  12.589  0.4062 -0.5404 -0.3387
  459TMC3    H2 6840   2.458   0.747  12.624 -0.2358  0.3478  0.2358
  459TMC3    C7 6841   2.245   0.627  12.771 -0.0963 -0.2453  0.4015
  459TMC3    C8 6842   2.486   0.775  12.382 -0.1673 -0.9832  0.2332
  459TMC3    O1 6843   2.166   0.539  12.802  0.6564 -0.4234 -0.2252
  459TMC3    O2 6844   2.588   0.784  12.449  0.3690 -0.0750 -0.3216
  460MPD2     C 6845   1.864   3.023  10.521 -0.2240 -0.0995 -0.4910
  460MPD2    C1 6846   1.729   3.034  10.548 -0.0534 -0.1757 -0.1452
  460MPD2    C2 6847   1.640   3.080  10.452  0.0824  0.5477  0.2511
  460MPD2    C3 6848   1.683   3.098  10.319  0.4181  0.2856  0.1186
  460MPD2    C4 6849   1.823   3.093  10.300  0.2351 -0.7841 -0.4507
  460MPD2    C5 6850   1.910   3.067  10.398 -0.1810  0.5085  0.1746
  460MPD2     H 6851   1.534   3.087  10.473  0.0829 -1.2304  0.9205
  460MPD2    H1 6852   1.871   3.104  10.203  0.0117 -0.4215 -0.5219
  460MPD2    H2 6853   1.936   2.995  10.597 -0.4173 -0.5499 -0.4732
  460MPD2    H3 6854   2.010   3.061  10.356  0.1792  2.3436  0.7514
  460MPD2     N 6855   1.586   3.120  10.219 -0.1145 -0.3862  0.6414
  460MPD2    H5 6856   1.491   3.100  10.246 -0.0951 -0.8474  0.3742
  460MPD2    N1 6857   1.685   2.991  10.679 -0.1082  0.3456  0.2906
  460MPD2    H7 6858   1.749   2.945  10.743 -0.7597 -0.8717  0.0705
  461TMC3    C1 6859   1.508   3.099   9.994  0.0598 -0.5106  0.4443
  461TMC3    C2 6860   1.546   3.032   9.885 -0.5278  0.0363  0.3400
  461TMC3    C3 6861   1.462   3.032   9.782  0.1065 -0.6812 -0.2764
  461TMC3    C4 6862   1.395   3.171  10.002 -0.0133 -0.3401  0.2692
  461TMC3    C5 6863   1.308   3.179   9.902 -0.0792 -0.0664 -0.6472
  461TMC3    C6 6864   1.343   3.109   9.787 -0.3931 -0.5638  0.8742
  461TMC3     C 6865   1.618   3.135  10.085 -0.1403 -0.1131 -0.2417
  461TMC3     O 6866   1.727   3.162  10.032  0.0885 -0.2622 -0.5690
  461TMC3     H 6867   1.643   2.983   9.881 -0.5569  0.0855 -1.0672
  461TMC3    H1 6868   1.366   3.219  10.095 -1.3637 -0.9679  0.1647
  461TMC3    H2 6869   1.268   3.105   9.710 -0.2498 -3.2830  0.8438
  461TMC3    C7 6870   1.195   3.260   9.892 -0.1928 -0.1403  0.2999
  461TMC3    C8 6871   1.503   2.957   9.663 -0.9568 -0.0804 -0.6693
  461TMC3    O1 6872   1.107   3.226   9.814  0.9764  0.3584 -0.1682
  461TMC3    O2 6873   1.609   2.896   9.667 -0.0371 -0.4711 -0.0524
  462TMC3    C1 6874   1.260   4.349   0.846 -0.6524 -0.4041  0.3464
  462TMC3    C2 6875   1.252   4.414   0.725 -0.4204  0.8286  0.0896
  462TMC3    C3 6876   1.195   4.341   0.623 -0.3065 -0.9980 -0.2729
  462TMC3    C4 6877   1.224   4.214   0.865  0.0687  0.2384 -0.4531
  462TMC3    C5 6878   1.174   4.151   0.752 -1.4597 -0.2994 -0.3113
  462TMC3    C6 6879   1.164   4.207   0.633  0.6031 -0.1184 -0.1660
  462TMC3     C 6880   1.274   4.421   0.976 -0.2080 -0.4334  0.2504
  462TMC3     O 6881   1.305   4.353   1.070 -0.3097 -0.1031  0.4046
  462TMC3     H 6882   1.290   4.515   0.710  1.1626 -0.1250 -2.4432
  462TMC3    H1 6883   1.243   4.169   0.962 -0.1168  1.6564  0.2359
  462TMC3    H2 6884   1.108   4.158   0.555  0.4824  1.4048 -1.0260
  462TMC3    C7 6885   1.141   4.013   0.755  0.4090  0.3435  0.2425
  462TMC3    C8 6886   1.170   4.420   0.503  0.3001  0.3821  0.2762
  462TMC3    O1 6887   1.082   3.959   0.662  0.0471  0.1145 -0.5700
  462TMC3    O2 6888   1.129   4.537   0.526 -0.2389 -0.1377  0.2866
  463MPD2     C 6889   2.754   2.434   1.878  1.1038 -0.1824  0.3888
  463MPD2    C1 6890   2.635   2.446   1.938 -0.0259  0.3229 -0.4207
  463MPD2    C2 6891   2.585   2.573   1.956 -0.5971  0.0893 -0.8844
  463MPD2    C3 6892   2.639   2.682   1.895 -0.0679  0.2250 -0.7231
  463MPD2    C4 6893   2.760   2.664   1.826 -0.2848 -0.1030  0.2691
  463MPD2    C5 6894   2.809   2.542   1.818 -0.1233 -0.2445 -0.4402
  463MPD2     H 6895   2.504   2.588   2.026  1.9784  0.5396  1.9996
  463MPD2    H1 6896   2.818   2.736   1.770  1.4070 -2.8420 -1.5086
  463MPD2    H2 6897   2.802   2.338   1.861 -0.0526 -0.6014 -0.4771
  463MPD2    H3 6898   2.902   2.538   1.762  0.9490  1.0713  1.2409
  463MPD2     N 6899   2.577   2.806   1.895  0.0506 -0.1474 -0.8878
  463MPD2    H5 6900   2.623   2.868   1.828  6.0173 -2.0538  1.4587
  463MPD2    N1 6901   2.563   2.341   1.999  0.4751 -0.1955 -0.0785
  463MPD2    H7 6902   2.488   2.364   2.064  1.6319 -3.3472  2.4022
  464TMC3    C1 6903   2.474   2.132   2.029  0.1849 -0.6770 -0.4443
  464TMC3    C2 6904   2.348   2.196   2.032 -0.1746 -0.2350 -0.1692
  464TMC3    C3 6905   2.233   2.118   2.032  0.5486  0.8891 -0.3442
  464TMC3    C4 6906   2.485   1.997   2.017  0.1126  0.2372  0.6572
  464TMC3    C5 6907   2.368   1.926   2.009  1.0316  0.0069  0.1273
  464TMC3    C6 6908   2.239   1.979   2.025  0.0502  0.1531 -0.4353
  464TMC3     C 6909   2.577   2.206   1.967  0.2742  0.3375  0.0853
  464TMC3     O 6910   2.643   2.160   1.877  0.1649  0.0166  0.4282
  464TMC3     H 6911   2.331   2.303   2.030 -0.3123 -0.2189  1.7380
  464TMC3    H1 6912   2.580   1.949   1.993  0.0493  0.8015 -0.7098
  464TMC3    H2 6913   2.143   1.928   2.022 -0.0705  0.3835 -0.5412
  464TMC3    C7 6914   2.386   1.793   1.948 -0.0600  0.3755  0.1763
  464TMC3    C8 6915   2.114   2.193   1.987 -0.2777 -0.4435 -0.0235
  464TMC3    O1 6916   2.494   1.736   1.940  0.1018 -0.1835  0.1616
  464TMC3    O2 6917   2.135   2.286   1.912 -0.0720  0.6481  0.2401
  465MPD2     C 6918   3.702   1.501  16.483 -0.5043  0.8522  0.1733
  465MPD2    C1 6919   3.618   1.466  16.593 -0.1299 -0.9959  0.1703
  465MPD2    C2 6920   3.479   1.464  16.572  0.6099  0.3436  0.1344
  465MPD2    C3 6921   3.418   1.500  16.457 -0.1122 -0.8269  0.2530
  465MPD2    C4 6922   3.499   1.532  16.350 -0.0216  0.1331  0.3869
  465MPD2    C5 6923   3.638   1.539  16.366 -0.5907  0.0862 -0.1123
  465MPD2     H 6924   3.415   1.438  16.655 -2.1443  1.1511 -1.7046
  465MPD2    H1 6925   3.462   1.559  16.251 -1.1465  0.7278  0.9716
  465MPD2    H2 6926   3.809   1.516  16.495 -0.4912  1.3888 -0.5902
  465MPD2    H3 6927   3.692   1.568  16.278  0.3122  2.4028  1.2045
  465MPD2     N 6928   3.272   1.507  16.457 -0.1102  0.1212 -0.1974
  465MPD2    H5 6929   3.221   1.467  16.534  1.3694 -1.2648  0.0523
  465MPD2    N1 6930   3.659   1.429  16.723  0.0190  0.3330 -0.0266
  465MPD2    H7 6931   3.585   1.412  16.790  0.4326  0.4508  0.4577
  466TMC3    C1 6932   2.897   1.572  16.553  0.2810  0.1917  0.2440
  466TMC3    C2 6933   2.834   1.682  16.503 -0.3095  0.1420  0.9382
  466TMC3    C3 6934   2.894   1.743  16.394 -0.1441 -0.3412  0.0836
  466TMC3    C4 6935   3.022   1.531  16.506  0.4992  0.3344  0.1181
  466TMC3    C5 6936   3.066   1.586  16.388  0.5292 -0.0497  0.4130
  466TMC3    C6 6937   3.007   1.697  16.334  1.1481 -0.3681 -0.0981
  466TMC3     C 6938   2.874   1.532  16.691 -0.0045 -0.2740  0.6344
  466TMC3     O 6939   2.974   1.503  16.756  0.4848  0.2557  0.2763
  466TMC3     H 6940   2.750   1.735  16.546 -0.8402  0.0581  0.0056
  466TMC3    H1 6941   3.068   1.438  16.538 -1.6172 -0.2353  1.5201
  466TMC3    H2 6942   3.043   1.749  16.246 -0.7100  1.2635  0.1152
  466TMC3    C7 6943   3.202   1.569  16.355 -0.3962 -0.3327  0.1238
  466TMC3    C8 6944   2.871   1.887  16.380  0.0205 -0.2488 -0.1660
  466TMC3    O1 6945   3.248   1.627  16.261 -0.5712 -0.4363  0.1775
  466TMC3    O2 6946   2.880   1.937  16.271 -0.3470 -0.0622  0.5106
  467TMC3    C1 6947   3.841   4.707  13.655 -0.1285  0.4351 -0.5185
  467TMC3    C2 6948   3.839   0.060  13.539  0.0032  0.3139 -0.7671
  467TMC3    C3 6949   3.785   0.019  13.422 -0.0687  0.4865 -0.2339
  467TMC3    C4 6950   3.773   4.589  13.651  1.2600  0.5402  0.5634
  467TMC3    C5 6951   3.721   4.546  13.533  0.4267 -0.3083  0.0125
  467TMC3    C6 6952   3.722   4.618  13.415  0.1602  0.5494  0.6597
  467TMC3     C 6953   3.972   4.716  13.702  0.2673 -0.2474 -0.4414
  467TMC3     O 6954   4.047   4.684  13.615  0.2423  0.1743 -0.3233
  467TMC3     H 6955   3.855   0.167  13.549 -1.6613  0.4922 -0.0488
  467TMC3    H1 6956   3.776   4.518  13.733 -0.9191 -3.0320 -2.4212
  467TMC3    H2 6957   3.682   4.583  13.320  0.8420  1.5229  0.0125
  467TMC3    C7 6958   3.616   4.442  13.538  0.2163 -0.0544  0.2553
  467TMC3    C8 6959   3.863   0.060  13.309 -0.5148 -0.4079  0.1557
  467TMC3    O1 6960   3.588   4.381  13.431 -0.3236 -0.1483 -0.0494
  467TMC3    O2 6961   3.810   0.101  13.210 -0.1601  0.0137  0.8703
  468MPD2     C 6962   2.922   2.811  11.133  0.4081  0.3332 -0.1477
  468MPD2    C1 6963   3.051   2.805  11.089 -0.6239  0.1963 -0.0791
  468MPD2    C2 6964   3.080   2.720  10.985  0.4677  0.1997 -0.5643
  468MPD2    C3 6965   2.977   2.644  10.926 -0.6623 -0.5764 -0.0202
  468MPD2    C4 6966   2.849   2.677  10.950  0.3139  0.0133  0.1941
  468MPD2    C5 6967   2.818   2.760  11.054  0.1378  0.2742 -0.5060
  468MPD2     H 6968   3.185   2.711  10.960  1.1542 -0.0309  2.3150
  468MPD2    H1 6969   2.771   2.624  10.897 -0.5487  0.9107  0.5570
  468MPD2    H2 6970   2.893   2.863  11.224 -0.3893  1.5055 -1.0718
  468MPD2    H3 6971   2.714   2.773  11.082  0.4302  1.2187  0.1409
  468MPD2     N 6972   3.003   2.545  10.829 -0.0550  0.3545  0.2036
  468MPD2    H5 6973   2.931   2.487  10.787 -0.4186  1.4876 -0.7315
  468MPD2    N1 6974   3.156   2.884  11.143  0.0588  0.0775 -0.5793
  468MPD2    H7 6975   3.245   2.886  11.095  0.6635  1.2920  0.5810
  469TMC3    C1 6976   3.266   3.050  11.263  0.2919  0.2115  0.0134
  469TMC3    C2 6977   3.351   3.071  11.159  0.0617  0.3210  0.0224
  469TMC3    C3 6978   3.459   3.151  11.188  0.2701 -0.9151 -0.1844
  469TMC3    C4 6979   3.277   3.117  11.385 -0.0957 -0.4526  0.5275
  469TMC3    C5 6980   3.378   3.209  11.401  0.0930  0.6273  0.2477
  469TMC3    C6 6981   3.471   3.227  11.303  0.0370 -0.8682  0.2277
  469TMC3     C 6982   3.150   2.968  11.246 -0.0925  0.3877 -0.6742
  469TMC3     O 6983   3.063   2.972  11.328  0.2528  0.2433  0.3810
  469TMC3     H 6984   3.341   3.017  11.065 -1.8390 -1.9464  1.5384
  469TMC3    H1 6985   3.204   3.100  11.462 -0.0010  0.7806  0.8981
  469TMC3    H2 6986   3.558   3.291  11.320  0.5259 -2.1491  2.5911
  469TMC3    C7 6987   3.380   3.279  11.527 -0.5487  0.2996 -0.1649
  469TMC3    C8 6988   3.568   3.118  11.094 -0.6091 -1.0817 -0.5391
  469TMC3    O1 6989   3.335   3.216  11.619  0.4138 -0.5094  0.0676
  469TMC3    O2 6990   3.532   3.107  10.977  0.3936  0.4779  0.3825
  470TMC3    C1 6991   0.693   4.000   0.700 -0.4374 -1.0466  0.0965
  470TMC3    C2 6992   0.742   4.125   0.720 -0.9812 -0.0716  0.0976
  470TMC3    C3 6993   0.812   4.149   0.834 -0.2191  0.0797 -0.1597
  470TMC3    C4 6994   0.712   3.897   0.788 -0.2497  0.0121 -0.8519
  470TMC3    C5 6995   0.776   3.923   0.903  0.9770 -0.0271 -0.1371
  470TMC3    C6 6996   0.843   4.048   0.920  0.1746  0.1380  0.2585
  470TMC3     C 6997   0.586   3.987   0.599 -0.4448  0.2665  0.3622
  470TMC3     O 6998   0.573   4.072   0.506 -0.3831 -0.5143 -0.2681
  470TMC3     H 6999   0.706   4.208   0.660 -0.6773 -0.8836 -1.2054
  470TMC3    H1 7000   0.658   3.804   0.768  1.7323 -0.4586 -4.0763
  470TMC3    H2 7001   0.901   4.065   1.010 -0.3944  0.2124  0.6104
  470TMC3    C7 7002   0.810   3.814   0.990  0.0780 -0.4415  0.5563
  470TMC3    C8 7003   0.859   4.285   0.864 -0.0015 -0.7705 -0.3586
  470TMC3    O1 7004   0.794   3.699   0.945 -0.3224 -0.2137  0.2168
  470TMC3    O2 7005   0.906   4.302   0.976 -0.4710  0.0804 -0.8275
  471MPD2     C 7006   1.005   0.429  16.315 -0.3372 -0.4118  0.3908
  471MPD2    C1 7007   1.093   0.318  16.316 -0.3834 -0.0433  0.4549
  471MPD2    C2 7008   1.121   0.263  16.441  0.1505 -0.0598 -0.2552
  471MPD2    C3 7009   1.083   0.321  16.558  0.0218 -0.0180  0.7998
  471MPD2    C4 7010   1.009   0.436  16.550  0.7221  0.3959  0.0806
  471MPD2    C5 7011   0.985   0.496  16.433  0.5835  0.2826 -0.0571
  471MPD2     H 7012   1.168   0.165  16.449 -0.0443 -0.1930 -0.7685
  471MPD2    H1 7013   0.973   0.482  16.641 -0.4909 -0.4374  0.0335
  471MPD2    H2 7014   0.979   0.484  16.225 -0.5821  0.6671  1.1164
  471MPD2    H3 7015   0.920   0.582  16.435 -0.2314 -0.3192 -0.6533
  471MPD2     N 7016   1.108   0.264  16.686  0.4044  0.4839 -0.0312
  471MPD2    H5 7017   1.081   0.316  16.769 -0.7228 -2.2472  1.3131
  471MPD2    N1 7018   1.147   0.259  16.205  0.6968  0.1141 -0.0444
  471MPD2    H7 7019   1.200   0.173  16.218 -0.7874 -1.0686 -1.8979
  472TMC3    C1 7020   1.162   0.200  15.984 -0.6797  0.2769 -0.4583
  472TMC3    C2 7021   1.100   0.215  15.868  0.6757 -0.0385 -0.2656
  472TMC3    C3 7022   1.038   0.110  15.813  0.3269  0.0135  0.2606
  472TMC3    C4 7023   1.177   0.074  16.040 -0.2937 -0.3192 -0.5443
  472TMC3    C5 7024   1.118   4.691  15.974 -0.6684 -0.0440 -0.3498
  472TMC3    C6 7025   1.040   4.705  15.862 -0.6062  0.1437 -0.0485
  472TMC3     C 7026   1.134   0.304  16.081  0.6990  0.4320  0.0438
  472TMC3     O 7027   1.058   0.391  16.042  0.0952 -0.2223 -0.1009
  472TMC3     H 7028   1.084   0.314  15.825  0.5295 -0.2896 -0.7910
  472TMC3    H1 7029   1.240   0.055  16.126 -0.8064 -0.6324 -0.2364
  472TMC3    H2 7030   0.991   4.630  15.800  0.9333 -0.3351 -0.6938
  472TMC3    C7 7031   1.078   4.578  16.064  0.1598  0.2255  0.3955
  472TMC3    C8 7032   0.897   0.147  15.792 -0.4570  0.0250  0.6462
  472TMC3    O1 7033   1.102   4.584  16.183  0.4735  0.3824 -0.1529
  472TMC3    O2 7034   0.867   0.248  15.729 -0.2374 -0.0048 -0.0789
  473MPD2     C 7035   0.558   2.603  13.563 -0.1930  0.0468 -0.6739
  473MPD2    C1 7036   0.689   2.637  13.559 -0.2766 -0.4767  0.6092
  473MPD2    C2 7037   0.751   2.705  13.665  0.3462  0.3289 -0.0412
  473MPD2    C3 7038   0.667   2.747  13.770  0.7437  0.6810 -0.6083
  473MPD2    C4 7039   0.531   2.724  13.770 -0.7590 -0.2695  0.4457
  473MPD2    C5 7040   0.479   2.653  13.666 -0.2959 -0.1931 -0.4478
  473MPD2     H 7041   0.856   2.733  13.660  0.4225  0.1738  0.7029
  473MPD2    H1 7042   0.460   2.757  13.845 -0.6914 -2.3242  1.4251
  473MPD2    H2 7043   0.502   2.562  13.480  0.8982  0.5344 -1.6426
  473MPD2    H3 7044   0.375   2.625  13.656 -1.0440  1.8790  1.4826
  473MPD2     N 7045   0.714   2.823  13.880  0.2068  0.2571 -0.7080
  473MPD2    H5 7046   0.644   2.861  13.942  0.4408  0.7980 -0.7796
  473MPD2    N1 7047   0.770   2.606  13.446 -0.0048 -0.3642  0.2377
  473MPD2    H7 7048   0.866   2.638  13.454 -0.1447 -0.4560  2.2021
  474TMC3    C1 7049   0.860   2.971  14.001  0.5475 -0.4162  0.2505
  474TMC3    C2 7050   0.765   3.068  13.994 -0.2218  0.3504  0.1470
  474TMC3    C3 7051   0.784   3.177  14.075 -0.3712 -0.1786 -0.0216
  474TMC3    C4 7052   0.966   2.979  14.084  1.0920 -0.4284  0.4502
  474TMC3    C5 7053   0.963   3.072  14.183 -0.3481  0.2580 -0.6006
  474TMC3    C6 7054   0.884   3.184  14.170 -0.1455 -0.3419 -0.2529
  474TMC3     C 7055   0.848   2.851  13.911  0.7524 -0.4155  0.6283
  474TMC3     O 7056   0.954   2.797  13.869 -0.0588 -0.4654  0.3048
  474TMC3     H 7057   0.709   3.074  13.901  0.5761 -3.0480 -0.5569
  474TMC3    H1 7058   1.039   2.899  14.086  0.8387 -0.7085 -1.2440
  474TMC3    H2 7059   0.886   3.262  14.245  1.1211  0.5042 -1.1718
  474TMC3    C7 7060   1.089   3.082  14.263  0.2899 -0.0504 -0.0445
  474TMC3    C8 7061   0.731   3.303  14.028 -1.0228  0.2933 -0.5098
  474TMC3    O1 7062   1.187   3.025  14.222  0.1728  0.3846  0.0494
  474TMC3    O2 7063   0.631   3.296  13.955  0.2685 -0.0561 -0.0750
  475MPD2     C 7064   4.591   1.030  10.601 -0.1317 -0.3459  0.0564
  475MPD2    C1 7065   4.554   0.933  10.509  0.3540  0.4248 -0.6542
  475MPD2    C2 7066   4.418   0.888  10.520 -0.0819  1.1033 -0.3035
  475MPD2    C3 7067   4.339   0.929  10.625  0.2413 -0.7173 -0.5549
  475MPD2    C4 7068   4.392   1.005  10.725  0.1595  0.0128 -0.4503
  475MPD2    C5 7069   4.517   1.068  10.709  0.8169 -1.2892  0.3563
  475MPD2     H 7070   4.380   0.819  10.445  0.7524 -0.6039  0.8480
  475MPD2    H1 7071   4.334   1.044  10.808  2.5333  0.9071  0.7600
  475MPD2    H2 7072   4.683   1.088  10.602  0.5984 -1.5038  0.6425
  475MPD2    H3 7073   4.552   1.138  10.784 -0.3594 -1.0282  0.6603
  475MPD2     N 7074   4.201   0.897  10.625  0.3870  0.4547  0.1904
  475MPD2    H5 7075   4.163   0.850  10.544 -1.9362 -1.8607  2.6221
  475MPD2    N1 7076   4.648   0.900  10.406 -0.3809  0.0798 -0.5492
  475MPD2    H7 7077   0.000   0.968  10.393  0.2175 -0.0929  1.8425
  476TMC3    C1 7078   0.040   0.785  10.229 -0.1169 -0.1965  0.0458
  476TMC3    C2 7079   0.006   0.705  10.125  0.3899 -0.9463  0.5828
  476TMC3    C3 7080   0.048   0.747  10.000  0.1639 -0.0826 -0.0254
  476TMC3    C4 7081   0.124   0.894  10.225 -0.0279 -0.1657  0.1475
  476TMC3    C5 7082   0.171   0.927  10.105  0.4731  0.6284  0.4171
  476TMC3    C6 7083   0.128   0.855   9.992 -0.1725 -0.4332 -0.1372
  476TMC3     C 7084   4.642   0.793  10.322 -0.3094 -0.4294  0.8346
  476TMC3     O 7085   4.569   0.699  10.336  0.4306 -0.2793 -0.4724
  476TMC3     H 7086   4.646   0.635  10.139 -0.5577  0.1547  0.5919
  476TMC3    H1 7087   0.173   0.922  10.318 -0.6597  2.9671 -0.4603
  476TMC3    H2 7088   0.161   0.891   9.895  0.2169 -1.5026 -0.4025
  476TMC3    C7 7089   0.252   1.042  10.088  0.0742 -0.5609 -0.5199
  476TMC3    C8 7090   4.660   0.760   9.899  0.4208  0.6132 -0.1077
  476TMC3    O1 7091   0.299   1.069   9.978 -0.5826 -0.1410  0.6854
  476TMC3    O2 7092   4.646   0.866   9.838 -0.0264  0.0344 -0.2708
  477MPD2     C 7093   1.501   1.789  11.321  0.2251  0.0462 -0.8599
  477MPD2    C1 7094   1.506   1.878  11.422  0.4981  0.4955  0.0899
  477MPD2    C2 7095   1.585   1.863  11.535 -0.2857  0.0461  0.3374
  477MPD2    C3 7096   1.648   1.744  11.559  0.9559  0.3478 -0.0790
  477MPD2    C4 7097   1.619   1.639  11.471  0.3623 -0.5797  0.3145
  477MPD2    C5 7098   1.556   1.672  11.345  0.4798 -1.1839 -0.3705
  477MPD2     H 7099   1.599   1.941  11.608  1.1275 -0.0011  0.1123
  477MPD2    H1 7100   1.656   1.538  11.478  0.5417 -0.7726 -3.1658
  477MPD2    H2 7101   1.439   1.801  11.233 -0.4939  1.4041 -0.1847
  477MPD2    H3 7102   1.550   1.607  11.259  0.7098 -0.7141 -0.7450
  477MPD2     N 7103   1.729   1.734  11.678  0.6034  0.1162  0.1880
  477MPD2    H5 7104   1.733   1.813  11.742 -0.8228 -2.5081  3.4982
  477MPD2    N1 7105   1.434   1.997  11.406  0.3942  0.4289  0.2013
  477MPD2    H7 7106   1.397   2.001  11.311  1.3178  0.0770 -0.1697
  478TMC3    C1 7107   1.351   2.222  11.453 -0.2559  1.0126  0.0803
  478TMC3    C2 7108   1.318   2.307  11.554 -0.2639  0.1531 -0.1072
  478TMC3    C3 7109   1.243   2.413  11.526  0.0805 -0.1891 -0.3713
  478TMC3    C4 7110   1.299   2.235  11.330 -0.0652 -0.0744  0.1764
  478TMC3    C5 7111   1.225   2.347  11.302 -0.1495  0.7848  0.6010
  478TMC3    C6 7112   1.187   2.432  11.400  0.4958  0.0822 -0.1206
  478TMC3     C 7113   1.415   2.103  11.498  0.7189  0.3232  0.7690
  478TMC3     O 7114   1.464   2.112  11.610  0.4107 -0.4964  0.1023
  478TMC3     H 7115   1.371   2.299  11.648  0.4640  1.5759 -0.4027
  478TMC3    H1 7116   1.355   2.190  11.249 -0.0654 -1.0840  0.7320
  478TMC3    H2 7117   1.129   2.520  11.376  0.4423 -0.2896 -1.3607
  478TMC3    C7 7118   1.245   2.414  11.174  0.1698 -0.1004 -0.1896
  478TMC3    C8 7119   1.224   2.500  11.641 -0.1972  0.3205 -0.1516
  478TMC3    O1 7120   1.215   2.534  11.184 -0.0249  0.5244  0.0829
  478TMC3    O2 7121   1.222   2.443  11.748 -0.0732 -0.2933 -0.5949
  479MPD2     C 7122   0.661   4.696  15.127  0.2787  0.2038 -0.4628
  479MPD2    C1 7123   0.608   4.585  15.193  1.2586  0.2028 -0.2066
  479MPD2    C2 7124   0.661   4.561  15.314 -0.5258  0.1022 -0.2838
  479MPD2    C3 7125   0.754   4.644  15.380 -0.2069 -0.1208 -0.1558
  479MPD2    C4 7126   0.805   0.032  15.313  0.0998  0.7338 -0.3245
  479MPD2    C5 7127   0.761   0.053  15.186  0.3933  0.9051 -0.1042
  479MPD2     H 7128   0.633   4.466  15.359  0.5746 -0.7382 -1.3733
  479MPD2    H1 7129   0.866   0.105  15.365 -0.6381  0.2753  1.1667
  479MPD2    H2 7130   0.626   0.004  15.029  1.1528  2.3571 -0.1347
  479MPD2    H3 7131   0.801   0.139  15.134 -2.5608  1.7360 -0.9866
  479MPD2     N 7132   0.799   4.630  15.511  0.5686 -0.1903 -0.1775
  479MPD2    H5 7133   0.890   4.674  15.521 -0.6784  1.9686  1.6485
  479MPD2    N1 7134   0.506   4.511  15.129  0.1871 -0.0976 -0.2534
  479MPD2    H7 7135   0.472   4.559  15.046 -1.3447  0.8692  0.9405
  480TMC3    C1 7136   0.457   4.351  15.703  0.5419 -0.0288 -0.6264
  480TMC3    C2 7137   0.359   4.429  15.657 -0.4091  0.3069 -0.0114
  480TMC3    C3 7138   0.380   4.547  15.600 -0.1350  0.1145  0.4602
  480TMC3    C4 7139   0.583   4.392  15.685 -0.1071  0.7192 -0.3828
  480TMC3    C5 7140   0.610   4.511  15.617 -1.0613  0.0890  0.0727
  480TMC3    C6 7141   0.511   4.593  15.575 -0.2760  0.7197 -0.0904
  480TMC3     C 7142   0.426   4.243  15.793 -0.3144  0.3731 -0.3747
  480TMC3     O 7143   0.512   4.167  15.835 -0.1800 -0.2634  0.1697
  480TMC3     H 7144   0.254   4.408  15.675 -0.2190 -0.6439 -0.0275
  480TMC3    H1 7145   0.658   4.325  15.726 -0.1409  0.3546 -0.9093
  480TMC3    H2 7146   0.532   4.689  15.529  4.0074 -0.0837  0.2523
  480TMC3    C7 7147   0.751   4.553  15.615 -0.1568 -0.2413  0.2813
  480TMC3    C8 7148   0.278   4.599  15.517  0.0465 -0.3714  0.7279
  480TMC3    O1 7149   0.805   4.524  15.720  0.1755 -0.0398  0.6833
  480TMC3    O2 7150   0.174   4.538  15.521 -0.5693 -0.1972  0.7761
  481MPD2     C 7151   2.540   3.691  14.821 -0.2704  0.4471  0.1729
  481MPD2    C1 7152   2.406   3.669  14.820  0.5729  0.1483 -0.2108
  481MPD2    C2 7153   2.328   3.701  14.931  0.1010  1.1130 -0.9123
  481MPD2    C3 7154   2.389   3.755  15.042  0.0174  0.6857  0.5163
  481MPD2    C4 7155   2.525   3.778  15.046  0.0360  0.0659  0.4069
  481MPD2    C5 7156   2.599   3.750  14.931 -0.4443  0.5455 -0.1933
  481MPD2     H 7157   2.222   3.681  14.924  0.4246 -0.3821 -1.3639
  481MPD2    H1 7158   2.581   3.826  15.125  1.2764  1.2898 -1.2224
  481MPD2    H2 7159   2.606   3.674  14.736 -0.3546  1.6645 -0.1438
  481MPD2    H3 7160   2.708   3.757  14.935 -0.4618  1.1542 -0.7989
  481MPD2     N 7161   2.309   3.780  15.157 -0.2132 -0.2047 -0.6207
  481MPD2    H5 7162   2.353   3.830  15.233  1.1008 -1.0375 -0.8431
  481MPD2    N1 7163   2.354   3.637  14.695  0.8793  0.7017 -0.5549
  481MPD2    H7 7164   2.412   3.599  14.621  1.5440 -4.1977  2.4977
  482TMC3    C1 7165   2.187   3.593  14.529  0.4432 -0.3451  0.1021
  482TMC3    C2 7166   2.268   3.516  14.444 -0.1912  0.0979 -0.0085
  482TMC3    C3 7167   2.215   3.491  14.316  0.1333 -0.2232  0.2096
  482TMC3    C4 7168   2.059   3.624  14.490  0.5509 -0.0143  1.0532
  482TMC3    C5 7169   2.030   3.620  14.359  0.3225 -0.9887 -0.1560
  482TMC3    C6 7170   2.098   3.552  14.268 -0.0182 -0.7251 -0.1207
  482TMC3     C 7171   2.224   3.643  14.661  0.2466  0.0782  0.5483
  482TMC3     O 7172   2.128   3.694  14.723 -0.2178 -0.1493  0.1705
  482TMC3     H 7173   2.360   3.469  14.476 -1.0944  0.0926  2.6075
  482TMC3    H1 7174   1.988   3.678  14.552 -2.0319 -0.3618 -1.5653
  482TMC3    H2 7175   2.064   3.538  14.166 -1.3530  0.0270  0.2271
  482TMC3    C7 7176   1.895   3.644  14.338  0.1987  0.4222  0.2604
  482TMC3    C8 7177   2.281   3.396  14.229  0.2065 -0.2537 -0.1639
  482TMC3    O1 7178   1.818   3.590  14.417  0.1672 -0.1154 -0.1641
  482TMC3    O2 7179   2.219   3.368  14.130 -0.0071 -0.2701  0.2575
  483TMC3    C1 7180   4.343   3.019   0.632 -1.2425 -0.1958 -0.5021
  483TMC3    C2 7181   4.423   3.135   0.636 -0.8574 -0.3076 -0.4219
  483TMC3    C3 7182   4.515   3.147   0.531 -0.1512 -0.2556  0.3572
  483TMC3    C4 7183   4.374   2.912   0.543 -0.2999  0.3565 -0.1602
  483TMC3    C5 7184   4.471   2.930   0.447  0.5838  0.0398  0.4237
  483TMC3    C6 7185   4.528   3.055   0.430  0.5263  0.2445  0.1592
  483TMC3     C 7186   4.313   2.987   0.771 -0.1002  0.0947 -0.2407
  483TMC3     O 7187   4.254   3.071   0.839 -0.5064 -0.3628  0.2537
  483TMC3     H 7188   4.407   3.209   0.714  2.1247 -1.5526  1.3318
  483TMC3    H1 7189   4.323   2.817   0.552  0.1863  0.1319  0.2388
  483TMC3    H2 7190   4.607   3.075   0.359 -0.6252  0.3278 -1.0810
  483TMC3    C7 7191   4.570   2.822   0.470  0.2713 -0.2554  0.0283
  483TMC3    C8 7192   4.644   3.214   0.555 -0.4299 -0.4327  0.0414
  483TMC3    O1 7193   4.548   2.757   0.572 -0.3948 -0.7547  0.0447
  483TMC3    O2 7194   0.020   3.175   0.497  0.1166  0.1888  0.0838
  484MPD2     C 7195   2.517   0.999  12.100 -0.0123  0.3094 -0.3176
  484MPD2    C1 7196   2.563   0.903  12.185  0.2735  0.0825  0.3902
  484MPD2    C2 7197   2.704   0.875  12.189  0.2799  0.1486 -0.2924
  484MPD2    C3 7198   2.794   0.951  12.114  0.2026  0.8631  0.2544
  484MPD2    C4 7199   2.749   1.053  12.040 -0.4795 -0.0279 -0.4825
  484MPD2    C5 7200   2.611   1.066  12.029 -0.0312 -0.3337  0.2220
  484MPD2     H 7201   2.743   0.796  12.252  0.8653  2.3096  2.0629
  484MPD2    H1 7202   2.806   1.127  11.986  1.0559 -0.0052  1.1809
  484MPD2    H2 7203   2.409   1.012  12.104 -0.0094  0.6144 -1.2511
  484MPD2    H3 7204   2.576   1.147  11.965  0.7435 -0.5992 -0.5350
  484MPD2     N 7205   2.936   0.941  12.120 -0.0363  0.5619  0.4801
  484MPD2    H5 7206   2.979   1.023  12.078  1.1818  0.0180  0.6550
  484MPD2    N1 7207   2.468   0.832  12.260 -0.2877  0.2069  0.3024
  484MPD2    H7 7208   2.372   0.830  12.226  0.2679  0.0123 -1.2386
  485TMC3    C1 7209   3.149   0.867  12.188 -0.0655  1.0262  0.0527
  485TMC3    C2 7210   3.222   0.750  12.216  0.5293 -0.1517  0.0670
  485TMC3    C3 7211   3.339   0.752  12.289  0.3060 -0.0231 -1.2185
  485TMC3    C4 7212   3.207   0.991  12.210  0.2661  0.1145 -0.1744
  485TMC3    C5 7213   3.327   0.988  12.273 -0.5171 -0.4935  0.0859
  485TMC3    C6 7214   3.385   0.877  12.317  0.1482 -0.2007  0.4820
  485TMC3     C 7215   3.004   0.842  12.183  0.3547  0.5376 -0.2145
  485TMC3     O 7216   2.955   0.743  12.244  0.8363 -0.0989  1.1657
  485TMC3     H 7217   3.162   0.659  12.217  0.8835 -0.3980 -1.0353
  485TMC3    H1 7218   3.149   1.081  12.199 -1.0892 -0.7682 -0.2475
  485TMC3    H2 7219   3.456   0.887  12.398  1.6185  1.8523 -1.0523
  485TMC3    C7 7220   3.421   1.076  12.210  0.2309  0.9078 -0.1568
  485TMC3    C8 7221   3.443   0.665  12.251 -0.5044  0.5107 -0.2968
  485TMC3    O1 7222   3.374   1.172  12.153  0.2068 -0.1593  0.1201
  485TMC3    O2 7223   3.554   0.717  12.259 -0.3013  0.3275 -0.5861
  486MPD2     C 7224   0.392   4.537  12.785  0.4567  0.4908  0.5255
  486MPD2    C1 7225   0.316   4.521  12.673  0.5698 -0.3100  0.0854
  486MPD2    C2 7226   0.314   4.620  12.577 -0.0273  0.2123  0.9275
  486MPD2    C3 7227   0.399   0.010  12.597  0.1109 -0.1257 -0.4494
  486MPD2    C4 7228   0.469   0.026  12.716 -0.1564  0.2283  0.3790
  486MPD2    C5 7229   0.452   4.652  12.810  0.5848  0.2762  0.8489
  486MPD2     H 7230   0.260   4.610  12.484  0.1796  0.8315  0.7405
  486MPD2    H1 7231   0.523   0.113  12.750 -0.9398  0.0289  2.1055
  486MPD2    H2 7232   0.386   4.455  12.856 -1.4698 -1.5031 -1.9139
  486MPD2    H3 7233   0.491   4.677  12.908  0.6817  1.4825  0.5034
  486MPD2     N 7234   0.410   0.117  12.503  0.4435  0.5850  0.0320
  486MPD2    H5 7235   0.389   0.088  12.408  1.2740  0.9161 -0.2527
  486MPD2    N1 7236   0.239   4.400  12.668  0.1998 -0.6993 -0.2414
  486MPD2    H7 7237   0.250   4.330  12.740  1.2210 -0.5534 -0.2546
  487TMC3    C1 7238   0.078   4.252  12.622 -0.2214 -0.2812  0.0408
  487TMC3    C2 7239   0.061   4.154  12.527 -0.8155 -0.3842 -0.6961
  487TMC3    C3 7240   0.056   4.024  12.569  0.1055  0.1562  1.1055
  487TMC3    C4 7241   0.074   4.213  12.753 -0.1063  0.2630 -0.1840
  487TMC3    C5 7242   0.066   4.087  12.787 -0.2770  0.0956 -0.4472
  487TMC3    C6 7243   0.073   3.982  12.697 -0.1780  0.2142 -0.0223
  487TMC3     C 7244   0.142   4.371  12.579 -1.4297 -0.0139  0.4055
  487TMC3     O 7245   0.126   4.430  12.473  0.4291  0.0692 -0.0875
  487TMC3     H 7246   0.041   4.180  12.424 -1.6090 -0.0707 -0.4597
  487TMC3    H1 7247   0.088   4.284  12.834 -0.1540  0.4038 -0.2983
  487TMC3    H2 7248   0.052   3.880  12.729 -1.1176 -0.2367 -2.0838
  487TMC3    C7 7249   0.049   4.067  12.934  0.6227  0.4721  0.2751
  487TMC3    C8 7250   0.056   3.923  12.469  0.0022 -0.3392 -0.0445
  487TMC3    O1 7251   0.091   4.157  13.008  0.0373 -0.3752 -0.0081
  487TMC3    O2 7252   0.114   3.952  12.367 -0.3882  0.0925 -0.3526
  488MPD2     C 7253   0.494   1.350  16.382  0.2299  0.4921 -1.1961
  488MPD2    C1 7254   0.576   1.414  16.476 -0.3980 -0.3900 -0.2331
  488MPD2    C2 7255   0.554   1.385  16.614 -0.0508  0.3324 -0.1113
  488MPD2    C3 7256   0.471   1.281  16.655 -1.2547  0.2085 -0.0699
  488MPD2    C4 7257   0.404   1.215  16.555  0.9849 -0.0086 -0.0680
  488MPD2    C5 7258   0.408   1.252  16.420 -0.0220 -0.2298  0.4104
  488MPD2     H 7259   0.609   1.422  16.700  1.0401  0.2817 -0.7818
  488MPD2    H1 7260   0.343   1.128  16.578  0.4617  0.3962  0.0631
  488MPD2    H2 7261   0.498   1.374  16.276  2.0213 -1.8981 -1.6871
  488MPD2    H3 7262   0.352   1.191  16.351 -0.0655 -0.6256  0.7993
  488MPD2     N 7263   0.460   1.252  16.791 -0.0052  0.2856  0.0993
  488MPD2    H5 7264   0.502   1.324  16.848 -1.9338  1.7484 -0.3344
  488MPD2    N1 7265   0.678   1.512  16.448  0.5784  0.4901 -0.0709
  488MPD2    H7 7266   0.733   1.541  16.528 -0.5076  0.9496  0.5244
  489TMC3    C1 7267   0.380   1.157  16.993  0.1124  0.2270 -0.9172
  489TMC3    C2 7268   0.497   1.205  17.057  0.0510  0.8172 -0.4559
  489TMC3    C3 7269   0.493   1.231  17.190  0.6800 -0.1456  0.1853
  489TMC3    C4 7270   0.279   1.105  17.068 -0.4319 -0.7052  0.0490
  489TMC3    C5 7271   0.287   1.117  17.203 -0.5990 -0.2542  1.1007
  489TMC3    C6 7272   0.390   1.183  17.268  0.2388 -0.4061  0.6439
  489TMC3     C 7273   0.367   1.157  16.848 -0.3286 -1.0892  0.3246
  489TMC3     O 7274   0.285   1.079  16.802  0.6996 -1.0404 -0.8688
  489TMC3     H 7275   0.582   1.242  17.001  0.5314  0.2815 -0.0705
  489TMC3    H1 7276   0.211   1.040  17.014 -0.7383 -0.2981 -0.0532
  489TMC3    H2 7277   0.388   1.206  17.374  1.4214 -0.9605  0.7931
  489TMC3    C7 7278   0.204   1.020  17.270  0.6706 -0.4926  0.4585
  489TMC3    C8 7279   0.578   1.334  17.242  0.5689  0.8376  0.4140
  489TMC3    O1 7280   0.234   0.985  17.384  0.1517 -0.3655 -0.3311
  489TMC3    O2 7281   0.693   1.324  17.209  0.1211 -0.5320  0.0863
  490MPD2     C 7282   1.514   0.099  17.333  0.0325  0.1186 -0.8491
  490MPD2    C1 7283   1.457   0.200  17.412 -0.1773  0.5029 -0.3827
  490MPD2    C2 7284   1.485   0.210  17.545 -0.0374 -0.1160  0.3191
  490MPD2    C3 7285   1.586   0.138  17.605  0.1515  0.2439  1.3029
  490MPD2    C4 7286   1.649   0.046  17.523 -0.2436 -0.6784 -0.7112
  490MPD2    C5 7287   1.607   0.026  17.394 -1.0048  0.4970  0.8720
  490MPD2     H 7288   1.427   0.284  17.599  1.0409  0.0168  1.2842
  490MPD2    H1 7289   1.733   4.705  17.553 -1.9507 -1.6965  1.9846
  490MPD2    H2 7290   1.496   0.090  17.227 -1.3275  1.3484 -0.7228
  490MPD2    H3 7291   1.648   4.665  17.335  0.5023  0.7915  1.4827
  490MPD2     N 7292   1.628   0.146   0.050 -0.3963 -0.8265 -0.2633
  490MPD2    H5 7293   1.695   0.077   0.081 -2.2925 -3.0308 -1.0986
  490MPD2    N1 7294   1.349   0.281  17.365  0.4197 -0.0274  0.4414
  490MPD2    H7 7295   1.291   0.323  17.438 -2.1010  1.3489 -2.3755
  491TMC3    C1 7296   1.184   0.363  17.220 -0.6051  0.1382  0.0070
  491TMC3    C2 7297   1.091   0.351  17.324 -0.1728 -0.9996  0.8339
  491TMC3    C3 7298   0.974   0.411  17.313 -0.3489 -0.4967 -0.2186
  491TMC3    C4 7299   1.159   0.442  17.110 -0.3313  0.1690  0.2830
  491TMC3    C5 7300   1.041   0.510  17.104  0.3711 -0.4827 -0.1164
  491TMC3    C6 7301   0.949   0.491  17.208 -0.7829 -0.0119 -0.9273
  491TMC3     C 7302   1.316   0.310  17.233 -0.2919  0.4487  0.3819
  491TMC3     O 7303   1.394   0.302  17.137  0.1410  0.4604  0.6510
  491TMC3     H 7304   1.117   0.293  17.412  0.4374  0.1077  1.3801
  491TMC3    H1 7305   1.231   0.450  17.030  0.1561  3.2445  1.0350
  491TMC3    H2 7306   0.859   0.551  17.208 -1.2819 -0.7696 -0.8189
  491TMC3    C7 7307   0.988   0.515  16.966 -0.0787 -0.4762  0.3349
  491TMC3    C8 7308   0.877   0.394  17.420  0.0105 -0.5025 -0.3785
  491TMC3    O1 7309   1.032   0.439  16.884  0.7043  0.0774 -0.4107
  491TMC3    O2 7310   0.794   0.481  17.414 -0.2744 -0.2147 -0.0426
  492MPD2     C 7311   1.540   1.040  11.072 -0.2756 -0.1557 -0.1835
  492MPD2    C1 7312   1.468   0.934  11.011 -0.2737 -0.3632 -0.2481
  492MPD2    C2 7313   1.373   0.867  11.081  0.2657 -0.3945 -0.3818
  492MPD2    C3 7314   1.347   0.910  11.214  0.3221 -1.2525 -0.4064
  492MPD2    C4 7315   1.414   1.017  11.272  0.5114  0.1731 -0.1452
  492MPD2    C5 7316   1.514   1.076  11.206  0.4264  0.4965  0.1914
  492MPD2     H 7317   1.312   0.794  11.029 -0.0465  0.4029 -1.1354
  492MPD2    H1 7318   1.382   1.050  11.370 -0.6677 -2.4842  0.3688
  492MPD2    H2 7319   1.611   1.098  11.014 -1.0394  0.9006 -0.0612
  492MPD2    H3 7320   1.571   1.152  11.258  1.7894  0.6670 -1.5455
  492MPD2     N 7321   1.231   0.863  11.280 -0.0163  0.2583  0.7371
  492MPD2    H5 7322   1.213   0.904  11.372 -2.2698 -1.1138  0.9121
  492MPD2    N1 7323   1.505   0.909  10.876 -0.0100  1.0234 -0.0946
  492MPD2    H7 7324   1.573   0.976  10.842  0.3406  0.6070 -0.2115
  493TMC3    C1 7325   1.491   0.819  10.651  0.5040 -0.6421 -0.1010
  493TMC3    C2 7326   1.609   0.875  10.620 -0.1651  0.4768  0.2306
  493TMC3    C3 7327   1.641   0.883  10.486  0.2469  0.1219  0.3209
  493TMC3    C4 7328   1.411   0.751  10.558 -0.6222  0.5639 -0.7525
  493TMC3    C5 7329   1.452   0.764  10.428 -0.1816 -0.1150  0.9337
  493TMC3    C6 7330   1.560   0.840  10.390  0.1299  0.4964  0.1763
  493TMC3     C 7331   1.451   0.811  10.790 -0.2934 -0.5049 -0.9919
  493TMC3     O 7332   1.365   0.728  10.812  0.3009  0.2420 -0.4073
  493TMC3     H 7333   1.678   0.897  10.700 -0.3119  2.1328 -0.1004
  493TMC3    H1 7334   1.319   0.700  10.583  0.2342 -0.0113  1.2602
  493TMC3    H2 7335   1.591   0.854  10.287  1.1868 -1.4459  0.2296
  493TMC3    C7 7336   1.371   0.715  10.317 -0.2403 -0.2506 -0.0900
  493TMC3    C8 7337   1.770   0.925  10.457  0.0997 -0.3070  0.1769
  493TMC3    O1 7338   1.360   0.782  10.217  0.6467 -0.2042  0.1368
  493TMC3    O2 7339   1.856   0.895  10.543  0.1864  0.5619  0.3609
  494TMC3    C1 7340   2.125   2.680   0.736  0.1134  0.3810 -0.2023
  494TMC3    C2 7341   2.133   2.546   0.718  0.6713  0.1878 -0.1669
  494TMC3    C3 7342   2.101   2.490   0.597 -0.3365 -0.7898  0.0733
  494TMC3    C4 7343   2.100   2.764   0.633  0.0832  0.3562  0.4499
  494TMC3    C5 7344   2.054   2.715   0.514 -0.4005  0.5368  0.0599
  494TMC3    C6 7345   2.055   2.579   0.497  0.1665  0.0263 -0.4170
  494TMC3     C 7346   2.102   2.719   0.871  0.2471  0.5999  0.2382
  494TMC3     O 7347   2.020   2.801   0.906 -0.9353  0.3773  0.1645
  494TMC3     H 7348   2.135   2.483   0.806 -1.5391 -1.1323 -1.0570
  494TMC3    H1 7349   2.089   2.870   0.652  0.4630 -0.0437  2.8459
  494TMC3    H2 7350   2.023   2.537   0.403  1.8482  1.2885 -1.5654
  494TMC3    C7 7351   2.078   2.793   0.394 -0.4872 -0.0427  0.7075
  494TMC3    C8 7352   2.125   2.345   0.572  0.4477  0.0365 -0.4962
  494TMC3    O1 7353   2.081   2.733   0.290 -0.4310  0.4694  0.8174
  494TMC3    O2 7354   2.168   2.284   0.665 -0.3414 -0.1764  0.0388
  495TMC3    C1 7355   0.610   0.340  14.751  0.1143  0.4554 -0.0716
  495TMC3    C2 7356   0.530   0.376  14.646  0.2643  0.0948 -0.6448
  495TMC3    C3 7357   0.396   0.379  14.675 -0.0036  1.3300  0.2770
  495TMC3    C4 7358   0.565   0.314  14.879 -0.1006  0.5705 -0.0591
  495TMC3    C5 7359   0.434   0.319  14.902  0.2193 -0.1363  0.0571
  495TMC3    C6 7360   0.350   0.349  14.802  0.1769 -0.3112  0.2927
  495TMC3     C 7361   0.709   0.252  14.706 -0.7796  0.4342 -0.4686
  495TMC3     O 7362   0.732   0.147  14.768 -0.1023  0.5494 -0.0589
  495TMC3     H 7363   0.562   0.378  14.542  0.1967 -1.4963 -0.6951
  495TMC3    H1 7364   0.635   0.270  14.949 -1.3568 -1.6527 -0.2157
  495TMC3    H2 7365   0.243   0.342  14.815  0.2938 -2.8855 -0.0133
  495TMC3    C7 7366   0.398   0.277  15.036  0.6913 -0.3885  0.1939
  495TMC3    C8 7367   0.298   0.379  14.572  0.2065 -0.6975 -1.2774
  495TMC3    O1 7368   0.486   0.282  15.120 -0.3612  0.2282 -0.4101
  495TMC3    O2 7369   0.180   0.391  14.604  0.0596 -0.7246 -0.0754
  496MPD2     C 7370   2.343   0.374  14.979 -0.2504 -0.0420 -0.1871
  496MPD2    C1 7371   2.367   0.337  15.109  0.3140  0.3725  0.3799
  496MPD2    C2 7372   2.271   0.360  15.202 -0.0752 -0.0309  0.0385
  496MPD2    C3 7373   2.153   0.419  15.167 -0.8279 -0.5409  0.6437
  496MPD2    C4 7374   2.129   0.458  15.038 -0.6693  0.2731  1.0868
  496MPD2    C5 7375   2.221   0.422  14.944 -0.8168 -0.3559  0.2396
  496MPD2     H 7376   2.284   0.325  15.304 -1.8841 -0.7581  0.0203
  496MPD2    H1 7377   2.035   0.503  15.008 -1.2609 -0.9953  1.0019
  496MPD2    H2 7378   2.427   0.366  14.911  0.6768  1.1351  0.8028
  496MPD2    H3 7379   2.198   0.457  14.844 -0.2771 -0.8971 -0.0714
  496MPD2     N 7380   2.048   0.448  15.260  0.6374  0.2122  0.2350
  496MPD2    H5 7381   1.967   0.494  15.217  2.6292  2.6243 -0.9362
  496MPD2    N1 7382   2.490   0.277  15.131  0.7719  0.4807 -0.4335
  496MPD2    H7 7383   2.542   0.261  15.045 -1.4685 -1.2206 -1.4730
  497TMC3    C1 7384   1.914   0.415  15.452  0.6348  0.4082 -0.0030
  497TMC3    C2 7385   1.842   0.323  15.380 -0.7612  0.2630 -0.4627
  497TMC3    C3 7386   1.806   0.207  15.443 -0.2663 -0.1802 -0.9567
  497TMC3    C4 7387   1.929   0.390  15.583 -0.1941  0.5030 -1.5514
  497TMC3    C5 7388   1.892   0.273  15.644  0.1705  0.4203  0.1791
  497TMC3    C6 7389   1.827   0.178  15.574  0.9195 -0.7000  0.2078
  497TMC3     C 7390   2.049   0.422  15.395  0.3052 -0.1317 -1.3402
  497TMC3     O 7391   2.144   0.409  15.476 -0.3320  0.0957 -0.1637
  497TMC3     H 7392   1.815   0.339  15.276 -1.3215 -1.0809 -0.5211
  497TMC3    H1 7393   1.997   0.449  15.644  1.4641 -1.4375 -1.5179
  497TMC3    H2 7394   1.809   0.087  15.630  0.9630 -1.7315 -1.4860
  497TMC3    C7 7395   1.973   0.242  15.757  0.5091  0.1006 -0.3326
  497TMC3    C8 7396   1.778   0.088  15.354 -0.5371 -0.1497  0.1522
  497TMC3    O1 7397   2.018   0.129  15.762  0.0727  0.4334 -0.2968
  497TMC3    O2 7398   1.793   0.097  15.234 -0.7652  0.3969  0.2806
  498MPD2     C 7399   3.846   0.233   9.201  0.0900 -0.3840 -0.3365
  498MPD2    C1 7400   3.877   0.265   9.329  0.3417 -0.9293  0.3416
  498MPD2    C2 7401   3.814   0.191   9.422  0.0392 -0.3249  0.0444
  498MPD2    C3 7402   3.731   0.088   9.393 -0.5119  0.0204  0.0356
  498MPD2    C4 7403   3.710   0.055   9.262  0.1201  0.5472  0.2188
  498MPD2    C5 7404   3.774   0.122   9.163 -0.4999  0.5277  0.1250
  498MPD2     H 7405   3.837   0.206   9.527  2.9409  0.0736 -0.6356
  498MPD2    H1 7406   3.637   4.700   9.238 -0.4668  0.9247  0.8247
  498MPD2    H2 7407   3.890   0.285   9.116 -1.7763 -2.0944 -2.3288
  498MPD2    H3 7408   3.770   0.098   9.057  0.2797 -0.3371  0.2891
  498MPD2     N 7409   3.659   0.022   9.497 -0.0832  0.1602  0.1276
  498MPD2    H5 7410   3.635   0.063   9.587  1.5934  0.9091  0.2283
  498MPD2    N1 7411   3.968   0.370   9.358  0.0996  0.3146  0.4116
  498MPD2    H7 7412   3.994   0.374   9.456  0.4325  1.8787  0.2667
  499TMC3    C1 7413   4.133   0.538   9.323 -0.1999  0.1088  0.8366
  499TMC3    C2 7414   4.237   0.476   9.390  0.2942  0.1730 -0.1368
  499TMC3    C3 7415   4.354   0.542   9.390  0.3653  0.6336 -0.7935
  499TMC3    C4 7416   4.152   0.651   9.247 -0.2286 -0.2171 -1.0415
  499TMC3    C5 7417   4.274   0.718   9.261 -0.2731  0.3554  0.0811
  499TMC3    C6 7418   4.373   0.668   9.340 -0.8909  0.2515 -0.4565
  499TMC3     C 7419   4.018   0.470   9.272  0.2780 -0.3758 -0.0872
  499TMC3     O 7420   3.978   0.498   9.156 -0.3364 -0.2306  0.0269
  499TMC3     H 7421   4.228   0.375   9.429  1.0096  0.8066  1.6512
  499TMC3    H1 7422   4.071   0.698   9.193 -0.1903  0.6381 -0.3624
  499TMC3    H2 7423   4.466   0.723   9.340 -0.0080 -1.2555 -1.3877
  499TMC3    C7 7424   4.299   0.840   9.195  0.5838 -0.0733 -0.5041
  499TMC3    C8 7425   4.474   0.492   9.459 -0.0050 -0.1685 -0.1735
  499TMC3    O1 7426   4.385   0.909   9.240 -0.1516 -0.1818  0.8211
  499TMC3    O2 7427   4.573   0.562   9.469  0.3374  0.3163 -0.3489
  500MPD2     C 7428   0.884   2.024  10.427  0.1456  0.7186 -0.6714
  500MPD2    C1 7429   0.945   2.078  10.324  0.5744 -0.8729 -0.0192
  500MPD2    C2 7430   0.869   2.092  10.207  0.5349 -0.4492  0.1812
  500MPD2    C3 7431   0.746   2.048  10.196  0.1464 -0.0415  0.2144
  500MPD2    C4 7432   0.694   1.976  10.296 -0.2672  0.2657  0.2431
  500MPD2    C5 7433   0.760   1.971  10.415 -0.4977  0.1496  0.1446
  500MPD2     H 7434   0.915   2.141  10.122 -0.3206 -1.1276 -0.6701
  500MPD2    H1 7435   0.598   1.926  10.293 -0.5462  0.8256 -0.1753
  500MPD2    H2 7436   0.932   1.985  10.517  1.4024  0.3292 -1.5063
  500MPD2    H3 7437   0.723   1.918  10.502 -0.4958  0.8051  0.5393
  500MPD2     N 7438   0.668   2.064  10.079 -0.7103 -0.0640  0.5640
  500MPD2    H5 7439   0.587   2.003  10.078 -0.0553 -0.8651 -3.1019
  500MPD2    N1 7440   1.078   2.119  10.316 -0.5050  0.5436  0.8722
  500MPD2    H7 7441   1.112   2.141  10.222  1.3172 -2.3524  0.8426
  501TMC3    C1 7442   1.311   2.151  10.379  0.0284  0.4122  0.9027
  501TMC3    C2 7443   1.314   2.266  10.304 -0.2631 -0.4552  0.1179
  501TMC3    C3 7444   1.436   2.312  10.275 -0.3104 -0.2608 -0.7124
  501TMC3    C4 7445   1.421   2.072  10.410  0.0228  0.4934  0.4423
  501TMC3    C5 7446   1.544   2.132  10.379 -0.1827 -0.6730 -0.1321
  501TMC3    C6 7447   1.557   2.253  10.313  0.3390  0.3251  0.3546
  501TMC3     C 7448   1.179   2.092  10.413 -0.4240  0.2424 -0.1711
  501TMC3     O 7449   1.162   2.023  10.513  0.1424  0.0024  0.3333
  501TMC3     H 7450   1.218   2.307  10.273  0.3799 -0.4794 -1.9082
  501TMC3    H1 7451   1.409   1.978  10.463 -0.8764 -0.7203 -1.9123
  501TMC3    H2 7452   1.656   2.294  10.297 -0.6399  2.4387 -0.3764
  501TMC3    C7 7453   1.653   2.043  10.409 -0.1310 -0.2907  0.3399
  501TMC3    C8 7454   1.448   2.437  10.225  0.4033  0.2426 -0.7329
  501TMC3    O1 7455   1.628   1.938  10.467  0.8410 -0.4343  0.5966
  501TMC3    O2 7456   1.552   2.496  10.252 -0.4167  0.2253 -0.3259
  502TMC3    C1 7457   0.022   1.038  14.839 -0.1629  0.4851 -0.0198
  502TMC3    C2 7458   4.718   1.176  14.843  0.1259  0.1950  0.0968
  502TMC3    C3 7459   4.595   1.218  14.886  0.5512 -0.0801  0.3435
  502TMC3    C4 7460   4.646   0.950  14.859  0.9710  0.5729 -0.0441
  502TMC3    C5 7461   4.533   0.999  14.904 -0.7600 -0.6544 -0.0839
  502TMC3    C6 7462   4.502   1.128  14.932  0.6266  0.2621 -0.1637
  502TMC3     C 7463   0.139   1.003  14.921  0.1693 -0.4965 -0.1409
  502TMC3     O 7464   0.234   1.080  14.915 -0.6501  0.0069  0.4673
  502TMC3     H 7465   0.082   1.242  14.827 -2.3865  3.5221  0.4722
  502TMC3    H1 7466   4.663   0.843  14.857  0.6270  0.4966  1.5676
  502TMC3    H2 7467   4.404   1.154  14.971  1.7476  2.6243  1.0509
  502TMC3    C7 7468   4.478   0.899  14.996 -0.4670 -0.3347  0.2590
  502TMC3    C8 7469   4.565   1.355  14.874 -0.1106 -0.1352 -0.9515
  502TMC3    O1 7470   4.558   0.838  15.064  0.5589 -0.8612  0.0343
  502TMC3    O2 7471   4.629   1.414  14.789 -0.0369 -0.1963 -0.4653
  503MPD2     C 7472   2.184   1.466  17.016  0.0900 -0.4190  0.2492
  503MPD2    C1 7473   2.207   1.510  17.147  0.3029  0.4203  0.4716
  503MPD2    C2 7474   2.253   1.413  17.236 -0.0771  0.4234  0.1836
  503MPD2    C3 7475   2.298   1.290  17.200 -0.2389 -0.1513  0.0902
  503MPD2    C4 7476   2.282   1.253  17.064 -0.2433  0.3686 -0.4793
  503MPD2    C5 7477   2.227   1.337  16.973  0.1196 -0.5471 -0.8651
  503MPD2     H 7478   2.267   1.452  17.336  0.6959 -1.8232  0.9580
  503MPD2    H1 7479   2.310   1.157  17.023 -2.1845 -1.2452  1.9389
  503MPD2    H2 7480   2.160   1.538  16.938 -2.6544  1.0765  2.4442
  503MPD2    H3 7481   2.219   1.300  16.871  0.5600  0.9715 -1.4592
  503MPD2     N 7482   2.362   1.200  17.284  0.1132  1.0019  0.0471
  503MPD2    H5 7483   2.404   1.114  17.250  2.1555  1.1358  2.2476
  503MPD2    N1 7484   2.206   1.643  17.191 -0.2922  0.5452  0.9441
  503MPD2    H7 7485   2.231   1.648  17.289  1.0925  3.8616  0.4346
  504TMC3    C1 7486   2.440   1.095  17.485 -0.4739 -0.1575 -0.4030
  504TMC3    C2 7487   2.387   1.014  17.581 -0.2976  0.3046  0.4431
  504TMC3    C3 7488   2.465   0.903  17.613  0.4430  0.0703 -0.8123
  504TMC3    C4 7489   2.561   1.078  17.426  0.4019  0.7951 -0.2382
  504TMC3    C5 7490   2.637   0.977  17.469  0.0392 -0.1536  0.0112
  504TMC3    C6 7491   2.591   0.888  17.557 -0.2449  0.7606 -0.1762
  504TMC3     C 7492   2.352   1.193  17.422 -0.5417  0.4976 -0.3933
  504TMC3     O 7493   2.288   1.268  17.494  0.0135 -0.2916  0.1565
  504TMC3     H 7494   2.286   1.027  17.620 -0.9458 -0.1895 -1.0715
  504TMC3    H1 7495   2.605   1.144  17.352 -1.2136  1.8782 -0.2239
  504TMC3    H2 7496   2.632   0.788  17.571 -2.2659  0.1201  1.1583
  504TMC3    C7 7497   2.760   0.956  17.394 -0.7178 -0.8765  0.8826
  504TMC3    C8 7498   2.420   0.808   0.024 -0.2293  1.1131 -0.3625
  504TMC3    O1 7499   2.784   1.008  17.287  0.0157  0.1667  0.0880
  504TMC3    O2 7500   2.300   0.796   0.052  0.5134 -0.4703  0.0148
  505MPD2     C 7501   2.668   4.351  10.874  0.3398 -0.7288  0.4299
  505MPD2    C1 7502   2.762   4.362  10.772  0.7880  0.2839  0.3062
  505MPD2    C2 7503   2.800   4.474  10.707 -0.2077  0.1838 -0.6325
  505MPD2    C3 7504   2.739   4.588  10.749  0.2810  0.4673 -0.4164
  505MPD2    C4 7505   2.636   4.584  10.841 -0.3235 -0.2795  0.4606
  505MPD2    C5 7506   2.593   4.465  10.903  0.1513  0.0563  0.2356
  505MPD2     H 7507   2.896   4.481  10.657 -0.7360  2.1107 -1.3890
  505MPD2    H1 7508   2.594   4.679  10.872  1.4685  0.3456  0.9170
  505MPD2    H2 7509   2.644   4.258  10.924 -0.6252 -0.5170  0.3693
  505MPD2    H3 7510   2.516   4.463  10.979  0.8769 -0.8189  0.9626
  505MPD2     N 7511   2.772   4.714  10.695  0.3896 -0.1578 -0.4126
  505MPD2    H5 7512   2.733   0.077  10.738 -0.8208  0.0452 -1.8841
  505MPD2    N1 7513   2.839   4.243  10.739  0.0551  0.5727 -0.2158
  505MPD2    H7 7514   2.838   4.175  10.814 -0.8038  0.4875 -0.3067
  506TMC3    C1 7515   3.039   4.163  10.674  0.5448  0.1207  0.0451
  506TMC3    C2 7516   3.119   4.125  10.576 -0.2248  0.2482 -0.0601
  506TMC3    C3 7517   3.252   4.113  10.600  0.3964 -1.2668 -0.0623
  506TMC3    C4 7518   3.088   4.206  10.791 -0.4694  0.0898 -0.3008
  506TMC3    C5 7519   3.223   4.181  10.825  0.4193 -0.0146  0.3712
  506TMC3    C6 7520   3.302   4.126  10.726  0.2887 -0.1730  0.7416
  506TMC3     C 7521   2.916   4.227  10.627  0.1093 -0.0134  0.4184
  506TMC3     O 7522   2.911   4.283  10.515 -0.0644 -0.2715  0.8279
  506TMC3     H 7523   3.077   4.108  10.478  0.3622 -1.6503  0.0140
  506TMC3    H1 7524   3.034   4.260  10.868  2.0420  0.3843  1.2709
  506TMC3    H2 7525   3.407   4.131  10.750  0.6673  3.2860 -1.5312
  506TMC3    C7 7526   3.280   4.286  10.904 -0.1388 -0.2746 -0.3677
  506TMC3    C8 7527   3.346   4.067  10.504 -0.2890 -0.4290 -0.8235
  506TMC3    O1 7528   3.297   4.264  11.022 -0.1355 -0.2431 -0.2207
  506TMC3    O2 7529   3.443   4.008  10.551 -0.9514  0.1849 -0.1308
  507TMC3    C1 7530   3.746   2.038  14.598 -0.6817 -0.3597  0.5169
  507TMC3    C2 7531   3.784   2.073  14.474  0.2787 -0.2008 -0.0408
  507TMC3    C3 7532   3.783   2.204  14.430  0.6392 -0.2319  0.1727
  507TMC3    C4 7533   3.730   2.143  14.687 -0.5504 -0.1764  0.0865
  507TMC3    C5 7534   3.711   2.276  14.646 -0.6368 -0.2612 -0.2986
  507TMC3    C6 7535   3.730   2.304  14.510 -0.6851 -0.1035 -0.4087
  507TMC3     C 7536   3.620   1.973  14.595 -0.0376 -0.0472 -0.1384
  507TMC3     O 7537   3.558   1.966  14.699 -0.0893  0.2930  0.0255
  507TMC3     H 7538   3.812   1.994  14.405  1.8271  0.1564  0.1582
  507TMC3    H1 7539   3.706   2.118  14.790  0.6093 -0.6758  0.2311
  507TMC3    H2 7540   3.709   2.399  14.463 -0.4241  0.0240 -0.2704
  507TMC3    C7 7541   3.570   2.321  14.667  0.5850 -0.3443  0.0151
  507TMC3    C8 7542   3.726   2.223  14.294  0.3639  0.2401 -0.3660
  507TMC3    O1 7543   3.510   2.371  14.571 -0.0036  0.3960  0.1784
  507TMC3    O2 7544   3.770   2.148  14.210  0.1351  0.4257 -0.1382
  508MPD2     C 7545   4.135   3.078  15.906 -0.0723 -0.5303 -0.2806
  508MPD2    C1 7546   4.112   3.191  15.974 -0.1776 -0.5992  0.1947
  508MPD2    C2 7547   4.092   3.306  15.896 -0.1728  0.0298  0.4426
  508MPD2    C3 7548   4.085   3.303  15.757  0.3956  0.3420  0.1997
  508MPD2    C4 7549   4.109   3.182  15.689  0.6720  0.0549  0.0336
  508MPD2    C5 7550   4.134   3.076  15.770  0.8778 -0.0175 -0.3612
  508MPD2     H 7551   4.083   3.409  15.931 -1.2542 -0.3646  1.3383
  508MPD2    H1 7552   4.102   3.171  15.582 -0.1829 -0.6431  0.1625
  508MPD2    H2 7553   4.165   2.991  15.963  0.8003 -0.0900 -0.0557
  508MPD2    H3 7554   4.150   2.979  15.725 -0.9079 -1.3074  1.7883
  508MPD2     N 7555   4.061   3.419  15.688  0.9163  0.2733  0.1733
  508MPD2    H5 7556   4.041   3.503  15.742  0.5791  0.3284 -0.0355
  508MPD2    N1 7557   4.119   3.191  16.115  0.1510  0.2312  0.4251
  508MPD2    H7 7558   4.153   3.110  16.165 -0.7153  0.2176  0.9881
  509TMC3    C1 7559   3.938   3.773  15.522 -0.5805  0.7730  0.5204
  509TMC3    C2 7560   4.011   3.822  15.414 -0.7047 -0.9787 -0.2904
  509TMC3    C3 7561   4.101   3.735  15.350  0.4198 -0.2270 -0.2090
  509TMC3    C4 7562   3.963   3.645  15.561  0.0269  0.0061 -1.0719
  509TMC3    C5 7563   4.059   3.568  15.500 -0.2265  0.2578  0.0838
  509TMC3    C6 7564   4.124   3.605  15.385  0.0930  0.5403  0.3228
  509TMC3     C 7565   3.881   3.866  15.621 -0.2442 -0.1113 -0.5068
  509TMC3     O 7566   3.852   3.825  15.732 -0.0989 -0.0541  0.0552
  509TMC3     H 7567   3.984   3.916  15.367  1.4691  0.7577  1.9218
  509TMC3    H1 7568   3.910   3.611  15.649 -1.1125  4.7934  0.0815
  509TMC3    H2 7569   4.213   3.549  15.358 -0.7422 -0.5251 -0.2281
  509TMC3    C7 7570   4.080   3.434  15.551 -0.8656  0.0977 -0.2206
  509TMC3    C8 7571   4.203   3.812  15.286 -0.2486 -0.1521 -0.3813
  509TMC3    O1 7572   4.110   3.355  15.466  0.1852 -0.1960 -0.1306
  509TMC3    O2 7573   4.259   3.762  15.191  0.2044  0.1452  0.8142
  510MPD2     C 7574   1.924   0.509  14.519  0.1183 -0.6688 -0.1516
  510MPD2    C1 7575   1.973   0.402  14.583 -0.0621  0.1104 -0.1954
  510MPD2    C2 7576   2.091   0.343  14.528 -0.1843 -0.1525 -0.0361
  510MPD2    C3 7577   2.150   0.386  14.414  0.6195  0.0975  0.8426
  510MPD2    C4 7578   2.088   0.487  14.349  0.0285  0.0886 -0.7540
  510MPD2    C5 7579   1.986   0.556  14.402 -0.0852 -0.4418  0.0458
  510MPD2     H 7580   2.137   0.261  14.582  1.2286  0.8875  0.3403
  510MPD2    H1 7581   2.127   0.530  14.257  0.5422 -2.0056 -1.5263
  510MPD2    H2 7582   1.835   0.557  14.558 -0.3157  0.4896 -2.6000
  510MPD2    H3 7583   1.950   0.646  14.354  1.5045  1.0589  1.6522
  510MPD2     N 7584   2.262   0.318  14.361 -0.4838  0.1428 -0.3088
  510MPD2    H5 7585   2.287   0.229  14.402 -0.8322  0.0149 -0.3685
  510MPD2    N1 7586   1.925   0.347  14.706  0.2073  0.2958  0.3268
  510MPD2    H7 7587   1.966   0.261  14.740  1.3527  1.2374  1.3371
  511TMC3    C1 7588   1.772   0.292  14.867 -0.2914  0.3012  0.0191
  511TMC3    C2 7589   1.699   0.334  14.979 -0.6665  0.4824  0.0118
  511TMC3    C3 7590   1.601   0.253  15.024 -0.1443  0.0699 -0.5929
  511TMC3    C4 7591   1.758   0.167  14.819  0.3371 -0.0528  0.6912
  511TMC3    C5 7592   1.661   0.086  14.870  0.5003 -0.3604 -0.5562
  511TMC3    C6 7593   1.581   0.131  14.974 -0.1766 -0.3201 -0.0806
  511TMC3     C 7594   1.830   0.395  14.791  0.5827 -0.5188 -0.1883
  511TMC3     O 7595   1.777   0.507  14.791  0.4765 -0.0357 -0.0821
  511TMC3     H 7596   1.711   0.435  15.018 -0.0885  0.3265  0.2411
  511TMC3    H1 7597   1.794   0.136  14.722 -1.3013  1.4808 -0.4001
  511TMC3    H2 7598   1.494   0.080  15.014  0.4374 -1.4576 -0.2047
  511TMC3    C7 7599   1.608   4.705  14.774 -0.2704 -0.0828 -0.5617
  511TMC3    C8 7600   1.534   0.292  15.146  0.1020  0.2970  0.4350
  511TMC3    O1 7601   1.660   4.692  14.668 -0.0773 -0.1590 -0.7727
  511TMC3    O2 7602   1.522   0.411  15.154  0.1753 -0.3529 -0.4151
  512TMC3    C1 7603   0.949   3.768  13.595 -0.0413 -0.6955 -1.2908
  512TMC3    C2 7604   1.045   3.860  13.606 -0.2590  0.3060  0.3534
  512TMC3    C3 7605   1.135   3.857  13.704 -0.2243 -0.3167  0.2267
  512TMC3    C4 7606   0.957   3.649  13.665 -0.1656 -0.5415 -0.5902
  512TMC3    C5 7607   1.066   3.639  13.744 -0.2701 -0.5395 -0.1347
  512TMC3    C6 7608   1.144   3.748  13.781 -0.9195  0.3342 -0.4656
  512TMC3     C 7609   0.852   3.788  13.491  0.9713 -0.0421  0.2728
  512TMC3     O 7610   0.886   3.854  13.394  0.2233 -0.1679  0.2515
  512TMC3     H 7611   1.046   3.940  13.532  1.2832 -1.2827 -1.3297
  512TMC3    H1 7612   0.889   3.565  13.653  0.7943 -0.8448 -4.0144
  512TMC3    H2 7613   1.233   3.738  13.843 -0.8355  1.1767 -0.4565
  512TMC3    C7 7614   1.099   3.513  13.812 -0.0699 -0.1324 -0.6601
  512TMC3    C8 7615   1.236   3.955  13.709 -0.3750  0.5326  0.6817
  512TMC3    O1 7616   1.146   3.516  13.924  0.1888 -0.1224  0.0246
  512TMC3    O2 7617   1.344   3.912  13.741 -0.5493 -0.5737 -0.5671
  513MPD2     C 7618   2.041   4.660  13.030 -0.4977 -0.0146  0.5509
  513MPD2    C1 7619   2.069   4.526  12.995 -0.0632  0.1552 -0.3223
  513MPD2    C2 7620   2.103   4.439  13.094 -0.2831 -0.6976 -1.1193
  513MPD2    C3 7621   2.123   4.478  13.225  0.1047 -0.5970 -0.3682
  513MPD2    C4 7622   2.102   4.607  13.260 -0.3212  0.4729 -0.2956
  513MPD2    C5 7623   2.064   4.698  13.163 -0.2889  0.8160 -0.0458
  513MPD2     H 7624   2.115   4.336  13.064  0.5152 -1.0473  0.3837
  513MPD2    H1 7625   2.108   4.639  13.363  0.6512 -0.0890 -0.1804
  513MPD2    H2 7626   2.012   0.011  12.955  1.4445  0.0770 -0.1125
  513MPD2    H3 7627   2.051   0.082  13.185  0.5243  1.2271 -1.5356
  513MPD2     N 7628   2.175   4.379  13.320  0.3729  0.7807  0.4813
  513MPD2    H5 7629   2.196   4.289  13.276 -1.3044  0.7272 -0.2083
  513MPD2    N1 7630   2.031   4.484  12.864 -0.0246  0.6174 -0.3818
  513MPD2    H7 7631   2.006   4.557  12.798  1.0972  2.2902  1.0350
  514TMC3    C1 7632   2.005   4.348  12.673 -0.9754 -0.1316 -0.0066
  514TMC3    C2 7633   2.079   4.434  12.598 -0.7011 -0.1010  0.1197
  514TMC3    C3 7634   2.133   4.388  12.474  0.1837 -0.0944  0.2255
  514TMC3    C4 7635   1.992   4.211  12.641  0.3407  0.0335  0.4114
  514TMC3    C5 7636   2.062   4.162  12.529  0.8557 -1.2165  0.1305
  514TMC3    C6 7637   2.128   4.251  12.447 -0.0582  0.7783  0.0541
  514TMC3     C 7638   2.027   4.359  12.820 -0.0095 -0.3787 -0.6149
  514TMC3     O 7639   2.057   4.250  12.874  0.1940 -0.2601  0.0742
  514TMC3     H 7640   2.091   4.537  12.628  0.5726  0.1404 -1.1983
  514TMC3    H1 7641   1.928   4.138  12.690  0.4520 -1.3422 -1.4941
  514TMC3    H2 7642   2.190   4.207  12.369 -0.2140 -0.6674  0.7409
  514TMC3    C7 7643   2.149   4.047  12.571  0.8937  0.7834 -0.4018
  514TMC3    C8 7644   2.206   4.474  12.388  0.1720  0.1070 -0.4135
  514TMC3    O1 7645   2.208   3.978  12.491  0.0742  0.1638  0.0457
  514TMC3    O2 7646   2.245   4.579  12.435  0.5467  0.0340  0.5545
  515MPD2     C 7647   0.961   1.462  14.341  0.1052  0.4563  0.6381
  515MPD2    C1 7648   0.887   1.468  14.462  0.2433 -0.1575  0.0137
  515MPD2    C2 7649   0.949   1.478  14.587  0.0596 -0.0175 -0.8018
  515MPD2    C3 7650   1.090   1.478  14.584 -1.2158 -0.8674 -0.0699
  515MPD2    C4 7651   1.161   1.467  14.468  0.3507  0.1648  0.1808
  515MPD2    C5 7652   1.096   1.464  14.347  0.4885  0.3614  0.2342
  515MPD2     H 7653   0.886   1.472  14.675 -0.7135 -2.3048 -1.5164
  515MPD2    H1 7654   1.267   1.441  14.471  0.3439  0.2044  0.8119
  515MPD2    H2 7655   0.916   1.467  14.242 -0.6232 -1.3470  0.8824
  515MPD2    H3 7656   1.158   1.449  14.260  1.1843  0.6048  0.6854
  515MPD2     N 7657   1.175   1.485  14.700 -0.2708 -0.4365 -0.2613
  515MPD2    H5 7658   1.273   1.462  14.689  0.2898  2.4710 -1.5429
  515MPD2    N1 7659   0.749   1.460  14.466 -0.2096 -0.1840  0.0449
  515MPD2    H7 7660   0.709   1.446  14.558 -0.2582  1.9947  0.3588
  516TMC3    C1 7661   0.529   1.409  14.388  0.2715  0.3770  1.0223
  516TMC3    C2 7662   0.438   1.445  14.293 -0.2678  0.1359  0.1330
  516TMC3    C3 7663   0.330   1.361  14.278 -0.2339 -0.3636  0.3102
  516TMC3    C4 7664   0.528   1.295  14.462 -0.9719  0.2678 -0.1249
  516TMC3    C5 7665   0.416   1.215  14.441  0.3302  0.1491 -0.0273
  516TMC3    C6 7666   0.321   1.248  14.352  0.1881  0.2496  0.1714
  516TMC3     C 7667   0.665   1.457  14.360 -0.0343  0.7047 -0.3612
  516TMC3     O 7668   0.693   1.499  14.249 -0.3626 -0.4921  0.2815
  516TMC3     H 7669   0.457   1.530  14.229 -1.2021  0.8799  0.8290
  516TMC3    H1 7670   0.606   1.271  14.533 -2.7787 -0.1297  1.7001
  516TMC3    H2 7671   0.235   1.182  14.344 -0.4046  1.0569 -0.0386
  516TMC3    C7 7672   0.420   1.088  14.512 -0.6280  0.8253  0.2246
  516TMC3    C8 7673   0.201   1.408  14.224  0.1082 -0.5244 -0.1162
  516TMC3    O1 7674   0.513   1.058  14.586  0.1544 -0.4035  0.4914
  516TMC3    O2 7675   0.105   1.331  14.240  0.4648  0.6957  0.2320
  517MPD2     C 7676   0.510   2.972  17.673 -0.4502 -0.0033  0.1060
  517MPD2    C1 7677   0.634   2.943   0.031 -0.3143 -0.2932  0.1494
  517MPD2    C2 7678   0.676   3.000   0.146  0.2889  0.1300 -0.6471
  517MPD2    C3 7679   0.586   3.081   0.218  1.3891 -1.2259 -0.3389
  517MPD2    C4 7680   0.463   3.114   0.170  0.0740  0.5149 -0.4802
  517MPD2    C5 7681   0.423   3.056   0.057  0.2635  0.2640 -0.3286
  517MPD2     H 7682   0.778   2.988   0.180  0.6613 -0.9434 -2.1719
  517MPD2    H1 7683   0.388   3.168   0.227 -0.5454  0.8790 -1.6384
  517MPD2    H2 7684   0.470   2.932  17.581  0.2887 -1.3429  0.3800
  517MPD2    H3 7685   0.323   3.067   0.017  0.9326 -0.0022 -2.1068
  517MPD2     N 7686   0.619   3.150   0.340 -0.2570  0.3680 -0.7631
  517MPD2    H5 7687   0.539   3.205   0.369 -1.8194 -1.2974 -1.9285
  517MPD2    N1 7688   0.723   2.850  17.657  0.1512  0.1764  0.5474
  517MPD2    H7 7689   0.817   2.849   0.007  0.6038 -1.5732 -0.6877
  518TMC3    C1 7690   0.805   2.688  17.522  0.1358  0.1975 -0.0215
  518TMC3    C2 7691   0.771   2.557  17.524 -0.1294  0.1536  0.0912
  518TMC3    C3 7692   0.872   2.467  17.533  0.5863 -0.2435 -0.1354
  518TMC3    C4 7693   0.938   2.725  17.505  0.3510 -0.2678  0.4211
  518TMC3    C5 7694   1.037   2.632  17.495  0.8834 -0.4179 -0.3268
  518TMC3    C6 7695   1.004   2.505  17.524 -0.3038 -0.1578  0.3307
  518TMC3     C 7696   0.698   2.781  17.542 -0.3614  0.5074 -0.3691
  518TMC3     O 7697   0.596   2.749  17.481 -0.0099  0.3943  0.2605
  518TMC3     H 7698   0.667   2.530  17.538 -0.3436  0.5868 -0.6722
  518TMC3    H1 7699   0.968   2.828  17.522  0.0657  0.1178 -1.3894
  518TMC3    H2 7700   1.077   2.434  17.561 -1.4851 -1.1850  0.6484
  518TMC3    C7 7701   1.177   2.676  17.487 -0.3906  0.2110 -0.0191
  518TMC3    C8 7702   0.852   2.326  17.563 -0.5273 -0.6168 -0.8035
  518TMC3    O1 7703   1.214   2.787  17.533 -0.1662 -0.0744  0.2640
  518TMC3    O2 7704   0.939   2.249  17.539 -0.6618 -0.4983  0.2572
  519MPD2     C 7705   2.175   1.683  14.301  0.0261  0.7815 -0.3129
  519MPD2    C1 7706   2.173   1.661  14.169 -0.1796 -0.0133 -0.0837
  519MPD2    C2 7707   2.231   1.553  14.107 -0.6590 -0.6775 -0.1814
  519MPD2    C3 7708   2.283   1.453  14.182  0.1270  0.7880  0.1888
  519MPD2    C4 7709   2.280   1.467  14.323 -0.1469  0.2945 -0.2572
  519MPD2    C5 7710   2.230   1.582  14.376  0.9904  0.0715  1.3321
  519MPD2     H 7711   2.209   1.541  14.002 -0.6162 -1.2756 -0.1215
  519MPD2    H1 7712   2.323   1.398  14.395 -0.7696  0.3970  0.2122
  519MPD2    H2 7713   2.128   1.773  14.339 -0.6888  0.5663 -0.6923
  519MPD2    H3 7714   2.218   1.584  14.484 -0.0512 -2.6497  1.2705
  519MPD2     N 7715   2.324   1.333  14.132 -0.5690  0.1808  0.4088
  519MPD2    H5 7716   2.333   1.255  14.197  2.7532  2.0165  2.1868
  519MPD2    N1 7717   2.093   1.745  14.095 -0.0764  0.2026  0.6118
  519MPD2    H7 7718   2.032   1.797  14.157 -0.8176  1.1582 -0.9212
  520TMC3    C1 7719   2.347   1.166  13.955  0.2248  0.5253 -0.3356
  520TMC3    C2 7720   2.291   1.129  13.830  1.4186 -0.7263 -0.8055
  520TMC3    C3 7721   2.327   1.012  13.771  0.3281 -0.9305  0.0705
  520TMC3    C4 7722   2.432   1.082  14.025  0.4529  0.4606  0.5972
  520TMC3    C5 7723   2.471   0.967  13.960 -0.6654  0.4140 -0.2885
  520TMC3    C6 7724   2.418   0.933  13.835 -0.7559 -0.6533 -0.1484
  520TMC3     C 7725   2.334   1.309  13.992  1.2166  0.1508 -0.3624
  520TMC3     O 7726   2.308   1.384  13.899 -0.3311  0.5550  0.5741
  520TMC3     H 7727   2.229   1.205  13.783  2.5738  2.0223  2.0807
  520TMC3    H1 7728   2.481   1.118  14.114  1.6906 -0.0648  0.1343
  520TMC3    H2 7729   2.443   0.836  13.794  0.1446  0.2506 -1.7442
  520TMC3    C7 7730   2.552   0.873  14.033 -0.2335  0.2877 -0.3726
  520TMC3    C8 7731   2.269   0.974  13.641 -0.3481 -0.2596 -0.0772
  520TMC3    O1 7732   2.554   0.893  14.153  0.4814 -0.4344  0.2749
  520TMC3    O2 7733   2.331   0.889  13.578  0.1219  0.0660  0.5720
  521MPD2     C 7734   2.822   4.171  17.503 -0.3384  0.1471 -0.0668
  521MPD2    C1 7735   2.807   4.077  17.404 -0.3275  0.3285 -0.4200
  521MPD2    C2 7736   2.918   4.022  17.342 -0.1473  0.7365 -0.0434
  521MPD2    C3 7737   3.046   4.063  17.364 -0.1610  0.5639 -0.3696
  521MPD2    C4 7738   3.062   4.162  17.454  0.1080 -0.1333 -0.3772
  521MPD2    C5 7739   2.952   4.211  17.526 -0.0582  0.1187  0.8475
  521MPD2     H 7740   2.910   3.928  17.288 -0.9933 -0.2537  1.8294
  521MPD2    H1 7741   3.161   4.203  17.474  0.1894 -1.6348  2.3542
  521MPD2    H2 7742   2.740   4.218  17.557  0.9260  2.0972  0.1757
  521MPD2    H3 7743   2.975   4.288  17.599 -2.9807  1.4108  0.4061
  521MPD2     N 7744   3.148   3.998  17.294  0.8721 -0.3770 -0.1354
  521MPD2    H5 7745   3.118   3.924  17.233  0.4203 -0.6935  0.4694
  521MPD2    N1 7746   2.673   4.031  17.371 -0.3689  0.0590  0.0894
  521MPD2    H7 7747   2.595   4.067  17.425 -0.1974  0.8133 -0.1714
  522TMC3    C1 7748   3.352   3.989  17.182 -0.5220  0.3047  0.6958
  522TMC3    C2 7749   3.479   3.941  17.205  0.1887 -0.4262  0.5271
  522TMC3    C3 7750   3.552   3.901  17.098  0.5011  0.3039  0.2205
  522TMC3    C4 7751   3.297   4.018  17.059 -0.2093  0.0834  0.5852
  522TMC3    C5 7752   3.383   3.988  16.956 -0.2218 -0.2410  0.4235
  522TMC3    C6 7753   3.501   3.918  16.971  0.0017  0.2198  0.2307
  522TMC3     C 7754   3.285   4.031  17.302 -0.3162 -0.7964  0.2767
  522TMC3     O 7755   3.345   4.070  17.401  0.0887 -0.2052  0.0102
  522TMC3     H 7756   3.524   3.936  17.304  0.2073  2.9101  0.7050
  522TMC3    H1 7757   3.219   4.093  17.052  0.9737  1.1430 -1.3017
  522TMC3    H2 7758   3.566   3.902  16.886  0.7004  2.5040  0.3586
  522TMC3    C7 7759   3.371   4.073  16.831 -0.4471  0.0939 -0.1702
  522TMC3    C8 7760   3.670   3.811  17.118 -0.2258 -0.1770  0.0353
  522TMC3    O1 7761   3.473   4.090  16.770  0.1288  0.5088 -0.0142
  522TMC3    O2 7762   3.716   3.817  17.234  0.2583 -0.5187  0.3330
  523MPD2     C 7763   1.134   3.591  10.031 -0.2965  0.2344 -0.4221
  523MPD2    C1 7764   1.110   3.485   9.951 -0.1297  0.9532 -0.4264
  523MPD2    C2 7765   0.995   3.491   9.868 -0.4793  0.3819  0.3938
  523MPD2    C3 7766   0.914   3.604   9.873 -0.3966  0.2055  0.1218
  523MPD2    C4 7767   0.943   3.708   9.960  0.0839  0.2423  0.3762
  523MPD2    C5 7768   1.059   3.706  10.031 -0.3458 -0.6751 -0.1666
  523MPD2     H 7769   0.962   3.404   9.813  0.4164  0.9412 -1.0385
  523MPD2    H1 7770   0.893   3.804   9.955 -1.2692 -0.4002  1.4322
  523MPD2    H2 7771   1.214   3.596  10.104  1.2861  2.8852 -2.3482
  523MPD2    H3 7772   1.084   3.786  10.100 -2.1927 -1.8214  1.8171
  523MPD2     N 7773   0.792   3.613   9.806 -0.0046  0.4668  1.1464
  523MPD2    H5 7774   0.742   3.700   9.821 -1.3502 -0.2658  0.9527
  523MPD2    N1 7775   1.202   3.376   9.965  0.1728  0.0427  0.0057
  523MPD2    H7 7776   1.275   3.385  10.035  1.0364 -1.1554 -0.7364
  524TMC3    C1 7777   0.602   3.567   9.676 -0.2590 -0.6030 -0.3489
  524TMC3    C2 7778   0.532   3.486   9.585 -0.0727  0.0454 -0.0636
  524TMC3    C3 7779   0.420   3.534   9.530 -0.3846  0.1358 -0.0598
  524TMC3    C4 7780   0.550   3.693   9.715  0.8401 -0.1004 -0.3349
  524TMC3    C5 7781   0.423   3.716   9.674 -0.3059  0.5735  0.2321
  524TMC3    C6 7782   0.352   3.640   9.582 -0.1044 -0.1077 -0.6361
  524TMC3     C 7783   0.732   3.522   9.718  0.2034  0.4912 -0.2764
  524TMC3     O 7784   0.765   3.406   9.701  0.1083  0.4900 -0.1125
  524TMC3     H 7785   0.589   3.400   9.551  0.8180  0.3413  0.6812
  524TMC3    H1 7786   0.591   3.751   9.797  0.3386  1.3619 -1.1143
  524TMC3    H2 7787   0.251   3.670   9.556 -0.1399  0.7832  0.5494
  524TMC3    C7 7788   0.359   3.836   9.708 -0.2038  1.0342  0.2468
  524TMC3    C8 7789   0.372   3.450   9.420  0.3509 -0.5905 -0.6061
  524TMC3    O1 7790   0.236   3.833   9.723  0.4860  0.4902  0.4125
  524TMC3    O2 7791   0.430   3.346   9.405  0.0784 -0.5454  0.3553
  525MPD2     C 7792   3.380   0.703  14.660  0.3566 -0.0470 -0.4939
  525MPD2    C1 7793   3.489   0.744  14.740 -0.0701  0.4539  0.1149
  525MPD2    C2 7794   3.553   0.868  14.737 -0.1726  0.4724 -1.2465
  525MPD2    C3 7795   3.506   0.963  14.643 -0.2969  0.6275 -0.3533
  525MPD2    C4 7796   3.401   0.922  14.564 -0.1996  0.3422  0.5069
  525MPD2    C5 7797   3.330   0.800  14.571 -0.3947 -0.5972 -1.0088
  525MPD2     H 7798   3.640   0.886  14.798 -0.1242  0.1758 -1.2308
  525MPD2    H1 7799   3.367   0.983  14.481  0.9121  0.5641  0.2251
  525MPD2    H2 7800   3.343   0.601  14.663  2.2235 -0.7009 -0.0323
  525MPD2    H3 7801   3.247   0.778  14.505 -0.4130  2.5626 -2.0201
  525MPD2     N 7802   3.565   1.089  14.618 -0.1764 -0.2549 -0.1776
  525MPD2    H5 7803   3.511   1.144  14.552  1.7171  1.2310 -0.5079
  525MPD2    N1 7804   3.541   0.656  14.834 -0.6400 -0.2794 -0.0611
  525MPD2    H7 7805   3.629   0.674  14.882 -0.3147 -0.1302 -0.7157
  526TMC3    C1 7806   3.529   0.501  15.006  0.1914  0.2372  0.5638
  526TMC3    C2 7807   3.461   0.498  15.118  0.4777 -0.1155 -0.2235
  526TMC3    C3 7808   3.523   0.449  15.229 -0.2320 -0.2295 -0.9600
  526TMC3    C4 7809   3.653   0.440  14.994  0.2733  0.6284  0.5838
  526TMC3    C5 7810   3.715   0.396  15.110  0.7988 -0.2478  0.0490
  526TMC3    C6 7811   3.650   0.399  15.231 -0.2474 -0.2699  0.3668
  526TMC3     C 7812   3.462   0.561  14.898  0.3978  0.8393 -0.7492
  526TMC3     O 7813   3.342   0.541  14.885 -0.7042 -0.4048  0.2303
  526TMC3     H 7814   3.362   0.541  15.113 -0.2110 -1.5547  1.1564
  526TMC3    H1 7815   3.701   0.446  14.897  2.0683 -0.3350  1.4127
  526TMC3    H2 7816   3.701   0.387  15.326  1.2542 -1.8338 -0.6310
  526TMC3    C7 7817   3.861   0.361  15.116 -0.6659  0.3160 -0.3948
  526TMC3    C8 7818   3.480   0.509  15.353  0.2395 -0.1732  0.8181
  526TMC3    O1 7819   3.895   0.312  15.220  0.1048  0.2085  0.1349
  526TMC3    O2 7820   3.553   0.476  15.447 -0.5700  0.1421 -0.5162
  527MPD2     C 7821   1.590   2.838   1.880  0.2136  0.4184  0.4482
  527MPD2    C1 7822   1.719   2.796   1.906 -0.5836  0.3723  0.0099
  527MPD2    C2 7823   1.825   2.839   1.826  0.1640  0.1724 -0.5685
  527MPD2    C3 7824   1.804   2.939   1.732  0.2255  0.3700 -0.0954
  527MPD2    C4 7825   1.686   3.008   1.725  0.2189 -0.3438 -0.0091
  527MPD2    C5 7826   1.578   2.935   1.781 -0.5749  0.1702  0.3765
  527MPD2     H 7827   1.925   2.803   1.851 -0.2711 -2.5343 -2.6625
  527MPD2    H1 7828   1.668   3.086   1.652  0.5455 -0.4546 -0.2055
  527MPD2    H2 7829   1.493   2.809   1.920  0.5768 -0.6045  0.5781
  527MPD2    H3 7830   1.478   2.972   1.757 -0.5743 -0.3148 -0.3807
  527MPD2     N 7831   1.916   2.982   1.657 -0.1313  0.2657  0.3645
  527MPD2    H5 7832   2.001   2.932   1.682  0.0233 -0.7111 -2.1331
  527MPD2    N1 7833   1.750   2.707   2.015 -0.7051  0.6100 -0.6437
  527MPD2    H7 7834   1.850   2.690   2.024 -0.8070  1.4158  2.0669
  528TMC3    C1 7835   1.722   2.548   2.192 -0.3082  0.4473 -0.0663
  528TMC3    C2 7836   1.851   2.569   2.231  0.2428  0.0669  0.8745
  528TMC3    C3 7837   1.913   2.469   2.306  0.9074 -0.1090 -0.3977
  528TMC3    C4 7838   1.648   2.441   2.231 -0.2588  0.2310  0.2734
  528TMC3    C5 7839   1.713   2.350   2.316  0.4411  0.1368 -0.3002
  528TMC3    C6 7840   1.845   2.363   2.355  0.0994 -0.3335 -0.1678
  528TMC3     C 7841   1.660   2.643   2.101  0.3066 -0.1340  0.9679
  528TMC3     O 7842   1.536   2.643   2.091  0.3901 -0.4520 -0.0086
  528TMC3     H 7843   1.905   2.661   2.210  0.1741  0.3010  1.7144
  528TMC3    H1 7844   1.544   2.428   2.205 -0.8946  2.3354  1.7493
  528TMC3    H2 7845   1.883   2.289   2.424  0.8580 -1.5140 -1.8561
  528TMC3    C7 7846   1.623   2.241   2.373  0.3238 -0.8818 -0.4870
  528TMC3    C8 7847   2.054   2.480   2.337 -0.0827  0.5367  0.2002
  528TMC3    O1 7848   1.504   2.265   2.371  0.5260  0.3672  0.0436
  528TMC3    O2 7849   2.095   2.595   2.343  0.3203 -0.1987 -0.0922
  529MPD2     C 7850   3.975   2.720   0.869 -0.2962  0.0476 -0.0414
  529MPD2    C1 7851   4.056   2.627   0.816 -0.3091  0.7094 -0.7373
  529MPD2    C2 7852   4.087   2.640   0.683 -0.2572 -0.4855 -0.7276
  529MPD2    C3 7853   4.040   2.743   0.601  0.1403 -0.6595 -0.3514
  529MPD2    C4 7854   3.962   2.835   0.659  0.3965  0.2165 -0.8630
  529MPD2    C5 7855   3.929   2.827   0.792 -0.0563  0.0829  0.0451
  529MPD2     H 7856   4.143   2.560   0.637  0.5808 -0.8049  0.8300
  529MPD2    H1 7857   3.916   2.911   0.596  0.3014 -1.1942 -2.5014
  529MPD2    H2 7858   3.933   2.718   0.969 -0.2825 -1.0706 -0.0639
  529MPD2    H3 7859   3.868   2.905   0.839  1.4111  1.8028 -0.9142
  529MPD2     N 7860   4.063   2.746   0.461 -0.4301  0.5747 -0.0066
  529MPD2    H5 7861   4.043   2.831   0.411 -3.5207 -0.5048 -0.6718
  529MPD2    N1 7862   4.104   2.514   0.878 -0.5314  0.0174  0.3576
  529MPD2    H7 7863   4.177   2.461   0.831 -0.8358  0.1707 -0.2880
  530TMC3    C1 7864   4.126   2.349   1.032  0.1110  0.2360  0.6231
  530TMC3    C2 7865   4.144   2.331   1.169 -0.3158 -0.0734 -0.3621
  530TMC3    C3 7866   4.188   2.211   1.215  0.1832  0.3963 -0.6213
  530TMC3    C4 7867   4.139   2.254   0.939 -0.3114  0.2222 -0.3164
  530TMC3    C5 7868   4.178   2.130   0.986  1.0000 -0.6282  0.2289
  530TMC3    C6 7869   4.204   2.107   1.121 -0.1504  0.8461  0.1809
  530TMC3     C 7870   4.081   2.482   1.002 -0.0181  0.3268 -0.1271
  530TMC3     O 7871   4.000   2.536   1.079  0.0461 -0.4211 -0.1567
  530TMC3     H 7872   4.130   2.410   1.241  2.2544 -0.2937  0.4070
  530TMC3    H1 7873   4.128   2.267   0.832 -3.2777  3.3166  0.3696
  530TMC3    H2 7874   4.260   2.017   1.143  0.2604  0.8459 -0.8755
  530TMC3    C7 7875   4.201   2.016   0.903 -0.1006 -0.0001  0.5254
  530TMC3    C8 7876   4.234   2.193   1.354  0.0999  0.5181  0.0243
  530TMC3    O1 7877   4.244   2.035   0.792  0.3161  0.1855  0.2352
  530TMC3    O2 7878   4.202   2.273   1.444 -0.3712 -0.1011 -0.2193
  531MPD2     C 7879   2.428   3.828  12.953 -0.1091  0.1072  0.1287
  531MPD2    C1 7880   2.366   3.951  12.996 -0.0544  1.2615 -0.2935
  531MPD2    C2 7881   2.277   4.018  12.913 -0.2596 -0.2582 -0.2229
  531MPD2    C3 7882   2.254   3.975  12.787  0.3476  0.4024  0.4745
  531MPD2    C4 7883   2.328   3.867  12.746  0.2361 -0.0074 -0.0362
  531MPD2    C5 7884   2.412   3.793  12.825  0.3899 -0.2533 -0.1250
  531MPD2     H 7885   2.222   4.108  12.941  2.1617  1.7433 -1.9184
  531MPD2    H1 7886   2.306   3.829  12.647  0.2961 -0.2056  0.0254
  531MPD2    H2 7887   2.494   3.771  13.017  2.1731 -0.1199 -2.4688
  531MPD2    H3 7888   2.450   3.699  12.787 -1.4090 -1.4468  0.9850
  531MPD2     N 7889   2.169   4.051  12.705 -0.1674  0.0381 -0.0099
  531MPD2    H5 7890   2.123   4.130  12.751  1.1761  0.5606  0.4580
  531MPD2    N1 7891   2.393   3.993  13.132 -0.3741  0.4929  0.0621
  531MPD2    H7 7892   2.458   3.939  13.188 -1.2268 -0.6258 -0.0470
  532TMC3    C1 7893   2.366   4.110  13.339 -0.2065 -0.3762  0.1716
  532TMC3    C2 7894   2.265   4.178  13.400 -0.5167  0.1601 -0.0357
  532TMC3    C3 7895   2.295   4.284  13.482 -0.1453  0.5541  0.8277
  532TMC3    C4 7896   2.499   4.143  13.365  0.4068  0.6310  0.4906
  532TMC3    C5 7897   2.523   4.250  13.452  0.6772 -0.0401 -0.1244
  532TMC3    C6 7898   2.423   4.311  13.520  0.4537 -0.8320  0.6634
  532TMC3     C 7899   2.321   4.079  13.200 -0.2289  0.1542 -0.1406
  532TMC3     O 7900   2.229   4.146  13.162 -0.0593  0.0935  0.1839
  532TMC3     H 7901   2.163   4.155  13.369 -0.6566  0.0794  0.4916
  532TMC3    H1 7902   2.578   4.096  13.307 -0.6478  0.3658 -0.7422
  532TMC3    H2 7903   2.445   4.399  13.578  1.8693 -0.3349 -0.6191
  532TMC3    C7 7904   2.657   4.283  13.493  0.2513  0.2614 -0.0979
  532TMC3    C8 7905   2.223   4.402  13.449 -0.1386 -0.3032  0.0793
  532TMC3    O1 7906   2.682   4.350  13.592  0.2159  0.1343 -0.0580
  532TMC3    O2 7907   2.215   4.508  13.510 -0.4850 -0.1312 -0.2664
  533TMC3    C1 7908   3.696   1.286  14.639  0.4573 -0.3443  0.0292
  533TMC3    C2 7909   3.825   1.331  14.648  0.9544 -0.3160  0.4833
  533TMC3    C3 7910   3.840   1.470  14.642 -0.2719 -0.4680  0.2134
  533TMC3    C4 7911   3.586   1.364  14.638  0.6961 -0.5215  0.1039
  533TMC3    C5 7912   3.610   1.497  14.647  0.1388 -0.4241 -0.5824
  533TMC3    C6 7913   3.738   1.556  14.644  0.0109 -0.3597  0.3598
  533TMC3     C 7914   3.682   1.138  14.663  0.2435  0.4897  0.3549
  533TMC3     O 7915   3.771   1.080  14.723  0.1791 -0.1953  0.2924
  533TMC3     H 7916   3.898   1.255  14.620 -0.9862 -1.7835 -0.5738
  533TMC3    H1 7917   3.486   1.324  14.645  0.2418  0.7224  0.6872
  533TMC3    H2 7918   3.753   1.661  14.626 -0.2233 -0.8058 -2.5257
  533TMC3    C7 7919   3.509   1.599  14.664 -0.1290 -0.4911 -0.5395
  533TMC3    C8 7920   3.955   1.523  14.576  0.1232 -0.4109  0.0513
  533TMC3    O1 7921   3.430   1.593  14.576  0.3520  0.7137 -0.4022
  533TMC3    O2 7922   3.936   1.629  14.514 -0.1547 -0.0355 -0.1296
  534MPD2     C 7923   2.350   1.549   1.788  0.4431  0.4002  0.1012
  534MPD2    C1 7924   2.251   1.632   1.819  0.4599 -0.7143 -0.1642
  534MPD2    C2 7925   2.123   1.597   1.776  0.0748 -0.4163  0.3198
  534MPD2    C3 7926   2.104   1.481   1.695 -0.3458  0.0323 -0.0709
  534MPD2    C4 7927   2.207   1.407   1.651  0.0894 -0.3076  0.3438
  534MPD2    C5 7928   2.330   1.444   1.694 -0.1101  0.3454 -0.8002
  534MPD2     H 7929   2.038   1.660   1.797  1.4714  1.6537 -0.2365
  534MPD2    H1 7930   2.192   1.315   1.595  2.2422 -1.5904  1.8698
  534MPD2    H2 7931   2.447   1.561   1.835  0.3927 -0.1102  0.3361
  534MPD2    H3 7932   2.415   1.381   1.669 -0.4785 -0.2677 -0.4904
  534MPD2     N 7933   1.972   1.434   1.646 -0.0968 -0.3827  0.9247
  534MPD2    H5 7934   1.971   1.363   1.573 -3.4839 -0.6292  1.2391
  534MPD2    N1 7935   2.267   1.754   1.894  0.4824  0.4107 -0.3968
  534MPD2    H7 7936   2.183   1.810   1.905  1.9604  3.0116 -2.3330
  535TMC3    C1 7937   1.738   1.427   1.615  0.3230  0.4346  0.4329
  535TMC3    C2 7938   1.615   1.440   1.678 -0.0795 -0.0428 -0.1571
  535TMC3    C3 7939   1.503   1.453   1.589  0.0724 -0.8063 -1.0428
  535TMC3    C4 7940   1.754   1.431   1.480 -0.5681  0.2016 -0.1441
  535TMC3    C5 7941   1.649   1.457   1.396  0.1435 -0.3730  0.1251
  535TMC3    C6 7942   1.521   1.461   1.452  0.2110  0.4803  0.2490
  535TMC3     C 7943   1.854   1.485   1.691  0.2044  0.1523  0.4662
  535TMC3     O 7944   1.826   1.559   1.787  0.0695  0.1875  0.1939
  535TMC3     H 7945   1.612   1.454   1.786  0.8384  1.7199 -0.3591
  535TMC3    H1 7946   1.852   1.422   1.437  0.0161  0.8394  1.0579
  535TMC3    H2 7947   1.439   1.475   1.383  1.1154 -0.7457 -1.0609
  535TMC3    C7 7948   1.661   1.446   1.256 -0.1586  0.1880 -0.3602
  535TMC3    C8 7949   1.369   1.450   1.633  0.7516 -0.2615 -1.0167
  535TMC3    O1 7950   1.722   1.351   1.213  0.1467  0.1460 -0.2119
  535TMC3    O2 7951   1.296   1.425   1.538  0.0010  0.2142  0.1475
  536MPD2     C 7952   0.651   0.488  15.985  0.0682  0.2017  0.6089
  536MPD2    C1 7953   0.543   0.438  16.048 -0.2547  1.0674 -0.1650
  536MPD2    C2 7954   0.416   0.490  16.016  0.2691  0.3787 -0.4428
  536MPD2    C3 7955   0.410   0.602  15.928 -0.6430 -0.2048 -0.4812
  536MPD2    C4 7956   0.519   0.651  15.864  0.5837  0.3766 -0.3030
  536MPD2    C5 7957   0.633   0.595  15.897 -0.1192  0.1460  0.1337
  536MPD2     H 7958   0.329   0.443  16.060  0.0234  0.5236 -0.7844
  536MPD2    H1 7959   0.506   0.728  15.789 -0.5641  1.1833  0.7263
  536MPD2    H2 7960   0.748   0.443  15.999  0.5004  0.6906 -0.8137
  536MPD2    H3 7961   0.715   0.634  15.837 -0.5621  1.4232  0.3613
  536MPD2     N 7962   0.286   0.654  15.880  0.4774 -0.2665  0.5637
  536MPD2    H5 7963   0.293   0.732  15.815 -0.0476  0.6103  1.5694
  536MPD2    N1 7964   0.564   0.341  16.146  0.0164  0.2364 -0.0186
  536MPD2    H7 7965   0.662   0.318  16.156 -0.4049 -0.0365  3.6408
  537TMC3    C1 7966   0.518   0.185  16.320  0.2113  0.5252  0.5382
  537TMC3    C2 7967   0.598   0.253  16.402  0.5144 -0.1631 -0.4765
  537TMC3    C3 7968   0.589   0.221  16.535 -0.4434  0.1092  0.0380
  537TMC3    C4 7969   0.438   0.085  16.361 -0.9336 -0.3686 -0.0973
  537TMC3    C5 7970   0.442   0.042  16.491  0.3547 -0.2125 -0.7580
  537TMC3    C6 7971   0.520   0.105  16.581  0.8536  0.2336 -0.0201
  537TMC3     C 7972   0.471   0.264  16.209  0.4270 -0.3634  0.4222
  537TMC3     O 7973   0.349   0.266  16.203  0.1598 -0.0045  0.0739
  537TMC3     H 7974   0.655   0.340  16.371  1.0431  0.3710  2.0228
  537TMC3    H1 7975   0.364   0.053  16.288 -0.4103 -1.4424 -0.1566
  537TMC3    H2 7976   0.542   0.065  16.679  0.9493 -0.9409 -0.5267
  537TMC3    C7 7977   0.335   4.681  16.537  0.1458 -0.3374 -0.5919
  537TMC3    C8 7978   0.653   0.310  16.633 -0.0205  0.3171 -0.4875
  537TMC3    O1 7979   0.291   4.605  16.456 -0.9188  0.2008 -0.1362
  537TMC3    O2 7980   0.670   0.262  16.744 -0.0941  0.0560 -0.5123
  538TMC3    C1 7981   1.761   3.349  10.626 -0.1211 -0.0277  0.1274
  538TMC3    C2 7982   1.858   3.407  10.536 -0.3354  1.0072 -0.6468
  538TMC3    C3 7983   1.819   3.478  10.430 -0.0862  0.8143 -0.7912
  538TMC3    C4 7984   1.627   3.364  10.602 -0.1315 -0.1227 -0.5178
  538TMC3    C5 7985   1.596   3.437  10.489 -0.7977 -0.4103 -0.3745
  538TMC3    C6 7986   1.689   3.492  10.403  0.0533  0.8233 -0.8868
  538TMC3     C 7987   1.788   3.315  10.758 -0.5359  0.0103 -1.3148
  538TMC3     O 7988   1.707   3.351  10.843 -0.3916 -0.4011  0.0308
  538TMC3     H 7989   1.961   3.410  10.571 -0.6539 -1.1592  0.5374
  538TMC3    H1 7990   1.547   3.326  10.665  0.7441  0.5246  0.9877
  538TMC3    H2 7991   1.653   3.558  10.325  0.0035 -1.1625 -2.5391
  538TMC3    C7 7992   1.463   3.490  10.507  0.4023 -0.7969  0.0736
  538TMC3    C8 7993   1.905   3.561  10.354  0.1870  0.3617 -0.8222
  538TMC3    O1 7994   1.376   3.403  10.530 -0.7399  0.7147  0.1671
  538TMC3    O2 7995   1.856   3.649  10.285  0.3586 -0.7634  0.2490
  539MPD2     C 7996   1.255   2.710  11.840  0.0885  0.0231  0.0855
  539MPD2    C1 7997   1.221   2.738  11.711  0.1636 -0.4702  0.6022
  539MPD2    C2 7998   1.183   2.863  11.669 -0.0806 -0.3599  0.4080
  539MPD2    C3 7999   1.193   2.970  11.755  0.0264 -0.5448 -0.8129
  539MPD2    C4 8000   1.250   2.950  11.878  1.2089 -0.0972  0.4475
  539MPD2    C5 8001   1.279   2.824  11.917 -0.3608  0.7669 -0.1774
  539MPD2     H 8002   1.148   2.875  11.567  2.5648 -0.2667 -0.5151
  539MPD2    H1 8003   1.274   3.032  11.944  1.9507  0.6244 -0.7245
  539MPD2    H2 8004   1.291   2.616  11.882 -2.2920 -0.5856  0.7974
  539MPD2    H3 8005   1.322   2.807  12.015  3.2029  1.0048 -1.6915
  539MPD2     N 8006   1.160   3.109  11.715  0.7864  0.2748  0.6134
  539MPD2    H5 8007   1.172   3.183  11.783 -1.1047  1.6024 -0.4765
  539MPD2    N1 8008   1.203   2.629  11.612 -0.0140  0.3347 -0.4880
  539MPD2    H7 8009   1.175   2.657  11.519 -0.1749 -0.5391 -0.7015
  540TMC3    C1 8010   1.096   3.284  11.574 -0.0676  0.3100  0.3934
  540TMC3    C2 8011   1.137   3.347  11.459  0.2601  0.6558 -0.3684
  540TMC3    C3 8012   1.148   3.482  11.462 -0.2536 -0.1161 -0.0104
  540TMC3    C4 8013   1.060   3.359  11.686 -0.6612  0.0610 -0.1469
  540TMC3    C5 8014   1.087   3.490  11.680 -0.2913 -0.7291  0.4124
  540TMC3    C6 8015   1.125   3.555  11.572  0.2861  0.4919  0.1372
  540TMC3     C 8016   1.118   3.140  11.588 -0.4767  0.0183 -0.7044
  540TMC3     O 8017   1.107   3.072  11.489  0.3760  0.4348 -0.1364
  540TMC3     H 8018   1.188   3.280  11.391  0.2894 -0.4543  0.7294
  540TMC3    H1 8019   1.027   3.314  11.779 -1.5731 -0.4902 -0.7398
  540TMC3    H2 8020   1.131   3.662  11.557  1.1835  0.0392 -2.7655
  540TMC3    C7 8021   1.034   3.576  11.786 -0.0666 -0.0447  0.3734
  540TMC3    C8 8022   1.218   3.548  11.354 -0.6961 -0.5219  0.2903
  540TMC3    O1 8023   0.959   3.523  11.869  0.1382 -0.0701  0.5903
  540TMC3    O2 8024   1.272   3.655  11.369  0.6594 -0.6714  0.4611
  541MPD2     C 8025   4.713   4.496  13.101  0.3130  0.3376  0.0791
  541MPD2    C1 8026   4.607   4.466  13.018  0.3845 -0.3722  0.3963
  541MPD2    C2 8027   4.606   4.533  12.897  0.3524 -0.5927  0.3851
  541MPD2    C3 8028   4.703   4.624  12.863 -0.4829 -0.0650 -1.3650
  541MPD2    C4 8029   0.070   4.666  12.953  0.3182  0.2028 -0.2437
  541MPD2    C5 8030   0.079   4.595  13.070  0.5904  0.0203  0.5735
  541MPD2     H 8031   4.535   4.502  12.821  0.4476 -1.1482  0.5245
  541MPD2    H1 8032   0.139   0.025  12.934 -0.4934  0.8094 -0.6206
  541MPD2    H2 8033   0.000   4.455  13.201  0.3101 -0.5624 -0.2871
  541MPD2    H3 8034   0.156   4.627  13.140  1.0048 -2.3295  1.1796
  541MPD2     N 8035   4.711   4.689  12.735  0.7046  0.2382 -0.1882
  541MPD2    H5 8036   0.056   0.045  12.729  1.0432  0.0417  0.9963
  541MPD2    N1 8037   4.515   4.365  13.064  0.3305  0.4249 -0.4282
  541MPD2    H7 8038   4.523   4.334  13.161 -1.9117 -0.3399 -0.4856
  542TMC3    C1 8039   4.684   0.009  12.503  0.1154  0.2188  0.2835
  542TMC3    C2 8040   4.677   4.650  12.392 -0.4507 -0.3664 -0.5520
  542TMC3    C3 8041   4.703   4.707  12.268  0.7848 -0.9765  0.0473
  542TMC3    C4 8042   4.714   0.143  12.503 -0.0540  0.4453 -0.2701
  542TMC3    C5 8043   0.009   0.191  12.373  0.6783 -0.0436 -0.0077
  542TMC3    C6 8044   4.721   0.117  12.254 -0.5599 -0.5526  1.0002
  542TMC3     C 8045   4.632   4.664  12.623  0.1228  0.5305 -0.3570
  542TMC3     O 8046   4.561   4.568  12.609  0.0639  0.6725 -0.9010
  542TMC3     H 8047   4.657   4.544  12.398  1.6085 -0.7134  0.0570
  542TMC3    H1 8048   0.002   0.207  12.590 -1.6951 -0.7224  0.7749
  542TMC3    H2 8049   0.022   0.166  12.160  2.6809  0.8635  2.4963
  542TMC3    C7 8050   0.029   0.337  12.363  0.0165  0.2888 -0.4527
  542TMC3    C8 8051   0.019   4.622  12.155  0.0282 -0.1435 -0.5671
  542TMC3    O1 8052   0.103   0.398  12.433  0.0125 -0.3450  0.2346
  542TMC3    O2 8053   0.028   4.678  12.049  0.5194  1.1853  0.0476
  543TMC3    C1 8054   3.846   1.247  17.424 -0.1175  0.5436 -0.0561
  543TMC3    C2 8055   3.756   1.145  17.416 -0.7178  0.5377  0.3406
  543TMC3    C3 8056   3.687   1.118  17.530  0.4864 -0.2797 -0.0360
  543TMC3    C4 8057   3.872   1.324  17.536  0.2101 -0.0446 -0.1680
  543TMC3    C5 8058   3.798   1.284  17.648  0.6269 -0.4136  0.4667
  543TMC3    C6 8059   3.714   1.179  17.648 -0.2376  0.3918  0.2156
  543TMC3     C 8060   3.932   1.271  17.304 -0.6854 -0.2316  0.2582
  543TMC3     O 8061   3.942   1.185  17.221  0.6905  0.3630  0.7442
  543TMC3     H 8062   3.752   1.083  17.327 -2.2895 -1.3523  1.7210
  543TMC3    H1 8063   3.939   1.409  17.532  2.8499 -2.0844  0.7647
  543TMC3    H2 8064   3.672   1.146   0.056 -0.1153 -1.6688 -0.4577
  543TMC3    C7 8065   3.809   1.361   0.088  0.3151  0.0176 -0.2859
  543TMC3    C8 8066   3.627   0.992  17.534  0.6346 -0.6990 -0.2141
  543TMC3    O1 8067   3.716   1.354   0.166  0.4085 -0.0625 -0.2586
  543TMC3    O2 8068   3.648   0.909  17.446 -0.3389 -0.7549  0.1814
  544MPD2     C 8069   3.358   0.618   0.063  0.7541  0.1541 -0.3732
  544MPD2    C1 8070   3.446   0.615  17.646  0.1185 -0.8168 -0.2386
  544MPD2    C2 8071   3.508   0.732  17.608  0.4385  0.0532  1.0106
  544MPD2    C3 8072   3.484   0.849  17.675  0.3040 -0.3365 -0.3440
  544MPD2    C4 8073   3.391   0.847   0.094  0.0035 -0.8046  0.1890
  544MPD2    C5 8074   3.325   0.730   0.126 -0.3828  0.5608  0.0727
  544MPD2     H 8075   3.594   0.732  17.542 -0.1368 -1.3931  0.2649
  544MPD2    H1 8076   3.359   0.931   0.154  0.5606 -1.9867  2.1650
  544MPD2    H2 8077   3.314   0.525   0.096  0.0524  0.3090 -0.8649
  544MPD2    H3 8078   3.250   0.730   0.204 -1.8132 -1.7921 -1.3074
  544MPD2     N 8079   3.546   0.969  17.642 -0.0283  0.1828 -0.0624
  544MPD2    H5 8080   3.523   1.047   0.016  0.5960  1.3604 -1.3448
  544MPD2    N1 8081   3.459   0.489  17.586  0.9425 -0.0237  0.0263
  544MPD2    H7 8082   3.420   0.406  17.630  1.4108 -0.6154 -0.6684
  545TMC3    C1 8083   3.495   0.326  17.409 -0.4331  0.0094 -0.1899
  545TMC3    C2 8084   3.470   0.303  17.274  0.0365 -0.1475  0.3526
  545TMC3    C3 8085   3.469   0.174  17.232  0.6629  0.2703 -0.4307
  545TMC3    C4 8086   3.520   0.224  17.499 -0.1240 -0.7657 -0.2701
  545TMC3    C5 8087   3.523   0.098  17.449  0.0355 -0.4593  0.7106
  545TMC3    C6 8088   3.488   0.070  17.317 -0.4071 -0.5120  0.1985
  545TMC3     C 8089   3.495   0.466  17.454  0.4110 -0.2534  0.1488
  545TMC3     O 8090   3.511   0.555  17.373  0.5802  0.0939 -0.1090
  545TMC3     H 8091   3.460   0.388  17.207  2.6955  3.0779  4.0700
  545TMC3    H1 8092   3.562   0.244  17.597  0.8899 -0.6597 -0.7271
  545TMC3    H2 8093   3.473   4.692  17.276 -3.5043 -0.8918  2.2793
  545TMC3    C7 8094   3.573   4.696  17.524  0.2125 -0.1940  0.4551
  545TMC3    C8 8095   3.439   0.144  17.091 -0.1696  0.5755  0.3614
  545TMC3    O1 8096   3.489   4.603  17.538 -0.1174 -0.1963 -0.4719
  545TMC3    O2 8097   3.382   0.230  17.027 -0.3233  0.0105  0.8365
  546MPD2     C 8098   0.926   0.766  17.534 -0.2896 -0.1451 -0.3000
  546MPD2    C1 8099   0.835   0.840  17.468 -0.1504 -0.0718  0.0705
  546MPD2    C2 8100   0.848   0.982  17.480  0.0834  0.5869  0.2803
  546MPD2    C3 8101   0.966   1.038  17.542  0.3795  0.3745  0.3106
  546MPD2    C4 8102   1.065   0.956  17.581  0.7090  0.6739 -0.5234
  546MPD2    C5 8103   1.039   0.819  17.587 -0.3829 -0.1318  0.0194
  546MPD2     H 8104   0.776   1.051  17.437  0.1777  0.6919  0.2928
  546MPD2    H1 8105   1.157   1.004  17.612 -0.0267  1.8294 -0.1535
  546MPD2    H2 8106   0.930   0.658  17.523  2.1765 -0.2360  1.4580
  546MPD2    H3 8107   1.115   0.753  17.627 -0.0110  1.1821  1.4909
  546MPD2     N 8108   0.982   1.173  17.558 -0.2429  0.8449 -0.5090
  546MPD2    H5 8109   1.071   1.205  17.594 -0.7256  2.6561 -0.9113
  546MPD2    N1 8110   0.722   0.776  17.409  0.0527 -0.5758 -0.5680
  546MPD2    H7 8111   0.708   0.676  17.419  1.1992 -0.8240 -1.4792
  547TMC3    C1 8112   0.515   0.749  17.306 -0.3036  0.0258 -0.1756
  547TMC3    C2 8113   0.433   0.778  17.202 -0.1662 -0.0935 -0.3171
  547TMC3    C3 8114   0.322   0.697  17.186 -0.9469  0.2799  0.1784
  547TMC3    C4 8115   0.476   0.658  17.400 -0.0037 -0.0964  1.0910
  547TMC3    C5 8116   0.354   0.591  17.391  0.0656  0.2250  1.0110
  547TMC3    C6 8117   0.279   0.601  17.276  0.0534  0.0820 -0.5005
  547TMC3     C 8118   0.632   0.839  17.322  0.0323 -0.5677 -0.2045
  547TMC3     O 8119   0.648   0.944  17.258 -0.1387  0.1386  0.4751
  547TMC3     H 8120   0.460   0.847  17.122  0.4279 -1.3968 -1.2471
  547TMC3    H1 8121   0.521   0.645  17.497 -0.8534  0.7246  1.5917
  547TMC3    H2 8122   0.185   0.546  17.272 -0.8827  1.5729  0.8283
  547TMC3    C7 8123   0.275   0.541  17.505  0.6723  0.1130  0.1606
  547TMC3    C8 8124   0.236   0.718  17.070 -0.4173  0.0848 -0.3718
  547TMC3    O1 8125   0.169   0.597  17.532 -0.3020 -0.3325  0.1903
  547TMC3    O2 8126   0.257   0.808  16.987 -0.0361 -0.1120  0.1928
  548MPD2     C 8127   0.442   1.747  11.810  0.7219 -0.3522 -0.7256
  548MPD2    C1 8128   0.414   1.621  11.853 -0.3705 -0.4540  0.1449
  548MPD2    C2 8129   0.482   1.520  11.791  0.7343  0.2182  0.9003
  548MPD2    C3 8130   0.577   1.546  11.689  0.1165 -0.3730  0.5402
  548MPD2    C4 8131   0.605   1.675  11.652 -0.0845  0.1203 -0.1903
  548MPD2    C5 8132   0.538   1.779  11.723 -0.6519  1.0471 -0.3961
  548MPD2     H 8133   0.454   1.418  11.815  1.6718 -0.1077  0.6120
  548MPD2    H1 8134   0.682   1.701  11.580  0.8436 -0.2569  0.6663
  548MPD2    H2 8135   0.389   1.827  11.859  0.6689  0.2307 -1.7407
  548MPD2    H3 8136   0.561   1.880  11.689 -1.9874  1.8889  1.1862
  548MPD2     N 8137   0.652   1.431  11.650 -0.7205  0.4655  0.2304
  548MPD2    H5 8138   0.636   1.350  11.709  0.9611  0.8353  1.1993
  548MPD2    N1 8139   0.328   1.599  11.963  0.2694 -0.5964  0.3564
  548MPD2    H7 8140   0.296   1.686  12.004 -0.1091 -0.0473 -1.1124
  549TMC3    C1 8141   0.195   1.485  12.122  0.8083 -0.1233 -0.9068
  549TMC3    C2 8142   0.095   1.589  12.107 -0.5045  0.0099 -0.6539
  549TMC3    C3 8143   4.701   1.572  12.177  0.7094  0.5789  0.9907
  549TMC3    C4 8144   0.166   1.367  12.181 -0.3517 -0.6009 -0.7164
  549TMC3    C5 8145   0.041   1.354  12.226 -0.1773  0.2720  0.2374
  549TMC3    C6 8146   4.667   1.450  12.229 -0.0293  0.2365  0.0147
  549TMC3     C 8147   0.286   1.476  12.009  0.0560  1.2594 -0.2172
  549TMC3     O 8148   0.325   1.362  11.979 -0.3592  0.0687 -0.1337
  549TMC3     H 8149   0.099   1.670  12.035  3.1683 -0.9198 -1.5287
  549TMC3    H1 8150   0.240   1.288  12.177  0.6807  0.3077  0.3791
  549TMC3    H2 8151   4.568   1.434  12.272 -0.7693 -0.1178 -1.8134
  549TMC3    C7 8152   0.014   1.239  12.309  0.5909 -0.6273 -0.3649
  549TMC3    C8 8153   4.606   1.682  12.194 -0.0664 -1.0022  0.3839
  549TMC3    O1 8154   4.620   1.230  12.349  0.1769 -0.3937  0.2361
  549TMC3    O2 8155   4.493   1.647  12.212 -0.3927 -0.2266 -0.0439
  550TMC3    C1 8156   2.830   3.458  12.139 -0.3579  0.7726 -0.2122
  550TMC3    C2 8157   2.767   3.558  12.215  0.1842  0.5425  0.4351
  550TMC3    C3 8158   2.839   3.672  12.242  0.0933  0.5369 -0.5799
  550TMC3    C4 8159   2.960   3.475  12.091 -0.0073 -0.5612 -0.3522
  550TMC3    C5 8160   3.025   3.586  12.117 -0.3109 -0.7751  0.3901
  550TMC3    C6 8161   2.965   3.683  12.196 -0.6982 -0.2808  0.7903
  550TMC3     C 8162   2.741   3.391  12.050 -0.0953 -0.4987  0.2066
  550TMC3     O 8163   2.647   3.323  12.099 -0.0142 -0.0823 -0.1449
  550TMC3     H 8164   2.663   3.547  12.242 -0.3333  1.4551 -1.1524
  550TMC3    H1 8165   3.008   3.397  12.033  1.2394 -0.4079  0.4754
  550TMC3    H2 8166   3.018   3.777  12.204 -0.1177 -0.5650  0.1948
  550TMC3    C7 8167   3.053   3.648  11.987  0.5019  0.4928  0.0098
  550TMC3    C8 8168   2.765   3.796  12.247 -0.0419 -0.2807 -0.2618
  550TMC3    O1 8169   3.001   3.594  11.893 -0.0324 -0.2228  0.1753
  550TMC3    O2 8170   2.805   3.881  12.174 -0.0293  0.1164  0.5744
  551TMC3    C1 8171   1.219   1.888  13.005  0.5550 -0.1503 -0.4597
  551TMC3    C2 8172   1.311   1.943  12.919 -0.4319  0.5620  0.0270
  551TMC3    C3 8173   1.390   2.043  12.968 -0.1474  0.1775  0.2313
  551TMC3    C4 8174   1.190   1.943  13.127  0.2549  0.3312  0.0139
  551TMC3    C5 8175   1.275   2.044  13.178  0.0747 -0.0467  0.1947
  551TMC3    C6 8176   1.380   2.082  13.100  0.0960 -1.0363 -0.5787
  551TMC3     C 8177   1.152   1.765  12.968  0.2642 -0.7285 -0.5165
  551TMC3     O 8178   1.117   1.686  13.051  0.4416  0.3541 -1.0189
  551TMC3     H 8179   1.338   1.907  12.820  1.3108 -1.5652  1.2551
  551TMC3    H1 8180   1.122   1.888  13.191 -0.3281 -0.6513 -1.4517
  551TMC3    H2 8181   1.464   2.140  13.137 -1.2229  0.5859 -0.1647
  551TMC3    C7 8182   1.246   2.098  13.309  0.0141 -0.1364 -0.1767
  551TMC3    C8 8183   1.515   2.052  12.899 -0.5823  0.3717  0.3661
  551TMC3    O1 8184   1.338   2.109  13.389  0.3571  0.5117  0.4193
  551TMC3    O2 8185   1.572   1.956  12.861  0.7529 -0.5560 -0.2202
  552MPD2     C 8186   2.862   4.061  14.009 -0.1204  0.5125  0.1264
  552MPD2    C1 8187   2.967   3.983  13.957  0.2521 -0.5037  0.4932
  552MPD2    C2 8188   3.078   3.972  14.035  0.7179  0.3982 -0.2408
  552MPD2    C3 8189   3.100   4.043  14.154  0.1909 -0.1378 -0.1486
  552MPD2    C4 8190   2.997   4.125  14.197  0.1490  0.2365  0.5550
  552MPD2    C5 8191   2.874   4.128  14.127  0.3068  0.1368  0.2484
  552MPD2     H 8192   3.154   3.907  13.993 -1.5887 -1.3869 -1.7009
  552MPD2    H1 8193   3.005   4.171  14.295  0.3882 -0.3751  0.8213
  552MPD2    H2 8194   2.767   4.066  13.958 -0.3729 -0.9980  0.4399
  552MPD2    H3 8195   2.791   4.184  14.169 -0.6462 -0.5777 -0.6745
  552MPD2     N 8196   3.222   4.053  14.221  0.4235  0.1995 -0.4827
  552MPD2    H5 8197   3.226   4.112  14.303  1.0596 -2.2684  1.2717
  552MPD2    N1 8198   2.962   3.925  13.825  0.8129 -0.6578  0.2315
  552MPD2    H7 8199   3.040   3.870  13.791  1.1271  0.2324 -0.4989
  553TMC3    C1 8200   2.866   3.854  13.617 -0.3867 -0.4755  0.8262
  553TMC3    C2 8201   2.802   3.888  13.501  0.5064 -0.3367  0.9215
  553TMC3    C3 8202   2.802   3.795  13.401 -0.5330  0.1350  0.7145
  553TMC3    C4 8203   2.943   3.740  13.625  0.1548 -0.0087  0.8289
  553TMC3    C5 8204   2.948   3.654  13.520  0.1226 -0.2719  0.4341
  553TMC3    C6 8205   2.871   3.680  13.411  0.5546 -0.8996  0.3985
  553TMC3     C 8206   2.859   3.938  13.737  0.0449  0.2177  0.6524
  553TMC3     O 8207   2.761   4.012  13.741  0.8804  0.4126  0.5323
  553TMC3     H 8208   2.732   3.970  13.501 -0.8765 -1.5187 -0.3526
  553TMC3    H1 8209   2.997   3.705  13.712 -2.1387 -0.1163  2.1963
  553TMC3    H2 8210   2.865   3.597  13.341 -0.1656 -0.7015  0.2199
  553TMC3    C7 8211   3.039   3.548  13.512 -0.2411  0.5018  0.2714
  553TMC3    C8 8212   2.774   3.845  13.272 -0.0722 -0.5015  0.1879
  553TMC3    O1 8213   3.007   3.444  13.454 -0.0750  0.0760 -0.3458
  553TMC3    O2 8214   2.787   3.973  13.269 -0.1421 -0.2761  0.6626
  554TMC3    C1 8215   0.137   2.894  11.580  0.5373  0.5148  0.0156
  554TMC3    C2 8216   0.048   2.870  11.480  0.4298  0.1037  0.7252
  554TMC3    C3 8217   0.014   2.970  11.398  0.5783  0.1599  0.2934
  554TMC3    C4 8218   0.200   3.015  11.590  0.1714  0.7907 -0.2736
  554TMC3    C5 8219   0.166   3.118  11.507 -0.3603  0.0164  1.3202
  554TMC3    C6 8220   0.061   3.101  11.421 -0.6938  0.0490 -0.1154
  554TMC3     C 8221   0.187   2.777  11.648  0.1518  0.4389  0.1165
  554TMC3     O 8222   0.155   2.674  11.590 -0.2654 -0.4288 -0.4955
  554TMC3     H 8223   0.024   2.771  11.445 -1.4442  0.5113  0.8296
  554TMC3    H1 8224   0.283   3.037  11.657  0.7264  3.5436 -1.8559
  554TMC3    H2 8225   0.026   3.190  11.370 -0.4292  0.1639 -0.0983
  554TMC3    C7 8226   0.261   3.216  11.461  0.5691  0.2375 -1.0581
  554TMC3    C8 8227   4.690   2.940  11.267 -1.1778  0.2073  0.1944
  554TMC3    O1 8228   0.233   3.269  11.356 -0.4049 -0.3930  0.1114
  554TMC3    O2 8229   0.000   3.019  11.181 -0.4743 -0.0354 -0.5520
  555TMC3    C1 8230   4.274   2.559  14.749  0.0237  0.3736  0.5669
  555TMC3    C2 8231   4.238   2.672  14.819 -0.6679 -0.0643 -0.9139
  555TMC3    C3 8232   4.192   2.648  14.948  0.4455 -0.0679  0.4805
  555TMC3    C4 8233   4.250   2.433  14.797 -0.6426  0.1521  0.1933
  555TMC3    C5 8234   4.189   2.420  14.918 -0.0119 -0.2402  0.7116
  555TMC3    C6 8235   4.170   2.526  15.003 -0.4169  0.0240 -0.4257
  555TMC3     C 8236   4.270   2.574  14.607  0.0291 -0.1329  0.1900
  555TMC3     O 8237   4.315   2.476  14.547  0.4134  0.3777 -0.1290
  555TMC3     H 8238   4.286   2.764  14.790  1.3375 -0.7454  0.2848
  555TMC3    H1 8239   4.272   2.339  14.749 -0.0021  0.6754 -0.5352
  555TMC3    H2 8240   4.131   2.512  15.103 -1.5486  1.1511 -0.7009
  555TMC3    C7 8241   4.100   2.314  14.949 -0.0546 -0.8572  0.4983
  555TMC3    C8 8242   4.225   2.754  15.041 -0.8240 -0.2288  0.6911
  555TMC3    O1 8243   4.015   2.339  15.033 -0.0304  0.2755  0.1023
  555TMC3    O2 8244   4.216   2.865  14.995  0.0761  0.1784 -0.3834
  556MPD2     C 8245   3.014   3.884  10.858 -0.1071  0.6546  0.9604
  556MPD2    C1 8246   2.883   3.840  10.855 -0.4297  0.3324 -0.3361
  556MPD2    C2 8247   2.855   3.733  10.770 -0.2451 -0.1344  0.2513
  556MPD2    C3 8248   2.953   3.677  10.694 -0.4032 -0.8141 -0.0316
  556MPD2    C4 8249   3.082   3.719  10.702  0.0692 -0.5569  0.6315
  556MPD2    C5 8250   3.111   3.816  10.790  0.5560  0.4347 -0.5445
  556MPD2     H 8251   2.755   3.697  10.753 -0.2910  0.5149 -0.8266
  556MPD2    H1 8252   3.163   3.683  10.640 -1.0729 -1.4760 -0.3205
  556MPD2    H2 8253   3.045   3.964  10.924  1.5453  1.6768 -1.0363
  556MPD2    H3 8254   3.216   3.844  10.782  0.6474  0.5499  1.0729
  556MPD2     N 8255   2.917   3.579  10.599 -0.1694 -0.1249 -0.4198
  556MPD2    H5 8256   2.816   3.577  10.588  0.0490 -2.5621 -1.7910
  556MPD2    N1 8257   2.774   3.893  10.930 -0.2765  0.1118 -0.1435
  556MPD2    H7 8258   2.694   3.830  10.937  0.5660 -0.7911  1.4340
  557TMC3    C1 8259   2.916   3.406  10.440 -0.4102  0.6584  0.3630
  557TMC3    C2 8260   2.982   3.383  10.317  0.4599 -0.8106 -0.0966
  557TMC3    C3 8261   2.896   3.376  10.207 -0.9562 -0.6331 -0.2016
  557TMC3    C4 8262   2.778   3.394  10.460  0.6810  0.1752  0.9060
  557TMC3    C5 8263   2.704   3.377  10.345  0.0136  0.5061 -0.3724
  557TMC3    C6 8264   2.757   3.366  10.217  1.0882  0.4129 -0.1021
  557TMC3     C 8265   2.993   3.486  10.540 -0.0866  0.2000  0.3286
  557TMC3     O 8266   3.113   3.474  10.523 -1.3045  0.3040 -0.0437
  557TMC3     H 8267   3.086   3.411  10.303 -0.1057  1.5902  0.5138
  557TMC3    H1 8268   2.728   3.410  10.555  1.6797 -0.5879  1.5629
  557TMC3    H2 8269   2.701   3.340  10.128 -1.4645 -0.4053  1.7689
  557TMC3    C7 8270   2.556   3.393  10.354 -0.3772  0.0203 -0.4999
  557TMC3    C8 8271   2.969   3.389  10.087 -0.0886 -0.0472 -0.2490
  557TMC3    O1 8272   2.494   3.365  10.452  0.4422  0.0200  0.2176
  557TMC3    O2 8273   3.061   3.470  10.088  0.1397  0.2487  0.4261
  558TMC3    C1 8274   0.600   2.114   9.864  0.2192  0.0364 -0.4027
  558TMC3    C2 8275   0.480   2.161   9.918 -0.2828 -0.1915  0.6506
  558TMC3    C3 8276   0.365   2.126   9.854 -0.3161  0.4779 -0.0203
  558TMC3    C4 8277   0.603   2.047   9.748 -0.7836  0.2262  0.1100
  558TMC3    C5 8278   0.491   2.025   9.678  0.0123 -0.0074  0.3945
  558TMC3    C6 8279   0.369   2.073   9.728  0.4822  0.4055  0.1998
  558TMC3     C 8280   0.714   2.103   9.954  0.5323 -0.7067 -0.5184
  558TMC3     O 8281   0.820   2.158   9.923 -0.0802 -0.1027  0.1841
  558TMC3     H 8282   0.475   2.216  10.012  2.0639  3.3806 -1.3548
  558TMC3    H1 8283   0.699   2.002   9.727 -1.5057 -1.6915  0.9250
  558TMC3    H2 8284   0.276   2.054   9.676 -0.1411  1.3216  0.9992
  558TMC3    C7 8285   0.493   1.896   9.608 -0.7603 -0.3986 -0.2031
  558TMC3    C8 8286   0.236   2.142   9.928 -0.1722  0.0689  0.7411
  558TMC3    O1 8287   0.591   1.827   9.630  0.0463 -0.0897 -0.1228
  558TMC3    O2 8288   0.145   2.126   9.847 -0.4718 -0.4578  0.3321
  559MPD2     C 8289   4.707   2.735  10.283 -0.1951 -0.1621 -0.5727
  559MPD2    C1 8290   4.659   2.678  10.402  0.2955 -0.7157 -0.4851
  559MPD2    C2 8291   0.014   2.691  10.519 -0.2465  0.5741 -1.0544
  559MPD2    C3 8292   0.140   2.750  10.509  0.1411  0.4534 -0.1910
  559MPD2    C4 8293   0.188   2.796  10.386  0.5658 -0.6305 -0.5883
  559MPD2    C5 8294   0.114   2.786  10.275 -0.6773 -0.2022 -0.0120
  559MPD2     H 8295   4.703   2.664  10.619  2.3780  0.3759 -0.2590
  559MPD2    H1 8296   0.286   2.842  10.372  0.5175  0.2790  1.9181
  559MPD2    H2 8297   4.639   2.732  10.199 -2.2811 -1.0752  1.1465
  559MPD2    H3 8298   0.154   2.830  10.185  0.9572  0.0387  0.8442
  559MPD2     N 8299   0.219   2.761  10.628 -0.1067 -0.2194  0.1480
  559MPD2    H5 8300   0.187   2.724  10.717 -0.0279  0.8485  0.6166
  559MPD2    N1 8301   4.522   2.627  10.396 -0.2360  0.2125 -0.7716
  559MPD2    H7 8302   4.482   2.648  10.305  0.1554  4.0727 -0.0223
  560TMC3    C1 8303   0.409   2.771  10.754  0.7170 -0.3755  0.5830
  560TMC3    C2 8304   0.422   2.634  10.763 -0.0612  0.9128 -0.2560
  560TMC3    C3 8305   0.489   2.583  10.874  0.2798  0.1705  0.0874
  560TMC3    C4 8306   0.461   2.853  10.847 -0.0085  0.4765  0.6009
  560TMC3    C5 8307   0.528   2.799  10.956  0.1975  0.1015  0.7142
  560TMC3    C6 8308   0.542   2.665  10.976  0.2519 -0.0740 -0.2754
  560TMC3     C 8309   0.342   2.825  10.639  0.2100  0.5976 -0.7922
  560TMC3     O 8310   0.410   2.880  10.558  0.5651 -0.2382 -0.5761
  560TMC3     H 8311   0.380   2.565  10.690 -0.5666  0.1560  0.7581
  560TMC3    H1 8312   0.446   2.960  10.836  1.0161  0.6652  0.9644
  560TMC3    H2 8313   0.572   2.628  11.073 -1.3066  1.5505  0.8300
  560TMC3    C7 8314   0.582   2.891  11.049 -1.0452 -0.1198  0.1367
  560TMC3    C8 8315   0.477   2.441  10.895  0.5486  0.0941  0.3553
  560TMC3    O1 8316   0.552   3.008  11.031  1.1169  0.0795  0.4259
  560TMC3    O2 8317   0.375   2.396  10.836 -0.3555  0.6993 -0.2024
  561TMC3    C1 8318   2.787   1.326  11.136  0.7074 -0.2144 -0.2292
  561TMC3    C2 8319   2.723   1.245  11.225 -0.5551 -0.3786  0.1191
  561TMC3    C3 8320   2.622   1.293  11.303 -0.2156 -0.0085 -0.1683
  561TMC3    C4 8321   2.745   1.455  11.104  0.6672  0.6834  0.4719
  561TMC3    C5 8322   2.638   1.501  11.188 -0.2268 -0.2684 -0.8287
  561TMC3    C6 8323   2.578   1.423  11.284  0.0310 -0.3885  0.4555
  561TMC3     C 8324   2.894   1.271  11.057 -0.1297  0.5523 -0.7236
  561TMC3     O 8325   2.896   1.155  11.024  0.0323  0.4253 -0.0111
  561TMC3     H 8326   2.766   1.150  11.254 -0.2636 -0.5864 -1.0039
  561TMC3    H1 8327   2.791   1.523  11.033  0.0240  1.6674  1.0114
  561TMC3    H2 8328   2.505   1.466  11.352 -0.7171  0.0393 -0.6109
  561TMC3    C7 8329   2.592   1.640  11.175 -0.0224 -0.4167 -0.1879
  561TMC3    C8 8330   2.576   1.206  11.413  1.2671  0.2083  0.5899
  561TMC3    O1 8331   2.485   1.674  11.221  0.2942  1.0143  0.1242
  561TMC3    O2 8332   2.605   1.086  11.403  0.2746  0.1396 -0.3830
  562TMC3    C1 8333   3.719   3.138  16.219 -0.0550 -0.3157 -0.4086
  562TMC3    C2 8334   3.660   3.261  16.222 -0.9295 -0.0227 -0.1924
  562TMC3    C3 8335   3.633   3.315  16.098 -0.0122 -0.2776 -0.2787
  562TMC3    C4 8336   3.761   3.075  16.109 -0.1309 -0.3458 -0.5734
  562TMC3    C5 8337   3.724   3.129  15.991 -0.2784 -0.7187 -0.5075
  562TMC3    C6 8338   3.657   3.253  15.986 -0.0869 -0.0301 -0.0948
  562TMC3     C 8339   3.794   3.100  16.340  0.9558 -0.3697  0.2703
  562TMC3     O 8340   3.907   3.052  16.332 -0.3123 -0.1639 -0.2766
  562TMC3     H 8341   3.639   3.317  16.313 -1.3695 -0.6933  0.1220
  562TMC3    H1 8342   3.820   2.986  16.124  0.2721 -0.2960 -1.8785
  562TMC3    H2 8343   3.616   3.291  15.893  0.8328  0.8096 -0.1618
  562TMC3    C7 8344   3.728   3.056  15.864  0.0342  0.0641 -0.3290
  562TMC3    C8 8345   3.513   3.395  16.104 -0.3024 -0.4489 -0.1154
  562TMC3    O1 8346   3.658   3.099  15.775  0.1399 -0.3050 -0.1636
  562TMC3    O2 8347   3.460   3.397  16.213  0.0947 -0.6914  0.2716
  563MPD2     C 8348   1.292   4.229  15.748  0.5981  0.0375  0.7478
  563MPD2    C1 8349   1.294   4.243  15.883  0.5396  0.2447  0.0944
  563MPD2    C2 8350   1.372   4.347  15.933 -0.1741 -0.2911 -0.5558
  563MPD2    C3 8351   1.436   4.439  15.849 -0.4818  0.6689 -0.6922
  563MPD2    C4 8352   1.439   4.417  15.717 -0.4067 -0.2139 -0.5872
  563MPD2    C5 8353   1.355   4.321  15.670  1.0055 -0.1866 -0.5903
  563MPD2     H 8354   1.371   4.362  16.041 -1.0313  0.2019 -0.6306
  563MPD2    H1 8355   1.474   4.488  15.643  1.3757 -0.9505 -0.4511
  563MPD2    H2 8356   1.227   4.155  15.702 -0.4623  0.1630  2.0463
  563MPD2    H3 8357   1.345   4.314  15.562  1.2284 -0.9539 -0.5643
  563MPD2     N 8358   1.505   4.546  15.911 -0.2776  0.5918  0.0150
  563MPD2    H5 8359   1.482   4.566  16.007  0.9695 -1.4286  0.7300
  563MPD2    N1 8360   1.229   4.147  15.964  0.3539 -0.4844 -0.2093
  563MPD2    H7 8361   1.181   4.068  15.922  0.9266 -1.5718  1.1803
  564TMC3    C1 8362   1.168   4.030  16.161 -0.1727  0.3589 -0.7377
  564TMC3    C2 8363   1.079   3.948  16.095  0.1565  0.0398 -0.2878
  564TMC3    C3 8364   1.040   3.830  16.157  0.1518 -0.1972 -0.1131
  564TMC3    C4 8365   1.217   3.993  16.286 -0.4803  0.3787  0.2336
  564TMC3    C5 8366   1.166   3.883  16.349 -0.4326 -0.6904 -0.2691
  564TMC3    C6 8367   1.078   3.802  16.283  0.1785  0.1358 -0.4193
  564TMC3     C 8368   1.231   4.139  16.099 -0.5085  0.6395 -0.0342
  564TMC3     O 8369   1.298   4.207  16.179  0.1029 -0.2643 -0.4686
  564TMC3     H 8370   1.032   3.977  16.002  2.5144  0.4000 -1.3600
  564TMC3    H1 8371   1.303   4.038  16.333  0.2160  0.6401 -1.2897
  564TMC3    H2 8372   1.051   3.703  16.319 -2.6684  1.5789  1.4050
  564TMC3    C7 8373   1.272   3.821  16.413 -0.6629  0.6808  0.2482
  564TMC3    C8 8374   0.939   3.748  16.098 -0.2873  0.2990  0.2558
  564TMC3    O1 8375   1.334   3.875  16.500 -0.2287 -0.1191 -0.1477
  564TMC3    O2 8376   0.868   3.698  16.180  0.0932  0.1700 -0.1330
  565TMC3    C1 8377   2.040   0.536   9.891  0.8124  0.5296 -0.1696
  565TMC3    C2 8378   2.026   0.428   9.972  0.4265  0.8618 -0.4778
  565TMC3    C3 8379   1.909   0.349   9.961  0.7178 -0.5031  0.4239
  565TMC3    C4 8380   1.956   0.549   9.786 -0.9288  0.6586  0.6093
  565TMC3    C5 8381   1.850   0.466   9.776 -0.0740  0.4406  0.1089
  565TMC3    C6 8382   1.821   0.365   9.858  0.0999 -0.0811  0.3221
  565TMC3     C 8383   2.149   0.626   9.904 -0.3850  0.4924 -0.5843
  565TMC3     O 8384   2.184   0.685   9.803  0.7298  0.3569 -0.0804
  565TMC3     H 8385   2.088   0.411  10.059  0.2272 -0.4931 -0.5958
  565TMC3    H1 8386   1.973   0.629   9.715  1.4701 -0.7973 -0.4470
  565TMC3    H2 8387   1.720   0.332   9.880 -0.8014  2.6699  0.3953
  565TMC3    C7 8388   1.741   0.509   9.684 -0.1489  0.8766  0.4543
  565TMC3    C8 8389   1.896   0.228  10.044 -0.1803  0.3955 -0.3966
  565TMC3    O1 8390   1.750   0.627   9.651  0.2041 -0.4120  0.1720
  565TMC3    O2 8391   1.961   0.222  10.149 -0.9456 -0.0407 -0.4994
  566MPD2     C 8392   3.014   2.522  14.143 -0.3141  0.3914  0.1508
  566MPD2    C1 8393   3.118   2.492  14.053  0.4027  0.6954 -0.2313
  566MPD2    C2 8394   3.100   2.398  13.954  0.4530 -0.2565 -0.0735
  566MPD2    C3 8395   2.976   2.344  13.936  1.1208 -0.2039  0.1727
  566MPD2    C4 8396   2.868   2.389  14.000 -0.1573 -0.1496  0.5299
  566MPD2    C5 8397   2.890   2.473  14.110  0.0640 -0.2685  0.0079
  566MPD2     H 8398   3.187   2.364  13.899  0.5008  0.6161 -0.5352
  566MPD2    H1 8399   2.768   2.365  13.965 -0.5505  0.1488  1.4564
  566MPD2    H2 8400   3.026   2.580  14.233 -3.2023 -0.4954  1.1177
  566MPD2    H3 8401   2.806   2.505  14.171 -0.1629 -1.7529  0.4728
  566MPD2     N 8402   2.951   2.259  13.824  0.4022  0.2365 -0.2381
  566MPD2    H5 8403   2.858   2.239  13.789  0.1327  0.0132  0.6134
  566MPD2    N1 8404   3.247   2.555  14.067  0.0039 -0.3618 -0.0492
  566MPD2    H7 8405   3.303   2.545  13.984  2.0553  1.4111  1.1329
  567TMC3    C1 8406   3.436   2.664  14.146  0.3332 -0.2283 -0.0583
  567TMC3    C2 8407   3.488   2.650  14.012  0.3524  0.3436 -0.4019
  567TMC3    C3 8408   3.621   2.630  14.000 -0.0962 -0.3897  0.1064
  567TMC3    C4 8409   3.515   2.642  14.255 -0.0155  1.1068  0.1182
  567TMC3    C5 8410   3.653   2.635  14.234 -0.3403 -1.1755  0.1089
  567TMC3    C6 8411   3.705   2.631  14.113  0.3421 -0.2900 -0.3371
  567TMC3     C 8412   3.297   2.616  14.175 -0.0842 -0.1392  0.1830
  567TMC3     O 8413   3.262   2.597  14.294 -0.3779 -0.7741 -0.1558
  567TMC3     H 8414   3.422   2.649  13.926  0.5060  0.7562 -0.5288
  567TMC3    H1 8415   3.475   2.620  14.353 -2.2796 -0.6286 -1.1789
  567TMC3    H2 8416   3.808   2.606  14.093  0.5050 -0.5870  0.8986
  567TMC3    C7 8417   3.743   2.641  14.347  0.6736  0.1545 -0.3868
  567TMC3    C8 8418   3.673   2.639  13.867 -0.4544  0.0692  0.9484
  567TMC3    O1 8419   3.860   2.598  14.321  0.0740 -0.7278  0.0235
  567TMC3    O2 8420   3.591   2.620  13.778 -1.0567 -0.2022 -0.1513
  568MPD2     C 8421   1.470   2.711  16.475  0.1531  0.4992 -0.3934
  568MPD2    C1 8422   1.372   2.755  16.560  0.0783  0.3204  0.2734
  568MPD2    C2 8423   1.262   2.810  16.501 -0.3930  0.0740 -0.2111
  568MPD2    C3 8424   1.252   2.840  16.364  0.1837 -0.4519  0.0675
  568MPD2    C4 8425   1.361   2.808  16.284 -0.3086  0.5744  0.6324
  568MPD2    C5 8426   1.467   2.750  16.347  0.4519 -0.1213 -0.4324
  568MPD2     H 8427   1.178   2.845  16.560 -1.1626  1.9811 -2.4613
  568MPD2    H1 8428   1.369   2.831  16.179 -0.2258  0.9529  0.7228
  568MPD2    H2 8429   1.556   2.651  16.503  0.0566  0.3644 -0.3874
  568MPD2    H3 8430   1.545   2.723  16.277  0.4541  1.6453 -1.1091
  568MPD2     N 8431   1.139   2.903  16.321  0.2215 -1.0509  0.3636
  568MPD2    H5 8432   1.059   2.902  16.384 -0.2198 -1.5498 -0.2018
  568MPD2    N1 8433   1.385   2.721  16.699  0.5080 -0.2287  0.0755
  568MPD2    H7 8434   1.452   2.651  16.728  0.8376  0.3900  0.8100
  569TMC3    C1 8435   0.978   3.009  16.193  0.0010 -0.0486 -0.1390
  569TMC3    C2 8436   0.958   3.107  16.288  0.3080 -0.2845  0.1909
  569TMC3    C3 8437   0.828   3.162  16.286 -0.2383 -0.1812  0.0664
  569TMC3    C4 8438   0.902   2.991  16.082  0.0952 -0.2990 -0.0491
  569TMC3    C5 8439   0.794   3.072  16.072  0.2843  0.1775 -0.1652
  569TMC3    C6 8440   0.750   3.151  16.174 -0.7550  0.2653  0.3879
  569TMC3     C 8441   1.102   2.932  16.193  0.5025 -0.3642  0.4449
  569TMC3     O 8442   1.134   2.882  16.086  1.1543  0.1824  0.6352
  569TMC3     H 8443   1.027   3.113  16.371 -0.4051 -2.5654  0.9558
  569TMC3    H1 8444   0.925   2.913  16.010  1.1867 -0.5449  0.5616
  569TMC3    H2 8445   0.656   3.203  16.170 -2.0050 -2.2883 -3.7556
  569TMC3    C7 8446   0.806   3.153  15.954  0.3164  0.0915 -0.0527
  569TMC3    C8 8447   0.812   3.294  16.347  0.0315 -1.0827 -0.1081
  569TMC3    O1 8448   0.872   3.096  15.867  0.4828 -0.1765  0.5560
  569TMC3    O2 8449   0.742   3.365  16.278 -0.6599 -0.1392 -0.2410
  570TMC3    C1 8450   0.787   1.676  16.320 -0.3767  0.1010  0.2288
  570TMC3    C2 8451   0.842   1.712  16.197 -0.2947  0.0634  0.8446
  570TMC3    C3 8452   0.889   1.836  16.172  0.4796 -0.1704  0.0681
  570TMC3    C4 8453   0.775   1.776  16.413  0.4213 -0.1963 -0.6191
  570TMC3    C5 8454   0.828   1.904  16.390 -0.4151 -0.3039 -0.2912
  570TMC3    C6 8455   0.888   1.935  16.269  0.6797 -0.1207 -0.6007
  570TMC3     C 8456   0.710   1.556  16.324  0.2166  0.3788 -0.9643
  570TMC3     O 8457   0.688   1.503  16.220  0.3180  0.0532 -0.1034
  570TMC3     H 8458   0.855   1.631  16.127 -0.7453 -0.9844  1.9674
  570TMC3    H1 8459   0.739   1.759  16.514  1.7895 -1.8542 -0.4097
  570TMC3    H2 8460   0.935   2.029  16.240  0.9645  0.4495  1.6942
  570TMC3    C7 8461   0.877   1.977  16.506 -0.5637 -0.1266 -0.2303
  570TMC3    C8 8462   0.931   1.871  16.038 -0.4198  0.3594  0.1979
  570TMC3    O1 8463   0.882   1.912  16.606 -0.2002  0.0684  0.0444
  570TMC3    O2 8464   0.970   1.983  16.017  0.6309  0.2641  0.2764
  571MPD2     C 8465   3.264   3.555  17.427  0.2450 -0.3487 -0.4270
  571MPD2    C1 8466   3.215   3.517  17.552 -1.0425 -0.1489 -0.5852
  571MPD2    C2 8467   3.217   3.614  17.657 -0.1100 -0.1588  0.1473
  571MPD2    C3 8468   3.289   3.729  17.636  0.1285 -0.0164  0.1958
  571MPD2    C4 8469   3.337   3.768  17.514 -0.2416 -0.4067 -0.0375
  571MPD2    C5 8470   3.330   3.674  17.414 -0.3885  1.0067 -0.2276
  571MPD2     H 8471   3.178   3.586   0.067 -0.0991  0.1077  0.2277
  571MPD2    H1 8472   3.398   3.858  17.511 -1.9220  0.6374 -3.1785
  571MPD2    H2 8473   3.260   3.490  17.340  0.7363  0.6252 -1.1865
  571MPD2    H3 8474   3.368   3.692  17.314 -0.7911  1.3279 -0.3244
  571MPD2     N 8475   3.306   3.829   0.048  0.3226 -0.2834 -0.4274
  571MPD2    H5 8476   3.359   3.913   0.025 -1.1905  0.8997  0.4154
  571MPD2    N1 8477   3.163   3.392  17.560 -0.4655  0.0265  0.5707
  571MPD2    H7 8478   3.157   3.339  17.473  1.5471 -2.5438  2.0180
  572TMC3    C1 8479   3.314   3.932   0.263  0.5963  0.5623  0.2230
  572TMC3    C2 8480   3.350   3.913   0.396 -0.6191  0.2115 -0.7635
  572TMC3    C3 8481   3.405   4.018   0.467 -0.0807 -0.1751  0.6815
  572TMC3    C4 8482   3.313   4.065   0.209 -0.3020 -0.5100 -0.0569
  572TMC3    C5 8483   3.390   4.157   0.277  0.1308 -0.2327  0.2376
  572TMC3    C6 8484   3.426   4.139   0.410 -0.3526 -0.5513 -0.3875
  572TMC3     C 8485   3.274   3.820   0.184 -0.6474  0.2944  0.2258
  572TMC3     O 8486   3.229   3.721   0.244 -0.2908  0.8072 -0.1669
  572TMC3     H 8487   3.374   3.813   0.430 -1.1466  0.0314 -0.9250
  572TMC3    H1 8488   3.269   4.095   0.115  0.7645 -0.8357 -0.6511
  572TMC3    H2 8489   3.482   4.215   0.465 -0.5411 -0.5062 -0.2597
  572TMC3    C7 8490   3.371   4.293   0.233 -0.7305 -0.0802  0.0080
  572TMC3    C8 8491   3.456   3.997   0.608 -0.5106  0.1893  0.4465
  572TMC3    O1 8492   3.278   4.307   0.158  0.0794  0.2652  0.0058
  572TMC3    O2 8493   3.527   4.088   0.647 -0.4417  0.1583 -0.0981
  573MPD2     C 8494   4.638   4.307   0.795 -0.8169 -0.1876  0.4864
  573MPD2    C1 8495   4.685   4.427   0.748 -0.3190  0.4617  0.4374
  573MPD2    C2 8496   4.669   4.452   0.612 -0.1191  0.2360 -0.2686
  573MPD2    C3 8497   4.581   4.367   0.538  0.1777 -0.2741 -0.1441
  573MPD2    C4 8498   4.518   4.260   0.601 -0.1443  0.0797 -0.7174
  573MPD2    C5 8499   4.551   4.232   0.725 -0.2111 -0.1100  0.5857
  573MPD2     H 8500   4.718   4.534   0.560  1.4567 -0.2585  0.4195
  573MPD2    H1 8501   4.449   4.194   0.548 -0.4367 -0.4953  0.3844
  573MPD2    H2 8502   4.659   4.271   0.895  3.7564  1.7957  0.2619
  573MPD2    H3 8503   4.522   4.134   0.762  1.5935 -1.0859 -0.5928
  573MPD2     N 8504   4.545   4.382   0.400 -0.8051 -0.5606  0.0875
  573MPD2    H5 8505   4.474   4.318   0.368  1.2300 -1.8472 -1.8483
  573MPD2    N1 8506   0.059   4.488   0.824 -0.2598  0.2298  0.5870
  573MPD2    H7 8507   0.073   4.463   0.922  0.1350  1.7349  0.9155
  574TMC3    C1 8508   4.541   4.478   0.185 -0.4381 -0.3783  0.0083
  574TMC3    C2 8509   4.407   4.429   0.175  0.1631  0.2550 -0.3943
  574TMC3    C3 8510   4.341   4.473   0.062 -0.5610  0.3209 -0.2816
  574TMC3    C4 8511   4.595   4.566   0.095 -0.4054  0.4182  0.1731
  574TMC3    C5 8512   4.520   4.595  17.671  0.1324 -0.4471  0.4459
  574TMC3    C6 8513   4.391   4.550  17.651  0.8472  0.5584 -0.6782
  574TMC3     C 8514   4.594   4.482   0.321 -0.5331  0.2269  0.0146
  574TMC3     O 8515   4.672   4.576   0.338  0.6167 -0.0905 -0.4871
  574TMC3     H 8516   4.357   4.377   0.255  0.4875  0.5955  0.0282
  574TMC3    H1 8517   4.696   4.607   0.102  0.6420 -1.9228 -1.5146
  574TMC3    H2 8518   4.336   4.580  17.562 -0.5477 -0.2663 -0.0950
  574TMC3    C7 8519   4.583   4.681  17.570  0.8860  0.4397  0.2406
  574TMC3    C8 8520   4.201   4.435   0.053  0.6631  1.0355  0.2729
  574TMC3    O1 8521   4.704   4.666  17.568  0.3570 -0.0527  0.0939
  574TMC3    O2 8522   4.169   4.349   0.134  0.3373 -0.2174 -0.3689
  575TMC3    C1 8523   1.991   4.476  10.753 -0.6493  0.4675 -0.1911
  575TMC3    C2 8524   1.900   4.384  10.794  0.8490  0.3035 -0.0660
  575TMC3    C3 8525   1.802   4.350  10.706 -0.2273 -0.0022 -0.1687
  575TMC3    C4 8526   1.988   4.530  10.632  0.3880 -0.6458  0.5904
  575TMC3    C5 8527   1.901   4.484  10.537  0.4483 -0.2839  1.1364
  575TMC3    C6 8528   1.802   4.394  10.571  0.6446 -0.4394 -0.7346
  575TMC3     C 8529   2.078   4.535  10.857 -0.1370 -0.2172 -0.4004
  575TMC3     O 8530   2.053   4.501  10.969  0.2612 -0.0589  0.3572
  575TMC3     H 8531   1.916   4.344  10.893  3.1999  1.6117  0.0747
  575TMC3    H1 8532   2.056   4.607  10.598 -0.6468 -0.7360 -1.6932
  575TMC3    H2 8533   1.719   4.372  10.505  0.9611 -1.1456 -0.9011
  575TMC3    C7 8534   1.900   4.559  10.416 -0.5863  0.1555  0.0781
  575TMC3    C8 8535   1.708   4.249  10.745  0.5229  0.2821 -0.2255
  575TMC3    O1 8536   1.971   4.656  10.403 -0.0316 -0.1009 -0.2077
  575TMC3    O2 8537   1.607   4.236  10.669  0.5962  0.4254  0.1377
  576MPD2     C 8538   1.559   1.687  12.407  0.9463 -0.4167 -0.8274
  576MPD2    C1 8539   1.613   1.777  12.315  0.4602  0.0242  0.3232
  576MPD2    C2 8540   1.593   1.915  12.329 -0.1753  0.1655  0.7510
  576MPD2    C3 8541   1.516   1.958  12.441  0.6141  0.5177  0.5703
  576MPD2    C4 8542   1.478   1.862  12.540  0.5542  0.1634 -0.5435
  576MPD2    C5 8543   1.498   1.732  12.519 -0.7302 -0.1738  0.4358
  576MPD2     H 8544   1.642   1.978  12.257  0.9207 -0.7707  0.6780
  576MPD2    H1 8545   1.430   1.894  12.632 -2.2385 -0.4415 -1.8037
  576MPD2    H2 8546   1.567   1.582  12.380 -1.4058 -0.3604 -1.6792
  576MPD2    H3 8547   1.459   1.658  12.588  0.4034 -0.1603  1.0870
  576MPD2     N 8548   1.483   2.098  12.461  0.4357  0.2434  0.8854
  576MPD2    H5 8549   1.532   2.167  12.405 -0.0172  0.5490  0.8633
  576MPD2    N1 8550   1.688   1.728  12.202 -0.4514  0.0868  0.3790
  576MPD2    H7 8551   1.707   1.796  12.129 -1.6567 -0.0003 -0.0089
  577TMC3    C1 8552   1.836   1.590  12.070  0.5632  0.5064 -0.0014
  577TMC3    C2 8553   1.942   1.503  12.075 -0.5175  0.3477  0.2931
  577TMC3    C3 8554   2.013   1.487  11.957  0.1946  0.3980 -0.1644
  577TMC3    C4 8555   1.795   1.654  11.955 -0.0740  0.4148 -0.5975
  577TMC3    C5 8556   1.869   1.630  11.841 -0.1248  0.3820  0.1083
  577TMC3    C6 8557   1.968   1.539  11.838  0.1393 -0.1011 -0.4593
  577TMC3     C 8558   1.751   1.609  12.192 -0.3110  1.0086  0.6941
  577TMC3     O 8559   1.759   1.515  12.268 -0.0024  0.2237  0.0349
  577TMC3     H 8560   1.979   1.454  12.164  2.3039  0.5207 -0.7835
  577TMC3    H1 8561   1.711   1.722  11.952 -0.3304  0.1289  0.2895
  577TMC3    H2 8562   2.023   1.518  11.747 -0.7824 -2.5593 -0.4481
  577TMC3    C7 8563   1.794   1.617  11.717  0.3033 -0.6111 -0.9440
  577TMC3    C8 8564   2.099   1.376  11.943 -0.1459  0.0168 -0.0067
  577TMC3    O1 8565   1.816   1.512  11.660  0.2280 -0.4642  0.2693
  577TMC3    O2 8566   2.060   1.283  12.011  0.4527 -0.5090 -0.0864
  578MPD2     C 8567   0.024   1.979   1.549  0.2300  0.2050  0.2266
  578MPD2    C1 8568   0.057   1.918   1.436  0.3111  0.2253  0.3858
  578MPD2    C2 8569   0.136   1.804   1.442  0.0175 -0.7434  0.4152
  578MPD2    C3 8570   0.175   1.744   1.558  0.8860 -0.7880 -0.6612
  578MPD2    C4 8571   0.137   1.811   1.677  0.0236  0.5610  0.1285
  578MPD2    C5 8572   0.073   1.926   1.664  0.3024 -0.9602 -0.2134
  578MPD2     H 8573   0.154   1.749   1.350 -2.2386  1.6416 -1.4951
  578MPD2    H1 8574   0.168   1.775   1.774 -0.8674 -1.0610 -0.1967
  578MPD2    H2 8575   4.689   2.072   1.562  0.6698  0.3912  0.8186
  578MPD2    H3 8576   0.063   1.985   1.755 -0.4824 -1.9143  0.3131
  578MPD2     N 8577   0.260   1.629   1.559  0.2420 -0.1051 -0.2582
  578MPD2    H5 8578   0.272   1.589   1.466 -3.1413  1.7425 -1.4673
  578MPD2    N1 8579   0.026   1.988   1.316  0.5201 -0.3061 -0.7457
  578MPD2    H7 8580   4.696   2.075   1.332  0.5794  0.0550 -2.5890
  579TMC3    C1 8581   0.452   1.521   1.637  0.1960 -0.2451  0.5002
  579TMC3    C2 8582   0.540   1.482   1.733  0.6083  0.6989  0.0109
  579TMC3    C3 8583   0.667   1.437   1.705 -0.1924  1.1021 -0.6774
  579TMC3    C4 8584   0.497   1.514   1.506  0.3963  0.0385  0.4154
  579TMC3    C5 8585   0.622   1.464   1.480  0.5771  0.6729 -0.0455
  579TMC3    C6 8586   0.712   1.422   1.574  0.0291 -0.9897 -0.2917
  579TMC3     C 8587   0.337   1.596   1.668  0.2463  0.0591 -0.2099
  579TMC3     O 8588   0.318   1.620   1.789  0.2066 -0.5625  0.0259
  579TMC3     H 8589   0.513   1.494   1.837  0.0322 -1.4856  0.1126
  579TMC3    H1 8590   0.438   1.552   1.424  1.3207 -0.1688 -0.3464
  579TMC3    H2 8591   0.809   1.388   1.541 -0.8275 -1.5220 -2.2304
  579TMC3    C7 8592   0.670   1.461   1.346  0.5740  0.6651  0.2174
  579TMC3    C8 8593   0.762   1.439   1.813 -0.1483 -0.0311  0.7546
  579TMC3    O1 8594   0.785   1.491   1.324  0.5304  0.3668 -0.2692
  579TMC3    O2 8595   0.718   1.463   1.925  0.0090  0.0817 -0.4883
  580TMC3    C1 8596   4.482   1.137  11.905 -0.0988 -0.1379  0.2669
  580TMC3    C2 8597   4.541   1.257  11.927  0.0513 -0.5111 -0.2896
  580TMC3    C3 8598   4.674   1.278  11.916  0.2687 -0.2866 -0.1289
  580TMC3    C4 8599   4.566   1.031  11.889 -0.2969 -0.1695  0.1551
  580TMC3    C5 8600   4.701   1.050  11.889  0.5457  0.4916  0.2766
  580TMC3    C6 8601   0.039   1.171  11.908 -0.8846  0.2157  0.3609
  580TMC3     C 8602   4.355   1.105  11.970  0.5900  0.1849 -0.1194
  580TMC3     O 8603   4.349   0.996  12.027 -0.6135 -0.0336  0.0368
  580TMC3     H 8604   4.478   1.340  11.957 -1.8854 -1.6443 -1.1753
  580TMC3    H1 8605   4.522   0.933  11.882  1.1196 -0.7988  0.0486
  580TMC3    H2 8606   0.146   1.186  11.899 -1.2734  2.3723 -0.5662
  580TMC3    C7 8607   0.063   0.929  11.889  0.0496 -0.0666 -0.0121
  580TMC3    C8 8608   4.713   1.392  11.828  0.8062  0.1354  0.1002
  580TMC3    O1 8609   0.176   0.951  11.936 -0.1875 -0.3521  0.2018
  580TMC3    O2 8610   4.653   1.497  11.842 -0.5787 -0.1170  0.5670
  581MPD2     C 8611   2.582   1.351  15.217  0.4421 -0.5176  0.6185
  581MPD2    C1 8612   2.578   1.231  15.150  0.0933 -0.0285  0.0343
  581MPD2    C2 8613   2.506   1.208  15.033  0.5324  0.3457  0.3275
  581MPD2    C3 8614   2.425   1.311  14.992 -0.8774 -0.1661 -0.2009
  581MPD2    C4 8615   2.431   1.433  15.053  0.7895 -0.4788 -0.2973
  581MPD2    C5 8616   2.503   1.457  15.169  0.2536  0.0407 -0.1723
  581MPD2     H 8617   2.495   1.110  14.987  2.1758 -0.5343  1.8004
  581MPD2    H1 8618   2.366   1.512  15.019 -1.5451 -1.7768  1.1040
  581MPD2    H2 8619   2.633   1.358  15.312  0.6473  0.2469  0.4488
  581MPD2    H3 8620   2.493   1.551  15.221  0.0418  0.2975 -0.6693
  581MPD2     N 8621   2.337   1.314  14.876 -0.4332  0.2785  0.8223
  581MPD2    H5 8622   2.275   1.393  14.865 -0.2569  0.3306  0.2187
  581MPD2    N1 8623   2.671   1.138  15.203  0.3024  0.2325  0.3811
  581MPD2    H7 8624   2.709   1.150  15.296  0.2032 -2.3003  0.7279
  582TMC3    C1 8625   2.777   0.935  15.233  0.5520 -0.0321  0.4546
  582TMC3    C2 8626   2.759   0.948  15.369  0.0860  0.0417 -0.1240
  582TMC3    C3 8627   2.816   0.852  15.449 -0.4985 -0.0413  0.5064
  582TMC3    C4 8628   2.842   0.828  15.178 -0.1748 -0.3509  0.2049
  582TMC3    C5 8629   2.887   0.731  15.258  0.0282  0.3838 -0.2203
  582TMC3    C6 8630   2.886   0.744  15.394  0.6775  0.0984  0.1346
  582TMC3     C 8631   2.703   1.019  15.144 -0.1219 -0.0031  0.0131
  582TMC3     O 8632   2.697   0.984  15.026 -0.0928  0.1377  0.5953
  582TMC3     H 8633   2.706   1.031  15.414 -1.0546 -0.2276 -0.9738
  582TMC3    H1 8634   2.865   0.820  15.072 -1.7585 -0.4779 -0.1242
  582TMC3    H2 8635   2.938   0.667  15.450 -0.4396 -0.5104  0.3409
  582TMC3    C7 8636   2.971   0.620  15.209 -0.1063  0.0894  0.0816
  582TMC3    C8 8637   2.811   0.871  15.590 -0.5122  0.3109 -0.3433
  582TMC3    O1 8638   3.072   0.601  15.273  0.0865 -0.2062  0.3014
  582TMC3    O2 8639   2.731   0.950  15.633  0.0211 -0.1101 -0.2198
  583MPD2     C 8640   2.536   2.132  16.905  0.2880  0.2696 -0.3799
  583MPD2    C1 8641   2.520   2.260  16.855 -0.3064 -0.2852  0.0087
  583MPD2    C2 8642   2.483   2.363  16.937  0.1095  0.1070  0.4781
  583MPD2    C3 8643   2.460   2.339  17.074  0.3018  0.2756 -0.0928
  583MPD2    C4 8644   2.463   2.205  17.125  0.4194  0.0664 -0.5067
  583MPD2    C5 8645   2.504   2.110  17.040 -0.0455  0.2482  0.4220
  583MPD2     H 8646   2.464   2.458  16.889  0.1905 -0.2493 -0.2575
  583MPD2    H1 8647   2.438   2.183  17.228  1.2787  0.1418 -0.2824
  583MPD2    H2 8648   2.567   2.047  16.846 -2.0715 -1.5306  1.0112
  583MPD2    H3 8649   2.518   2.009  17.077  0.8560  0.7903  1.5396
  583MPD2     N 8650   2.417   2.454  17.151 -0.6893 -0.0953 -0.6589
  583MPD2    H5 8651   2.413   2.541  17.100  0.0057  0.2180 -0.1842
  583MPD2    N1 8652   2.541   2.289  16.713 -0.0101 -0.6422 -0.3918
  583MPD2    H7 8653   2.536   2.385  16.682  1.8832 -0.3896  0.0809
  584TMC3    C1 8654   2.349   2.597  17.317  0.2789  0.6268  0.1196
  584TMC3    C2 8655   2.297   2.682  17.225 -0.2070 -0.0390 -0.8188
  584TMC3    C3 8656   2.282   2.812  17.256  0.3119  0.2152  0.1086
  584TMC3    C4 8657   2.372   2.635  17.446  0.3177  0.2905  1.0168
  584TMC3    C5 8658   2.353   2.767  17.479 -0.1622 -0.4139  0.1325
  584TMC3    C6 8659   2.308   2.859  17.389  0.1109  0.4672  0.2927
  584TMC3     C 8660   2.380   2.461  17.282 -0.3688 -0.5628  0.4825
  584TMC3     O 8661   2.374   2.373  17.369 -0.6659 -0.5922  0.3577
  584TMC3     H 8662   2.258   2.647  17.130 -1.0538 -1.6544  0.1160
  584TMC3    H1 8663   2.416   2.563  17.515  2.7651  0.8495  0.0137
  584TMC3    H2 8664   2.255   2.946  17.427  1.1894  0.9876  0.6177
  584TMC3    C7 8665   2.333   2.801  17.614 -0.0613 -0.4166  0.0094
  584TMC3    C8 8666   2.232   2.912  17.157  0.5036 -0.1869  0.6922
  584TMC3    O1 8667   2.340   2.707   0.004  0.5061  0.1890 -0.3999
  584TMC3    O2 8668   2.165   2.865  17.062 -0.6449 -0.0238  0.9070
  585MPD2     C 8669   1.673   0.901   0.818 -0.0795  0.4391 -0.9431
  585MPD2    C1 8670   1.677   0.908   0.682 -0.2295  0.2805  0.1777
  585MPD2    C2 8671   1.678   0.791   0.613  0.0577 -0.0434  0.1881
  585MPD2    C3 8672   1.694   0.669   0.678  0.2734 -0.6828  0.0608
  585MPD2    C4 8673   1.717   0.671   0.813  0.4903 -0.3654 -0.0986
  585MPD2    C5 8674   1.707   0.787   0.888 -0.4295  0.6336  0.3292
  585MPD2     H 8675   1.672   0.781   0.505 -1.8286 -3.0555  0.5623
  585MPD2    H1 8676   1.750   0.579   0.859 -2.6081 -1.4043  0.0813
  585MPD2    H2 8677   1.671   1.000   0.862 -2.1441  0.2253 -0.5558
  585MPD2    H3 8678   1.721   0.787   0.996 -0.7701  0.0598  0.3740
  585MPD2     N 8679   1.697   0.543   0.611  0.2470  0.1525  0.1203
  585MPD2    H5 8680   1.745   0.471   0.664 -1.8426  0.8301  2.9529
  585MPD2    N1 8681   1.672   1.031   0.617 -0.0696 -0.4983  0.7823
  585MPD2    H7 8682   1.692   1.111   0.676 -1.0232  0.8232 -0.6782
  586TMC3    C1 8683   1.668   0.377   0.454  0.5808 -0.0315 -0.6728
  586TMC3    C2 8684   1.788   0.321   0.480  0.2885  0.1940  0.1794
  586TMC3    C3 8685   1.825   0.209   0.405 -0.4574  0.3708  0.0180
  586TMC3    C4 8686   1.583   0.326   0.365 -0.5109 -0.1770  0.2363
  586TMC3    C5 8687   1.623   0.228   0.278 -0.6507 -0.0086 -1.1412
  586TMC3    C6 8688   1.747   0.165   0.296 -0.1067 -0.1194  0.4026
  586TMC3     C 8689   1.638   0.517   0.489 -0.0897 -0.1034 -0.1150
  586TMC3     O 8690   1.576   0.583   0.404 -0.4163  0.2827  0.1330
  586TMC3     H 8691   1.868   0.365   0.538  1.9705 -0.1644 -1.8678
  586TMC3    H1 8692   1.480   0.360   0.365 -0.3422  0.3243  0.7165
  586TMC3    H2 8693   1.790   0.099   0.223 -1.2691 -0.9165  0.4363
  586TMC3    C7 8694   1.577   0.242   0.141 -0.0420  0.0258 -0.8677
  586TMC3    C8 8695   1.966   0.199   0.365 -0.3324  0.0097 -0.0680
  586TMC3    O1 8696   1.496   0.333   0.122 -0.4304  0.0935 -0.0233
  586TMC3    O2 8697   1.999   0.081   0.363 -0.0860  0.3378  0.2482
  587TMC3    C1 8698   3.649   0.084  16.024 -0.0020 -0.0860 -0.1133
  587TMC3    C2 8699   3.707   0.193  16.083  0.5045  0.3908  0.1131
  587TMC3    C3 8700   3.831   0.188  16.135  0.6263  0.3621  0.2100
  587TMC3    C4 8701   3.716   4.687  16.034  0.4820 -0.2273 -0.1375
  587TMC3    C5 8702   3.850   4.693  16.066 -0.0595  0.0383  0.2686
  587TMC3    C6 8703   3.910   0.081  16.128  0.7003  0.8403 -0.5473
  587TMC3     C 8704   3.510   0.076  15.990 -0.1151 -0.5152 -0.6868
  587TMC3     O 8705   3.450   4.695  16.016 -0.6284 -0.1599 -0.4496
  587TMC3     H 8706   3.656   0.289  16.078  0.4725  0.2877 -1.7169
  587TMC3    H1 8707   3.678   4.590  16.001  0.6575 -0.6139  0.8106
  587TMC3    H2 8708   4.006   0.070  16.178 -0.1466 -3.0844  0.2375
  587TMC3    C7 8709   3.922   4.569  16.069 -0.0329  0.0258 -0.8066
  587TMC3    C8 8710   3.888   0.306  16.194 -0.7525  0.0588 -0.0664
  587TMC3    O1 8711   3.863   4.463  16.081  0.0825  0.1116  0.1163
  587TMC3    O2 8712   4.007   0.327  16.168 -0.1014  0.3553 -0.6699
  588TMC3    C1 8713   2.025   2.827   9.465  0.0828  0.0367 -0.4564
  588TMC3    C2 8714   1.942   2.716   9.459 -0.1425  0.5480  0.3390
  588TMC3    C3 8715   1.919   2.644   9.571 -0.1101  0.2605 -0.2023
  588TMC3    C4 8716   2.093   2.856   9.577  0.0501 -0.2862  0.3448
  588TMC3    C5 8717   2.087   2.759   9.681  0.1021  0.3468  0.5264
  588TMC3    C6 8718   1.995   2.664   9.680 -0.6636  0.4613  0.3261
  588TMC3     C 8719   2.060   2.890   9.344 -0.6927 -0.1614  0.2459
  588TMC3     O 8720   2.034   2.852   9.232  0.5082 -0.7559 -0.2664
  588TMC3     H 8721   1.884   2.691   9.370  2.6418 -0.3918 -1.1926
  588TMC3    H1 8722   2.163   2.939   9.578  0.0204 -0.2471 -1.0156
  588TMC3    H2 8723   1.981   2.607   9.771 -1.2092 -1.1007 -0.7533
  588TMC3    C7 8724   2.153   2.795   9.805 -0.3533  0.1421 -0.5654
  588TMC3    C8 8725   1.813   2.544   9.559 -0.2261  0.3744  0.0090
  588TMC3    O1 8726   2.141   2.721   9.901 -0.2162  0.2923  0.2472
  588TMC3    O2 8727   1.735   2.564   9.468 -0.0547  0.0180 -0.5803
  589TMC3    C1 8728   0.839   0.278   1.373 -0.1169 -0.0553  0.3273
  589TMC3    C2 8729   0.905   0.235   1.483  0.3337  0.9827  0.2304
  589TMC3    C3 8730   0.983   0.118   1.476 -0.9388  0.0477  0.0344
  589TMC3    C4 8731   0.864   0.217   1.251  0.1516 -0.7806  0.5755
  589TMC3    C5 8732   0.936   0.103   1.243 -0.2524  0.0154 -0.7360
  589TMC3    C6 8733   1.010   0.058   1.355  0.3825  0.6131  0.1305
  589TMC3     C 8734   0.731   0.377   1.376  0.3467  0.7846 -0.6084
  589TMC3     O 8735   0.660   0.389   1.278 -0.4514 -0.5769  0.1933
  589TMC3     H 8736   0.896   0.290   1.576  0.3878  1.2140  0.0981
  589TMC3    H1 8737   0.813   0.253   1.162 -4.1177 -0.8388  2.9986
  589TMC3    H2 8738   1.068   4.688   1.343 -1.7322 -0.5710 -1.1265
  589TMC3    C7 8739   0.913   0.005   1.140 -0.6976  0.6337  0.3515
  589TMC3    C8 8740   1.014   0.057   1.604  0.2757 -0.8496  0.2815
  589TMC3    O1 8741   0.922   4.609   1.178  0.2222  0.0049  0.8993
  589TMC3    O2 8742   0.972   0.120   1.696  0.2845  0.2975 -0.1093
  590MPD2     C 8743   4.685   3.055  16.555 -0.2070 -0.1729  0.7825
  590MPD2    C1 8744   4.637   3.178  16.510 -0.5453  0.3595  0.3298
  590MPD2    C2 8745   0.005   3.260  16.456  0.0954  0.2552 -0.3383
  590MPD2    C3 8746   0.136   3.231  16.451 -0.3168  0.4959  0.7924
  590MPD2    C4 8747   0.186   3.112  16.495  0.1060 -0.4318  1.1712
  590MPD2    C5 8748   0.093   3.015  16.539  0.0732  0.2796  0.0817
  590MPD2     H 8749   4.691   3.356  16.421 -3.2074 -0.9592 -0.3681
  590MPD2    H1 8750   0.290   3.081  16.502 -0.9192 -4.0305  0.1673
  590MPD2    H2 8751   4.625   2.974  16.596 -0.1147 -0.5155  0.2325
  590MPD2    H3 8752   0.129   2.917  16.570 -1.2238 -0.6408 -1.3469
  590MPD2     N 8753   0.212   3.321  16.387  0.2925  0.4476 -0.7525
  590MPD2    H5 8754   0.165   3.410  16.370  2.6354  1.7019 -0.7112
  590MPD2    N1 8755   4.496   3.202  16.529 -0.0655 -0.2491 -0.7296
  590MPD2    H7 8756   4.441   3.127  16.568  0.5829 -0.9255 -1.1082
  591TMC3    C1 8757   0.371   3.394  16.232  0.3380 -0.5099  0.0644
  591TMC3    C2 8758   0.424   3.346  16.113 -0.5566 -0.8964  0.0570
  591TMC3    C3 8759   0.409   3.429  16.006  0.5077  0.9176  1.0441
  591TMC3    C4 8760   0.319   3.519  16.249 -0.4433 -0.0102  0.2815
  591TMC3    C5 8761   0.312   3.604  16.142 -0.1114 -0.3092  0.1453
  591TMC3    C6 8762   0.357   3.560  16.023  0.5457 -0.0007 -0.2160
  591TMC3     C 8763   0.338   3.295  16.330 -0.5324  0.2931  0.4493
  591TMC3     O 8764   0.399   3.191  16.318  0.1148 -0.3031 -0.4621
  591TMC3     H 8765   0.445   3.242  16.095  0.3697 -0.6052 -0.5601
  591TMC3    H1 8766   0.276   3.549  16.344 -0.0340 -0.1674  0.5138
  591TMC3    H2 8767   0.329   3.609  15.931 -0.9874 -0.7746 -0.1511
  591TMC3    C7 8768   0.257   3.731  16.156 -1.0866 -0.2620  0.2125
  591TMC3    C8 8769   0.451   3.382  15.872  0.0803  0.2218 -0.4943
  591TMC3    O1 8770   0.198   3.752  16.259  0.2796  0.1547  0.4916
  591TMC3    O2 8771   0.453   3.264  15.838  0.0328 -0.4166 -0.4017
  592MPD2     C 8772   0.634   0.826  10.778  0.4407  0.0776  0.1443
  592MPD2    C1 8773   0.682   0.820  10.911 -0.5445 -0.1148 -0.0807
  592MPD2    C2 8774   0.616   0.727  10.993 -0.4567 -0.6623 -0.9218
  592MPD2    C3 8775   0.518   0.649  10.957 -0.3935  0.1756 -0.4891
  592MPD2    C4 8776   0.456   0.668  10.836 -0.2358  0.7540  0.0801
  592MPD2    C5 8777   0.520   0.747  10.750 -1.0018  0.8160  0.5214
  592MPD2     H 8778   0.653   0.709  11.093  2.7412 -1.3392 -2.2085
  592MPD2    H1 8779   0.368   0.610  10.811  1.0087 -0.1497 -2.2883
  592MPD2    H2 8780   0.689   0.882  10.703 -0.7572  0.6417 -0.3153
  592MPD2    H3 8781   0.482   0.759  10.649  0.7076 -1.0735 -0.3446
  592MPD2     N 8782   0.468   0.563  11.057 -0.4539 -0.9693  0.1424
  592MPD2    H5 8783   0.523   0.576  11.141 -0.5283  0.6429 -0.0473
  592MPD2    N1 8784   0.790   0.894  10.959 -0.4990  0.1488 -0.3639
  592MPD2    H7 8785   0.849   0.941  10.890 -0.5522  1.4919  0.4949
  593TMC3    C1 8786   0.927   1.014  11.091  0.8075 -0.6253 -0.5113
  593TMC3    C2 8787   0.949   1.064  11.217 -0.0252 -1.0959 -0.4748
  593TMC3    C3 8788   1.051   1.148  11.225 -0.2962 -0.0449 -0.0765
  593TMC3    C4 8789   1.013   1.033  10.987 -0.0387 -0.6059 -0.5990
  593TMC3    C5 8790   1.111   1.129  10.993  1.4429  0.5217  0.2121
  593TMC3    C6 8791   1.131   1.187  11.117  0.0338  0.1901  0.5806
  593TMC3     C 8792   0.825   0.923  11.089  0.1732  0.2975 -0.2218
  593TMC3     O 8793   0.762   0.888  11.187 -0.4897 -1.1236  0.4764
  593TMC3     H 8794   0.898   1.032  11.307  0.2129 -1.3221 -0.4237
  593TMC3    H1 8795   1.005   0.976  10.895  0.1268 -0.2911 -0.8118
  593TMC3    H2 8796   1.213   1.258  11.126  0.0328  0.0171  2.0513
  593TMC3    C7 8797   1.205   1.152  10.890 -0.0058 -0.1582 -0.0263
  593TMC3    C8 8798   1.103   1.187  11.356  0.1817 -0.0097  0.5660
  593TMC3    O1 8799   1.295   1.226  10.927  0.3693 -0.0414  0.2922
  593TMC3    O2 8800   1.114   1.104  11.440  0.8194  0.0954 -0.1904
  594MPD2     C 8801   3.899   4.330  13.987 -0.3313  0.1610 -0.3848
  594MPD2    C1 8802   3.889   4.303  14.120 -0.5195  0.0879  0.6767
  594MPD2    C2 8803   3.978   4.367  14.207  0.9119 -0.5243  0.4304
  594MPD2    C3 8804   4.065   4.458  14.152  0.2964 -0.3052 -0.5167
  594MPD2    C4 8805   4.078   4.479  14.017  0.1049  0.0130 -0.0710
  594MPD2    C5 8806   4.005   4.399  13.935  0.1283 -0.3272 -0.6954
  594MPD2     H 8807   3.961   4.362  14.313 -1.5983 -0.2049  0.0445
  594MPD2    H1 8808   4.144   4.555  13.978 -1.0159  0.4687 -1.0694
  594MPD2    H2 8809   3.856   4.252  13.925 -0.8470 -0.2221  0.4475
  594MPD2    H3 8810   4.021   4.403  13.828 -0.3482 -2.9486 -0.8668
  594MPD2     N 8811   4.152   4.526  14.243 -0.4841  0.1362 -0.9645
  594MPD2    H5 8812   4.128   4.523  14.341  2.5240 -2.2522 -0.3255
  594MPD2    N1 8813   3.787   4.215  14.166  0.2719 -0.1443  0.1410
  594MPD2    H7 8814   3.711   4.199  14.100 -1.5349  1.1156  1.9193
  595TMC3    C1 8815   4.436   0.171  14.325 -0.6568 -0.2095 -0.6713
  595TMC3    C2 8816   4.417   0.047  14.264 -0.0725 -0.4471 -0.4158
  595TMC3    C3 8817   4.313   4.691  14.306  0.0408  0.1616  0.1342
  595TMC3    C4 8818   4.367   0.198  14.444 -0.0332  0.1750 -0.7304
  595TMC3    C5 8819   4.263   0.121  14.482 -0.0947  0.2461  0.3415
  595TMC3    C6 8820   4.237   0.006  14.415  0.0295 -0.9091  0.3587
  595TMC3     C 8821   4.561   0.245  14.316  0.4074 -0.0465 -0.1488
  595TMC3     O 8822   4.575   0.347  14.384 -0.6357  0.5656  0.0318
  595TMC3     H 8823   4.469   0.018  14.174  0.1319 -1.4764  0.0382
  595TMC3    H1 8824   4.389   0.292  14.494  1.5232 -0.5323 -0.0863
  595TMC3    H2 8825   4.147   4.673  14.445  0.1858 -1.0962  0.4873
  595TMC3    C7 8826   4.196   0.151  14.604 -0.6169  0.1334 -0.2000
  595TMC3    C8 8827   4.263   4.600  14.204 -0.0249  0.6119  0.7492
  595TMC3    O1 8828   4.082   0.116  14.620  0.0248  0.9809  0.2595
  595TMC3    O2 8829   4.337   4.577  14.110 -0.4163 -1.2183  0.1604
  596MPD2     C 8830   3.314   2.273  16.801  0.2697  0.5128  0.0601
  596MPD2    C1 8831   3.294   2.400  16.757 -0.8824 -0.0613  0.3342
  596MPD2    C2 8832   3.311   2.432  16.621  0.0092 -0.0761  0.1636
  596MPD2    C3 8833   3.339   2.335  16.528  0.0967 -0.3916  0.2644
  596MPD2    C4 8834   3.343   2.202  16.574 -0.1511 -0.2571 -0.5872
  596MPD2    C5 8835   3.337   2.181  16.708  0.5378 -0.1692 -0.3530
  596MPD2     H 8836   3.305   2.537  16.596 -3.1088 -0.4497 -0.6221
  596MPD2    H1 8837   3.369   2.113  16.518 -0.8065  0.5067 -2.0923
  596MPD2    H2 8838   3.318   2.239  16.904  1.1497  1.6895  0.4081
  596MPD2    H3 8839   3.353   2.079  16.740  0.9648 -0.0937 -0.3227
  596MPD2     N 8840   3.338   2.353  16.386  0.3596 -0.5093  0.2810
  596MPD2    H5 8841   3.359   2.275  16.324  2.5614  0.6055 -0.3990
  596MPD2    N1 8842   3.273   2.504  16.848 -0.0509  0.1936 -0.5022
  596MPD2    H7 8843   3.279   2.597  16.808  1.0890  0.2820 -0.1516
  597TMC3    C1 8844   3.220   2.624  17.043 -0.0196 -0.0784 -0.3033
  597TMC3    C2 8845   3.285   2.738  17.004 -0.8886 -0.8232  0.1167
  597TMC3    C3 8846   3.270   2.861  17.067 -0.5423  0.1260  0.8701
  597TMC3    C4 8847   3.129   2.640  17.148 -0.1120 -0.3299  0.1731
  597TMC3    C5 8848   3.103   2.764  17.199  0.5912  0.3473 -0.2278
  597TMC3    C6 8849   3.179   2.875  17.167  1.0765 -0.0911 -0.3003
  597TMC3     C 8850   3.233   2.495  16.977 -0.0891  0.0378  0.0731
  597TMC3     O 8851   3.198   2.397  17.045 -0.2315  0.3070  0.2939
  597TMC3     H 8852   3.353   2.742  16.920  2.2925 -0.9686  2.6906
  597TMC3    H1 8853   3.065   2.556  17.174 -1.1748  0.6288  0.6423
  597TMC3    H2 8854   3.158   2.979  17.191  0.1595 -0.2129 -0.5586
  597TMC3    C7 8855   3.004   2.767  17.297 -0.4532  0.5244  0.8244
  597TMC3    C8 8856   3.337   2.980  17.012  0.0043 -0.6124 -0.1408
  597TMC3    O1 8857   2.990   2.670  17.365 -0.0448 -0.4953 -1.0978
  597TMC3    O2 8858   3.382   2.978  16.897  0.2044 -0.6597 -0.5327
  598TMC3    C1 8859   1.188   4.027  15.313 -0.8512  0.5871 -0.4787
  598TMC3    C2 8860   1.068   3.977  15.337 -0.8806 -0.0756 -0.1624
  598TMC3    C3 8861   0.967   4.000  15.243 -0.0130 -0.0032  0.0680
  598TMC3    C4 8862   1.216   4.104  15.205 -0.4448  0.0536 -0.2798
  598TMC3    C5 8863   1.125   4.110  15.105 -0.4684  0.2068  0.2534
  598TMC3    C6 8864   0.998   4.061  15.123  0.2535  0.0678  0.1512
  598TMC3     C 8865   1.296   4.012  15.407  0.6288  0.1405 -0.1137
  598TMC3     O 8866   1.383   4.095  15.399  0.3009  0.0611 -0.5725
  598TMC3     H 8867   1.050   3.917  15.426 -0.6938  1.9295  1.2530
  598TMC3    H1 8868   1.317   4.141  15.191 -0.2755  0.1536  1.1984
  598TMC3    H2 8869   0.925   4.079  15.044  1.0059  2.1034 -0.0700
  598TMC3    C7 8870   1.172   4.149  14.973 -0.0095  0.6214 -0.4051
  598TMC3    C8 8871   0.833   3.956  15.288 -0.3133 -0.0859 -0.2346
  598TMC3    O1 8872   1.155   4.079  14.873 -0.9754  0.3060 -0.2685
  598TMC3    O2 8873   0.827   3.929  15.406  0.2708 -0.1080 -0.2922
  599MPD2     C 8874   1.007   1.181  15.539 -0.4298 -0.3350  0.3454
  599MPD2    C1 8875   1.112   1.227  15.618 -0.1251 -0.9366 -0.7300
  599MPD2    C2 8876   1.108   1.211  15.756 -0.5825 -0.7631  0.0910
  599MPD2    C3 8877   0.993   1.156  15.810  0.0535  0.8341 -0.6757
  599MPD2    C4 8878   0.889   1.118  15.735 -0.0227  0.3267 -0.2484
  599MPD2    C5 8879   0.892   1.131  15.598 -0.1985 -0.7241 -0.6920
  599MPD2     H 8880   1.188   1.252  15.817 -1.8593  1.0229  0.5568
  599MPD2    H1 8881   0.798   1.083  15.784  0.8910  1.8013  2.5203
  599MPD2    H2 8882   1.011   1.200  15.433  0.0779 -1.4186  0.1657
  599MPD2    H3 8883   0.803   1.101  15.545 -0.0604 -0.7279 -0.9263
  599MPD2     N 8884   0.990   1.147  15.951  0.4784  0.3790 -0.0621
  599MPD2    H5 8885   0.901   1.117  15.989  0.4748  0.4354 -0.0269
  599MPD2    N1 8886   1.221   1.293  15.553 -0.0502  0.1987  0.6265
  599MPD2    H7 8887   1.220   1.297  15.451  0.7383 -1.4135  0.5633
  600TMC3    C1 8888   1.029   1.195  16.171 -0.5705  0.4506 -1.0410
  600TMC3    C2 8889   0.920   1.118  16.207 -0.6743 -0.2573  0.4768
  600TMC3    C3 8890   0.878   1.128  16.339  0.0031 -0.5972 -0.0418
  600TMC3    C4 8891   1.080   1.296  16.255 -0.4964  0.2188  0.4138
  600TMC3    C5 8892   1.021   1.314  16.377 -0.2243  0.4025  0.2846
  600TMC3    C6 8893   0.930   1.221  16.419 -0.4613  0.0414  0.8179
  600TMC3     C 8894   1.081   1.195  16.036 -0.0064 -0.1000 -0.0553
  600TMC3     O 8895   1.180   1.268  16.022  0.2687 -0.0205  0.6109
  600TMC3     H 8896   0.888   1.038  16.141  1.6415  0.6020 -1.7088
  600TMC3    H1 8897   1.145   1.378  16.225 -1.5247  0.3803 -1.3763
  600TMC3    H2 8898   0.877   1.237  16.512 -1.8316 -0.5449  0.1401
  600TMC3    C7 8899   1.072   1.412  16.475  0.4399  0.5754  0.0326
  600TMC3    C8 8900   0.752   1.070  16.382  0.6124  0.0582 -0.1403
  600TMC3    O1 8901   1.015   1.422  16.585  0.0448  0.0888 -0.1062
  600TMC3    O2 8902   0.738   1.040  16.499  0.4242  0.0512 -0.3408
  601MPD2     C 8903   3.499   0.065   0.225  0.0007  0.4705 -0.3072
  601MPD2    C1 8904   3.386   0.000   0.186  0.0866  0.4959  0.3836
  601MPD2    C2 8905   3.374   4.585   0.189  0.2235  0.1799 -0.0510
  601MPD2    C3 8906   3.476   4.514   0.248  0.0133  0.2895 -0.2748
  601MPD2    C4 8907   3.592   4.577   0.288 -0.3014 -0.2570  0.2527
  601MPD2    C5 8908   3.607   4.712   0.272  0.7695  0.3776 -0.0948
  601MPD2     H 8909   3.276   4.545   0.166 -0.3939  3.4286 -3.0493
  601MPD2    H1 8910   3.672   4.517   0.330  2.5317  3.0904 -0.2337
  601MPD2    H2 8911   3.499   0.174   0.224  0.7119  0.4493 -2.0546
  601MPD2    H3 8912   3.698   0.043   0.299  0.1554  0.8286  1.0662
  601MPD2     N 8913   3.464   4.377   0.285  0.0903  0.1876 -0.2498
  601MPD2    H5 8914   3.549   4.348   0.332 -0.8981 -1.3096  0.6026
  601MPD2    N1 8915   3.279   0.064   0.118  0.3080  0.0655  0.1566
  601MPD2    H7 8916   3.192   0.013   0.104 -0.0123  0.4545  0.7528
  602TMC3    C1 8917   3.179   0.214  17.653 -0.0165 -0.2721  0.7264
  602TMC3    C2 8918   3.118   0.336  17.651 -0.0949 -0.3786 -0.5468
  602TMC3    C3 8919   3.060   0.375  17.534 -0.5984  0.5706  0.0918
  602TMC3    C4 8920   3.200   0.137  17.546  0.5974 -0.0442  0.3918
  602TMC3    C5 8921   3.125   0.167  17.432 -0.0856 -0.9437  0.4803
  602TMC3    C6 8922   3.045   0.282  17.434  0.0439  0.3204  0.5522
  602TMC3     C 8923   3.282   0.194   0.067  0.9601  0.5631  0.5032
  602TMC3     O 8924   3.365   0.280   0.074  0.3382  0.2300  0.0930
  602TMC3     H 8925   3.116   0.402   0.050  1.4368 -0.3396 -0.5542
  602TMC3    H1 8926   3.258   0.046  17.539 -0.4308 -0.6948  0.3929
  602TMC3    H2 8927   2.972   0.293  17.355 -0.5155 -2.0318  0.7473
  602TMC3    C7 8928   3.139   0.080  17.318 -0.4363 -0.3840  0.1194
  602TMC3    C8 8929   2.949   0.473  17.546 -0.0629 -0.1372 -0.0287
  602TMC3    O1 8930   3.199   4.696  17.335  0.3768  0.2167 -0.2972
  602TMC3    O2 8931   2.903   0.499  17.658 -0.4544 -0.1707  0.7887
  603TMC3    C1 8932   1.522   4.680  10.567 -0.3835  0.3411 -0.6296
  603TMC3    C2 8933   1.599   4.636  10.673 -0.0666 -0.8968  0.5919
  603TMC3    C3 8934   1.688   0.009  10.726  0.1112 -0.1511 -0.0903
  603TMC3    C4 8935   1.535   0.086  10.502  0.0194 -0.5117  0.5802
  603TMC3    C5 8936   1.637   0.165  10.554 -0.0289  0.4757 -0.3598
  603TMC3    C6 8937   1.703   0.137  10.671 -0.3389  0.2693  0.2801
  603TMC3     C 8938   1.391   4.617  10.540  0.0894  0.8680  0.1672
  603TMC3     O 8939   1.382   4.496  10.515 -0.0389 -0.0039 -0.1795
  603TMC3     H 8940   1.566   4.551  10.731  0.8164 -1.3777  0.3990
  603TMC3    H1 8941   1.467   0.112  10.422 -1.5903 -1.1443  1.7587
  603TMC3    H2 8942   1.792   0.197  10.690 -1.0207  1.3342  0.1307
  603TMC3    C7 8943   1.677   0.283  10.473  0.4422  0.4918  0.5221
  603TMC3    C8 8944   1.732   4.699  10.860  0.7662 -0.4707  0.3436
  603TMC3    O1 8945   1.749   0.361  10.534  0.3354  0.7248  0.4440
  603TMC3    O2 8946   1.702   4.593  10.909 -0.1759  0.6839 -0.0876
  604MPD2     C 8947   2.523   3.788  16.727  0.4304 -1.0457 -0.6115
  604MPD2    C1 8948   2.407   3.756  16.661  0.0100 -0.0727 -0.0914
  604MPD2    C2 8949   2.398   3.786  16.524 -0.8419  0.8195 -0.1626
  604MPD2    C3 8950   2.516   3.825  16.454  0.1672 -0.0878  0.0544
  604MPD2    C4 8951   2.636   3.848  16.524 -0.5655 -0.3884 -0.3789
  604MPD2    C5 8952   2.634   3.830  16.662 -0.4843  0.4898 -0.6735
  604MPD2     H 8953   2.314   3.759  16.461  0.4545  0.0878 -1.5925
  604MPD2    H1 8954   2.727   3.898  16.491 -0.7614  1.2651  1.5976
  604MPD2    H2 8955   2.527   3.778  16.835 -2.0186 -0.7819 -0.4827
  604MPD2    H3 8956   2.727   3.851  16.712 -1.5659 -0.2012  1.6185
  604MPD2     N 8957   2.498   3.865  16.316  0.4597 -0.5557 -0.0716
  604MPD2    H5 8958   2.415   3.838  16.266 -1.0938  1.5066  1.4098
  604MPD2    N1 8959   2.294   3.719  16.739 -0.5484  0.5803 -0.3269
  604MPD2    H7 8960   2.312   3.735  16.838 -1.7505  0.7648 -0.1398
  605TMC3    C1 8961   2.063   3.673  16.799 -0.4664  0.8302 -0.1531
  605TMC3    C2 8962   2.086   3.777  16.881 -0.4104 -0.1175  0.9616
  605TMC3    C3 8963   1.979   3.869  16.893  0.0517  0.6893  0.0293
  605TMC3    C4 8964   1.941   3.638  16.748  0.3269 -0.1532  0.1960
  605TMC3    C5 8965   1.835   3.721  16.770 -0.6966  0.5268 -0.1205
  605TMC3    C6 8966   1.860   3.839  16.829 -0.3844 -0.5376  0.4503
  605TMC3     C 8967   2.170   3.666  16.697 -0.6161  0.3459 -0.4165
  605TMC3     O 8968   2.144   3.625  16.585  0.2890  0.8021  0.3471
  605TMC3     H 8969   2.184   3.802  16.921  0.2492 -1.1452 -0.0116
  605TMC3    H1 8970   1.942   3.559  16.674 -1.2569 -1.9381  2.0795
  605TMC3    H2 8971   1.782   3.914  16.835 -1.6721 -1.8058 -0.7226
  605TMC3    C7 8972   1.719   3.705  16.691  1.0009  0.3008 -0.6118
  605TMC3    C8 8973   2.024   4.005  16.899 -1.2538  0.1487  0.3763
  605TMC3    O1 8974   1.636   3.796  16.695 -0.0512  0.1279  0.0882
  605TMC3    O2 8975   2.138   4.026  16.936 -0.1856 -0.0072  0.4274
  606TMC3    C1 8976   3.724   2.382  16.881 -0.8314  0.3197  0.4606
  606TMC3    C2 8977   3.746   2.395  17.015 -0.3035  0.2153 -0.2623
  606TMC3    C3 8978   3.728   2.288  17.100 -0.6325 -0.0343 -1.0966
  606TMC3    C4 8979   3.697   2.260  16.821 -0.2584 -0.1340  0.3856
  606TMC3    C5 8980   3.679   2.154  16.906 -0.5670  0.2034  0.0011
  606TMC3    C6 8981   3.702   2.162  17.040 -0.1994 -0.0285  0.1119
  606TMC3     C 8982   3.699   2.507  16.811 -0.7222  0.0396  0.3780
  606TMC3     O 8983   3.676   2.612  16.877 -0.2129 -0.8804  0.3196
  606TMC3     H 8984   3.765   2.492  17.058 -1.4688  0.4588 -0.2754
  606TMC3    H1 8985   3.644   2.256  16.727 -1.0418 -2.4755  0.9195
  606TMC3    H2 8986   3.725   2.067  17.085 -0.8847  0.8281  2.2522
  606TMC3    C7 8987   3.604   2.043  16.853 -0.2727 -0.9657 -0.1211
  606TMC3    C8 8988   3.782   2.302  17.235  0.1251 -0.0737  0.2192
  606TMC3    O1 8989   3.609   2.014  16.732 -0.0625 -0.4555 -0.1108
  606TMC3    O2 8990   3.841   2.408  17.260  0.5915 -0.1028 -0.7453
  607MPD2     C 8991   0.611   0.239  11.400 -0.2611 -0.2818  0.4634
  607MPD2    C1 8992   0.677   0.311  11.502  0.6245 -0.4606 -0.1312
  607MPD2    C2 8993   0.667   0.260  11.628  0.5207  0.0850  0.0815
  607MPD2    C3 8994   0.603   0.142  11.656  0.0578  1.0600 -0.5972
  607MPD2    C4 8995   0.545   0.065  11.553 -0.5590  0.3351 -0.2362
  607MPD2    C5 8996   0.555   0.120  11.430  0.4941 -0.2294  0.1975
  607MPD2     H 8997   0.708   0.312  11.713  0.3675 -0.0732  0.2521
  607MPD2    H1 8998   0.495   4.690  11.558  0.9765 -0.4627 -0.2455
  607MPD2    H2 8999   0.611   0.267  11.296 -2.9601  0.7983  0.7547
  607MPD2    H3 9000   0.507   0.071  11.346 -0.2109 -0.2851  0.6443
  607MPD2     N 9001   0.610   0.103  11.791  0.0930  0.2217  0.1295
  607MPD2    H5 9002   0.646   0.176  11.851 -1.7484  1.2060  0.0236
  607MPD2    N1 9003   0.746   0.434  11.482 -0.3394  0.1147  0.5210
  607MPD2    H7 9004   0.763   0.477  11.573 -3.6378  2.8828 -0.1767
  608TMC3    C1 9005   0.870   0.602  11.410 -0.0397 -0.7126 -0.1417
  608TMC3    C2 9006   0.882   0.641  11.544 -0.0740 -1.2892  0.0441
  608TMC3    C3 9007   0.989   0.729  11.573  0.3579 -0.4330  0.0118
  608TMC3    C4 9008   0.954   0.646  11.309 -0.2825 -0.4560  0.7905
  608TMC3    C5 9009   1.063   0.717  11.347 -0.3577 -0.0520  0.0921
  608TMC3    C6 9010   1.083   0.758  11.476  0.6073 -0.0341 -0.1818
  608TMC3     C 9011   0.779   0.498  11.371  0.0048  0.4619 -0.1201
  608TMC3     O 9012   0.738   0.480  11.260 -0.5787 -0.1057 -0.4753
  608TMC3     H 9013   0.791   0.654  11.602  0.2578 -0.0713  0.2774
  608TMC3    H1 9014   0.940   0.611  11.207 -0.1110 -0.0759  0.6369
  608TMC3    H2 9015   1.164   0.823  11.508  1.4685 -1.2671  0.1200
  608TMC3    C7 9016   1.159   0.755  11.243 -0.7442  0.3006  0.2347
  608TMC3    C8 9017   1.021   0.749  11.711 -0.1875 -0.1255  0.4974
  608TMC3    O1 9018   1.149   0.691  11.136  0.5220 -0.2059  0.5053
  608TMC3    O2 9019   1.121   0.816  11.731  0.0821  0.1835 -0.2994
  609TMC3    C1 9020   4.006   3.023   8.718  0.0161  0.3823 -0.3860
  609TMC3    C2 9021   3.919   2.976   8.629  0.8913 -0.0838  0.0602
  609TMC3    C3 9022   3.937   2.841   8.587 -1.4709  0.3350  0.5870
  609TMC3    C4 9023   4.109   2.947   8.756  0.2198 -0.4470  0.4768
  609TMC3    C5 9024   4.134   2.822   8.704  0.4631  0.5101  0.0532
  609TMC3    C6 9025   4.039   2.761   8.627 -0.5624  0.2814 -0.3354
  609TMC3     C 9026   3.987   3.156   8.776 -0.7281  0.3943 -0.3109
  609TMC3     O 9027   3.873   3.197   8.754 -0.2353 -0.3818 -0.4172
  609TMC3     H 9028   3.833   3.031   8.594 -0.5017 -1.1220  1.8509
  609TMC3    H1 9029   4.177   2.988   8.830  0.6993 -0.2745 -0.0536
  609TMC3    H2 9030   4.064   2.670   8.574 -0.9326  0.4399 -0.7763
  609TMC3    C7 9031   4.251   2.735   8.735  0.0327  0.2575 -0.5842
  609TMC3    C8 9032   3.842   2.791   8.492  0.5396 -0.5841  0.3155
  609TMC3    O1 9033   4.246   2.620   8.696  0.6913 -0.0413  0.3403
  609TMC3    O2 9034   3.768   2.874   8.441 -0.3773  0.3012  0.3463
  610TMC3    C1 9035   1.489   0.234  13.109 -0.1210 -1.0141 -0.3119
  610TMC3    C2 9036   1.608   0.303  13.141  0.1262  0.1631 -0.0966
  610TMC3    C3 9037   1.701   0.243  13.224  0.4084  0.3763 -0.1748
  610TMC3    C4 9038   1.458   0.113  13.158 -0.1703 -0.7774  0.7819
  610TMC3    C5 9039   1.553   0.052  13.240  0.0809  0.0626  0.5165
  610TMC3    C6 9040   1.681   0.112  13.266  0.1986  0.2890 -0.5753
  610TMC3     C 9041   1.398   0.296  13.024  0.2761  0.0492 -0.2968
  610TMC3     O 9042   1.280   0.269  13.033  0.5680 -0.8395 -0.0943
  610TMC3     H 9043   1.626   0.409  13.131 -1.8218  0.4124 -0.9488
  610TMC3    H1 9044   1.369   0.061  13.126 -0.7470 -1.1809  3.0368
  610TMC3    H2 9045   1.762   0.055  13.308 -2.4572 -2.5828  0.6628
  610TMC3    C7 9046   1.527   4.637  13.287  0.5434  0.1944 -0.8560
  610TMC3    C8 9047   1.808   0.317  13.285  0.6084  0.0288 -0.1282
  610TMC3    O1 9048   1.636   4.584  13.323 -0.2163 -0.3285 -0.0748
  610TMC3    O2 9049   1.861   0.400  13.212  0.2329 -0.3130 -0.2099
  611MPD2     C 9050   0.897   4.611  10.133 -0.3871  0.6128  0.4518
  611MPD2    C1 9051   0.812   4.685  10.047  0.2448 -0.4183 -0.4577
  611MPD2    C2 9052   0.870   0.063   9.968 -0.0457  0.4428 -0.0203
  611MPD2    C3 9053   1.005   0.087   9.962  0.4836  0.0245 -0.2296
  611MPD2    C4 9054   1.082   0.018  10.059 -0.0073 -0.0564  0.3245
  611MPD2    C5 9055   1.028   4.640  10.142 -0.5782 -0.5531 -0.0363
  611MPD2     H 9056   0.817   0.117   9.890 -1.5857  0.3385  0.9552
  611MPD2    H1 9057   1.185   0.037  10.086 -0.7689  0.7487  2.7112
  611MPD2    H2 9058   0.859   4.533  10.198  0.2141 -0.1647 -0.1287
  611MPD2    H3 9059   1.083   4.593  10.222  1.3689  2.4574  0.3843
  611MPD2     N 9060   1.064   0.185   9.879  0.4567  0.7337  0.1696
  611MPD2    H5 9061   1.163   0.198   9.899  0.6375 -0.7354  0.1856
  611MPD2    N1 9062   0.675   4.657  10.053 -0.4784  0.1002  1.0571
  611MPD2    H7 9063   0.649   4.586  10.120  0.4543 -0.4970  0.7822
  612TMC3    C1 9064   1.085   0.384   9.751  0.7704 -0.0581  0.2225
  612TMC3    C2 9065   1.191   0.417   9.833  0.3416 -0.9580 -0.5816
  612TMC3    C3 9066   1.261   0.531   9.795  0.4522 -0.2886  0.3447
  612TMC3    C4 9067   1.037   0.471   9.661 -0.9737  0.2053 -0.4489
  612TMC3    C5 9068   1.105   0.587   9.634  0.1916  0.2894 -0.0382
  612TMC3    C6 9069   1.227   0.608   9.686 -0.5641 -0.2842 -0.9737
  612TMC3     C 9070   1.002   0.265   9.790 -0.4136 -0.3695  0.0361
  612TMC3     O 9071   0.896   0.254   9.735 -0.0786  0.2566  0.2413
  612TMC3     H 9072   1.210   0.352   9.918  1.0485  1.2655  0.9571
  612TMC3    H1 9073   0.939   0.447   9.623 -0.9587 -0.8368  0.1699
  612TMC3    H2 9074   1.303   0.677   9.651  1.3655 -1.4128  0.9510
  612TMC3    C7 9075   1.033   0.689   9.574 -0.4292 -0.0631 -0.3681
  612TMC3    C8 9076   1.390   0.564   9.859  0.1809  0.1955  0.6138
  612TMC3    O1 9077   0.910   0.693   9.590 -0.0280  0.5238 -0.2009
  612TMC3    O2 9078   1.450   0.664   9.819 -0.3386  0.2171 -0.0744
  613MPD2     C 9079   4.566   2.360  16.374  0.9042 -0.0884  0.0142
  613MPD2    C1 9080   4.509   2.449  16.285 -0.3635 -0.2319  0.7623
  613MPD2    C2 9081   4.417   2.400  16.198  0.4547  0.0378 -0.4130
  613MPD2    C3 9082   4.399   2.262  16.169 -0.0261 -0.3155 -0.3353
  613MPD2    C4 9083   4.482   2.179  16.240 -0.0734  0.2173  0.5879
  613MPD2    C5 9084   4.565   2.224  16.343 -0.9438  0.6410  0.4523
  613MPD2     H 9085   4.355   2.464  16.135  0.7065 -0.7408 -1.4495
  613MPD2    H1 9086   4.468   2.073  16.226  0.1975  0.0750  1.4124
  613MPD2    H2 9087   4.628   2.406  16.451  0.8926  0.6601 -0.4316
  613MPD2    H3 9088   4.626   2.154  16.399  0.1863  0.6536 -0.7785
  613MPD2     N 9089   4.305   2.217  16.072  0.8307 -0.8747  0.1826
  613MPD2    H5 9090   4.298   2.119  16.047  1.6704 -0.6606 -0.9097
  613MPD2    N1 9091   4.529   2.589  16.297  0.7380 -0.1844 -0.2467
  613MPD2    H7 9092   4.583   2.626  16.374 -0.5270 -1.2183  1.1239
  614TMC3    C1 9093   4.514   2.654  16.052 -0.4031 -0.3949  0.8331
  614TMC3    C2 9094   4.586   2.545  16.010  0.3186 -0.0939 -0.0416
  614TMC3    C3 9095   4.584   2.520  15.877  0.8418  0.6084 -0.3920
  614TMC3    C4 9096   4.455   2.745  15.967 -0.1891  0.5110 -0.1112
  614TMC3    C5 9097   4.465   2.716  15.833 -0.3546 -0.6241 -0.5603
  614TMC3    C6 9098   4.521   2.604  15.787 -0.0754 -0.6288 -0.5372
  614TMC3     C 9099   4.492   2.682  16.200  0.6974  0.6102  0.1315
  614TMC3     O 9100   4.483   2.804  16.207 -0.3164  0.0212  0.5678
  614TMC3     H 9101   4.631   2.471  16.074  0.8362  0.5135  0.2965
  614TMC3    H1 9102   4.376   2.813  15.998 -2.0385 -2.3162  1.4238
  614TMC3    H2 9103   4.559   2.591  15.686 -3.0624  0.5389 -1.8116
  614TMC3    C7 9104   4.398   2.814  15.747 -0.0669  0.2952  0.0023
  614TMC3    C8 9105   4.549   2.386  15.828  0.2951  0.3216  0.6358
  614TMC3    O1 9106   4.378   2.929  15.785  0.2805 -0.2234 -0.4508
  614TMC3    O2 9107   4.486   2.376  15.726  0.1679 -0.0650 -0.2785
  615MPD2     C 9108   3.892   3.987  16.218  0.1265 -0.0534 -0.2784
  615MPD2    C1 9109   3.831   4.110  16.193 -0.2757 -0.1024  0.3266
  615MPD2    C2 9110   3.728   4.114  16.093  0.2078  0.5155 -0.5633
  615MPD2    C3 9111   3.679   4.002  16.021  0.0997  0.4998  0.2321
  615MPD2    C4 9112   3.749   3.883  16.053 -0.1081  0.1131  0.0234
  615MPD2    C5 9113   3.845   3.874  16.149  0.1329 -0.5051  0.7948
  615MPD2     H 9114   3.688   4.213  16.076 -0.7155 -0.2014 -2.5072
  615MPD2    H1 9115   3.730   3.789  16.003  1.7544 -1.1203  1.6251
  615MPD2    H2 9116   3.970   3.972  16.292  0.1541 -2.7143 -0.8255
  615MPD2    H3 9117   3.876   3.774  16.175 -0.8094 -0.9160  0.3371
  615MPD2     N 9118   3.585   4.022  15.916  0.6499 -0.6893  0.1148
  615MPD2    H5 9119   3.567   4.120  15.893  1.6534 -0.5625 -0.1431
  615MPD2    N1 9120   3.868   4.235  16.254 -0.4448 -0.0201  0.1168
  615MPD2    H7 9121   3.811   4.309  16.216 -0.8467 -0.1629  0.4396
  616TMC3    C1 9122   3.978   4.397  16.389  0.1039  0.5361 -0.2648
  616TMC3    C2 9123   4.107   4.448  16.397  0.7160  0.3437 -0.2165
  616TMC3    C3 9124   4.101   4.587  16.420 -0.7593  0.7118 -0.1903
  616TMC3    C4 9125   3.860   4.460  16.420  0.2157 -0.3608  0.9171
  616TMC3    C5 9126   3.867   4.599  16.445  0.3156 -0.0811 -0.0465
  616TMC3    C6 9127   3.988   4.661  16.445 -0.1328 -0.1753  0.1373
  616TMC3     C 9128   3.968   4.260  16.347  0.4380 -0.1909 -0.4858
  616TMC3     O 9129   4.056   4.185  16.379  0.0548  0.4903 -0.0588
  616TMC3     H 9130   4.198   4.395  16.371  0.6123  1.3578 -2.6577
  616TMC3    H1 9131   3.770   4.401  16.430  0.0473 -0.5114 -1.3699
  616TMC3    H2 9132   4.000   0.043  16.476  0.8260 -0.6686  1.3609
  616TMC3    C7 9133   3.752   4.689  16.451 -0.1298 -0.0495  0.0517
  616TMC3    C8 9134   4.227   4.665  16.410 -0.7631 -0.2335  0.5114
  616TMC3    O1 9135   3.771   0.084  16.494 -0.4107  0.0874  0.6215
  616TMC3    O2 9136   4.221   0.068  16.418  0.2059 -0.1684  0.3257
  617MPD2     C 9137   2.053   2.276  13.747 -0.8866  0.0515 -0.8342
  617MPD2    C1 9138   2.053   2.198  13.863  0.6029 -0.3095  0.0946
  617MPD2    C2 9139   1.933   2.155  13.913  0.0890 -0.2248  0.1281
  617MPD2    C3 9140   1.812   2.186  13.857  0.5095  0.5456 -0.2504
  617MPD2    C4 9141   1.818   2.248  13.733  0.3611  0.8047  0.4618
  617MPD2    C5 9142   1.935   2.295  13.684 -0.1012 -0.5728 -0.2888
  617MPD2     H 9143   1.942   2.088  13.998 -0.6104 -1.5193 -0.8162
  617MPD2    H1 9144   1.738   2.283  13.669 -1.2601  0.3262  2.2320
  617MPD2    H2 9145   2.150   2.313  13.717 -0.3950  0.1576  0.8948
  617MPD2    H3 9146   1.933   2.354  13.593  0.0961  0.0623  0.1129
  617MPD2     N 9147   1.692   2.134  13.901  0.1698  0.2171  0.7405
  617MPD2    H5 9148   1.623   2.133  13.827 -0.4672 -0.8797  1.3547
  617MPD2    N1 9149   2.181   2.170  13.918 -0.3361 -0.0331  0.4238
  617MPD2    H7 9150   2.256   2.209  13.861 -1.6285 -0.3509 -1.4899
  618TMC3    C1 9151   2.358   2.106  14.072 -0.7154  0.3422 -0.5677
  618TMC3    C2 9152   2.397   2.008  14.159 -0.2433 -0.1427 -0.1772
  618TMC3    C3 9153   2.525   1.960  14.161 -0.0423  0.0253 -0.3542
  618TMC3    C4 9154   2.444   2.161  13.982  0.6094  0.3219  0.4788
  618TMC3    C5 9155   2.574   2.110  13.985  0.1980  0.5855 -0.2938
  618TMC3    C6 9156   2.615   2.010  14.070 -0.7025 -0.4003  0.5190
  618TMC3     C 9157   2.214   2.111  14.039  0.0573  1.0023 -0.2176
  618TMC3     O 9158   2.132   2.063  14.119  0.2318 -0.1908 -0.4040
  618TMC3     H 9159   2.322   1.975  14.230  1.0246 -2.7047 -0.0271
  618TMC3    H1 9160   2.417   2.247  13.921  2.6081  1.2431  0.9078
  618TMC3    H2 9161   2.714   1.966  14.068 -0.8408 -0.7665  1.9849
  618TMC3    C7 9162   2.636   2.132  13.859 -0.0012 -0.0701  0.1815
  618TMC3    C8 9163   2.541   1.825  14.203 -0.7498  0.7957 -0.2518
  618TMC3    O1 9164   2.598   2.226  13.790  0.1963 -0.4357 -0.6683
  618TMC3    O2 9165   2.517   1.798  14.320  0.0691 -0.3933 -0.3704
  619MPD2     C 9166   3.513   3.778  12.931 -0.2255 -0.0712  0.4816
  619MPD2    C1 9167   3.386   3.788  12.879  1.1872 -0.3706 -0.5493
  619MPD2    C2 9168   3.311   3.670  12.872 -0.2318 -0.6149 -0.2225
  619MPD2    C3 9169   3.356   3.550  12.917  0.8134 -0.2102 -0.2248
  619MPD2    C4 9170   3.482   3.544  12.973  0.7971  0.5465 -0.0983
  619MPD2    C5 9171   3.561   3.660  12.978  0.6674  0.1095 -0.1964
  619MPD2     H 9172   3.205   3.680  12.852  0.2140  0.7082 -1.9221
  619MPD2    H1 9173   3.529   3.454  13.011  0.6795  0.7863  0.6147
  619MPD2    H2 9174   3.574   3.864  12.959  0.5664 -1.7448  3.9256
  619MPD2    H3 9175   3.653   3.657  13.035  0.7267 -0.4351 -0.3212
  619MPD2     N 9176   3.279   3.436  12.899 -0.2140  0.2873 -0.0161
  619MPD2    H5 9177   3.301   3.352  12.953 -1.3873 -1.5446 -2.3937
  619MPD2    N1 9178   3.328   3.907  12.837 -0.4972  0.2302 -0.4685
  619MPD2    H7 9179   3.231   3.906  12.808 -0.1660 -0.8402 -1.5238
  620TMC3    C1 9180   3.303   4.133  12.783 -0.2189  0.0993 -0.0503
  620TMC3    C2 9181   3.219   4.088  12.686  0.0672  0.2732 -0.6347
  620TMC3    C3 9182   3.093   4.137  12.690  0.1366  0.1353  0.7451
  620TMC3    C4 9183   3.278   4.228  12.881  0.0304  0.0988 -0.5519
  620TMC3    C5 9184   3.142   4.271  12.887  0.3598  0.1895  0.1326
  620TMC3    C6 9185   3.060   4.239  12.782 -0.0658  0.0834 -0.1566
  620TMC3     C 9186   3.380   4.034  12.848 -0.2694  1.0149  0.2397
  620TMC3     O 9187   3.490   4.071  12.884  0.0504  0.5226  0.4672
  620TMC3     H 9188   3.241   4.000  12.627  0.3556  0.2167 -0.4425
  620TMC3    H1 9189   3.346   4.246  12.963  4.4356 -2.8677 -3.5861
  620TMC3    H2 9190   2.963   4.286  12.778 -0.4712 -0.5320  2.6248
  620TMC3    C7 9191   3.071   4.263  13.004 -0.3630  0.4500 -0.1987
  620TMC3    C8 9192   2.994   4.031  12.681  0.1655  0.0836 -0.0565
  620TMC3    O1 9193   2.971   4.193  13.003  0.4212  0.0643  0.2415
  620TMC3    O2 9194   3.000   3.954  12.581  0.4555  0.6116 -0.2323
  621MPD2     C 9195   4.126   2.525  10.073 -0.2423  0.0152  0.2202
  621MPD2    C1 9196   3.984   2.522  10.062  0.4320  0.4282  0.3735
  621MPD2    C2 9197   3.925   2.638  10.014 -0.6921 -0.0847  0.1306
  621MPD2    C3 9198   3.993   2.749   9.972 -0.3447 -0.0153  0.1061
  621MPD2    C4 9199   4.126   2.747   9.978  0.0510 -0.3133  0.3565
  621MPD2    C5 9200   4.188   2.641  10.034  0.3323 -0.1798  0.5158
  621MPD2     H 9201   3.817   2.642  10.008 -0.6599  0.4121 -0.1004
  621MPD2    H1 9202   4.192   2.827   9.947 -0.2113 -0.9860 -1.9060
  621MPD2    H2 9203   4.190   2.446  10.110  0.1028  0.2488  0.1323
  621MPD2    H3 9204   4.294   2.650  10.058  0.6189 -0.3024 -0.6842
  621MPD2     N 9205   3.915   2.851   9.913 -0.0964  0.4290 -0.5668
  621MPD2    H5 9206   3.816   2.836   9.900 -0.1663  1.8589 -1.7058
  621MPD2    N1 9207   3.909   2.404  10.102 -0.3694  0.6324 -0.3438
  621MPD2    H7 9208   3.810   2.404  10.077 -0.1983 -1.1539 -1.0354
  622TMC3    C1 9209   3.861   2.197  10.189  0.3247 -0.0262 -0.4893
  622TMC3    C2 9210   3.737   2.244  10.232 -0.2779 -0.1866 -0.4289
  622TMC3    C3 9211   3.633   2.149  10.241 -0.2236  0.8150 -0.1789
  622TMC3    C4 9212   3.885   2.063  10.157  0.2713  0.1241  0.4912
  622TMC3    C5 9213   3.773   1.983  10.151 -0.2944 -0.5997 -0.1965
  622TMC3    C6 9214   3.659   2.020  10.211  0.4934 -0.2768  0.2135
  622TMC3     C 9215   3.964   2.289  10.164  0.0948  0.6152  0.7931
  622TMC3     O 9216   4.082   2.252  10.180  0.3604  0.6547 -0.9584
  622TMC3     H 9217   3.726   2.337  10.286  1.6630  1.7822 -3.4551
  622TMC3    H1 9218   3.980   2.036  10.112 -0.4010 -0.1859 -0.7397
  622TMC3    H2 9219   3.586   1.941  10.223  0.7068 -0.5010  0.0448
  622TMC3    C7 9220   3.782   1.847  10.097  0.1885  0.8709 -0.5898
  622TMC3    C8 9221   3.503   2.191  10.297 -0.4497  0.7244  0.5261
  622TMC3    O1 9222   3.756   1.758  10.175 -0.5450  0.2825  0.0987
  622TMC3    O2 9223   3.418   2.102  10.296  0.2978 -0.9894 -0.6588
  623MPD2     C 9224   2.268   4.653  15.915 -0.3926 -0.5859 -0.2496
  623MPD2    C1 9225   2.185   4.650  16.023  0.2845 -0.0805  0.5543
  623MPD2    C2 9226   2.238   4.620  16.147 -0.3940 -1.1195  0.1006
  623MPD2    C3 9227   2.373   4.581  16.160  0.0953 -0.1559 -0.6914
  623MPD2    C4 9228   2.456   4.586  16.052 -0.3657 -0.2069  0.3681
  623MPD2    C5 9229   2.405   4.616  15.925  0.6084  0.5068  0.6517
  623MPD2     H 9230   2.174   4.621  16.234  0.0051  1.2414  0.3654
  623MPD2    H1 9231   2.564   4.574  16.054 -0.4121 -0.5338  0.9959
  623MPD2    H2 9232   2.227   4.665  15.816 -1.4913 -0.1576  0.2691
  623MPD2    H3 9233   2.465   4.628  15.835 -2.3772  4.1307 -0.8611
  623MPD2     N 9234   2.409   4.558  16.296  0.0700 -0.4185 -0.5721
  623MPD2    H5 9235   2.333   4.553  16.362  0.3363  0.2744 -0.2143
  623MPD2    N1 9236   2.055   4.705  16.009 -0.7474 -0.0246 -0.3560
  623MPD2    H7 9237   2.029   0.008  15.914 -0.7259  1.9534  0.1377
  624TMC3    C1 9238   2.678   4.412  16.649 -0.3493 -1.0081 -0.8679
  624TMC3    C2 9239   2.577   4.423  16.737 -0.1479 -0.2442 -0.0911
  624TMC3    C3 9240   2.457   4.471  16.691  0.5167 -0.0663 -0.2884
  624TMC3    C4 9241   2.662   4.439  16.519  0.0817 -0.0017 -0.2556
  624TMC3    C5 9242   2.542   4.478  16.475 -0.8399 -0.0975 -0.0699
  624TMC3    C6 9243   2.435   4.487  16.556  0.1939  0.0916  0.0170
  624TMC3     C 9244   2.808   4.377  16.694  0.4353  0.7594  0.3993
  624TMC3     O 9245   2.816   4.322  16.804  0.2708  0.5974  0.1630
  624TMC3     H 9246   2.589   4.384  16.838 -0.6296  0.7908  0.3589
  624TMC3    H1 9247   2.740   4.414  16.448  1.6852  0.9012  1.1698
  624TMC3    H2 9248   2.334   4.499  16.518  0.9568  1.9443 -1.4291
  624TMC3    C7 9249   2.537   4.521  16.340  0.4639 -0.0863 -0.4851
  624TMC3    C8 9250   2.342   4.406  16.749 -0.1178 -0.2202  0.1530
  624TMC3    O1 9251   2.638   4.507  16.269 -0.7480  0.0462 -0.6352
  624TMC3    O2 9252   2.373   4.298  16.801 -0.4990  0.5716  0.4742
  625MPD2     C 9253   3.094   4.676   0.853  0.2873  0.2473 -1.0291
  625MPD2    C1 9254   3.154   0.077   0.865 -0.0942  0.3200 -0.0308
  625MPD2    C2 9255   3.279   0.080   0.922 -0.0375  0.8998  0.0596
  625MPD2    C3 9256   3.342   4.690   0.969 -0.6955 -0.5082  0.5084
  625MPD2    C4 9257   3.288   4.568   0.956  0.5336  0.0645  1.0709
  625MPD2    C5 9258   3.156   4.564   0.907  0.0909 -0.1848 -0.4094
  625MPD2     H 9259   3.327   0.175   0.942  0.4794  0.4158  1.1151
  625MPD2    H1 9260   3.339   4.476   0.984  1.5943  0.2125 -0.3649
  625MPD2    H2 9261   3.000   4.661   0.802  1.0663  0.1550 -2.4236
  625MPD2    H3 9262   3.109   4.467   0.901  0.7694 -0.5862  0.8122
  625MPD2     N 9263   3.471   4.712   1.020  0.1290  0.1112 -0.7219
  625MPD2    H5 9264   3.500   0.088   1.017  1.1701 -0.1839 -0.0672
  625MPD2    N1 9265   3.092   0.204   0.834  0.4737  0.1528  0.8393
  625MPD2    H7 9266   3.148   0.287   0.853  0.4415  0.3837 -0.0774
  626TMC3    C1 9267   2.943   0.365   0.768 -0.1671 -0.0006  0.2311
  626TMC3    C2 9268   2.891   0.412   0.648  0.4399  0.7887 -0.4582
  626TMC3    C3 9269   2.899   0.548   0.624 -0.0114  0.4715 -0.0335
  626TMC3    C4 9270   3.003   0.457   0.860 -0.4487  0.0817  0.4365
  626TMC3    C5 9271   3.006   0.586   0.837 -0.1767  0.7145 -0.1822
  626TMC3    C6 9272   2.944   0.638   0.719 -0.2720 -0.3841 -0.0369
  626TMC3     C 9273   2.961   0.222   0.786  0.1697  0.0381 -0.5803
  626TMC3     O 9274   2.872   0.146   0.746 -0.3936 -0.4951  0.0749
  626TMC3     H 9275   2.860   0.337   0.576 -0.4862  1.3335 -0.6298
  626TMC3    H1 9276   3.056   0.423   0.948 -0.8669 -0.4940  0.4643
  626TMC3    H2 9277   2.934   0.745   0.713 -0.3263 -0.3421  0.7459
  626TMC3    C7 9278   3.019   0.660   0.959 -0.3720 -0.4162  0.2199
  626TMC3    C8 9279   2.820   0.605   0.511 -0.9102  0.3052 -0.7834
  626TMC3    O1 9280   2.922   0.728   0.982  0.6998  0.3854 -0.2742
  626TMC3    O2 9281   2.846   0.714   0.475 -1.2182  0.7354  0.1940
  627MPD2     C 9282   2.210   0.849  14.171 -0.1650  0.1658 -0.0717
  627MPD2    C1 9283   2.091   0.911  14.221 -0.5796  0.4013  0.7469
  627MPD2    C2 9284   1.970   0.847  14.178  0.8057  0.4742  0.3477
  627MPD2    C3 9285   1.968   0.737  14.096 -0.6901 -0.7990 -1.1051
  627MPD2    C4 9286   2.086   0.681  14.049 -0.6906  0.2847  0.1588
  627MPD2    C5 9287   2.201   0.740  14.088  0.0274  0.0555  0.1922
  627MPD2     H 9288   1.878   0.897  14.206 -1.3096 -3.1962 -0.1327
  627MPD2    H1 9289   2.090   0.601  13.976 -0.5719 -0.3597  0.8745
  627MPD2    H2 9290   2.310   0.887  14.189  0.0511 -0.5710  0.2885
  627MPD2    H3 9291   2.291   0.700  14.042 -0.2415 -1.1275  0.7112
  627MPD2     N 9292   1.842   0.693  14.058  0.5405 -0.1135 -0.4826
  627MPD2    H5 9293   1.762   0.743  14.096  0.6513 -0.6135  0.3941
  627MPD2    N1 9294   2.093   1.019  14.317  0.1397  0.5280  1.1153
  627MPD2    H7 9295   2.005   1.036  14.365 -1.3365  0.8368 -1.6984
  628TMC3    C1 9296   2.168   1.175  14.475  0.0631 -0.0195  0.0342
  628TMC3    C2 9297   2.270   1.179  14.564 -0.0779 -0.0398 -0.1847
  628TMC3    C3 9298   2.244   1.245  14.675  0.2592  0.0840  0.0090
  628TMC3    C4 9299   2.043   1.223  14.500  1.0056  0.1042 -0.4104
  628TMC3    C5 9300   2.023   1.276  14.620  0.5412  0.2698 -0.6476
  628TMC3    C6 9301   2.125   1.303  14.706  0.3958  0.2446 -0.0105
  628TMC3     C 9302   2.199   1.092  14.361 -1.0075 -0.7624 -0.3634
  628TMC3     O 9303   2.311   1.100  14.317 -0.0615  0.4765  0.1554
  628TMC3     H 9304   2.353   1.110  14.552  0.3550  0.7216 -1.4755
  628TMC3    H1 9305   1.966   1.212  14.424 -0.2127 -0.6000  0.9242
  628TMC3    H2 9306   2.096   1.325  14.808 -1.8101  1.0899 -0.8363
  628TMC3    C7 9307   1.899   1.351  14.652 -0.0717  0.6406  0.4831
  628TMC3    C8 9308   2.326   1.212  14.783  0.0205 -0.3863 -0.8010
  628TMC3    O1 9309   1.875   1.380  14.766 -0.1413  0.6275 -0.0197
  628TMC3    O2 9310   2.397   1.111  14.766 -0.8675 -0.0779 -1.0161
  629MPD2     C 9311   0.006   4.708  16.316 -0.3646  0.0567 -0.2774
  629MPD2    C1 9312   4.701   4.577  16.338 -0.6463 -0.1669  0.3127
  629MPD2    C2 9313   4.574   4.536  16.387  1.1466 -0.3028 -0.1954
  629MPD2    C3 9314   4.473   4.630  16.391  0.6476 -0.0861 -0.1370
  629MPD2    C4 9315   4.504   0.038  16.360 -0.1522 -0.0603 -0.3188
  629MPD2    C5 9316   4.630   0.080  16.326  0.1197  0.2300 -0.1163
  629MPD2     H 9317   4.544   4.432  16.389  3.0371 -0.7929  2.6075
  629MPD2    H1 9318   4.429   0.115  16.350 -0.2672 -0.0440  0.7203
  629MPD2    H2 9319   0.106   0.021  16.294 -1.1052  2.4538  0.0949
  629MPD2    H3 9320   4.659   0.182  16.301 -0.3557  0.5923  0.8372
  629MPD2     N 9321   4.337   4.584  16.407 -0.2018  0.9181  0.2031
  629MPD2    H5 9322   4.318   4.484  16.414 -2.5771  1.2876 -1.1888
  629MPD2    N1 9323   0.087   4.488  16.311 -0.4472  0.4525 -0.4525
  629MPD2    H7 9324   0.178   4.529  16.294 -0.3307  0.1970 -0.4359
  630TMC3    C1 9325   0.228   4.308  16.310 -0.6924 -0.1257  0.1480
  630TMC3    C2 9326   0.303   4.368  16.211 -0.0596  0.5453  0.4081
  630TMC3    C3 9327   0.439   4.352  16.215  0.3552 -0.3011  0.1481
  630TMC3    C4 9328   0.286   4.227  16.412  0.2391  0.2100  0.3072
  630TMC3    C5 9329   0.425   4.239  16.425  0.3056  0.5195 -0.3023
  630TMC3    C6 9330   0.500   4.299  16.325 -0.5256 -0.7171 -0.3087
  630TMC3     C 9331   0.092   4.358  16.337 -0.3494 -0.1463 -0.2368
  630TMC3     O 9332   0.027   4.281  16.407  0.2780 -0.5595 -0.1801
  630TMC3     H 9333   0.249   4.413  16.128  0.8542  0.2602 -0.3458
  630TMC3    H1 9334   0.227   4.193  16.497 -1.9220  0.6508 -1.0156
  630TMC3    H2 9335   0.609   4.299  16.330 -0.5396 -2.8260  0.0534
  630TMC3    C7 9336   0.475   4.275  16.558 -0.2450 -0.4362 -0.7397
  630TMC3    C8 9337   0.513   4.463  16.161 -0.1558  0.5859 -0.2481
  630TMC3    O1 9338   0.418   4.229  16.653 -0.1334 -0.5132  0.4750
  630TMC3    O2 9339   0.622   4.491  16.216 -0.0558 -0.7009 -0.3424
  631MPD2     C 9340   2.803   4.578  15.744  0.2420  0.9180 -0.4389
  631MPD2    C1 9341   2.892   4.590  15.647  0.1159  0.1081  0.5827
  631MPD2    C2 9342   2.999   4.504  15.646 -0.8170 -0.2048 -0.5442
  631MPD2    C3 9343   2.999   4.389  15.723  0.9872 -0.0847 -0.4372
  631MPD2    C4 9344   2.898   4.370  15.819  0.1534 -0.1151  0.5323
  631MPD2    C5 9345   2.806   4.471  15.833 -0.2536 -0.0860 -0.7316
  631MPD2     H 9346   3.078   4.506  15.572  0.5527 -0.1925  0.9075
  631MPD2    H1 9347   2.899   4.281  15.882 -0.0063 -1.3270 -1.2020
  631MPD2    H2 9348   2.726   4.653  15.762  0.0146  0.5023  0.3499
  631MPD2    H3 9349   2.728   4.454  15.907  0.4849 -1.3614 -0.2433
  631MPD2     N 9350   3.106   4.299  15.688 -1.0898  0.0041  0.0499
  631MPD2    H5 9351   3.163   4.324  15.608 -2.2533 -1.3405 -1.2122
  631MPD2    N1 9352   2.876   4.706  15.561 -0.2589  0.2817 -0.0896
  631MPD2    H7 9353   2.810   0.056  15.590 -0.6386  0.4112 -1.2894
  632TMC3    C1 9354   2.888   0.115  15.361  0.2770 -0.0880  0.0339
  632TMC3    C2 9355   2.752   0.145  15.362  0.3855 -0.1296 -0.3902
  632TMC3    C3 9356   2.693   0.215  15.254  0.3703  0.2243 -0.1948
  632TMC3    C4 9357   2.958   0.158  15.248 -0.5669  0.1714  0.2945
  632TMC3    C5 9358   2.895   0.221  15.145 -0.6888 -0.5464 -0.4670
  632TMC3    C6 9359   2.766   0.257  15.151  0.2544  0.2767  0.2365
  632TMC3     C 9360   2.938   0.000  15.435  0.2248 -0.1178  0.2488
  632TMC3     O 9361   3.029   4.661  15.376  0.1037 -0.3640  0.0380
  632TMC3     H 9362   2.689   0.104  15.439 -0.1486  1.4989  0.0523
  632TMC3    H1 9363   3.065   0.142  15.249 -0.6787 -0.4994  1.3848
  632TMC3    H2 9364   2.726   0.307  15.064  2.1296 -1.0904 -1.4164
  632TMC3    C7 9365   2.940   0.179  15.008  0.1544 -0.0755 -0.0333
  632TMC3    C8 9366   2.547   0.249  15.263 -0.1181  0.2845  0.6162
  632TMC3    O1 9367   2.886   0.221  14.906 -0.0009 -0.3187  0.4180
  632TMC3    O2 9368   2.498   0.258  15.374 -0.5541  0.0106  0.0119
  633MPD2     C 9369   2.719   2.231  17.602 -0.2948 -0.3839  0.5531
  633MPD2    C1 9370   2.819   2.218  17.508  0.5218 -0.7569  0.8268
  633MPD2    C2 9371   2.903   2.107  17.506  0.4304  0.1936  0.0870
  633MPD2    C3 9372   2.868   1.999  17.587  0.1410 -1.0279 -0.1590
  633MPD2    C4 9373   2.769   2.014  17.682 -0.4908  0.4490 -0.5483
  633MPD2    C5 9374   2.699   2.134   0.006 -0.6731  0.2199  0.6540
  633MPD2     H 9375   2.987   2.095  17.439  0.5922 -0.6738  0.4456
  633MPD2    H1 9376   2.748   1.938   0.070 -0.7703  0.6150 -0.4569
  633MPD2    H2 9377   2.639   2.304  17.595 -0.0215 -0.0278  1.1547
  633MPD2    H3 9378   2.621   2.137   0.081 -0.5887  2.2359  0.6583
  633MPD2     N 9379   2.933   1.871  17.584 -0.0170 -0.0845 -0.6715
  633MPD2    H5 9380   2.899   1.799  17.648  0.6693  0.3391  0.1635
  633MPD2    N1 9381   2.839   2.309  17.408 -0.7414  0.0546 -0.1645
  633MPD2    H7 9382   2.914   2.287  17.344 -0.6974  0.3037 -0.2013
  634TMC3    C1 9383   2.779   2.453  17.243 -0.0718 -0.3992 -0.1617
  634TMC3    C2 9384   2.829   2.359  17.148  0.2016  0.7485  0.4596
  634TMC3    C3 9385   2.829   2.380  17.012 -0.3101 -0.2755  0.1540
  634TMC3    C4 9386   2.739   2.574  17.197 -0.2199  0.4237 -0.4936
  634TMC3    C5 9387   2.757   2.601  17.064 -0.2785 -0.0147  0.0187
  634TMC3    C6 9388   2.788   2.506  16.968 -0.3988 -0.2160  0.1603
  634TMC3     C 9389   2.768   2.425  17.384  0.1134  0.1920  0.1997
  634TMC3     O 9390   2.691   2.486  17.458  0.8267 -0.5272 -0.8099
  634TMC3     H 9391   2.837   2.254  17.176  1.7012  0.2981 -1.6174
  634TMC3    H1 9392   2.708   2.648  17.270 -0.9165  1.5530 -1.9242
  634TMC3    H2 9393   2.795   2.532  16.863  0.7188 -1.1642  0.0083
  634TMC3    C7 9394   2.728   2.730  17.008 -0.5638  0.4724 -0.0737
  634TMC3    C8 9395   2.877   2.283  16.919 -0.3028  0.3046 -0.7518
  634TMC3    O1 9396   2.758   2.751  16.891 -0.3404  0.4255 -0.0553
  634TMC3    O2 9397   2.879   2.167  16.958  0.2229  0.3777 -0.1904
  635TMC3    C1 9398   3.098   3.183  17.650 -0.1183 -0.1422 -0.4914
  635TMC3    C2 9399   3.205   3.129  17.581 -0.1910  0.4013  0.4926
  635TMC3    C3 9400   3.229   2.992  17.595  0.4292  0.6876 -0.1725
  635TMC3    C4 9401   3.046   3.121   0.069  0.3919 -0.0915 -0.5618
  635TMC3    C5 9402   3.093   2.996   0.095  0.6732  0.0414  0.6358
  635TMC3    C6 9403   3.184   2.926   0.017 -0.2991  0.1837  0.5419
  635TMC3     C 9404   3.107   3.332  17.670  0.2174 -0.7981 -0.0533
  635TMC3     O 9405   3.079   3.369   0.098 -0.0349 -0.6296 -0.0839
  635TMC3     H 9406   3.241   3.165  17.485  0.3004 -1.3459  0.0220
  635TMC3    H1 9407   2.970   3.176   0.123 -0.2553 -0.3026 -1.2705
  635TMC3    H2 9408   3.238   2.839   0.054  2.1519  0.6963 -1.7841
  635TMC3    C7 9409   3.019   2.909   0.188 -0.6763 -0.4125 -0.0698
  635TMC3    C8 9410   3.330   2.927  17.506 -0.1193  0.2083  0.1594
  635TMC3    O1 9411   3.027   2.789   0.163 -0.0760  0.3861  0.1485
  635TMC3    O2 9412   3.394   2.998  17.427 -0.4368 -0.1953 -0.4385
  636MPD2     C 9413   3.750   2.860  15.636  0.2636 -0.3383 -0.6935
  636MPD2    C1 9414   3.815   2.848  15.757 -0.5995  0.5358 -0.0152
  636MPD2    C2 9415   3.903   2.742  15.780 -0.0762  0.0280 -0.2794
  636MPD2    C3 9416   3.897   2.636  15.692  0.1229 -0.8454  0.1442
  636MPD2    C4 9417   3.809   2.644  15.584  1.1418 -1.2854 -0.0041
  636MPD2    C5 9418   3.744   2.754  15.554  0.4227  1.0947  0.4119
  636MPD2     H 9419   3.954   2.740  15.876  0.3467  0.4093 -0.4949
  636MPD2    H1 9420   3.802   2.556  15.521 -3.0674 -0.7135 -0.3548
  636MPD2    H2 9421   3.680   2.941  15.621 -1.7855 -2.3253 -1.9418
  636MPD2    H3 9422   3.666   2.751  15.479  1.8310 -1.4333 -0.9510
  636MPD2     N 9423   3.965   2.509  15.725 -0.0705  0.3822 -0.3289
  636MPD2    H5 9424   4.023   2.512  15.808 -0.7774 -1.5049  0.2256
  636MPD2    N1 9425   3.801   2.942  15.864 -0.3368  0.4717 -0.2709
  636MPD2    H7 9426   3.850   2.925  15.951 -0.4928  2.4825  0.2109
  637TMC3    C1 9427   4.014   2.289  15.730 -0.0376 -0.5594 -0.1955
  637TMC3    C2 9428   4.025   2.301  15.861 -0.7547  0.4609  0.2445
  637TMC3    C3 9429   4.110   2.216  15.923  0.3318  0.3813  0.7701
  637TMC3    C4 9430   4.089   2.202  15.660  0.1500  0.1907 -0.8182
  637TMC3    C5 9431   4.165   2.111  15.733 -0.2100  0.5173 -0.4076
  637TMC3    C6 9432   4.162   2.104  15.866 -0.2140 -0.3784 -0.2274
  637TMC3     C 9433   3.939   2.392  15.664  0.1342 -0.3719  0.1272
  637TMC3     O 9434   3.888   2.362  15.556  0.0377  0.4776  0.6171
  637TMC3     H 9435   3.982   2.378  15.924 -1.8784 -0.0930  0.1680
  637TMC3    H1 9436   4.076   2.206  15.553  1.4949  2.4134 -0.8930
  637TMC3    H2 9437   4.222   2.029  15.917  1.0883  1.0745  0.4041
  637TMC3    C7 9438   4.227   2.003  15.650 -0.3224 -0.0117  0.5798
  637TMC3    C8 9439   4.199   2.287  16.018  1.0888 -0.3175 -0.8711
  637TMC3    O1 9440   4.180   1.994  15.542  0.0770  0.0786 -0.1945
  637TMC3    O2 9441   4.164   2.402  16.043 -0.4460 -0.4617  0.1964
  638MPD2     C 9442   3.634   1.764  14.975 -0.2973  0.1073 -0.2389
  638MPD2    C1 9443   3.588   1.660  14.895 -0.1193 -0.7843 -0.3820
  638MPD2    C2 9444   3.575   1.537  14.950  0.0495  0.3540  0.4483
  638MPD2    C3 9445   3.624   1.506  15.076  0.7905 -0.0462 -0.4718
  638MPD2    C4 9446   3.675   1.608  15.149  0.4321 -0.1484  0.9128
  638MPD2    C5 9447   3.683   1.735  15.097 -0.4237 -0.8294 -0.3482
  638MPD2     H 9448   3.540   1.451  14.895 -0.2239  2.1131 -2.1325
  638MPD2    H1 9449   3.711   1.597  15.251  0.1597 -0.3713  0.9864
  638MPD2    H2 9450   3.646   1.863  14.932 -0.8277  0.3826  0.2266
  638MPD2    H3 9451   3.711   1.818  15.160 -0.0442 -0.6264 -0.7901
  638MPD2     N 9452   3.606   1.377  15.126  0.3600 -0.4395 -0.3585
  638MPD2    H5 9453   3.548   1.321  15.064  1.1559  0.0661 -1.5771
  638MPD2    N1 9454   3.537   1.691  14.764  0.0730  0.4113  0.1065
  638MPD2    H7 9455   3.531   1.792  14.751 -0.1855  0.2829 -0.7919
  639TMC3    C1 9456   3.645   1.180  15.253  1.2506  0.1386 -0.4443
  639TMC3    C2 9457   3.520   1.132  15.241 -0.8361 -0.0110 -0.5169
  639TMC3    C3 9458   3.500   0.994  15.253 -0.2245  0.0227  0.5880
  639TMC3    C4 9459   3.750   1.101  15.291  0.8383 -0.3489 -0.0355
  639TMC3    C5 9460   3.720   0.969  15.312 -0.2567 -0.1678 -0.7780
  639TMC3    C6 9461   3.603   0.911  15.288 -0.3370  0.2479 -0.1228
  639TMC3     C 9462   3.673   1.319  15.229 -0.7738 -0.0162  0.2927
  639TMC3     O 9463   3.774   1.363  15.282 -0.0783 -0.1757  1.0720
  639TMC3     H 9464   3.445   1.200  15.202 -1.9732 -1.3103 -0.5509
  639TMC3    H1 9465   3.844   1.147  15.318  1.7380 -1.0794 -1.8887
  639TMC3    H2 9466   3.590   0.805  15.305  0.1458  0.1996 -0.0472
  639TMC3    C7 9467   3.824   0.876  15.313 -0.0536 -0.2443  0.2955
  639TMC3    C8 9468   3.418   0.923  15.159  0.1737 -0.0638  0.0432
  639TMC3    O1 9469   3.815   0.784  15.388  0.2091  0.3352 -0.0041
  639TMC3    O2 9470   3.444   0.808  15.131 -0.1961 -0.3059  0.1741
  640MPD2     C 9471   4.395   4.093   9.856 -0.1746  0.1079  0.1093
  640MPD2    C1 9472   4.434   4.190   9.764  0.1663 -0.3700  0.6018
  640MPD2    C2 9473   4.388   4.322   9.764  0.7820  0.0851  0.3351
  640MPD2    C3 9474   4.318   4.356   9.877  0.1623  0.7285 -0.2956
  640MPD2    C4 9475   4.297   4.268   9.983  0.7591 -1.1653  0.4685
  640MPD2    C5 9476   4.330   4.137   9.965  0.0008 -0.5047  0.4822
  640MPD2     H 9477   4.406   4.384   9.677 -0.6284  0.4220  0.2878
  640MPD2    H1 9478   4.250   4.303  10.075 -3.6317 -0.5684 -1.9935
  640MPD2    H2 9479   4.442   3.996   9.851 -0.2720  0.1008 -0.7271
  640MPD2    H3 9480   4.317   4.064  10.044  1.8112  3.7371  4.7178
  640MPD2     N 9481   4.257   4.482   9.889  0.2747 -0.1089 -0.8926
  640MPD2    H5 9482   4.216   4.499   9.980 -1.7987  1.2630 -2.0808
  640MPD2    N1 9483   4.535   4.150   9.665 -0.3104 -0.1079 -0.1888
  640MPD2    H7 9484   4.570   4.055   9.672 -1.1063 -0.2658  1.7199
  641TMC3    C1 9485   4.717   4.159   9.509  0.1977  0.5052 -0.1588
  641TMC3    C2 9486   4.687   4.033   9.473 -0.3083  0.0158 -0.2585
  641TMC3    C3 9487   0.060   3.958   9.408 -0.1026  0.1833  0.5205
  641TMC3    C4 9488   0.118   4.217   9.483 -0.3674  0.0146 -0.2036
  641TMC3    C5 9489   0.212   4.135   9.422  0.5079 -0.2644 -0.1365
  641TMC3    C6 9490   0.182   4.003   9.385 -0.7408 -0.3793 -0.0306
  641TMC3     C 9491   4.622   4.231   9.602  0.1287  0.0418  0.0819
  641TMC3     O 9492   4.623   4.355   9.612 -0.5389  0.4637  0.3058
  641TMC3     H 9493   4.587   3.999   9.494 -0.3425  0.8996  0.9963
  641TMC3    H1 9494   0.147   4.311   9.528 -0.6622 -0.1080  0.2483
  641TMC3    H2 9495   0.254   3.941   9.332  1.0263 -1.1010  3.2304
  641TMC3    C7 9496   0.349   4.182   9.400  0.0517  0.4877  0.0909
  641TMC3    C8 9497   0.056   3.809   9.424  0.5043 -0.6143 -0.1061
  641TMC3    O1 9498   0.432   4.092   9.381 -0.5665 -0.0236 -0.1245
  641TMC3    O2 9499   0.148   3.747   9.370 -0.4144 -0.2210 -0.0730
  642TMC3    C1 9500   0.830   1.298  11.568 -0.0927  0.0765 -0.3952
  642TMC3    C2 9501   0.932   1.308  11.665 -0.2131  0.0495 -0.4936
  642TMC3    C3 9502   0.963   1.195  11.737  0.4948  0.4434  0.0806
  642TMC3    C4 9503   0.761   1.183  11.549  0.1514 -0.5580  0.5591
  642TMC3    C5 9504   0.786   1.074  11.622  0.8388  0.0727 -0.0451
  642TMC3    C6 9505   0.901   1.073  11.706 -0.4432  0.1488  0.2370
  642TMC3     C 9506   0.748   1.418  11.560 -0.2040 -0.5939  0.1372
  642TMC3     O 9507   0.799   1.504  11.486  0.1220  0.1584  0.2809
  642TMC3     H 9508   0.972   1.406  11.690 -0.6498  0.5581 -1.7856
  642TMC3    H1 9509   0.682   1.183  11.475  0.3977 -1.0550  0.2960
  642TMC3    H2 9510   0.919   0.985  11.767  2.0633  0.9946  0.7215
  642TMC3    C7 9511   0.687   0.968  11.626  0.1343 -0.4165 -1.2391
  642TMC3    C8 9512   1.026   1.201  11.871 -0.5350 -0.0640  0.8499
  642TMC3    O1 9513   0.605   0.972  11.533  0.5089  0.1583 -0.4393
  642TMC3    O2 9514   1.029   1.098  11.936  0.2308 -0.7950 -0.3178
  643TMC3    C1 9515   4.419   0.704   0.377  0.3536  0.4928  0.1115
  643TMC3    C2 9516   4.294   0.688   0.316  0.3513 -0.7987 -0.9412
  643TMC3    C3 9517   4.277   0.582   0.224 -0.6324  0.8955  1.0219
  643TMC3    C4 9518   4.513   0.611   0.351  0.1031 -0.1617 -0.0207
  643TMC3    C5 9519   4.490   0.501   0.276  0.1224  0.9040  0.6512
  643TMC3    C6 9520   4.373   0.484   0.212 -0.2863 -0.9913 -0.3275
  643TMC3     C 9521   4.455   0.841   0.380  0.5572 -0.2280  0.8547
  643TMC3     O 9522   4.396   0.908   0.301 -0.7695  0.3522  0.1452
  643TMC3     H 9523   4.222   0.768   0.333  1.3566  0.0187 -0.5236
  643TMC3    H1 9524   4.620   0.623   0.363  0.0767 -0.7999  0.8896
  643TMC3    H2 9525   4.372   0.424   0.122 -1.5852  1.7971 -2.1737
  643TMC3    C7 9526   4.600   0.472   0.183  0.0800  0.3935 -0.0159
  643TMC3    C8 9527   4.240   0.638   0.090  0.1193  0.4816 -0.7792
  643TMC3    O1 9528   4.651   0.580   0.150 -0.8831 -0.0123  0.2204
  643TMC3    O2 9529   4.201   0.561   0.004  0.0420  0.0871 -0.1896
  644MPD2     C 9530   1.090   0.179   9.166  0.0185 -0.2931 -0.1047
  644MPD2    C1 9531   0.998   0.208   9.269 -0.2963 -0.2025  0.8394
  644MPD2    C2 9532   0.945   0.338   9.278  0.0162  0.5954  0.7630
  644MPD2    C3 9533   0.988   0.437   9.193  0.1338  0.2024  0.3293
  644MPD2    C4 9534   1.081   0.409   9.088  0.4306 -0.0598  0.2388
  644MPD2    C5 9535   1.126   0.279   9.078  0.1185  0.0988 -0.1099
  644MPD2     H 9536   0.884   0.369   9.363  1.5647 -0.4328  2.2422
  644MPD2    H1 9537   1.106   0.481   9.011 -0.5563  1.3711  1.2569
  644MPD2    H2 9538   1.128   0.077   9.166  0.8751  0.0336 -0.4847
  644MPD2    H3 9539   1.188   0.241   8.997 -1.4675  0.4348 -1.4764
  644MPD2     N 9540   0.937   0.565   9.213 -1.0489  1.0688 -0.1328
  644MPD2    H5 9541   0.865   0.562   9.284 -2.3006  3.0184 -1.3389
  644MPD2    N1 9542   0.956   0.101   9.351 -0.2296  0.3133  0.1376
  644MPD2    H7 9543   0.993   0.007   9.336  0.8860  0.5281  1.5745
  645TMC3    C1 9544   0.893   0.802   9.192  0.2969  0.2142  0.3597
  645TMC3    C2 9545   0.901   0.910   9.115  0.1551  0.0387 -0.0150
  645TMC3    C3 9546   0.814   1.013   9.145  0.2210  0.5824  0.8119
  645TMC3    C4 9547   0.809   0.791   9.302 -0.0530  0.2519  0.5661
  645TMC3    C5 9548   0.730   0.899   9.331  0.2637  0.7624  0.6370
  645TMC3    C6 9549   0.732   1.014   9.254 -0.5642 -0.3399  0.5230
  645TMC3     C 9550   0.975   0.683   9.155  0.0450 -1.5675 -0.1708
  645TMC3     O 9551   1.057   0.709   9.063  0.0442 -0.0020 -0.2449
  645TMC3     H 9552   0.977   0.924   9.039 -1.2223  0.4811 -1.3060
  645TMC3    H1 9553   0.809   0.702   9.363 -0.1585  0.5772  1.0379
  645TMC3    H2 9554   0.664   1.096   9.270  0.4328  0.3497  1.2601
  645TMC3    C7 9555   0.634   0.905   9.447 -0.2371  0.5550 -0.3870
  645TMC3    C8 9556   0.863   1.146   9.106  0.7589  0.0387 -0.3469
  645TMC3    O1 9557   0.564   1.003   9.459 -0.1462 -0.0490  0.3273
  645TMC3    O2 9558   0.967   1.152   9.043  0.1971 -0.0261 -0.1644
  646MPD2     C 9559   3.717   0.173  14.686 -0.1996 -0.1117 -0.4264
  646MPD2    C1 9560   3.639   0.134  14.797 -0.6233 -0.5404  0.1674
  646MPD2    C2 9561   3.505   0.172  14.809 -0.2742 -0.2752 -0.0854
  646MPD2    C3 9562   3.453   0.249  14.707  0.3965 -0.2871 -0.5455
  646MPD2    C4 9563   3.525   0.283  14.603  0.4885  0.0758  0.5032
  646MPD2    C5 9564   3.655   0.248  14.592 -0.8877 -0.2189  0.0021
  646MPD2     H 9565   3.434   0.140  14.884 -1.6730  0.3391 -1.1195
  646MPD2    H1 9566   3.490   0.348  14.523 -0.2990 -0.3855  0.4741
  646MPD2    H2 9567   3.823   0.156  14.670  0.0085 -1.1313  2.0682
  646MPD2    H3 9568   3.708   0.273  14.501 -0.7183  0.8537  0.3894
  646MPD2     N 9569   3.312   0.276  14.712 -0.2902 -0.3310 -0.6007
  646MPD2    H5 9570   3.260   0.260  14.798  0.9910 -1.3686 -0.0137
  646MPD2    N1 9571   3.698   0.051  14.892  0.0398 -0.2885  0.3811
  646MPD2    H7 9572   3.793   0.024  14.868 -0.0659 -0.5749  0.2848
  647TMC3    C1 9573   3.755   4.696  15.112 -0.7287  0.4622 -0.0230
  647TMC3    C2 9574   3.716   4.639  15.229 -0.0708  0.0731 -0.1963
  647TMC3    C3 9575   3.805   4.599  15.326  0.6003 -0.6848  0.1374
  647TMC3    C4 9576   3.889   4.715  15.086  0.3655 -0.2029 -0.1207
  647TMC3    C5 9577   3.978   4.678  15.186 -0.1360 -0.1670 -0.4315
  647TMC3    C6 9578   3.941   4.628  15.308  0.3631 -0.0112 -0.3850
  647TMC3     C 9579   3.650   0.032  15.019 -0.1041 -0.1401 -0.0256
  647TMC3     O 9580   3.548   0.066  15.077  0.4049  0.3461 -0.2839
  647TMC3     H 9581   3.609   4.633  15.248 -0.3149 -0.4387 -1.7444
  647TMC3    H1 9582   3.922   0.051  15.000 -2.4289  1.9361  0.2501
  647TMC3    H2 9583   4.024   4.599  15.372 -0.6211 -1.2891  0.3038
  647TMC3    C7 9584   4.126   4.679  15.159  0.1552  0.0215  0.4543
  647TMC3    C8 9585   3.793   4.470  15.385 -0.4203  1.3163  0.0600
  647TMC3    O1 9586   4.193   4.702  15.255  0.2814  0.4962 -0.2006
  647TMC3    O2 9587   3.755   4.387  15.302  0.2465  0.0653 -0.1558
  648TMC3    C1 9588   3.288   2.464  16.182  0.2075  0.8971 -0.1419
  648TMC3    C2 9589   3.375   2.387  16.111  0.1960 -0.9808  0.1930
  648TMC3    C3 9590   3.342   2.366  15.976 -0.0091 -0.1392 -0.1091
  648TMC3    C4 9591   3.179   2.527  16.125  0.7374  0.2624 -0.2064
  648TMC3    C5 9592   3.164   2.511  15.995 -0.6435  0.9293 -0.5782
  648TMC3    C6 9593   3.230   2.423  15.917 -0.1133 -0.3400 -0.3929
  648TMC3     C 9594   3.293   2.464  16.330 -0.6057 -0.3393  0.4730
  648TMC3     O 9595   3.232   2.556  16.386 -0.3686  0.0637  0.7348
  648TMC3     H 9596   3.463   2.342  16.155  1.1465 -1.7754 -2.4809
  648TMC3    H1 9597   3.103   2.572  16.189  2.5677  1.3129  1.2217
  648TMC3    H2 9598   3.204   2.418  15.811 -1.4791 -2.3384  0.0412
  648TMC3    C7 9599   3.081   2.608  15.923 -0.2188 -0.3148 -0.3929
  648TMC3    C8 9600   3.410   2.254  15.910 -0.2981 -0.7881 -0.3994
  648TMC3    O1 9601   3.111   2.634  15.804 -0.1765 -0.2036  0.0987
  648TMC3    O2 9602   3.521   2.227  15.955 -0.6052 -0.0301  0.4411
  649TMC3    C1 9603   1.917   3.217  12.648 -0.0944  0.4872 -0.3848
  649TMC3    C2 9604   1.994   3.273  12.548 -0.3476 -0.1966 -0.5880
  649TMC3    C3 9605   2.115   3.226  12.527 -0.9673  0.1615  0.4025
  649TMC3    C4 9606   1.968   3.111  12.720 -0.1138  0.1380 -0.2400
  649TMC3    C5 9607   2.091   3.075  12.696 -0.2725  0.8604 -0.2917
  649TMC3    C6 9608   2.170   3.125  12.596  0.2027  0.5583  0.3845
  649TMC3     C 9609   1.809   3.304  12.691  0.6342 -0.3676  0.9849
  649TMC3     O 9610   1.779   3.292  12.808 -0.0985  0.4042 -0.6179
  649TMC3     H 9611   1.961   3.359  12.490  1.8525  1.1008  0.1195
  649TMC3    H1 9612   1.921   3.071  12.810  1.2875  1.9302  1.2704
  649TMC3    H2 9613   2.267   3.088  12.566  0.3687  2.2828 -1.1556
  649TMC3    C7 9614   2.162   3.020  12.816 -0.3026  0.4067 -0.6851
  649TMC3    C8 9615   2.206   3.293  12.431 -0.1623 -0.1657  0.2898
  649TMC3    O1 9616   2.101   2.972  12.907  0.4060 -0.1476  0.1227
  649TMC3    O2 9617   2.308   3.236  12.399  0.2050 -0.1045  0.2151
  650TMC3    C1 9618   0.429   0.347  12.432 -0.3322  0.7306 -0.1742
  650TMC3    C2 9619   0.443   0.479  12.465  0.7959  0.1655  0.3097
  650TMC3    C3 9620   0.469   0.571  12.367 -0.4063 -0.4374 -0.9220
  650TMC3    C4 9621   0.416   0.306  12.299 -0.3517  0.8448  0.1138
  650TMC3    C5 9622   0.422   0.401  12.202 -0.1454  0.2660  0.1834
  650TMC3    C6 9623   0.457   0.533  12.236  0.3782  0.3600 -0.0597
  650TMC3     C 9624   0.433   0.250  12.538 -0.8383  0.0488  0.5042
  650TMC3     O 9625   0.438   0.298  12.650  0.0597  0.4320 -0.5055
  650TMC3     H 9626   0.455   0.503  12.570 -0.2399 -1.3409  0.7708
  650TMC3    H1 9627   0.392   0.204  12.271 -1.9986  1.0114  0.9121
  650TMC3    H2 9628   0.464   0.607  12.156  2.4350 -1.3105 -1.4159
  650TMC3    C7 9629   0.323   0.383  12.099 -0.4714 -0.2187  0.5637
  650TMC3    C8 9630   0.408   0.705  12.377 -0.5854  0.3018  0.4485
  650TMC3    O1 9631   0.298   0.269  12.066 -0.4124  0.5717  0.0444
  650TMC3    O2 9632   0.464   0.788  12.307 -0.3857  0.3157 -0.6564
  651MPD2     C 9633   3.641   1.989  10.587 -0.2389 -0.1829 -0.4530
  651MPD2    C1 9634   3.609   2.123  10.621  0.0410 -0.4064  0.6195
  651MPD2    C2 9635   3.706   2.220  10.623  0.2506  0.0090 -0.2799
  651MPD2    C3 9636   3.838   2.182  10.582 -0.0776  0.3851 -0.3681
  651MPD2    C4 9637   3.868   2.048  10.556  0.4160 -1.1431 -0.4985
  651MPD2    C5 9638   3.766   1.956  10.551 -0.2934 -0.3178 -0.1656
  651MPD2     H 9639   3.681   2.323  10.645 -0.6087 -0.0610 -0.9590
  651MPD2    H1 9640   3.965   2.011  10.526  1.9841  2.0258  0.7838
  651MPD2    H2 9641   3.562   1.915  10.594  0.3238 -0.7969 -0.6304
  651MPD2    H3 9642   3.781   1.860  10.504  2.7122  0.2934 -0.4334
  651MPD2     N 9643   3.934   2.287  10.568 -0.4785  0.7452  0.0279
  651MPD2    H5 9644   3.889   2.377  10.579  0.8778  1.2384  1.4310
  651MPD2    N1 9645   3.475   2.161  10.659  0.5643  0.2960 -0.6111
  651MPD2    H7 9646   3.477   2.247  10.712 -2.4655  0.9888 -1.6271
  652TMC3    C1 9647   4.324   2.527  10.471 -0.2006 -0.2638  0.0498
  652TMC3    C2 9648   4.260   2.413  10.517  0.2451  0.1679 -0.0221
  652TMC3    C3 9649   4.128   2.401  10.493  0.5316 -0.5056 -0.4184
  652TMC3    C4 9650   4.255   2.629  10.409  0.0135  0.2176 -0.0571
  652TMC3    C5 9651   4.122   2.616  10.384  0.1535 -0.1309 -0.7842
  652TMC3    C6 9652   4.060   2.492  10.421  0.2028  0.0147 -0.2680
  652TMC3     C 9653   4.461   2.554  10.495  0.7636 -0.2587  0.8548
  652TMC3     O 9654   4.505   2.508  10.601  0.1651  0.1373 -0.4943
  652TMC3     H 9655   4.310   2.332  10.568 -1.1246  0.3887  1.6826
  652TMC3    H1 9656   4.308   2.721  10.387 -0.6679 -0.0084 -2.6440
  652TMC3    H2 9657   3.953   2.489  10.403  0.4761  0.7588 -1.9662
  652TMC3    C7 9658   4.054   2.740  10.404 -0.7938 -0.4785  0.3338
  652TMC3    C8 9659   4.062   2.274  10.537  0.1024 -0.2780  0.1558
  652TMC3    O1 9660   3.967   2.763  10.493 -0.0457 -1.1490 -0.4262
  652TMC3    O2 9661   4.128   2.172  10.523 -0.4368  0.1435 -0.1831
  653MPD2     C 9662   2.418   2.221   0.259  0.4949 -0.4026 -0.8531
  653MPD2    C1 9663   2.398   2.320   0.165  0.5484 -0.5224 -0.0510
  653MPD2    C2 9664   2.346   2.287   0.045  0.3376 -0.8981 -0.0917
  653MPD2    C3 9665   2.315   2.156   0.014  0.2012 -0.4298  0.7359
  653MPD2    C4 9666   2.321   2.067   0.119  0.4270 -0.2150  0.1673
  653MPD2    C5 9667   2.365   2.100   0.241  1.0605  0.2221 -0.1575
  653MPD2     H 9668   2.343   2.368  17.661  0.3669 -1.6872 -0.9963
  653MPD2    H1 9669   2.272   1.971   0.113 -0.3310  0.2034 -0.4321
  653MPD2    H2 9670   2.484   2.233   0.345 -0.5504  0.3343 -0.1411
  653MPD2    H3 9671   2.365   2.028   0.322 -0.6175  1.1026  0.6267
  653MPD2     N 9672   2.275   2.127  17.573 -0.3184 -0.0269  0.2997
  653MPD2    H5 9673   2.286   2.211  17.518  0.7930  0.7713  1.7413
  653MPD2    N1 9674   2.432   2.454   0.193  0.6057  0.8414  0.0251
  653MPD2    H7 9675   2.417   2.520   0.117 -1.1187  1.3483  0.8001
  654TMC3    C1 9676   2.214   2.006  17.388  0.0893 -0.6823 -0.2641
  654TMC3    C2 9677   2.183   2.122  17.321 -0.6576 -0.2935  0.3988
  654TMC3    C3 9678   2.149   2.108  17.187  0.0873  0.3344 -0.1849
  654TMC3    C4 9679   2.209   1.883  17.325 -0.7995 -0.1231 -0.0780
  654TMC3    C5 9680   2.184   1.876  17.190  0.1624  0.1829  0.1257
  654TMC3    C6 9681   2.162   1.991  17.123 -0.5793 -0.1062  0.1692
  654TMC3     C 9682   2.254   1.999  17.529  1.0210  0.2602 -0.3021
  654TMC3     O 9683   2.244   1.892  17.588  0.1376  0.8932  0.2929
  654TMC3     H 9684   2.165   2.216  17.372  0.7901  0.3233 -0.2295
  654TMC3    H1 9685   2.243   1.801  17.387  1.6499  0.7114 -0.3164
  654TMC3    H2 9686   2.173   2.003  17.016  0.1471 -0.4526  0.2015
  654TMC3    C7 9687   2.172   1.752  17.116 -0.6672 -0.1627  0.0489
  654TMC3    C8 9688   2.040   2.192  17.136  0.4261 -0.2233 -0.0257
  654TMC3    O1 9689   2.145   1.764  16.996  0.3960 -0.3626 -0.2891
  654TMC3    O2 9690   2.023   2.299  17.193  0.2492  0.0697  0.2079
  655MPD2     C 9691   3.525   2.610  15.818 -0.0129 -0.1364  0.3096
  655MPD2    C1 9692   3.446   2.709  15.759 -0.2171  0.3276  1.0284
  655MPD2    C2 9693   3.397   2.691  15.634 -0.6498  0.4087  0.0819
  655MPD2    C3 9694   3.422   2.582  15.556 -0.8749 -0.0730  0.3060
  655MPD2    C4 9695   3.512   2.487  15.608  0.3972  0.4419 -0.5245
  655MPD2    C5 9696   3.560   2.501  15.738  0.3173  0.1264 -0.5306
  655MPD2     H 9697   3.331   2.770  15.601 -0.3042  0.3753 -0.6820
  655MPD2    H1 9698   3.538   2.398  15.552  2.3510  0.7092 -0.0151
  655MPD2    H2 9699   3.560   2.621  15.920 -0.3587  0.3065  0.3843
  655MPD2    H3 9700   3.633   2.434  15.783 -1.5834 -0.9192  1.0157
  655MPD2     N 9701   3.383   2.569  15.420  0.2288  0.3967 -0.4517
  655MPD2    H5 9702   3.431   2.499  15.365 -0.8616 -0.6966  0.0008
  655MPD2    N1 9703   3.401   2.827  15.831 -0.0876 -0.5323  0.7245
  655MPD2    H7 9704   3.361   2.898  15.771 -0.9892 -0.8569  0.9303
  656TMC3    C1 9705   3.342   2.958  16.016 -0.7964  0.1426 -0.0435
  656TMC3    C2 9706   3.317   2.962  16.152 -0.5572  0.0921  1.2508
  656TMC3    C3 9707   3.259   3.077  16.196  0.3951 -0.2131  0.1450
  656TMC3    C4 9708   3.290   3.046  15.928 -0.3971  1.0526  0.0566
  656TMC3    C5 9709   3.215   3.147  15.980  0.1353 -0.2847  0.1880
  656TMC3    C6 9710   3.197   3.172  16.115 -0.0975  0.2919 -0.3444
  656TMC3     C 9711   3.420   2.846  15.964 -0.6355  0.3014  0.3810
  656TMC3     O 9712   3.483   2.785  16.049  0.4519 -0.4124  0.2255
  656TMC3     H 9713   3.372   2.903  16.224 -1.7109 -0.9178  1.3024
  656TMC3    H1 9714   3.306   3.037  15.821 -2.1701 -3.0817  0.1195
  656TMC3    H2 9715   3.134   3.255  16.146  1.1179  0.4615  1.6760
  656TMC3    C7 9716   3.166   3.250  15.881 -0.1249  0.4501  0.6765
  656TMC3    C8 9717   3.189   3.069  16.317 -0.1967 -0.8754  0.7374
  656TMC3    O1 9718   3.233   3.245  15.780 -0.1365 -0.3744 -0.4100
  656TMC3    O2 9719   3.159   3.172  16.373 -0.1113  0.0187 -0.1952
  657TMC3    C1 9720   2.451   2.111  14.944 -0.4163 -0.5654  0.1939
  657TMC3    C2 9721   2.474   2.082  15.076  0.0144  0.4686  0.2299
  657TMC3    C3 9722   2.364   2.096  15.157  0.2289 -1.1678  0.2791
  657TMC3    C4 9723   2.334   2.161  14.892 -0.0284 -0.1308  0.1782
  657TMC3    C5 9724   2.236   2.186  14.984 -0.5336 -0.2831  0.1031
  657TMC3    C6 9725   2.252   2.157  15.116 -0.5971 -0.2242 -0.2990
  657TMC3     C 9726   2.536   2.045  14.844 -0.2567  0.4310  0.0537
  657TMC3     O 9727   2.470   1.987  14.758  0.0532  0.1342 -0.0463
  657TMC3     H 9728   2.571   2.041  15.098  0.2748  1.3275  0.7004
  657TMC3    H1 9729   2.326   2.181  14.786 -2.2295  1.0404  0.5717
  657TMC3    H2 9730   2.176   2.162  15.193 -0.1675 -1.9810  0.2419
  657TMC3    C7 9731   2.110   2.229  14.934 -0.2250 -0.0039 -0.2472
  657TMC3    C8 9732   2.384   2.093  15.297  0.0757  0.5440  0.6665
  657TMC3    O1 9733   2.010   2.180  14.990 -0.2563  0.2092 -0.3762
  657TMC3    O2 9734   2.302   2.140  15.370  0.1578 -0.2907  0.3417
  658MPD2     C 9735   3.821   2.608  14.850  0.2846 -0.4780  0.0885
  658MPD2    C1 9736   3.693   2.651  14.828  0.1549 -0.7961  0.2055
  658MPD2    C2 9737   3.656   2.684  14.702  0.2277 -0.9957  0.0877
  658MPD2    C3 9738   3.740   2.663  14.592 -0.6037 -1.0761 -0.0808
  658MPD2    C4 9739   3.867   2.610  14.612  0.0168  0.2570 -0.6842
  658MPD2    C5 9740   3.906   2.584  14.739 -0.3376 -0.0867 -0.3004
  658MPD2     H 9741   3.556   2.721  14.682  0.3120 -1.1130 -0.5385
  658MPD2    H1 9742   3.939   2.590  14.534  0.9835  0.6879  0.0985
  658MPD2    H2 9743   3.855   2.581  14.950  1.5780 -2.0881 -0.8005
  658MPD2    H3 9744   4.001   2.535  14.753 -1.1113 -1.0343  1.5060
  658MPD2     N 9745   3.679   2.679  14.466  0.3800  0.2283  0.0918
  658MPD2    H5 9746   3.585   2.715  14.469  0.7945  1.3222 -0.2466
  658MPD2    N1 9747   3.605   2.659  14.942 -0.1846  0.3357  0.0316
  658MPD2    H7 9748   3.629   2.600  15.021 -0.8296 -0.6401 -0.5031
  659TMC3    C1 9749   3.372   2.656  15.012 -0.4160 -0.1213  0.1025
  659TMC3    C2 9750   3.388   2.636  15.147 -0.5931 -0.0434 -0.2330
  659TMC3    C3 9751   3.270   2.623  15.220  0.4233  0.2425 -1.2705
  659TMC3    C4 9752   3.250   2.661  14.946 -0.2009  0.1667 -0.1847
  659TMC3    C5 9753   3.138   2.652  15.030  0.9110  0.3124  0.2504
  659TMC3    C6 9754   3.144   2.640  15.166  0.1375  0.3484 -0.0698
  659TMC3     C 9755   3.479   2.714  14.932  0.5815  0.2090 -0.1249
  659TMC3     O 9756   3.437   2.791  14.849 -0.1407 -0.4170 -0.5320
  659TMC3     H 9757   3.482   2.656  15.197  0.5881 -0.4938 -2.2729
  659TMC3    H1 9758   3.244   2.666  14.838  0.5178 -0.2193 -0.2412
  659TMC3    H2 9759   3.063   2.646  15.238 -0.7531  1.2312 -1.1445
  659TMC3    C7 9760   3.015   2.616  14.958 -0.5472  0.0745  0.3009
  659TMC3    C8 9761   3.277   2.640  15.363  0.5537 -0.2154  0.3986
  659TMC3    O1 9762   2.923   2.595  15.036 -0.0670 -0.2838  0.0647
  659TMC3    O2 9763   3.188   2.701  15.421  0.2019  0.0490  0.1012
  660MPD2     C 9764   1.836   0.856  12.336 -0.2351 -0.5531 -0.0901
  660MPD2    C1 9765   1.747   0.962  12.327 -0.1214 -0.3787 -0.0123
  660MPD2    C2 9766   1.657   0.987  12.434 -0.0652 -0.3026  0.1973
  660MPD2    C3 9767   1.665   0.906  12.550  0.5977 -0.5022 -0.1263
  660MPD2    C4 9768   1.761   0.801  12.556 -0.4708 -0.4477 -0.2472
  660MPD2    C5 9769   1.834   0.777  12.447 -0.0380 -0.1245  0.2534
  660MPD2     H 9770   1.583   1.066  12.427  1.5809  1.4722  2.8378
  660MPD2    H1 9771   1.750   0.723  12.630 -1.0335 -0.5674 -0.4543
  660MPD2    H2 9772   1.901   0.820  12.258  1.9203  2.8677  0.1183
  660MPD2    H3 9773   1.907   0.697  12.454  0.1736 -0.0800 -1.4860
  660MPD2     N 9774   1.572   0.911  12.656 -0.0163  0.0730 -0.3051
  660MPD2    H5 9775   1.585   0.846  12.733  0.9669  0.4812 -0.1230
  660MPD2    N1 9776   1.742   1.028  12.199 -0.3587  0.0739 -0.0188
  660MPD2    H7 9777   1.810   0.995  12.131 -1.0196  1.7099 -1.4603
  661TMC3    C1 9778   1.699   1.185  12.040  0.2810  0.2699  0.4601
  661TMC3    C2 9779   1.781   1.128  11.951  0.1850 -0.3570  0.4385
  661TMC3    C3 9780   1.769   1.173  11.816 -0.4302 -0.5535 -0.5131
  661TMC3    C4 9781   1.604   1.279  12.002  0.3507 -0.0653 -0.1018
  661TMC3    C5 9782   1.605   1.319  11.877 -0.4772 -0.3023  0.0324
  661TMC3    C6 9783   1.677   1.269  11.780  0.1276 -0.4287 -0.4523
  661TMC3     C 9784   1.658   1.128  12.167 -0.2940  0.4740  0.3879
  661TMC3     O 9785   1.593   1.197  12.246  0.5509  0.2519  0.1760
  661TMC3     H 9786   1.866   1.071  11.986 -1.3714 -2.1916  1.2294
  661TMC3    H1 9787   1.518   1.304  12.063  0.8269  0.0852  0.5137
  661TMC3    H2 9788   1.659   1.299  11.678 -2.1480 -0.9345 -0.1988
  661TMC3    C7 9789   1.495   1.403  11.842 -0.1814  0.0380  0.4663
  661TMC3    C8 9790   1.871   1.132  11.724 -0.5279 -0.1503 -0.6027
  661TMC3    O1 9791   1.491   1.511  11.898  1.0832  0.1538  0.2962
  661TMC3    O2 9792   1.909   1.014  11.735 -0.0500  0.4907 -0.1536
  662MPD2     C 9793   2.237   0.262  17.617 -0.0095  0.5257  1.1737
  662MPD2    C1 9794   2.252   0.168   0.027  0.0812 -0.1266 -0.2895
  662MPD2    C2 9795   2.177   0.179   0.147 -0.0412 -0.0779 -0.3656
  662MPD2    C3 9796   2.083   0.285   0.168 -0.1488  0.9167 -0.3485
  662MPD2    C4 9797   2.065   0.375   0.063  0.4370 -0.0569 -0.2958
  662MPD2    C5 9798   2.145   0.361  17.638 -0.2733  0.0258 -0.5946
  662MPD2     H 9799   2.197   0.107   0.226  0.8514  0.2912 -0.2464
  662MPD2    H1 9800   2.005   0.465   0.065 -0.8960 -0.9230 -1.6828
  662MPD2    H2 9801   2.289   0.262  17.522  1.5145 -1.7384  2.0053
  662MPD2    H3 9802   2.134   0.436  17.560  0.8938 -0.0373 -0.8092
  662MPD2     N 9803   2.002   0.303   0.285 -0.1213 -0.4165 -0.4857
  662MPD2    H5 9804   1.948   0.389   0.283 -2.6382 -1.9454  3.2866
  662MPD2    N1 9805   2.330   0.049   0.008  0.9647 -0.5191 -0.0360
  662MPD2    H7 9806   2.340   4.713   0.092  1.2855  1.3845  1.2189
  663TMC3    C1 9807   2.406   4.579  17.579 -0.7357 -0.3868  0.4981
  663TMC3    C2 9808   2.491   4.534  17.679  0.6334  0.3432  0.6488
  663TMC3    C3 9809   2.546   4.410  17.664 -0.3178 -0.5627  0.1192
  663TMC3    C4 9810   2.360   4.503  17.470  0.3376 -0.1536  0.1275
  663TMC3    C5 9811   2.399   4.372  17.483 -0.3639 -0.2381 -0.2624
  663TMC3    C6 9812   2.478   4.320  17.582  0.7415  1.6175 -0.3232
  663TMC3     C 9813   2.368   0.002  17.571  0.3859  0.2686 -0.0265
  663TMC3     O 9814   2.318   0.041  17.464 -0.0795  0.0982  0.2805
  663TMC3     H 9815   2.537   4.603   0.063  1.5721  1.7317 -1.2774
  663TMC3    H1 9816   2.307   4.536  17.381  0.5300  1.8478  0.7364
  663TMC3    H2 9817   2.513   4.218  17.576 -0.7007  1.0858  0.2714
  663TMC3    C7 9818   2.305   4.277  17.420 -0.1065  1.3214  0.3761
  663TMC3    C8 9819   2.578   4.344   0.101 -0.0866  0.1403 -0.3558
  663TMC3    O1 9820   2.361   4.176  17.377  0.4265 -0.6924  0.8882
  663TMC3    O2 9821   2.644   4.241   0.096  0.3973  0.0552 -0.0894
  664MPD2     C 9822   4.589   4.261  17.547 -0.1260  0.5520 -0.1630
  664MPD2    C1 9823   0.004   4.270  17.570 -0.3405  0.3827  0.2956
  664MPD2    C2 9824   0.063   4.211  17.685 -0.3427 -0.6149  0.9220
  664MPD2    C3 9825   4.713   4.150   0.098  1.1352  0.1553  0.3492
  664MPD2    C4 9826   4.577   4.138   0.067  0.9058  0.9455  0.4719
  664MPD2    C5 9827   4.517   4.196  17.647  0.3698 -0.2894  0.2427
  664MPD2     H 9828   0.169   4.225   0.018 -0.5225  0.4985  1.0898
  664MPD2    H1 9829   4.505   4.092   0.134 -1.3941  0.6926 -2.1967
  664MPD2    H2 9830   4.542   4.306  17.460  0.7173  0.5512 -0.6173
  664MPD2    H3 9831   4.410   4.187  17.633  0.3819  0.2279 -0.1797
  664MPD2     N 9832   0.061   4.113   0.217 -0.1731  0.0776 -0.1624
  664MPD2    H5 9833   0.159   4.134   0.232 -0.2882  0.0852  0.5363
  664MPD2    N1 9834   0.076   4.341  17.476 -0.3229  0.2195 -0.0208
  664MPD2    H7 9835   0.029   4.398  17.407 -1.8035  0.5301  1.2627
  665TMC3    C1 9836   0.080   4.051   0.446  0.3710 -0.1006  0.4259
  665TMC3    C2 9837   0.023   3.996   0.556 -0.5693 -0.3872 -0.4089
  665TMC3    C3 9838   0.094   4.004   0.674  0.0595 -0.3502 -0.4432
  665TMC3    C4 9839   0.183   4.142   0.464 -0.2132 -0.2919 -0.6696
  665TMC3    C5 9840   0.242   4.166   0.586 -0.2847  0.7032 -0.0724
  665TMC3    C6 9841   0.199   4.092   0.690 -0.5720  0.0298 -0.4398
  665TMC3     C 9842   0.004   4.047   0.319 -0.3804  0.9768  0.1060
  665TMC3     O 9843   4.614   3.994   0.315  0.4421  0.6085  0.0519
  665TMC3     H 9844   4.667   3.922   0.536 -0.6409 -0.7166  1.0968
  665TMC3    H1 9845   0.219   4.204   0.383 -0.1249  1.9045  1.0505
  665TMC3    H2 9846   0.248   4.098   0.786 -2.2555 -0.2718  0.4434
  665TMC3    C7 9847   0.316   4.288   0.597  0.6560  0.1280 -0.5343
  665TMC3    C8 9848   0.045   3.937   0.795  0.3449  0.0173 -0.2420
  665TMC3    O1 9849   0.309   4.364   0.504 -0.1968 -0.1721 -0.0254
  665TMC3    O2 9850   0.089   3.979   0.898 -0.2472  0.0744  0.2201
  666TMC3    C1 9851   3.859   3.066   9.841  0.5455 -0.4658 -0.0148
  666TMC3    C2 9852   3.788   3.028   9.736  0.4354  0.7039 -0.1054
  666TMC3    C3 9853   3.755   3.118   9.633  0.2811  0.3890 -0.5313
  666TMC3    C4 9854   3.893   3.198   9.857 -0.4938 -0.0287 -0.4198
  666TMC3    C5 9855   3.850   3.287   9.757 -0.2736 -0.2413  0.0769
  666TMC3    C6 9856   3.772   3.252   9.646  0.0743 -0.2468  0.2706
  666TMC3     C 9857   3.968   2.974   9.879 -0.0343 -0.0271  0.2827
  666TMC3     O 9858   4.078   3.027   9.891 -0.4092 -0.0661  0.7641
  666TMC3     H 9859   3.777   2.923   9.715 -0.6489  0.9326 -0.6958
  666TMC3    H1 9860   3.971   3.240   9.919 -1.0460  1.2087 -0.5538
  666TMC3    H2 9861   3.734   3.322   9.572  0.2708  1.0126  1.3672
  666TMC3    C7 9862   3.878   3.422   9.792  0.3778 -0.1655 -0.0134
  666TMC3    C8 9863   3.708   3.069   9.508 -0.5433 -0.0198 -0.8955
  666TMC3    O1 9864   3.886   3.457   9.911  0.4589 -0.5829 -0.0709
  666TMC3    O2 9865   3.597   3.111   9.479  0.7904  0.6127  0.2758
  667MPD2     C 9866   0.918   4.004  14.663  0.6437  0.3584 -0.5278
  667MPD2    C1 9867   0.819   4.086  14.703 -0.2621 -0.2151 -0.3206
  667MPD2    C2 9868   0.695   4.031  14.723 -0.8612  0.6716 -0.0007
  667MPD2    C3 9869   0.673   3.892  14.704  0.2695  0.1647 -0.6170
  667MPD2    C4 9870   0.777   3.816  14.666  0.3786  0.8342 -0.0526
  667MPD2    C5 9871   0.894   3.873  14.642  0.9990  0.6096 -0.6406
  667MPD2     H 9872   0.613   4.093  14.756 -0.4147  1.0408  0.4245
  667MPD2    H1 9873   0.767   3.710  14.649 -0.9341  0.5605  2.4607
  667MPD2    H2 9874   1.018   4.045  14.659  0.4699  0.7586 -0.8049
  667MPD2    H3 9875   0.978   3.808  14.621  0.6634 -0.0474  0.0386
  667MPD2     N 9876   0.556   3.820  14.731 -0.0236 -0.3750  0.4032
  667MPD2    H5 9877   0.577   3.723  14.708 -0.8447 -0.4669  0.0245
  667MPD2    N1 9878   0.840   4.228  14.720 -0.9123 -0.5573  0.4850
  667MPD2    H7 9879   0.764   4.271  14.771 -1.2896  0.1989 -0.7282
  668TMC3    C1 9880   0.976   4.435  14.713  0.7519 -0.2668 -0.4228
  668TMC3    C2 9881   1.054   4.515  14.634  0.4259  0.3338  0.1989
  668TMC3    C3 9882   1.085   4.636  14.681  0.7388  0.6941  0.2933
  668TMC3    C4 9883   0.963   4.456  14.844 -0.3650  0.0702  0.6590
  668TMC3    C5 9884   1.006   4.585  14.895 -0.0969  0.2150  0.0537
  668TMC3    C6 9885   1.066   4.676  14.804 -0.1707 -0.2333 -0.1982
  668TMC3     C 9886   0.953   4.295  14.672 -0.0914 -0.1066  0.1506
  668TMC3     O 9887   1.018   4.257  14.580 -0.3090 -0.3614  0.4594
  668TMC3     H 9888   1.060   4.490  14.529  0.2020  2.5923 -0.3507
  668TMC3    H1 9889   0.931   4.377  14.910 -1.2086  0.7625  1.0883
  668TMC3    H2 9890   1.106   0.051  14.835  0.5570 -0.1406 -1.4108
  668TMC3    C7 9891   1.043   4.619  15.035 -0.6591  0.0275 -0.3762
  668TMC3    C8 9892   1.175   4.720  14.606 -0.6360  0.0642 -0.2709
  668TMC3    O1 9893   1.138   4.694  15.042  0.4490  0.0394 -0.5662
  668TMC3    O2 9894   1.173   0.119  14.628 -0.0018  0.4980  0.2975
  669TMC3    C1 9895   3.519   4.034  14.508 -0.3782  0.4922 -0.0424
  669TMC3    C2 9896   3.423   4.001  14.412  0.2649 -0.2538  0.6632
  669TMC3    C3 9897   3.451   4.010  14.280 -0.2699  1.1274 -0.6405
  669TMC3    C4 9898   3.641   4.070  14.463 -0.0405 -0.9991 -0.1277
  669TMC3    C5 9899   3.666   4.087  14.326 -0.2439  0.0411  0.4572
  669TMC3    C6 9900   3.572   4.054  14.235  0.6411 -1.0967 -0.4503
  669TMC3     C 9901   3.493   3.994  14.644 -0.1662 -0.2550  0.3659
  669TMC3     O 9902   3.378   3.963  14.674 -0.8023  0.5581 -0.5568
  669TMC3     H 9903   3.326   3.961  14.440 -0.4711  0.7216 -0.4552
  669TMC3    H1 9904   3.722   4.080  14.534 -0.8089  0.0483  0.5956
  669TMC3    H2 9905   3.578   4.071  14.128 -0.7324 -1.5964 -0.6032
  669TMC3    C7 9906   3.787   4.152  14.286 -0.4423 -0.2172 -0.0968
  669TMC3    C8 9907   3.347   4.003  14.178  0.4283  0.3728  0.6963
  669TMC3    O1 9908   3.876   4.156  14.367  0.1803 -0.3665 -0.1569
  669TMC3    O2 9909   3.377   3.962  14.066 -0.5419  0.6179  0.0711
  670MPD2     C 9910   1.883   2.171  13.205  0.2385  0.1691  0.1233
  670MPD2    C1 9911   1.998   2.133  13.270 -0.3829  0.3022  0.4836
  670MPD2    C2 9912   1.992   2.058  13.388 -0.0740 -0.1586  0.0178
  670MPD2    C3 9913   1.870   2.034  13.448 -0.3387  0.4913  0.3329
  670MPD2    C4 9914   1.756   2.075  13.387 -0.1124  0.6270  0.0006
  670MPD2    C5 9915   1.761   2.143  13.265  0.2956  0.3788  0.4494
  670MPD2     H 9916   2.080   2.037  13.448 -0.7552  0.2265  1.1545
  670MPD2    H1 9917   1.656   2.068  13.428 -0.4481  0.2512 -0.8749
  670MPD2    H2 9918   1.884   2.224  13.111  1.4508  1.3728  0.8138
  670MPD2    H3 9919   1.672   2.196  13.234 -0.4647 -2.4937 -2.2992
  670MPD2     N 9920   1.875   1.965  13.567  0.9000 -0.1044 -1.3620
  670MPD2    H5 9921   1.968   1.956  13.607  0.7768 -0.7197 -1.2156
  670MPD2    N1 9922   2.125   2.169  13.225  0.1121  0.1947 -0.5284
  670MPD2    H7 9923   2.200   2.124  13.276 -1.9291 -0.6682  1.7059
  671TMC3    C1 9924   1.805   1.831  13.744  0.3981 -0.4372  0.1707
  671TMC3    C2 9925   1.926   1.852  13.804  0.1991  0.2071  0.3141
  671TMC3    C3 9926   1.941   1.786  13.922  0.2434 -0.4051 -0.8236
  671TMC3    C4 9927   1.700   1.761  13.787  0.7321  0.4919  0.2365
  671TMC3    C5 9928   1.719   1.699  13.910 -0.7337 -0.2977  0.3687
  671TMC3    C6 9929   1.837   1.712  13.982 -0.1101  0.4869 -0.1543
  671TMC3     C 9930   1.765   1.918  13.638  0.3653  0.4235 -0.0609
  671TMC3     O 9931   1.650   1.936  13.611 -0.3466 -0.1636 -0.3229
  671TMC3     H 9932   2.018   1.894  13.764 -0.8377  0.1360 -2.1361
  671TMC3    H1 9933   1.618   1.738  13.720 -0.6460 -1.5058  2.6458
  671TMC3    H2 9934   1.863   1.658  14.073  0.3154 -1.4211 -1.4094
  671TMC3    C7 9935   1.637   1.577  13.919 -0.4196 -0.6542  0.0293
  671TMC3    C8 9936   2.074   1.750  13.959 -0.5063  0.3078  0.2175
  671TMC3    O1 9937   1.599   1.542  13.811  0.4960  0.7465 -0.4906
  671TMC3    O2 9938   2.145   1.709  13.869 -0.1289 -0.0780  0.1764
  672MPD2     C 9939   1.825   1.776   1.251 -0.0721  0.2600 -0.2667
  672MPD2    C1 9940   1.948   1.710   1.230 -0.2745 -0.5165 -0.2164
  672MPD2    C2 9941   2.044   1.732   1.328 -0.9095  0.4642  0.2076
  672MPD2    C3 9942   2.025   1.817   1.437 -0.2046 -0.4782 -0.5683
  672MPD2    C4 9943   1.901   1.856   1.465  0.3473  0.7043  0.0380
  672MPD2    C5 9944   1.798   1.837   1.369 -0.3052 -0.2491  0.3956
  672MPD2     H 9945   2.144   1.695   1.309 -0.6988  0.1588  1.9687
  672MPD2    H1 9946   1.879   1.910   1.556  0.4448  0.7677  0.0243
  672MPD2    H2 9947   1.747   1.765   1.175  0.6804  1.3622 -1.1851
  672MPD2    H3 9948   1.702   1.886   1.377  0.0259 -0.1986  3.8451
  672MPD2     N 9949   2.136   1.858   1.514 -0.2487 -0.2170 -0.9628
  672MPD2    H5 9950   2.232   1.836   1.488  0.1952  2.1052 -1.2278
  672MPD2    N1 9951   1.981   1.639   1.113 -0.4315 -0.5886 -0.2870
  672MPD2    H7 9952   2.067   1.585   1.115  0.5283  1.0473  2.6523
  673TMC3    C1 9953   2.012   1.615   0.885 -0.2661 -0.4598  0.9190
  673TMC3    C2 9954   2.013   1.481   0.877 -0.0548  0.2128 -0.3593
  673TMC3    C3 9955   2.025   1.418   0.756 -0.4225  0.5948 -0.0745
  673TMC3    C4 9956   2.043   1.694   0.778  0.4070 -0.0064  0.1455
  673TMC3    C5 9957   2.076   1.627   0.665  0.2163 -0.4291  0.6642
  673TMC3    C6 9958   2.052   1.491   0.642 -0.6037  0.3394  0.1706
  673TMC3     C 9959   1.929   1.678   0.990 -0.2560 -0.1750  0.3614
  673TMC3     O 9960   1.874   1.783   0.968  0.0806 -0.0146 -0.5443
  673TMC3     H 9961   1.987   1.431   0.970 -1.3212  0.4964 -0.5530
  673TMC3    H1 9962   2.046   1.801   0.795 -2.5004  0.4663 -2.2801
  673TMC3    H2 9963   2.070   1.451   0.543  1.6964 -0.8944  1.0769
  673TMC3    C7 9964   2.098   1.701   0.537 -0.1803  0.2088  0.4894
  673TMC3    C8 9965   2.077   1.282   0.766 -0.1207 -0.4118  0.2793
  673TMC3    O1 9966   2.149   1.645   0.441 -0.2619 -0.2307  0.3628
  673TMC3    O2 9967   2.068   1.212   0.667 -0.1271 -0.1954  0.2071
  674MPD2     C 9968   2.484   1.144   0.191 -0.1905  0.4694  0.0661
  674MPD2    C1 9969   2.418   1.059   0.273  0.3433  0.2357 -0.3218
  674MPD2    C2 9970   2.286   1.081   0.300 -0.8075 -0.2877 -0.6586
  674MPD2    C3 9971   2.203   1.173   0.241  0.3441  0.7528 -0.0865
  674MPD2    C4 9972   2.269   1.257   0.147  0.6948 -0.8578 -0.0666
  674MPD2    C5 9973   2.410   1.236   0.126  0.0466 -0.1583 -0.1962
  674MPD2     H 9974   2.248   1.051   0.397 -0.3203  0.1393 -0.3330
  674MPD2    H1 9975   2.213   1.340   0.105  1.6985 -0.1540 -0.0111
  674MPD2    H2 9976   2.591   1.140   0.172 -0.1141  0.9327  0.3945
  674MPD2    H3 9977   2.467   1.301   0.061  0.7001 -2.1198 -1.5977
  674MPD2     N 9978   2.068   1.196   0.284  0.4629  0.4095  0.2213
  674MPD2    H5 9979   2.028   1.130   0.350  0.0904  0.6560  0.2398
  674MPD2    N1 9980   2.492   0.981   0.364 -0.0909 -0.9872  0.2764
  674MPD2    H7 9981   2.593   0.984   0.355  0.1324 -3.2007  1.8664
  675TMC3    C1 9982   2.541   0.877   0.575  0.2880  0.4915  0.4930
  675TMC3    C2 9983   2.522   0.757   0.635  0.3085  0.2170 -0.1151
  675TMC3    C3 9984   2.567   0.741   0.764 -0.0662  0.3075  0.2368
  675TMC3    C4 9985   2.597   0.989   0.637  0.1875  0.0844 -0.2108
  675TMC3    C5 9986   2.645   0.967   0.765  0.4261 -0.6009  0.1091
  675TMC3    C6 9987   2.635   0.844   0.829  0.2807 -0.3717 -0.2670
  675TMC3     C 9988   2.447   0.894   0.468 -0.0016  0.2731  0.0187
  675TMC3     O 9989   2.337   0.844   0.474  0.3867 -0.0508  0.6241
  675TMC3     H 9990   2.494   0.666   0.585  2.8059 -0.0011 -1.1312
  675TMC3    H1 9991   2.603   1.082   0.583  1.0722  0.3517  0.3550
  675TMC3    H2 9992   2.674   0.845   0.931 -2.0189  1.1026  0.6053
  675TMC3    C7 9993   2.673   1.075   0.860  0.3329  0.1084 -0.0693
  675TMC3    C8 9994   2.579   0.603   0.811  0.2164 -0.2388  0.8295
  675TMC3    O1 9995   2.743   1.051   0.959  0.2813  0.4603  0.3204
  675TMC3    O2 9996   2.561   0.507   0.738 -0.3648 -0.2490  0.0761
  676MPD2     C 9997   0.107   0.060  10.559 -0.6760 -0.1430  0.5125
  676MPD2    C1 9998   0.060   0.023  10.682 -0.5366 -0.9538  0.5488
  676MPD2    C2 9999   0.076   4.619  10.720 -0.6301  1.2095 -0.5319
  676MPD2    C310000   0.131   4.521  10.639  0.4236 -0.1177 -0.1661
  676MPD2    C410001   0.190   4.561  10.522  0.1524 -0.2538  0.6218
  676MPD2    C510002   0.176   4.689  10.483  0.1631 -0.1239  0.4354
  676MPD2     H10003   0.022   4.592  10.811  0.5938 -2.4534 -0.8867
  676MPD2    H110004   0.236   4.494  10.451 -0.5456 -0.0009 -0.0732
  676MPD2    H210005   0.105   0.163  10.525 -0.3013 -1.1998 -2.7059
  676MPD2    H310006   0.219   4.717  10.388 -1.6350 -0.4868 -0.4742
  676MPD2     N10007   0.127   4.384  10.668 -0.0445  0.2994  0.2314
  676MPD2    H510008   0.149   4.326  10.589 -1.6115  0.4475 -0.3133
  676MPD2    N110009   4.709   0.113  10.765 -0.1239  0.3999  0.1023
  676MPD2    H710010   4.653   0.074  10.840  0.5848 -0.1411  0.3508
  677TMC3    C110011   4.629   0.308  10.851 -0.4892 -0.5246  0.0897
  677TMC3    C210012   4.502   0.253  10.859  0.4918 -0.3858  0.6544
  677TMC3    C310013   4.432   0.273  10.975 -0.1246 -0.3209  0.3588
  677TMC3    C410014   4.671   0.405  10.940 -0.1968  0.2435  0.1821
  677TMC3    C510015   4.596   0.417  11.055  0.4400  0.3717  0.4621
  677TMC3    C610016   4.475   0.358  11.071  0.6030 -0.2039 -0.0161
  677TMC3     C10017   0.003   0.249  10.761  0.0227 -0.1406  0.2917
  677TMC3     O10018   0.084   0.325  10.707  0.1097 -0.3257  0.1807
  677TMC3     H10019   4.458   0.186  10.786  0.4190 -0.1096  0.4465
  677TMC3    H110020   0.054   0.430  10.928 -0.1293  0.6162  1.5285
  677TMC3    H210021   4.414   0.376  11.160 -1.5282  1.1646 -1.7548
  677TMC3    C710022   4.646   0.506  11.161 -0.3207 -0.2502  0.1025
  677TMC3    C810023   4.319   0.180  11.000 -0.1558  0.3202  0.4283
  677TMC3    O110024   4.569   0.516  11.257  0.0085  0.3049 -0.2497
  677TMC3    O210025   4.244   0.177  10.900 -0.1618  0.1602 -0.1356
  678MPD2     C10026   1.263   4.474   1.915 -0.0907 -0.0255  0.2066
  678MPD2    C110027   1.332   4.470   1.795  0.3805 -0.3904 -0.3034
  678MPD2    C210028   1.271   4.540   1.692  0.5941 -0.8341  0.7232
  678MPD2    C310029   1.154   4.615   1.716 -0.7468 -0.3674 -0.7044
  678MPD2    C410030   1.082   4.603   1.835 -0.3502 -0.3520  0.2588
  678MPD2    C510031   1.146   4.539   1.937 -0.5702  0.0887  0.1404
  678MPD2     H10032   1.316   4.526   1.595 -0.3431 -2.1610  0.4804
  678MPD2    H110033   0.989   4.655   1.855 -0.1227  0.0507  0.2589
  678MPD2    H210034   1.298   4.415   1.999  0.0321  1.1897  1.0081
  678MPD2    H310035   1.111   4.546   2.040  1.6603 -0.0887  0.9086
  678MPD2     N10036   1.100   4.674   1.602  0.2209  0.4164 -0.1418
  678MPD2    H510037   1.151   4.652   1.517  0.3877 -0.5887  0.2080
  678MPD2    N110038   1.449   4.404   1.772 -0.0699  0.2871 -0.2771
  678MPD2    H710039   1.463   4.389   1.673  1.8861 -0.6014  0.1425
  679TMC3    C110040   1.839   4.149   1.888  0.5763 -0.2427 -0.3137
  679TMC3    C210041   1.710   4.191   1.918  0.3616  0.0317 -0.3709
  679TMC3    C310042   1.649   4.277   1.829  0.0776 -0.9442 -0.1582
  679TMC3    C410043   1.912   4.201   1.792  0.5106  0.1316 -0.1896
  679TMC3    C510044   1.844   4.278   1.697 -0.1833 -0.1936  0.0305
  679TMC3    C610045   1.717   4.319   1.713 -0.2030 -0.1148 -0.6840
  679TMC3     C10046   1.881   4.024   1.949 -0.5869 -0.2050  0.6369
  679TMC3     O10047   2.000   3.999   1.971 -0.2059 -0.2900 -0.2032
  679TMC3     H10048   1.657   4.155   2.006 -0.2617 -0.5296 -0.9747
  679TMC3    H110049   2.009   4.155   1.773 -0.2034 -1.4689  0.0048
  679TMC3    H210050   1.681   4.386   1.636  1.3804  0.9138 -0.5473
  679TMC3    C710051   1.900   4.313   1.570  0.0090 -0.2718  0.1339
  679TMC3    C810052   1.520   4.331   1.869 -0.5430  0.3538  0.5480
  679TMC3    O110053   1.840   4.386   1.496  0.1895  0.0045 -0.0045
  679TMC3    O210054   1.500   4.334   1.989  0.4913 -0.3356 -0.1051
  680MPD2     C10055   2.701   3.184  14.007 -0.3469  0.5040 -0.5633
  680MPD2    C110056   2.568   3.146  13.994 -0.0736  0.2567  0.0326
  680MPD2    C210057   2.476   3.209  14.080  0.6965 -0.9233 -0.5095
  680MPD2    C310058   2.518   3.302  14.178  0.8470 -0.2806  0.0941
  680MPD2    C410059   2.654   3.338  14.185 -0.6246 -0.8401  0.7093
  680MPD2    C510060   2.744   3.285  14.095  0.1594 -0.2561 -0.5143
  680MPD2     H10061   2.371   3.197  14.056  0.0767 -1.6017  2.5090
  680MPD2    H110062   2.685   3.423  14.244 -1.0842  1.2006 -2.0197
  680MPD2    H210063   2.779   3.134  13.951 -0.2447  0.3654 -0.2979
  680MPD2    H310064   2.848   3.315  14.098  0.5350 -1.4652 -1.2750
  680MPD2     N10065   2.421   3.380  14.252  0.4362  0.3032  0.1002
  680MPD2    H510066   2.465   3.436  14.324 -0.4343  1.5832 -0.3731
  680MPD2    N110067   2.519   3.065  13.895  0.4034  0.0678  0.2545
  680MPD2    H710068   2.419   3.047  13.893  0.2493  0.8757  0.5173
  681TMC3    C110069   2.522   2.957  13.687 -0.0624 -0.7475  0.6757
  681TMC3    C210070   2.402   2.907  13.723  0.4777  0.3270 -1.0960
  681TMC3    C310071   2.325   2.849  13.626  0.2547 -0.3731  0.1721
  681TMC3    C410072   2.564   2.951  13.557  0.1928 -0.6129  0.8028
  681TMC3    C510073   2.485   2.901  13.460  0.0490 -0.4497  0.2480
  681TMC3    C610074   2.371   2.830  13.495  0.5674  0.6240  0.0770
  681TMC3     C10075   2.603   3.016  13.793 -0.5672  0.2659 -0.1676
  681TMC3     O10076   2.717   3.039  13.755 -0.4527 -0.0447 -0.1411
  681TMC3     H10077   2.381   2.889  13.828  0.2824  1.0300 -1.0144
  681TMC3    H110078   2.663   2.989  13.533  0.2477 -0.9225  0.5543
  681TMC3    H210079   2.318   2.774  13.418 -0.3853  1.4617  0.1180
  681TMC3    C710080   2.543   2.879  13.328 -0.5153 -0.2652 -0.0975
  681TMC3    C810081   2.206   2.768  13.670  0.4466 -0.1620 -0.5756
  681TMC3    O110082   2.666   2.889  13.320  0.1961  0.0232 -0.1041
  681TMC3    O210083   2.150   2.697  13.590  0.5553 -0.2597  0.5460
  682MPD2     C10084   3.831   4.623  10.373  1.0543  0.4823  0.2669
  682MPD2    C110085   3.840   4.507  10.452  0.3609  0.8685 -0.1588
  682MPD2    C210086   3.793   4.511  10.579 -0.6324  0.6848  0.3990
  682MPD2    C310087   3.730   4.626  10.628 -0.0014  0.2945 -0.4428
  682MPD2    C410088   3.745   0.028  10.558 -0.9952 -0.1553 -0.0486
  682MPD2    C510089   3.790   0.018  10.432 -0.3486 -0.2584 -0.5822
  682MPD2     H10090   3.788   4.414  10.626 -0.3920 -0.8763 -2.7705
  682MPD2    H110091   3.731   0.128  10.598 -2.3319 -0.8815  1.3135
  682MPD2    H210092   3.877   4.623  10.275  0.3285  2.4216 -0.0889
  682MPD2    H310093   3.789   0.108  10.372 -0.6542 -0.5661 -1.0342
  682MPD2     N10094   3.683   4.623  10.761  0.4258  0.4263  0.4503
  682MPD2    H510095   3.647   4.711  10.797  1.3222  0.7949  0.4615
  682MPD2    N110096   3.890   4.382  10.405  0.2194  0.0397  0.0692
  682MPD2    H710097   3.876   4.298  10.460  3.2055 -1.5661 -1.6688
  683TMC3    C110098   3.661   4.688  11.163  0.7194  0.5378  0.4760
  683TMC3    C210099   3.634   4.586  11.246  0.1282 -0.1041  0.3006
  683TMC3    C310100   3.597   4.467  11.193  0.8334  0.1388 -0.2196
  683TMC3    C410101   3.656   4.675  11.028  0.3203 -0.5223  0.6400
  683TMC3    C510102   3.617   4.551  10.976  0.1137 -0.2077  0.6950
  683TMC3    C610103   3.581   4.445  11.062 -0.0770  0.7050  0.6746
  683TMC3     C10104   3.713   0.090  11.219  0.3109 -0.3391 -0.7520
  683TMC3     O10105   3.669   0.120  11.329  0.5378  0.8823  0.2745
  683TMC3     H10106   3.660   4.600  11.351  2.4107 -0.4555 -0.2030
  683TMC3    H110107   3.688   0.034  10.962 -0.6986 -0.4519  0.2257
  683TMC3    H210108   3.562   4.348  11.018 -2.6863 -0.3108  4.0225
  683TMC3    C710109   3.652   4.515  10.838  0.3632 -0.1394  0.3613
  683TMC3    C810110   3.587   4.364  11.294 -0.5755 -0.1580 -0.4333
  683TMC3    O110111   3.659   4.396  10.808 -0.4040 -0.2385  0.2075
  683TMC3    O210112   3.644   4.381  11.397 -0.6391  0.1893 -0.1223
  684MPD2     C10113   1.449   0.500  16.211  0.4633  0.5599  0.7185
  684MPD2    C110114   1.581   0.460  16.232 -0.9761 -0.5893 -0.0263
  684MPD2    C210115   1.674   0.553  16.205  0.3237  0.1745  0.5472
  684MPD2    C310116   1.645   0.679  16.167 -0.3924 -0.2745 -0.3257
  684MPD2    C410117   1.519   0.717  16.141 -0.0025 -0.4123 -0.1820
  684MPD2    C510118   1.419   0.629  16.163  0.5314  0.0801 -0.6542
  684MPD2     H10119   1.777   0.520  16.213  0.4072 -0.0112 -1.3376
  684MPD2    H110120   1.499   0.815  16.099 -0.0435 -1.1203 -1.8171
  684MPD2    H210121   1.367   0.430  16.218  0.1689  0.9676  1.3975
  684MPD2    H310122   1.315   0.661  16.163  1.0361  1.7165  3.2352
  684MPD2     N10123   1.752   0.771  16.136 -0.2059  0.2102 -0.8451
  684MPD2    H510124   1.733   0.848  16.073 -1.9940  1.1284  0.8121
  684MPD2    N110125   1.631   0.329  16.240  0.0056 -1.1068 -0.0832
  684MPD2    H710126   1.728   0.300  16.246 -0.3964 -2.5757 -0.6033
  685TMC3    C110127   1.627   0.120  16.145  0.7787  0.3267  0.3467
  685TMC3    C210128   1.571   0.046  16.041  0.2605  0.1931  0.0708
  685TMC3    C310129   1.651   0.013  15.940  0.0101  0.0787  0.0654
  685TMC3    C410130   1.762   0.126  16.165  0.0790  0.8815  0.4487
  685TMC3    C510131   1.841   0.069  16.067  0.0970 -0.2772  0.6458
  685TMC3    C610132   1.789   0.021  15.943  0.3880 -0.9442 -0.2962
  685TMC3     C10133   1.550   0.224  16.209  0.3820  0.1995 -0.4022
  685TMC3     O10134   1.432   0.211  16.197 -0.2315  0.0421  0.5440
  685TMC3     H10135   1.465   0.050  16.017  0.3550  1.7054 -0.0951
  685TMC3    H110136   1.801   0.170  16.256  0.2773 -0.5989  1.0693
  685TMC3    H210137   1.846   4.680  15.875 -0.9539 -0.3466 -1.9550
  685TMC3    C710138   1.970   0.019  16.113  0.5862  0.3069  0.6467
  685TMC3    C810139   1.598   4.627  15.848 -0.2468 -0.4490  0.0465
  685TMC3    O110140   1.990   0.020  16.232 -0.0062  0.4782 -0.1449
  685TMC3    O210141   1.635   4.632  15.732  0.4665  0.3131 -0.1425
  686MPD2     C10142   3.342   4.615  15.646  0.0693  0.4270  0.2348
  686MPD2    C110143   3.397   4.499  15.705 -0.9910 -0.8339  0.2252
  686MPD2    C210144   3.454   4.402  15.630  0.3422  0.4329 -0.5513
  686MPD2    C310145   3.437   4.408  15.490 -0.3032 -0.3004  0.0256
  686MPD2    C410146   3.387   4.519  15.431 -0.6049  0.3554 -0.2712
  686MPD2    C510147   3.346   4.624  15.508 -0.6079 -0.0664  0.1690
  686MPD2     H10148   3.498   4.315  15.678 -2.7247 -1.0084 -0.3348
  686MPD2    H110149   3.384   4.539  15.325  0.7020 -0.9367 -0.5392
  686MPD2    H210150   3.289   4.692  15.701 -0.0646  1.2597 -1.0662
  686MPD2    H310151   3.304   4.714  15.466 -1.0446  1.8868  4.7823
  686MPD2     N10152   3.459   4.297  15.404 -0.1225 -0.1414  0.1835
  686MPD2    H510153   3.481   4.320  15.308  1.5739 -0.2268  0.5470
  686MPD2    N110154   3.381   4.482  15.840 -0.0984 -0.7348 -0.5349
  686MPD2    H710155   3.321   4.553  15.880  0.9004 -0.3276  0.2433
  687TMC3    C110156   3.416   4.118  15.557  0.6179  0.3800 -0.2012
  687TMC3    C210157   3.295   4.159  15.600 -0.0404 -0.5438 -0.2090
  687TMC3    C310158   3.247   4.114  15.719  0.5078  1.1423  0.6492
  687TMC3    C410159   3.486   4.030  15.631  0.0833  0.2969 -0.0037
  687TMC3    C510160   3.430   3.987  15.747 -0.0049  0.0844 -0.0147
  687TMC3    C610161   3.310   4.030  15.799  0.1984 -0.7239  0.1652
  687TMC3     C10162   3.490   4.172  15.447 -0.5502  0.0651 -0.2922
  687TMC3     O10163   3.552   4.094  15.378 -0.2837 -0.4792 -0.3396
  687TMC3     H10164   3.242   4.228  15.535 -0.6338 -0.5807  0.2360
  687TMC3    H110165   3.579   3.982  15.604  0.1937 -0.4834  1.7306
  687TMC3    H210166   3.270   3.997  15.895  0.9517 -1.7753  0.1188
  687TMC3    C710167   3.530   3.924  15.839  0.0306  0.5544  0.4585
  687TMC3    C810168   3.128   4.183  15.763  0.0470 -0.0256  0.7975
  687TMC3    O110169   3.567   3.810  15.814 -0.6478  0.4521 -0.1846
  687TMC3    O210170   3.054   4.122  15.843  0.1633 -0.1847 -0.0135
  688MPD2     C10171   2.731   3.073  17.601  0.7535 -0.1995 -0.0536
  688MPD2    C110172   2.742   2.938  17.618  0.1531 -0.8326  0.0403
  688MPD2    C210173   2.812   2.868  17.513  1.3033 -0.1025  0.0460
  688MPD2    C310174   2.864   2.944  17.405 -0.5719  0.0013 -0.0632
  688MPD2    C410175   2.845   3.078  17.403 -0.3569 -0.5527  0.2372
  688MPD2    C510176   2.777   3.144  17.495 -0.0081 -0.5502 -0.3896
  688MPD2     H10177   2.822   2.760  17.508  1.6748 -0.1519  1.7283
  688MPD2    H110178   2.881   3.142  17.322  0.7977 -3.3624 -1.4883
  688MPD2    H210179   2.682   3.144  17.667  1.3204 -0.7420  0.9308
  688MPD2    H310180   2.775   3.252  17.490 -2.2206 -0.7473 -3.2914
  688MPD2     N10181   2.947   2.892  17.305 -0.1110  0.4057 -0.2797
  688MPD2    H510182   2.974   2.950  17.226  1.3057 -1.0051 -0.8311
  688MPD2    N110183   2.688   2.872   0.043 -0.8300  0.2611 -0.7919
  688MPD2    H710184   2.694   2.771   0.044  3.5586  0.5291 -0.7430
  689TMC3    C110185   2.585   2.846   0.260  0.0172  0.5394 -0.0773
  689TMC3    C210186   2.564   2.909   0.380 -0.1912  0.2084 -0.5718
  689TMC3    C310187   2.498   2.831   0.478  0.2818  0.3600  1.0272
  689TMC3    C410188   2.551   2.720   0.229  0.9441  0.4033  0.0065
  689TMC3    C510189   2.500   2.644   0.328 -0.0252  0.2557  0.1290
  689TMC3    C610190   2.470   2.699   0.454 -0.0905 -0.0985  0.5156
  689TMC3     C10191   2.631   2.935   0.153  0.5129 -0.0329 -0.4185
  689TMC3     O10192   2.630   3.055   0.178 -0.1146  0.1093  0.3116
  689TMC3     H10193   2.592   3.013   0.389  0.5867  0.0774 -1.5871
  689TMC3    H110194   2.560   2.674   0.131 -0.8577  0.5502 -0.2361
  689TMC3    H210195   2.414   2.642   0.527 -1.3694  0.6374  0.1208
  689TMC3    C710196   2.471   2.498   0.321  0.4452 -0.3163  0.5567
  689TMC3    C810197   2.464   2.880   0.612 -0.1814 -0.5263  0.0621
  689TMC3    O110198   2.465   2.447   0.435 -0.8433  0.1763  0.4535
  689TMC3    O210199   2.427   2.802   0.693  0.1828  0.0775  0.5619
  690MPD2     C10200   0.074   0.270  15.751  0.0243  0.4085 -0.4805
  690MPD2    C110201   0.009   0.274  15.628 -0.2566  0.2465 -0.2343
  690MPD2    C210202   0.079   0.336  15.525 -0.0271  0.5412  0.2539
  690MPD2    C310203   0.196   0.413  15.550 -0.1126  0.0181 -0.4084
  690MPD2    C410204   0.249   0.422  15.672  0.5136  0.1682 -0.2539
  690MPD2    C510205   0.184   0.355  15.772  0.1315  0.3211  0.4565
  690MPD2     H10206   0.037   0.339  15.425 -0.3407 -0.5162  0.3606
  690MPD2    H110207   0.347   0.459  15.700 -0.1358  0.4048  1.7172
  690MPD2    H210208   0.048   0.196  15.826  1.1402  0.2760 -0.2197
  690MPD2    H310209   0.229   0.342  15.870 -0.8068  2.1979  1.1476
  690MPD2     N10210   0.256   0.477  15.440 -0.5483  0.1378 -0.1139
  690MPD2    H510211   0.206   0.472  15.352 -1.7372  2.0282  0.4482
  690MPD2    N110212   4.609   0.210  15.594 -0.4295  0.6748 -0.0194
  690MPD2    H710213   4.572   0.209  15.500 -1.8549  1.6923  0.5279
  691TMC3    C110214   4.421   0.078  15.635 -0.6339 -0.7304 -0.2464
  691TMC3    C210215   4.298   0.072  15.696 -0.1821  0.8258  1.0697
  691TMC3    C310216   4.205   4.700  15.657  0.0975  0.4739  0.1548
  691TMC3    C410217   4.450   4.702  15.547 -0.3536 -0.7432  0.0263
  691TMC3    C510218   4.364   4.603  15.519 -0.5497 -0.4535  0.1598
  691TMC3    C610219   4.232   4.602  15.568 -0.1728 -0.5655  0.7388
  691TMC3     C10220   4.527   0.156  15.693  0.0960 -0.1763 -0.5960
  691TMC3     O10221   4.505   0.192  15.806 -0.8316  0.4841 -1.0792
  691TMC3     H10222   4.271   0.145  15.772  2.1566  1.7873  0.9933
  691TMC3    H110223   4.551   4.697  15.507 -0.3673  1.7867 -0.3262
  691TMC3    H210224   4.161   4.539  15.516  0.7969 -0.2727 -0.9745
  691TMC3    C710225   4.417   4.501  15.430 -0.4545  0.3939  0.5907
  691TMC3    C810226   4.059   0.013  15.671 -0.7902  0.2276  0.5574
  691TMC3    O110227   4.519   4.519  15.365 -0.2798  0.2872  0.3790
  691TMC3    O210228   3.987   4.673  15.599  0.3331 -0.2331  0.2665
  692TMC3    C110229   1.455   1.337  15.520  0.3671  0.2222  0.7203
  692TMC3    C210230   1.565   1.394  15.582 -0.5993  0.1533 -0.0022
  692TMC3    C310231   1.688   1.378  15.518 -0.3076 -0.2332 -0.0311
  692TMC3    C410232   1.476   1.248  15.429  0.4510  0.1591 -0.2893
  692TMC3    C510233   1.602   1.219  15.382  1.0784  0.1248  0.4567
  692TMC3    C610234   1.706   1.311  15.403  0.6358 -0.4062  0.7674
  692TMC3     C10235   1.339   1.336  15.608 -0.1597 -0.1048  0.1688
  692TMC3     O10236   1.363   1.370  15.723  0.2232  0.1042  0.3857
  692TMC3     H10237   1.559   1.470  15.659  0.7695  1.2453 -0.9857
  692TMC3    H110238   1.398   1.176  15.407  0.2311 -0.4284  2.4673
  692TMC3    H210239   1.803   1.285  15.364  0.7876  3.1035 -1.2165
  692TMC3    C710240   1.639   1.087  15.417 -0.1170 -0.8749  0.2549
  692TMC3    C810241   1.801   1.364  15.613  0.0373 -0.2507  0.1311
  692TMC3    O110242   1.587   1.046  15.520 -0.0859  0.4347  0.9158
  692TMC3    O210243   1.913   1.361  15.562 -0.0231  0.2737 -0.2089
  693MPD2     C10244   1.158   3.854  10.699 -0.3221 -0.4831  0.0691
  693MPD2    C110245   1.135   3.722  10.683 -0.5677  0.3469  0.0524
  693MPD2    C210246   1.225   3.645  10.607 -0.2454 -0.6341  0.3277
  693MPD2    C310247   1.346   3.698  10.576  0.5376  0.2753 -0.6645
  693MPD2    C410248   1.368   3.835  10.597  0.1758 -0.5325 -0.3522
  693MPD2    C510249   1.272   3.917  10.653  0.5195  0.6417  0.1789
  693MPD2     H10250   1.216   3.537  10.597  0.8038 -0.5867 -1.2197
  693MPD2    H110251   1.461   3.883  10.568  1.3217 -1.2879  2.0750
  693MPD2    H210252   1.092   3.903  10.770  0.4842  1.5220 -0.5468
  693MPD2    H310253   1.291   4.021  10.676  0.1846  0.7246  0.0737
  693MPD2     N10254   1.457   3.630  10.519  0.2025  0.0610  0.5354
  693MPD2    H510255   1.538   3.687  10.497  0.9026 -1.2558 -0.3260
  693MPD2    N110256   1.023   3.665  10.743  0.1203 -0.2778  0.5148
  693MPD2    H710257   0.972   3.719  10.813 -0.3851  0.4808 -0.4406
  694TMC3    C110258   0.852   3.513  10.782 -0.3034 -0.1913  0.4704
  694TMC3    C210259   0.766   3.448  10.709  0.2416  0.3989  0.0559
  694TMC3    C310260   0.680   3.363  10.770 -0.2259  0.2178 -0.1672
  694TMC3    C410261   0.865   3.490  10.914 -0.9677  0.9451 -0.4378
  694TMC3    C510262   0.772   3.414  10.980 -0.5376  0.4842 -0.3925
  694TMC3    C610263   0.675   3.348  10.909  0.3852  0.5465  0.0617
  694TMC3     C10264   0.974   3.542  10.714  0.3231 -0.7359 -0.2225
  694TMC3     O10265   1.000   3.470  10.617  0.1550  0.3257 -0.6910
  694TMC3     H10266   0.776   3.466  10.603 -1.2640 -1.5295 -0.4051
  694TMC3    H110267   0.933   3.542  10.981 -0.8862  0.1047  0.1305
  694TMC3    H210268   0.609   3.276  10.956 -1.1321  0.8291 -1.6647
  694TMC3    C710269   0.774   3.415  11.122  0.3576  0.2929  0.2146
  694TMC3    C810270   0.575   3.290  10.696  0.1440 -1.2125  0.6248
  694TMC3    O110271   0.887   3.429  11.168 -0.0662 -0.2759 -0.0584
  694TMC3    O210272   0.483   3.234  10.752  0.0708  0.2158 -0.0988
  695MPD2     C10273   2.091   0.928  13.403 -0.7530  0.3974 -0.2099
  695MPD2    C110274   2.048   0.982  13.524 -0.5977  0.4634 -0.1440
  695MPD2    C210275   1.920   1.029  13.536 -0.2902 -0.0640 -0.3995
  695MPD2    C310276   1.829   1.014  13.436  0.3011 -0.6339 -0.7175
  695MPD2    C410277   1.861   0.944  13.317  0.2905  1.0934 -0.0040
  695MPD2    C510278   1.993   0.904  13.304 -0.5619  0.4123 -0.2141
  695MPD2     H10279   1.888   1.068  13.632 -0.8830  1.6263 -1.2911
  695MPD2    H110280   1.800   0.924  13.230 -0.1398  1.4660  0.2125
  695MPD2    H210281   2.190   0.894  13.378  0.8679  1.4573  4.7452
  695MPD2    H310282   2.025   0.858  13.211 -2.4784 -1.9782  0.2880
  695MPD2     N10283   1.700   1.051  13.465 -0.0280 -0.3035 -0.5588
  695MPD2    H510284   1.682   1.080  13.561  0.5870 -2.7861  0.3117
  695MPD2    N110285   2.134   1.007  13.635  0.5094  0.1208  0.3040
  695MPD2    H710286   2.093   1.040  13.722 -0.3389 -0.6685  0.2177
  696TMC3    C110287   1.475   1.080  13.457  0.1997  0.0406 -0.6507
  696TMC3    C210288   1.446   1.056  13.590  0.1254 -0.4512 -0.0831
  696TMC3    C310289   1.328   1.106  13.641  0.0658 -0.4205  0.0163
  696TMC3    C410290   1.386   1.138  13.372  0.3736  0.8666 -0.2745
  696TMC3    C510291   1.270   1.191  13.427  0.2350  0.3848 -0.7396
  696TMC3    C610292   1.245   1.174  13.561 -0.0101 -0.6139  0.3016
  696TMC3     C10293   1.591   1.039  13.382 -0.4443  0.0852  0.8354
  696TMC3     O10294   1.581   1.000  13.266 -0.1065 -0.1388  0.2601
  696TMC3     H10295   1.524   1.022  13.657  0.2237 -0.2800 -0.1103
  696TMC3    H110296   1.401   1.153  13.266  1.0455 -2.0198 -0.5815
  696TMC3    H210297   1.147   1.199  13.602  0.1143 -2.3140  1.6447
  696TMC3    C710298   1.241   1.321  13.389  0.1087 -0.5552 -0.5448
  696TMC3    C810299   1.348   1.189  13.753 -0.3516  0.3266  0.0589
  696TMC3    O110300   1.262   1.345  13.272 -1.0922 -0.1515 -0.0303
  696TMC3    O210301   1.331   1.307  13.728 -0.7140 -0.2373 -0.1530
  697MPD2     C10302   0.749   2.876  15.540  0.5057 -0.3113 -0.0218
  697MPD2    C110303   0.806   2.827  15.429  0.5108 -0.2094 -0.0727
  697MPD2    C210304   0.868   2.910  15.344 -0.1828  0.4691  0.2938
  697MPD2    C310305   0.886   3.041  15.381 -0.1216 -0.2120 -0.6114
  697MPD2    C410306   0.821   3.089  15.495  0.5436  0.4837  0.6602
  697MPD2    C510307   0.751   3.007  15.576  0.0045 -0.0317 -0.5138
  697MPD2     H10308   0.911   2.880  15.250 -2.3459  3.1776 -1.5573
  697MPD2    H110309   0.836   3.190  15.533 -1.2466  0.3915  1.6214
  697MPD2    H210310   0.699   2.809  15.609  0.7623 -2.4407 -1.9239
  697MPD2    H310311   0.698   3.032  15.667  1.4474 -1.7979  0.8221
  697MPD2     N10312   0.955   3.132  15.287  0.8332 -0.2149 -1.0766
  697MPD2    H510313   0.988   3.090  15.201  1.3259 -0.6202 -0.6878
  697MPD2    N110314   0.814   2.688  15.398  0.2860 -0.1682 -0.7190
  697MPD2    H710315   0.866   2.666  15.314  1.5915  0.1917 -0.0094
  698TMC3    C110316   1.081   3.327  15.226  0.2943 -0.1208 -0.0198
  698TMC3    C210317   1.172   3.419  15.275 -0.6574 -0.2445 -0.1825
  698TMC3    C310318   1.231   3.483  15.173 -0.5857  0.4762  0.2314
  698TMC3    C410319   1.031   3.317  15.098 -0.3433  0.0648 -0.2894
  698TMC3    C510320   1.107   3.387  15.004 -0.9327 -0.4212 -0.4778
  698TMC3    C610321   1.201   3.475  15.042  0.2678 -0.1002 -0.2154
  698TMC3     C10322   1.001   3.257  15.323 -0.9107  0.3402  0.3027
  698TMC3     O10323   1.013   3.306  15.434  0.3455  0.5363  0.0120
  698TMC3     H10324   1.220   3.408  15.371 -1.6089 -0.2190  0.2878
  698TMC3    H110325   0.952   3.249  15.068 -1.4708  1.8383 -1.2768
  698TMC3    H210326   1.261   3.528  14.969 -2.7021 -0.0927 -2.6807
  698TMC3    C710327   1.098   3.352  14.865  0.8164 -0.4227  0.3469
  698TMC3    C810328   1.329   3.589  15.214  0.4015 -0.3889  0.2832
  698TMC3    O110329   0.990   3.312  14.822  0.2097 -0.0291 -0.0074
  698TMC3    O210330   1.418   3.557  15.290  0.2214 -0.1442  0.1869
  699TMC3    C110331   1.359   0.971  12.763 -0.6328  0.1346 -0.4401
  699TMC3    C210332   1.386   0.907  12.884 -0.0599  1.0811 -0.1377
  699TMC3    C310333   1.282   0.849  12.949  0.5160 -0.1229 -0.4910
  699TMC3    C410334   1.232   1.004  12.727 -0.1446 -0.1355 -0.0523
  699TMC3    C510335   1.131   0.947  12.804  0.1278  0.5595 -0.7307
  699TMC3    C610336   1.153   0.874  12.915 -0.2113 -0.0466 -0.2733
  699TMC3     C10337   1.459   0.997  12.658 -0.1501 -0.1604  0.2326
  699TMC3     O10338   1.427   1.099  12.598 -0.4952 -0.2665  0.1529
  699TMC3     H10339   1.486   0.867  12.893 -0.9457 -0.9896  0.6840
  699TMC3    H110340   1.219   1.046  12.628 -1.2414  2.4069  1.1846
  699TMC3    H210341   1.077   0.844  12.986  0.4961  1.8234  1.2675
  699TMC3    C710342   1.001   0.946  12.746 -0.0399  0.0909  0.6617
  699TMC3    C810343   1.303   0.754  13.057 -0.6704 -0.2023 -0.3152
  699TMC3    O110344   0.966   1.046  12.684 -0.2815 -0.3486 -0.0259
  699TMC3    O210345   1.214   0.675  13.083 -0.0961 -0.5868 -0.5236
  700TMC3    C110346   0.374   3.310  17.133  0.8559 -0.9916  0.4095
  700TMC3    C210347   0.405   3.178  17.135  0.6613 -0.0123  0.2271
  700TMC3    C310348   0.466   3.135  17.254 -0.4742  0.9067  0.7865
  700TMC3    C410349   0.399   3.394  17.237  0.8382 -0.0796 -0.1875
  700TMC3    C510350   0.471   3.351  17.345 -0.4458 -0.7414 -0.3013
  700TMC3    C610351   0.499   3.220  17.359  0.3752  0.2346  0.5795
  700TMC3     C10352   0.294   3.358  17.020 -0.0738  0.4283 -0.1722
  700TMC3     O10353   0.252   3.267  16.951 -0.0169 -0.0946 -0.0593
  700TMC3     H10354   0.390   3.116  17.048 -0.8785 -1.0968  1.2882
  700TMC3    H110355   0.350   3.490  17.239 -0.6537 -0.8035 -2.2923
  700TMC3    H210356   0.560   3.185  17.441  1.1288 -1.6841 -0.8062
  700TMC3    C710357   0.506   3.451  17.450 -0.0881  0.8407  0.4151
  700TMC3    C810358   0.569   3.034  17.225  0.8925  0.2966  0.3509
  700TMC3    O110359   0.436   3.551  17.447  0.2740 -0.5995 -0.4195
  700TMC3    O210360   0.679   3.047  17.281  0.2439  0.0194 -0.9191
  701TMC3    C110361   0.841   1.941  15.035  0.6401  0.3402 -0.4853
  701TMC3    C210362   0.844   1.899  14.903 -0.3971  0.7316 -1.1066
  701TMC3    C310363   0.813   1.990  14.805  0.1415 -0.5274 -0.3714
  701TMC3    C410364   0.797   2.068  15.064  0.5696 -0.8406  0.8454
  701TMC3    C510365   0.751   2.148  14.963 -0.0173  0.0202  0.1585
  701TMC3    C610366   0.766   2.115  14.834  0.5492  0.3741 -0.2130
  701TMC3     C10367   0.847   1.853  15.153  0.4587  0.1015 -0.5355
  701TMC3     O10368   0.814   1.905  15.261  0.0997 -0.4053 -0.8047
  701TMC3     H10369   0.848   1.792  14.888  1.4558  0.6854 -0.2845
  701TMC3    H110370   0.806   2.105  15.165 -1.2293 -0.4411  0.8546
  701TMC3    H210371   0.714   2.175  14.760  1.2770  1.8195  0.4705
  701TMC3    C710372   0.677   2.272  14.986  0.2192 -0.6224  0.7849
  701TMC3    C810373   0.749   1.928  14.692  0.1338 -0.3017 -0.3375
  701TMC3    O110374   0.668   2.352  14.894 -0.2275  0.0573  0.0511
  701TMC3    O210375   0.830   1.880  14.613 -0.1271 -0.1218 -0.5962
  702MPD2     C10376   4.677   4.022  10.252 -0.2958  0.5174 -0.7076
  702MPD2    C110377   0.072   4.062  10.308  0.2794 -0.5451 -0.3188
  702MPD2    C210378   0.137   4.167  10.257 -0.0992  0.2296 -0.7500
  702MPD2    C310379   0.093   4.239  10.148  0.1673 -0.1493 -0.0636
  702MPD2    C410380   4.696   4.199  10.094 -0.4274  0.0796 -0.4178
  702MPD2    C510381   4.636   4.086  10.141 -0.3128 -0.5020 -0.8195
  702MPD2     H10382   0.233   4.181  10.307 -0.1382  1.1175 -0.9205
  702MPD2    H110383   4.645   4.246  10.010 -1.1535 -1.6489 -0.9449
  702MPD2    H210384   4.623   3.939  10.298  0.8239 -0.4991 -1.2310
  702MPD2    H310385   4.548   4.045  10.092 -0.1973  0.0586 -1.4935
  702MPD2     N10386   0.158   4.349  10.095  0.5033 -0.2973  0.0043
  702MPD2    H510387   0.110   4.399  10.021  0.0350  0.0831  0.5677
  702MPD2    N110388   0.116   4.007  10.431 -0.1594  0.3970 -0.1459
  702MPD2    H710389   0.214   4.028  10.447 -0.6108  0.2539  2.8305
  703TMC3    C110390   0.303   4.525  10.074 -0.5380 -0.0875  0.6177
  703TMC3    C210391   0.197   4.612  10.079 -0.0976 -0.4798 -0.1439
  703TMC3    C310392   0.227   0.022  10.065  0.1512 -0.1146  0.3078
  703TMC3    C410393   0.431   4.558  10.046 -0.4531 -0.0912 -0.5825
  703TMC3    C510394   0.451   4.691  10.028 -0.3104  0.4180 -0.0029
  703TMC3    C610395   0.354   0.063  10.031  0.3479 -0.4173  0.0300
  703TMC3     C10396   0.283   4.391  10.125  0.1263 -0.0454 -0.5294
  703TMC3     O10397   0.372   4.334  10.191 -0.3420  0.4411 -0.2610
  703TMC3     H10398   0.102   4.585  10.124  0.2792  2.0378  2.2209
  703TMC3    H110399   0.508   4.484  10.034  0.1880  0.4348  0.2652
  703TMC3    H210400   0.380   0.168  10.017  0.0899 -0.3839 -0.1844
  703TMC3    C710401   0.582   0.010   9.984  0.1991  0.3338 -0.0298
  703TMC3    C810402   0.140   0.126  10.125 -1.2466  0.2108  0.1580
  703TMC3    O110403   0.592   0.114   9.925  0.4210 -0.2455 -0.2960
  703TMC3    O210404   0.179   0.239  10.099 -0.0125  0.7474  0.1629
  704TMC3    C110405   2.756   2.508  12.327  0.4440 -0.4305 -0.0010
  704TMC3    C210406   2.879   2.524  12.276 -0.1934 -0.2454  0.7127
  704TMC3    C310407   2.965   2.422  12.280  0.1878 -0.3562  0.0373
  704TMC3    C410408   2.718   2.387  12.378 -0.4916  0.3431  0.0111
  704TMC3    C510409   2.799   2.281  12.369  0.0321  0.5983 -0.6447
  704TMC3    C610410   2.924   2.298  12.315 -0.3431 -0.0930  0.4132
  704TMC3     C10411   2.647   2.558  12.236 -0.1576 -0.1273 -0.1853
  704TMC3     O10412   2.534   2.545  12.281 -0.0954  0.0147 -0.0780
  704TMC3     H10413   2.911   2.618  12.232  1.1610 -0.3056  1.5793
  704TMC3    H110414   2.624   2.377  12.430 -1.8753 -0.5522 -2.6380
  704TMC3    H210415   2.991   2.220  12.280 -1.0491 -0.0765 -0.9934
  704TMC3    C710416   2.734   2.166  12.313 -0.1040  0.4754 -0.1907
  704TMC3    C810417   3.078   2.422  12.191 -0.0380 -0.3929  0.2637
  704TMC3    O110418   2.800   2.090  12.247  0.5638  0.3302  0.3774
  704TMC3    O210419   3.054   2.452  12.074 -0.1479  0.6406 -0.5147
  705MPD2     C10420   2.553   0.873  16.972 -0.7103 -0.2044 -0.2002
  705MPD2    C110421   2.456   0.893  16.875  0.0499  1.0674  0.2529
  705MPD2    C210422   2.322   0.902  16.913 -0.0569  0.8086  0.1163
  705MPD2    C310423   2.280   0.909  17.044 -0.2859 -0.3292  0.4932
  705MPD2    C410424   2.379   0.890  17.143 -0.0938  0.0601 -0.2451
  705MPD2    C510425   2.511   0.871  17.101  0.1990 -0.2742 -0.2558
  705MPD2     H10426   2.248   0.910  16.834  0.3779 -0.2173 -0.4025
  705MPD2    H110427   2.371   0.891  17.251  1.6422  2.6071 -0.1444
  705MPD2    H210428   2.659   0.875  16.952 -0.7641  1.2172 -0.3586
  705MPD2    H310429   2.593   0.882  17.171  0.5938 -3.4678 -0.2037
  705MPD2     N10430   2.148   0.935  17.086  0.3223 -0.5470  0.2500
  705MPD2    H510431   2.131   0.938  17.186 -0.4395  0.9877  0.0772
  705MPD2    N110432   2.491   0.910  16.736 -0.0323  0.5668 -0.1953
  705MPD2    H710433   2.410   0.930  16.678 -0.8102  0.8058  0.9614
  706TMC3    C110434   2.712   0.886  16.326 -0.1021 -0.4626 -0.2411
  706TMC3    C210435   2.644   0.990  16.272 -0.4212 -0.1531  0.0896
  706TMC3    C310436   2.556   1.055  16.355 -0.7356 -0.2302  0.0507
  706TMC3    C410437   2.696   0.846  16.457  0.8604  0.4474 -0.0962
  706TMC3    C510438   2.606   0.921  16.534  0.0578  0.1739  0.6718
  706TMC3    C610439   2.538   1.029  16.490  0.0640  0.1497 -0.5664
  706TMC3     C10440   2.831   0.830  16.260 -0.0254  0.7003  0.7879
  706TMC3     O10441   2.922   0.780  16.327  0.5359  0.2093  0.0023
  706TMC3     H10442   2.643   1.024  16.169 -0.7629  0.2127  0.2140
  706TMC3    H110443   2.751   0.763  16.500 -0.4719 -0.1244  0.4904
  706TMC3    H210444   2.484   1.083  16.566  0.8297  0.2148 -0.0683
  706TMC3    C710445   2.611   0.896  16.676 -0.4858 -0.3993 -0.1616
  706TMC3    C810446   2.477   1.163  16.297  0.1134  0.1586  0.0176
  706TMC3    O110447   2.711   0.837  16.718 -0.0435  0.0166  0.1463
  706TMC3    O210448   2.498   1.210  16.186 -0.0804 -0.4073 -0.7607
  707TMC3    C110449   4.202   0.366   1.399 -1.6003  0.2186  0.1525
  707TMC3    C210450   4.161   0.237   1.423 -0.2434  0.2423 -0.1927
  707TMC3    C310451   4.048   0.217   1.494 -0.5943  0.8720  0.7091
  707TMC3    C410452   4.137   0.480   1.449 -0.0980  0.4133 -1.0587
  707TMC3    C510453   4.013   0.446   1.504  0.0826  0.1112  0.7956
  707TMC3    C610454   3.969   0.323   1.535 -0.0511 -0.0032  0.0587
  707TMC3     C10455   4.332   0.385   1.348 -0.4445  0.0906 -0.2790
  707TMC3     O10456   4.420   0.310   1.391 -0.3531 -0.1706 -0.2870
  707TMC3     H10457   4.210   0.156   1.371 -2.1954 -1.7988  1.1433
  707TMC3    H110458   4.184   0.577   1.440 -1.4464  1.2071  0.4296
  707TMC3    H210459   3.885   0.313   1.603  0.0463 -0.7301  0.0794
  707TMC3    C710460   3.934   0.563   1.537 -0.0971  0.0789  0.2885
  707TMC3    C810461   3.989   0.087   1.496 -0.1125  0.1346 -0.4752
  707TMC3    O110462   3.816   0.556   1.575  0.2187  0.0537 -0.5543
  707TMC3    O210463   3.877   0.073   1.539  0.8288 -0.4947  0.0839
  708MPD2     C10464   0.465   4.491  13.645 -0.3321  0.1450 -0.7971
  708MPD2    C110465   0.395   4.411  13.728 -0.0347 -0.2007  0.6793
  708MPD2    C210466   0.469   4.363  13.834  1.0477 -0.3474  0.0790
  708MPD2    C310467   0.600   4.409  13.853 -0.3118  0.5917 -0.0534
  708MPD2    C410468   0.663   4.500  13.775  0.6306 -0.2457 -1.1573
  708MPD2    C510469   0.591   4.539  13.668 -0.7656  0.3589 -0.0709
  708MPD2     H10470   0.420   4.303  13.910  0.6144  1.4930  1.2364
  708MPD2    H110471   0.754   4.553  13.802  0.3058 -0.8351  1.0913
  708MPD2    H210472   0.421   4.536  13.557 -1.0213  0.3774 -0.3367
  708MPD2    H310473   0.644   4.609  13.605 -2.4737  3.5627  2.0985
  708MPD2     N10474   0.681   4.358  13.953  0.7668  0.8089 -0.2756
  708MPD2    H510475   0.776   4.394  13.965  0.1529  2.8985 -1.6243
  708MPD2    N110476   0.262   4.374  13.702 -0.3356  0.5959  0.2622
  708MPD2    H710477   0.222   4.405  13.614 -0.7502  0.6238  0.4575
  709TMC3    C110478   0.045   4.292  13.754 -0.0956 -0.9188 -0.1605
  709TMC3    C210479   0.031   4.193  13.656 -0.8258  0.6972 -0.6539
  709TMC3    C310480   4.660   4.100  13.678 -0.3420 -0.1876  0.7964
  709TMC3    C410481   4.686   4.288  13.872 -0.3692  0.5057  0.3053
  709TMC3    C510482   4.608   4.177  13.895  0.2682  0.1444 -0.3749
  709TMC3    C610483   4.595   4.087  13.801  0.1056  0.1342 -0.2722
  709TMC3     C10484   0.181   4.317  13.796 -0.4650 -0.0577 -0.6152
  709TMC3     O10485   0.198   4.309  13.917 -0.4591  0.1343  0.0362
  709TMC3     H10486   0.081   4.210  13.561 -0.3708 -0.2281 -0.5704
  709TMC3    H110487   4.690   4.375  13.937 -2.2957  0.2257  0.7960
  709TMC3    H210488   4.531   4.003  13.827  0.5518 -0.1854 -0.1856
  709TMC3    C710489   4.622   4.116  14.030 -0.0627 -0.0371  1.5889
  709TMC3    C810490   4.612   4.017  13.571  0.2066  0.0095 -1.1367
  709TMC3    O110491   4.539   4.036  14.065 -0.3259 -0.0155 -0.3586
  709TMC3    O210492   4.524   3.941  13.607  0.2041  0.5143  0.2469
  710TMC3    C110493   1.899   4.665   0.738 -0.0217 -0.0213 -0.1972
  710TMC3    C210494   1.969   4.608   0.631  0.1702 -0.3614 -0.6100
  710TMC3    C310495   2.064   4.509   0.661 -0.5058 -0.1893  0.0747
  710TMC3    C410496   1.917   4.618   0.867 -0.4920 -0.0747  0.9925
  710TMC3    C510497   2.001   4.515   0.888  0.1029 -0.6772  0.4546
  710TMC3    C610498   2.078   4.463   0.790 -0.8933 -0.2454 -0.2520
  710TMC3     C10499   1.774   0.014   0.712  0.1431  0.2026  0.3357
  710TMC3     O10500   1.717   4.697   0.612  0.2868  0.2210 -0.1658
  710TMC3     H10501   1.948   4.635   0.529 -4.0329 -0.5224  0.2039
  710TMC3    H110502   1.849   4.644   0.947 -0.3819  0.6644  0.8484
  710TMC3    H210503   2.128   4.371   0.816  0.5371  0.5474 -0.2157
  710TMC3    C710504   2.003   4.453   1.018 -0.4916 -0.0795 -0.7740
  710TMC3    C810505   2.143   4.457   0.549  0.4746 -0.3056  0.1749
  710TMC3    O110506   1.904   4.457   1.091  0.0768 -0.7247  0.0904
  710TMC3    O210507   2.129   4.517   0.445 -0.1681  0.3603  0.0733
  711TMC3    C110508   1.228   1.497  14.925  0.5450  0.1281  0.8512
  711TMC3    C210509   1.230   1.587  15.025  0.8329  0.1477  0.0987
  711TMC3    C310510   1.340   1.584  15.111  0.7142  0.1307  0.0651
  711TMC3    C410511   1.325   1.393  14.905  0.4716  0.3404 -0.5534
  711TMC3    C510512   1.421   1.386  15.000 -0.4405 -0.1899 -0.8129
  711TMC3    C610513   1.431   1.478  15.099  0.1403 -0.4342  0.0662
  711TMC3     C10514   1.128   1.523  14.826 -0.5356  0.1679  0.1191
  711TMC3     O10515   1.022   1.574  14.856 -0.3051  0.4793 -0.5851
  711TMC3     H10516   1.148   1.655  15.045 -0.1862 -0.2052 -2.8422
  711TMC3    H110517   1.313   1.318  14.828  0.0779  0.9612 -1.1001
  711TMC3    H210518   1.515   1.467  15.167  0.9548 -1.7419 -1.1659
  711TMC3    C710519   1.521   1.277  14.995 -0.1460  0.2180  0.1092
  711TMC3    C810520   1.330   1.658  15.230  0.2616 -0.3227  0.4436
  711TMC3    O110521   1.574   1.243  15.100 -0.0436  0.0456 -0.5563
  711TMC3    O210522   1.235   1.731  15.238  0.5611  0.2124 -0.1873
  712MPD2     C10523   3.148   2.881  13.506  0.3296  0.0262 -1.0918
  712MPD2    C110524   3.029   2.870  13.434  0.0761  0.2939  0.0881
  712MPD2    C210525   3.014   2.933  13.321 -0.3388  0.6011 -0.0464
  712MPD2    C310526   3.118   2.999  13.253 -0.1852  0.2754  0.3621
  712MPD2    C410527   3.240   3.003  13.318 -0.0341  0.0587 -0.3826
  712MPD2    C510528   3.248   2.952  13.443  0.4617 -0.4248  0.2689
  712MPD2     H10529   2.911   2.937  13.289 -0.7140  1.1985  1.2266
  712MPD2    H110530   3.319   3.065  13.279 -1.6386  0.2747 -3.2355
  712MPD2    H210531   3.161   2.842  13.606 -1.8337 -1.4467 -1.3887
  712MPD2    H310532   3.341   2.965  13.499 -0.2163  1.9851  0.8283
  712MPD2     N10533   3.104   3.065  13.132  0.3794  0.2320 -0.0358
  712MPD2    H510534   3.181   3.124  13.102 -0.4387  0.8894 -0.8414
  712MPD2    N110535   2.917   2.800  13.470  0.3987  0.7428 -0.0693
  712MPD2    H710536   2.839   2.815  13.407  1.6917  1.1180 -1.5744
  713TMC3    C110537   2.993   3.154  12.950  0.0159  0.2146 -0.3454
  713TMC3    C210538   3.098   3.240  12.926 -0.3210 -0.5786 -0.1181
  713TMC3    C310539   3.086   3.331  12.831 -0.4847 -0.3803  0.1832
  713TMC3    C410540   2.876   3.160  12.881  0.3351  0.3153 -0.6477
  713TMC3    C510541   2.857   3.255  12.793 -0.5633 -0.1412 -0.1640
  713TMC3    C610542   2.961   3.345  12.772 -0.0670 -0.0294  0.3884
  713TMC3     C10543   2.997   3.055  13.052  0.4260 -0.9124  0.2580
  713TMC3     O10544   2.896   2.992  13.068 -1.3033 -0.1322 -0.0501
  713TMC3     H10545   3.198   3.226  12.966 -0.4651  0.1278  0.4810
  713TMC3    H110546   2.788   3.105  12.912 -2.8713  4.2614 -2.7175
  713TMC3    H210547   2.946   3.423  12.699 -2.7076  0.0709  1.0478
  713TMC3    C710548   2.722   3.301  12.765  0.0086  0.0272  0.8265
  713TMC3    C810549   3.178   3.433  12.809  0.1853  0.4232  0.3662
  713TMC3    O110550   2.706   3.350  12.655 -0.1712 -0.4614  0.4375
  713TMC3    O210551   3.151   3.509  12.716  0.1205 -0.0638 -0.6003
  714MPD2     C10552   4.455   1.912   1.749  0.0879  0.1235 -0.2416
  714MPD2    C110553   4.441   1.841   1.635 -0.3072  0.4097  0.2286
  714MPD2    C210554   4.393   1.907   1.518  0.1461  0.1651  0.2419
  714MPD2    C310555   4.349   2.038   1.510  0.1639  0.5245 -0.1981
  714MPD2    C410556   4.351   2.102   1.633 -0.6922 -0.2016  0.7697
  714MPD2    C510557   4.404   2.042   1.749 -0.2677 -0.1724  0.1010
  714MPD2     H10558   4.402   1.858   1.422 -0.9203 -0.3249  0.3908
  714MPD2    H110559   4.320   2.206   1.628  0.3051  0.1142  1.2357
  714MPD2    H210560   4.488   1.863   1.840 -2.4606 -0.3834  0.3985
  714MPD2    H310561   4.395   2.108   1.835  2.0091  0.5100 -0.1650
  714MPD2     N10562   4.306   2.077   1.384 -0.2610  0.1998 -0.6594
  714MPD2    H510563   4.316   2.002   1.316 -2.2704 -0.6668  0.0157
  714MPD2    N110564   4.500   1.715   1.635 -0.5084  0.2122  0.0337
  714MPD2    H710565   4.547   1.678   1.716  0.2097  0.3184 -0.3275
  715TMC3    C110566   4.607   1.529   1.542  0.1178 -1.0037 -0.0694
  715TMC3    C210567   4.603   1.426   1.446 -0.2613 -0.4732 -0.5159
  715TMC3    C310568   4.651   1.305   1.481 -0.9395 -0.4592  0.4782
  715TMC3    C410569   4.666   1.509   1.665 -0.1459  0.1252 -0.0081
  715TMC3    C510570   4.680   1.382   1.703 -0.0160 -0.5117 -0.2301
  715TMC3    C610571   4.675   1.277   1.609  0.2999 -0.1496 -0.2743
  715TMC3     C10572   4.517   1.636   1.522 -0.4773 -0.6366  0.5778
  715TMC3     O10573   4.462   1.641   1.409 -0.2343 -0.4524  0.5540
  715TMC3     H10574   4.592   1.455   1.342  0.4571 -0.7809 -0.6840
  715TMC3    H110575   4.695   1.596   1.723  0.4098  0.9963 -1.6013
  715TMC3    H210576   4.685   1.172   1.634  1.9850 -0.1239 -0.8193
  715TMC3    C710577   0.055   1.358   1.806  0.3774  0.0732 -0.5182
  715TMC3    C810578   0.043   1.263   1.400 -0.7020  0.8066 -0.9549
  715TMC3    O110579   0.115   1.254   1.789 -1.1679  1.2591 -0.6780
  715TMC3    O210580   0.042   1.300   1.281 -0.0707  0.7238 -0.1785
  716MPD2     C10581   4.654   3.610   9.714 -0.1577  0.8683  0.1812
  716MPD2    C110582   4.692   3.634   9.584  0.4636 -0.6628 -0.2433
  716MPD2    C210583   0.009   3.524   9.511  1.0045  0.7913 -0.4048
  716MPD2    C310584   0.017   3.398   9.573  0.4231  0.5489 -0.3707
  716MPD2    C410585   4.696   3.385   9.699 -0.4551  0.8143  0.2377
  716MPD2    C510586   4.650   3.488   9.769 -0.3517  0.3407  0.4825
  716MPD2     H10587   0.042   3.542   9.409 -1.8881  0.2570 -1.4150
  716MPD2    H110588   4.686   3.288   9.746 -2.2303  1.8968  2.0617
  716MPD2    H210589   4.627   3.692   9.778  1.1524  2.3822 -1.1928
  716MPD2    H310590   4.611   3.489   9.870  0.0372 -0.8690  0.6541
  716MPD2     N10591   0.063   3.291   9.493  0.5120  0.7264  0.2805
  716MPD2    H510592   0.063   3.309   9.394  1.2843 -1.3915 -0.1117
  716MPD2    N110593   4.704   3.766   9.536 -0.6882 -0.0383  0.1882
  716MPD2    H710594   4.673   3.837   9.601  0.4921 -1.4787  2.3425
  717TMC3    C110595   0.156   3.090   9.436  0.5175  0.0328  0.5013
  717TMC3    C210596   0.078   3.090   9.320 -0.3636 -0.8041  0.9218
  717TMC3    C310597   0.124   3.010   9.215 -0.2939 -0.5945 -0.1650
  717TMC3    C410598   0.282   3.051   9.438 -0.5770  0.4048  0.4216
  717TMC3    C510599   0.330   2.972   9.332 -0.6105 -0.2713 -0.1573
  717TMC3    C610600   0.251   2.960   9.218 -0.8725  0.2840 -0.6599
  717TMC3     C10601   0.124   3.176   9.542 -0.3524  0.1774  0.2628
  717TMC3     O10602   0.147   3.143   9.660 -0.0779  0.3302 -0.0503
  717TMC3     H10603   4.704   3.142   9.321 -1.1708 -2.2672  0.6056
  717TMC3    H110604   0.340   3.067   9.529 -2.2194  2.9249  1.0302
  717TMC3    H210605   0.284   2.901   9.133 -2.0467 -1.3333  0.0093
  717TMC3    C710606   0.471   2.955   9.310  0.7824  0.8235  0.2234
  717TMC3    C810607   0.021   2.953   9.137  0.3819  0.7668  0.0813
  717TMC3    O110608   0.512   2.877   9.227 -0.9501  0.2536  0.1986
  717TMC3    O210609   4.636   3.018   9.141 -0.7017 -0.5242  0.4412
  718MPD2     C10610   4.450   2.967  13.315  0.2040 -0.6573 -0.3809
  718MPD2    C110611   4.485   2.937  13.184 -0.7629  0.4070  0.3326
  718MPD2    C210612   4.424   2.822  13.131  0.4839 -0.1633 -0.5771
  718MPD2    C310613   4.344   2.733  13.209 -0.9306 -0.2077  0.3063
  718MPD2    C410614   4.310   2.771  13.341  0.9627  0.6046  0.1195
  718MPD2    C510615   4.359   2.892  13.383 -0.0053 -0.4455  0.2217
  718MPD2     H10616   4.449   2.787  13.032  1.4862  1.5467 -0.9370
  718MPD2    H110617   4.256   2.702  13.404 -0.0646  0.8775 -0.4552
  718MPD2    H210618   4.492   3.046  13.375  1.5381 -0.0763 -2.0885
  718MPD2    H310619   4.351   2.909  13.490 -0.7064 -1.2477  0.2920
  718MPD2     N10620   4.299   2.618  13.139  0.1306 -0.3557 -0.0402
  718MPD2    H510621   4.328   2.608  13.042  0.3714 -1.8903  0.1907
  718MPD2    N110622   4.586   3.014  13.112 -0.4319  0.4104  0.6658
  718MPD2    H710623   4.655   3.061  13.171 -0.7973  0.7984  0.7890
  719TMC3    C110624   0.028   3.038  12.946  0.2100  0.0743 -0.2961
  719TMC3    C210625   0.089   2.942  12.864 -0.7916 -0.2760  0.2367
  719TMC3    C310626   0.132   2.973  12.737  0.0759 -0.0111 -0.4451
  719TMC3    C410627   0.029   3.169  12.903 -0.1156  0.0739  0.2587
  719TMC3    C510628   0.086   3.197  12.781  0.4597  0.0119 -0.6868
  719TMC3    C610629   0.135   3.102  12.698 -0.6287 -0.3046  0.3003
  719TMC3     C10630   4.620   2.984  12.982 -0.5085 -0.1726 -0.3645
  719TMC3     O10631   4.572   2.907  12.897  0.4266  0.3405  0.1393
  719TMC3     H10632   0.101   2.843  12.907  1.0657  0.0624  0.5323
  719TMC3    H110633   4.710   3.254  12.957 -0.0418  0.8530 -0.9113
  719TMC3    H210634   0.171   3.134  12.601 -1.0271 -0.5979  0.0540
  719TMC3    C710635   0.121   3.333  12.744  0.2362  0.1014 -0.3495
  719TMC3    C810636   0.079   2.888  12.637  0.4059 -0.7356  0.3845
  719TMC3    O110637   0.153   3.360  12.628 -0.2162 -0.9332 -0.4817
  719TMC3    O210638   0.129   2.883  12.528  0.3467  0.2083  0.5113
  720MPD2     C10639   2.301   0.013  13.984 -0.0561 -0.0134 -0.6188
  720MPD2    C110640   2.397   4.719  13.884  0.6950  0.4838 -0.1609
  720MPD2    C210641   2.518   4.655  13.915  0.5029 -0.1927  0.8135
  720MPD2    C310642   2.542   4.605  14.041  0.4846 -0.0165  0.3752
  720MPD2    C410643   2.434   4.611  14.126 -0.2428 -1.4862 -0.7348
  720MPD2    C510644   2.316   4.666  14.102 -0.1081  0.1399  0.1963
  720MPD2     H10645   2.600   4.651  13.844 -0.9498 -2.5739 -0.7068
  720MPD2    H110646   2.445   4.574  14.227  0.8178 -2.4009 -1.1800
  720MPD2    H210647   2.209   0.069  13.972  0.2320  0.9295  1.5597
  720MPD2    H310648   2.232   4.666  14.170  1.6032 -3.1933  2.3117
  720MPD2     N10649   2.674   4.569  14.076  0.0147 -0.3752 -0.2987
  720MPD2    H510650   2.744   4.586  14.005 -0.6351  0.9759 -0.6184
  720MPD2    N110651   2.367   0.060  13.757  0.0178  0.7571 -0.4718
  720MPD2    H710652   2.280   0.112  13.759 -0.4630 -0.0651  0.4351
  721TMC3    C110653   2.860   4.505  14.212  0.1885 -0.0210 -0.8198
  721TMC3    C210654   2.924   4.550  14.325 -0.3052 -0.7268  0.0926
  721TMC3    C310655   3.042   4.607  14.308  0.1741  0.7034 -0.7077
  721TMC3    C410656   2.927   4.489  14.087  0.6389  0.2596  0.3167
  721TMC3    C510657   3.050   4.541  14.082 -0.0029 -0.1492 -0.0572
  721TMC3    C610658   3.110   4.608  14.189  0.9323  0.2477 -0.1931
  721TMC3     C10659   2.714   4.528  14.202  0.3805 -0.2837 -0.4375
  721TMC3     O10660   2.640   4.525  14.299  0.1884 -0.4363  0.2785
  721TMC3     H10661   2.862   4.545  14.414  0.4747  0.9430  0.7254
  721TMC3    H110662   2.885   4.440  14.000 -0.7803  0.7274  0.7415
  721TMC3    H210663   3.200   4.666  14.173  0.8425 -0.0486 -1.7038
  721TMC3    C710664   3.145   4.516  13.966  0.0281  0.0474 -0.0544
  721TMC3    C810665   3.120   4.646  14.429  0.1786 -0.6283 -0.2407
  721TMC3    O110666   3.240   4.594  13.959 -0.0264 -0.8637 -0.2162
  721TMC3    O210667   3.240   4.660  14.397  0.1856  0.2250 -0.1313
  722MPD2     C10668   1.898   2.816  13.158  0.2590 -0.8323  0.8751
  722MPD2    C110669   1.845   2.869  13.272 -0.4740 -0.0487 -0.2905
  722MPD2    C210670   1.707   2.881  13.273  0.2474  0.3270 -0.0113
  722MPD2    C310671   1.623   2.834  13.178 -0.1361  0.1854 -0.1120
  722MPD2    C410672   1.680   2.776  13.072  0.5178  0.1303 -0.1971
  722MPD2    C510673   1.817   2.766  13.060  0.3008  0.7199 -0.6475
  722MPD2     H10674   1.665   2.923  13.363 -1.4212 -2.1879  0.3829
  722MPD2    H110675   1.625   2.732  12.990 -0.5285 -1.5054  1.3797
  722MPD2    H210676   2.004   2.796  13.146 -0.2003 -1.8244 -1.6061
  722MPD2    H310677   1.862   2.721  12.972  2.2487  0.7167  0.3512
  722MPD2     N10678   1.483   2.861  13.193  0.0699  0.3926 -0.5760
  722MPD2    H510679   1.452   2.899  13.282 -0.5350  1.1454 -1.1141
  722MPD2    N110680   1.923   2.919  13.376 -0.2718 -0.1021  0.6639
  722MPD2    H710681   1.886   2.968  13.458 -0.5390  0.2933  0.3088
  723TMC3    C110682   1.260   2.865  13.144 -0.1127  0.3675 -0.5392
  723TMC3    C210683   1.159   2.836  13.053  1.0205 -0.3234 -0.1536
  723TMC3    C310684   1.033   2.882  13.091  0.1643 -0.7384 -0.0999
  723TMC3    C410685   1.243   2.923  13.272  0.5641  0.0842 -0.2826
  723TMC3    C510686   1.110   2.951  13.302  0.1023 -0.8839  0.5140
  723TMC3    C610687   1.008   2.930  13.217  0.0233 -0.4256  0.5229
  723TMC3     C10688   1.390   2.836  13.102  0.5534  0.0661  0.1215
  723TMC3     O10689   1.394   2.780  12.989 -0.2900 -0.3888 -0.4987
  723TMC3     H10690   1.182   2.798  12.954  3.4486  0.2653  0.1905
  723TMC3    H110691   1.323   2.952  13.340  0.9943  0.0444 -0.7667
  723TMC3    H210692   0.910   2.953  13.256  0.8285  1.5475  1.4370
  723TMC3    C710693   1.088   3.032  13.411  0.4189  0.5739  0.1790
  723TMC3    C810694   0.915   2.838  13.023  0.1900 -0.5392  0.3112
  723TMC3    O110695   1.007   3.124  13.402 -0.2071  0.1296  0.0665
  723TMC3    O210696   0.810   2.892  13.057  0.6204 -0.0128  0.3044
  724TMC3    C110697   1.679   1.027   9.929  0.4694 -0.2553 -0.5435
  724TMC3    C210698   1.774   0.966  10.005  0.6793 -0.7809 -0.6775
  724TMC3    C310699   1.886   0.916   9.941 -0.3930 -0.4035 -0.0259
  724TMC3    C410700   1.690   1.030   9.794  1.2292 -0.4120 -0.7810
  724TMC3    C510701   1.802   0.975   9.729  0.1591 -0.0614  0.7317
  724TMC3    C610702   1.896   0.909   9.802  0.4640 -0.2094 -0.0894
  724TMC3     C10703   1.607   1.135  10.005 -0.5619  0.3229 -0.8348
  724TMC3     O10704   1.587   1.122  10.128 -0.3962 -0.4095 -0.0848
  724TMC3     H10705   1.788   0.996  10.109 -0.6203  1.9319 -1.2865
  724TMC3    H110706   1.614   1.083   9.737  0.7864 -1.7454 -1.4538
  724TMC3    H210707   1.990   0.887   9.753  0.3067 -0.4768 -0.2731
  724TMC3    C710708   1.837   1.011   9.596  0.7753 -0.4986  0.4978
  724TMC3    C810709   2.006   0.937  10.013  0.0185 -0.6310  1.1603
  724TMC3    O110710   1.956   1.013   9.569 -0.0021  0.5485  0.1494
  724TMC3    O210711   2.010   0.885  10.126 -0.4923 -0.6822  0.3959
  725TMC3    C110712   2.759   4.654  12.291 -0.5948  0.3441 -0.0920
  725TMC3    C210713   2.796   4.693  12.163 -0.2268 -0.2257  0.0430
  725TMC3    C310714   2.785   4.611  12.055 -0.6661  0.3025 -0.5421
  725TMC3    C410715   2.697   4.536  12.314  0.0904 -0.5317  0.3736
  725TMC3    C510716   2.678   4.457  12.197 -0.6422 -0.7506  0.0822
  725TMC3    C610717   2.730   4.484  12.076  0.0926  0.0498  0.3602
  725TMC3     C10718   2.798   0.015  12.402 -0.8555 -0.0559  0.3539
  725TMC3     O10719   2.887   0.099  12.388 -0.3701  0.4722 -0.3735
  725TMC3     H10720   2.832   0.074  12.157  1.4533 -0.8485 -0.5663
  725TMC3    H110721   2.671   4.506  12.415 -0.1024  2.0757  1.1097
  725TMC3    H210722   2.717   4.414  11.994  1.0162  0.5166 -0.1882
  725TMC3    C710723   2.644   4.319  12.217 -0.2821 -0.4345 -0.0124
  725TMC3    C810724   2.836   4.651  11.922  0.6164 -0.0470  0.4572
  725TMC3    O110725   2.681   4.241  12.135  0.2676  0.1700  0.0627
  725TMC3    O210726   2.794   4.576  11.834 -0.2735 -0.3050 -0.1670
  726MPD2     C10727   1.622   1.936  10.084 -0.1796 -0.1213  0.4655
  726MPD2    C110728   1.513   2.006  10.038  0.0874 -0.0608  0.5797
  726MPD2    C210729   1.391   1.958  10.066  0.9653 -0.0310  0.7853
  726MPD2    C310730   1.376   1.846  10.149 -0.0097 -0.1303 -0.6529
  726MPD2    C410731   1.483   1.777  10.191  0.6686 -0.2012 -0.1122
  726MPD2    C510732   1.604   1.821  10.153  0.8582 -0.7877  0.0694
  726MPD2     H10733   1.299   2.013  10.046  0.9121 -1.1662 -2.0562
  726MPD2    H110734   1.485   1.674  10.224  2.2002 -0.2805 -0.4396
  726MPD2    H210735   1.723   1.962  10.055  0.5481 -0.6283  2.5529
  726MPD2    H310736   1.694   1.769  10.185  1.4775 -0.3215 -0.9338
  726MPD2     N10737   1.244   1.795  10.190 -0.6950 -0.3266 -0.3024
  726MPD2    H510738   1.237   1.722  10.260 -2.0104  1.8590  1.8451
  726MPD2    N110739   1.519   2.140   9.986  0.7305 -0.1391 -0.4469
  726MPD2    H710740   1.437   2.181   9.944  0.1879 -0.0440  0.7021
  727TMC3    C110741   1.602   2.350   9.939 -0.0830  0.2419 -0.1175
  727TMC3    C210742   1.671   2.456   9.998 -0.5962  0.0480  0.3050
  727TMC3    C310743   1.639   2.578   9.949  0.0496  0.5114  0.8430
  727TMC3    C410744   1.507   2.371   9.838 -0.1658 -0.7036  0.2789
  727TMC3    C510745   1.489   2.498   9.793 -0.0779  0.3041 -0.4551
  727TMC3    C610746   1.557   2.604   9.841 -0.1660 -0.0234  0.3446
  727TMC3     C10747   1.630   2.214   9.982 -0.2917  0.7414 -0.1396
  727TMC3     O10748   1.736   2.192  10.044  0.5350  0.7125  0.1311
  727TMC3     H10749   1.756   2.440  10.064  1.1078  0.2552 -1.8452
  727TMC3    H110750   1.465   2.288   9.783  3.6563 -1.5389 -1.3763
  727TMC3    H210751   1.550   2.705   9.801 -0.6560 -0.2617 -0.1684
  727TMC3    C710752   1.405   2.530   9.677  0.0085 -0.0655 -0.4013
  727TMC3    C810753   1.719   2.689  10.005  0.1585 -0.4472 -0.2888
  727TMC3    O110754   1.388   2.647   9.651 -0.4719  0.1223  0.1858
  727TMC3    O210755   1.762   2.771   9.924  0.0396  1.0710 -0.2248
  728TMC3    C110756   0.436   0.547  15.307  0.1028  0.3993 -0.4674
  728TMC3    C210757   0.575   0.565  15.292 -0.6938  0.3052  0.0751
  728TMC3    C310758   0.616   0.579  15.158  0.2420  0.0274  0.4140
  728TMC3    C410759   0.352   0.562  15.202  0.3985 -0.3693  0.1863
  728TMC3    C510760   0.405   0.609  15.081  0.7752  0.1234 -0.3623
  728TMC3    C610761   0.537   0.610  15.055 -0.1523 -0.5422  0.1891
  728TMC3     C10762   0.384   0.531  15.440 -0.1711 -0.4340 -0.4437
  728TMC3     O10763   0.466   0.547  15.529  0.0725 -0.6440 -0.5011
  728TMC3     H10764   0.645   0.560  15.374 -0.3365 -0.5157 -0.2775
  728TMC3    H110765   0.249   0.591  15.219  0.8186  0.5978  1.1256
  728TMC3    H210766   0.576   0.611  14.954  0.8211 -2.1506  0.5598
  728TMC3    C710767   0.309   0.641  14.979 -0.7053 -0.3283  0.5044
  728TMC3    C810768   0.745   0.537  15.126 -0.5354  0.0527  0.0437
  728TMC3    O110769   0.205   0.588  14.995  0.1927  0.0277  0.8408
  728TMC3    O210770   0.786   0.561  15.011  0.1443 -0.5423 -0.0969
  729MPD2     C10771   2.565   1.561  16.878  0.5086  0.3334 -0.8892
  729MPD2    C110772   2.704   1.540  16.866 -0.5012 -0.3051 -0.6882
  729MPD2    C210773   2.786   1.500  16.971  0.3364 -0.8525  0.4418
  729MPD2    C310774   2.731   1.497  17.096  0.0023 -0.1438  0.5132
  729MPD2    C410775   2.594   1.502  17.107  0.6197 -0.1159  0.0664
  729MPD2    C510776   2.511   1.535  17.000 -0.4601  0.1585 -0.7437
  729MPD2     H10777   2.888   1.463  16.964 -0.5546 -3.0452 -1.2648
  729MPD2    H110778   2.540   1.470  17.195 -1.9152  1.0573 -1.0598
  729MPD2    H210779   2.505   1.611  16.802  0.9492 -0.9275 -2.0700
  729MPD2    H310780   2.408   1.566  17.009 -0.6437 -0.3583 -1.1056
  729MPD2     N10781   2.822   1.473  17.207  0.0400  0.1312  0.5528
  729MPD2    H510782   2.919   1.448  17.195  0.4217  0.9452  1.9335
  729MPD2    N110783   2.748   1.551  16.734  0.1805  0.4219  0.1460
  729MPD2    H710784   2.677   1.580  16.668  2.0774  0.8555 -1.6880
  730TMC3    C110785   2.914   1.489  17.413  0.8669 -0.5772  0.1415
  730TMC3    C210786   3.020   1.453  17.334  0.4092  0.6337  0.2170
  730TMC3    C310787   3.133   1.534  17.329  0.4273 -0.0233  0.1511
  730TMC3    C410788   2.915   1.599  17.497  0.4700 -0.6615  0.1334
  730TMC3    C510789   3.028   1.684  17.482  0.3995  0.5157 -0.1391
  730TMC3    C610790   3.129   1.642  17.405 -0.2477 -0.2227 -0.1682
  730TMC3     C10791   2.795   1.475  17.336  0.5113 -0.0556 -0.2609
  730TMC3     O10792   2.695   1.525  17.387  0.0702  0.2833  0.0521
  730TMC3     H10793   3.036   1.354  17.294 -0.9530  0.9899 -1.2007
  730TMC3    H110794   2.822   1.620  17.547  0.1565 -0.3557 -0.5757
  730TMC3    H210795   3.203   1.721  17.404  0.1491 -0.5995 -0.3621
  730TMC3    C710796   3.009   1.827  17.483 -0.1827  0.5087 -0.3085
  730TMC3    C810797   3.187   1.537  17.189 -0.3889 -0.5058  0.0350
  730TMC3    O110798   3.067   1.892  17.397  0.0558 -0.5375 -0.2727
  730TMC3    O210799   3.114   1.485  17.104  0.1941 -0.0104  0.7185
  731MPD2     C10800   2.424   4.601  11.940 -0.5378  0.3965 -0.4317
  731MPD2    C110801   2.392   4.465  11.938  0.4158 -0.1426 -0.0695
  731MPD2    C210802   2.335   4.407  12.053  0.0862 -0.7813  0.1495
  731MPD2    C310803   2.298   4.487  12.157 -0.2187  0.4149  0.5750
  731MPD2    C410804   2.344   4.618  12.165  0.2758 -0.0058 -0.2056
  731MPD2    C510805   2.405   4.671  12.056 -0.0554  0.2581  0.0024
  731MPD2     H10806   2.303   4.304  12.057  0.1544 -0.8256 -0.4093
  731MPD2    H110807   2.361   4.666  12.260  2.3831  0.2057 -0.6693
  731MPD2    H210808   2.467   4.643  11.849 -1.1987  1.4285 -0.2686
  731MPD2    H310809   2.451   0.047  12.065  0.0530  0.2967 -0.9910
  731MPD2     N10810   2.232   4.418  12.265 -0.2280  0.2708  0.4715
  731MPD2    H510811   2.177   4.336  12.246 -0.2870  0.1357  1.2113
  731MPD2    N110812   2.425   4.394  11.819  0.2179 -0.0859 -0.5918
  731MPD2    H710813   2.461   4.447  11.741 -2.8340  0.6877 -1.4698
  732TMC3    C110814   2.429   4.213  11.671 -0.2869 -0.3752 -0.1854
  732TMC3    C210815   2.352   4.106  11.631  0.1176 -0.2051  0.2225
  732TMC3    C310816   2.414   4.004  11.569  0.2575 -0.0461 -0.2578
  732TMC3    C410817   2.564   4.216  11.651  0.1317 -0.4667 -0.6676
  732TMC3    C510818   2.627   4.099  11.606  0.0593  0.0788 -0.8107
  732TMC3    C610819   2.555   3.998  11.563  0.3455 -0.7580  0.1583
  732TMC3     C10820   2.382   4.264  11.800  0.8175 -0.0098 -0.6223
  732TMC3     O10821   2.317   4.187  11.871  0.5857  0.3201  0.0614
  732TMC3     H10822   2.246   4.114  11.650  0.1216  1.2032 -0.3295
  732TMC3    H110823   2.620   4.301  11.690 -1.6354 -0.9493  2.8941
  732TMC3    H210824   2.608   3.912  11.525 -0.3399 -1.3310  0.4948
  732TMC3    C710825   2.766   4.097  11.604  0.5627  0.1631  0.1784
  732TMC3    C810826   2.360   3.871  11.606  0.5959 -0.3205 -0.5799
  732TMC3    O110827   2.819   4.203  11.586 -0.4502 -0.5255 -0.0325
  732TMC3    O210828   2.409   3.772  11.551 -0.1635 -0.3329 -0.5800
  733TMC3    C110829   4.015   2.310  12.968 -0.4493 -0.8978  0.2153
  733TMC3    C210830   4.061   2.375  13.078  0.3495  0.3518  0.1860
  733TMC3    C310831   4.189   2.417  13.089 -0.0084 -0.2970 -0.2139
  733TMC3    C410832   4.102   2.305  12.861 -0.3182  1.1809 -0.3784
  733TMC3    C510833   4.231   2.342  12.876 -0.2884  0.6643  0.5543
  733TMC3    C610834   4.276   2.401  12.986 -0.4061  0.3114 -0.1007
  733TMC3     C10835   3.875   2.311  12.926 -0.2176 -0.8251 -0.1051
  733TMC3     O10836   3.802   2.372  13.002 -0.6226  0.3659 -0.5580
  733TMC3     H10837   3.997   2.391  13.163  1.5665  1.1914  0.9560
  733TMC3    H110838   4.081   2.262  12.763  1.4672  0.4547 -0.4542
  733TMC3    H210839   4.380   2.428  13.001 -0.5725  0.0226  1.5629
  733TMC3    C710840   4.320   2.350  12.758 -0.3548  0.5459  0.4914
  733TMC3    C810841   4.221   2.515  13.188 -0.4524 -0.2308 -0.1910
  733TMC3    O110842   4.320   2.258  12.674  0.2184  0.3672 -0.2936
  733TMC3    O210843   4.161   2.506  13.294 -0.4379  0.1167 -0.2045
  734MPD2     C10844   0.978   0.563  12.198  0.8268  0.0122  0.0528
  734MPD2    C110845   0.909   0.487  12.109  0.6372  0.6643  0.8309
  734MPD2    C210846   0.895   0.543  11.982  0.3459  0.7429 -0.4032
  734MPD2    C310847   0.967   0.647  11.934 -0.0491  0.0003 -0.1071
  734MPD2    C410848   1.046   0.710  12.021 -0.3912  0.2777 -0.3949
  734MPD2    C510849   1.055   0.667  12.155  0.8906  0.3716  0.4194
  734MPD2     H10850   0.822   0.505  11.911 -1.1928  1.2222  0.9178
  734MPD2    H110851   1.094   0.801  11.987  0.9420 -0.3441 -0.1761
  734MPD2    H210852   0.989   0.537  12.302 -1.1156  0.5126  0.3869
  734MPD2    H310853   1.119   0.723  12.222  1.0960  0.8279 -0.1579
  734MPD2     N10854   0.938   0.682  11.800 -0.2958  0.2962  0.0721
  734MPD2    H510855   0.867   0.623  11.757  1.8403 -1.2041 -1.3739
  734MPD2    N110856   0.843   0.366  12.151 -0.1257 -0.0347  0.0605
  734MPD2    H710857   0.871   0.341  12.245  0.4555 -1.3961 -0.4710
  735TMC3    C110858   0.749   0.155  12.109 -0.4901 -0.1370 -0.4735
  735TMC3    C210859   0.647   0.100  12.040  0.6064 -0.6340  0.1855
  735TMC3    C310860   0.664   4.702  11.969 -0.1338 -0.0258  0.0608
  735TMC3    C410861   0.866   0.090  12.137 -0.0900 -0.2628  0.3068
  735TMC3    C510862   0.883   4.702  12.054 -0.0367  0.4082  0.0601
  735TMC3    C610863   0.791   4.646  11.978  0.6032  0.4439 -0.3487
  735TMC3     C10864   0.761   0.289  12.076 -0.4531 -0.1864 -0.5665
  735TMC3     O10865   0.701   0.313  11.969 -0.1279 -0.1617  0.3132
  735TMC3     H10866   0.551   0.151  12.042  0.1442 -1.4972  0.3244
  735TMC3    H110867   0.958   0.139  12.167  1.5984 -1.6697 -2.5795
  735TMC3    H210868   0.806   4.566  11.907 -0.4958  0.2816 -0.3961
  735TMC3    C710869   1.021   4.680  12.025  0.5952 -0.2217  0.1815
  735TMC3    C810870   0.604   4.693  11.833 -0.2714 -0.2256  0.1480
  735TMC3    O110871   1.059   4.651  11.913 -0.4890  0.3734 -0.4298
  735TMC3    O210872   0.598   4.585  11.775  0.1401 -0.2659  0.1696
  736MPD2     C10873   1.291   4.613  12.276 -0.4894 -1.2350 -0.1247
  736MPD2    C110874   1.239   4.645  12.150 -0.1304 -0.4527  0.4162
  736MPD2    C210875   1.330   4.658  12.044  0.6480  0.4039 -0.6072
  736MPD2    C310876   1.462   4.614  12.057  0.0757  0.3820 -0.3252
  736MPD2    C410877   1.515   4.587  12.186  0.5062 -0.4746  0.0189
  736MPD2    C510878   1.427   4.592  12.290  0.4112  0.6715 -0.1726
  736MPD2     H10879   1.284   4.683  11.949  0.8354 -0.7263 -0.9917
  736MPD2    H110880   1.620   4.572  12.211  1.0168  0.8439 -1.3225
  736MPD2    H210881   1.229   4.610  12.365 -0.7720 -0.3875 -0.2877
  736MPD2    H310882   1.450   4.579  12.395 -0.7016  1.1383  0.1285
  736MPD2     N10883   1.543   4.609  11.944 -0.1153  0.8884  0.5033
  736MPD2    H510884   1.503   4.651  11.861  1.9709  0.6848 -0.6029
  736MPD2    N110885   1.092   4.661  12.142  0.0306 -0.7511 -0.0817
  736MPD2    H710886   1.045   4.660  12.231 -3.1668  2.7165 -1.7255
  737TMC3    C110887   1.708   4.522  11.808  0.5414 -0.1399  0.0910
  737TMC3    C210888   1.715   4.621  11.716 -0.0966  0.2772 -0.4479
  737TMC3    C310889   1.763   4.598  11.588 -0.2725  0.0616 -0.3613
  737TMC3    C410890   1.737   4.395  11.767 -0.2258  0.4203 -0.2619
  737TMC3    C510891   1.752   4.373  11.634 -0.1490  0.4799  0.1926
  737TMC3    C610892   1.766   4.470  11.534  0.0450  0.6684  0.0881
  737TMC3     C10893   1.657   4.535  11.938  1.1171  0.2680 -0.0220
  737TMC3     O10894   1.707   4.460  12.021 -0.2405  0.1947 -0.2185
  737TMC3     H10895   1.690   0.002  11.740 -0.3655 -0.1239  0.9887
  737TMC3    H110896   1.731   4.316  11.841  0.6713  0.2621 -0.3525
  737TMC3    H210897   1.789   4.439  11.433 -1.6301 -1.8492  0.4801
  737TMC3    C710898   1.788   4.236  11.603  0.7691 -0.2674  0.4127
  737TMC3    C810899   1.781   4.716  11.515  0.2685 -0.7517 -0.0485
  737TMC3    O110900   1.735   4.149  11.670  0.2171  0.2709  0.0689
  737TMC3    O210901   1.783   0.104  11.572  0.3999 -0.3254 -0.2011
  738MPD2     C10902   1.400   3.895  15.029  0.0286  0.1354 -0.2682
  738MPD2    C110903   1.414   3.801  15.127  0.5502  0.5861 -0.8748
  738MPD2    C210904   1.512   3.830  15.219  0.2587 -0.1339 -0.1000
  738MPD2    C310905   1.609   3.924  15.203  0.4928  0.2581  0.4685
  738MPD2    C410906   1.590   4.007  15.092  0.1367 -0.1503  0.5298
  738MPD2    C510907   1.490   3.990  15.007  0.2987 -0.6429 -0.0867
  738MPD2     H10908   1.490   3.769  15.306 -0.4757  2.7496  1.7216
  738MPD2    H110909   1.674   4.067  15.058  0.9812 -1.3845  0.4537
  738MPD2    H210910   1.327   3.881  14.950  0.5777 -0.9491 -0.5833
  738MPD2    H310911   1.481   4.048  14.916 -0.8204  0.0374  0.4598
  738MPD2     N10912   1.729   3.936  15.269 -0.8103  0.3933  0.3126
  738MPD2    H510913   1.805   3.992  15.231 -1.3649  1.5677  0.9381
  738MPD2    N110914   1.317   3.699  15.132  0.3043  0.2690 -0.2711
  738MPD2    H710915   1.240   3.710  15.066 -0.4573 -1.1874  0.3746
  739TMC3    C110916   1.908   3.833  15.383  0.6448  0.0634 -0.1834
  739TMC3    C210917   1.981   3.835  15.269 -0.0229 -0.6980 -0.4010
  739TMC3    C310918   2.114   3.802  15.284 -0.4946  0.1402 -0.0974
  739TMC3    C410919   1.955   3.804  15.513  0.1742  0.2159  0.6390
  739TMC3    C510920   2.087   3.771  15.516 -0.0042  0.0212 -0.8815
  739TMC3    C610921   2.162   3.766  15.401  0.7908 -0.3228 -0.4912
  739TMC3     C10922   1.760   3.847  15.368 -0.4466  0.0281  0.5797
  739TMC3     O10923   1.700   3.771  15.440 -0.3979 -0.4028  0.0388
  739TMC3     H10924   1.932   3.859  15.175 -1.0307 -2.2696 -0.2827
  739TMC3    H110925   1.892   3.803  15.601 -1.7163  1.7627 -0.6918
  739TMC3    H210926   2.265   3.731  15.410  0.6467 -0.1207  1.8587
  739TMC3    C710927   2.147   3.708  15.638 -0.2138 -0.0416 -0.1634
  739TMC3    C810928   2.173   3.751  15.165  0.2260 -0.0522 -0.1313
  739TMC3    O110929   2.244   3.648  15.605  0.2114  0.3592  0.3219
  739TMC3    O210930   2.094   3.699  15.086  0.3800 -0.1649  0.4135
  740TMC3    C110931   2.468   0.273  14.251 -0.0334  0.1640 -0.0297
  740TMC3    C210932   2.505   0.196  14.358 -0.1049 -0.2844  0.3734
  740TMC3    C310933   2.631   0.140  14.362 -0.3937  0.5533  0.0109
  740TMC3    C410934   2.551   0.288  14.145 -0.2785 -0.3697  0.1378
  740TMC3    C510935   2.661   0.207  14.136 -0.0153 -0.0096  0.7441
  740TMC3    C610936   2.709   0.145  14.249  0.4758  0.5082  0.1478
  740TMC3     C10937   2.355   0.366  14.272  0.1802 -0.3215  0.6062
  740TMC3     O10938   2.347   0.461  14.194  0.1844  0.2460 -0.0942
  740TMC3     H10939   2.445   0.189  14.448  1.3186 -0.1814  1.3279
  740TMC3    H110940   2.530   0.359  14.066  3.9144 -0.0607 -0.6661
  740TMC3    H210941   2.813   0.114  14.239  0.0359 -0.8550 -0.1978
  740TMC3    C710942   2.740   0.180  14.012 -0.3404 -0.1302 -0.4726
  740TMC3    C810943   2.684   0.064  14.477  0.3508 -0.1484  0.2482
  740TMC3    O110944   2.831   0.098  14.020 -0.0502  0.1922 -0.0691
  740TMC3    O210945   2.804   0.047  14.477  0.0604 -0.5592  0.2966
  741TMC3    C110946   2.115   4.002  14.612 -0.5210 -0.0986 -0.1005
  741TMC3    C210947   1.987   3.982  14.553  0.5921 -0.0971 -0.5482
  741TMC3    C310948   1.879   3.973  14.631  0.5152 -0.0921  0.4231
  741TMC3    C410949   2.126   3.999  14.748 -0.7740 -1.0105  0.6067
  741TMC3    C510950   2.010   4.001  14.825  0.2604  0.3071  0.2021
  741TMC3    C610951   1.886   4.001  14.769 -0.0972  0.3026 -0.0772
  741TMC3     C10952   2.222   3.957  14.531  0.3737  0.1288  0.1218
  741TMC3     O10953   2.194   3.932  14.416  0.1342 -0.7298 -0.2491
  741TMC3     H10954   1.975   3.964  14.447 -0.3758 -1.2926 -0.2211
  741TMC3    H110955   2.224   3.983  14.792  0.2667 -0.6821 -1.5818
  741TMC3    H210956   1.791   4.009  14.820  0.4508  2.9204  0.5644
  741TMC3    C710957   2.010   4.039  14.966 -0.0948 -0.9994  0.6839
  741TMC3    C810958   1.757   3.990  14.566 -0.7346 -0.1639 -0.5892
  741TMC3    O110959   1.900   4.055  15.023  0.6098 -0.1914  0.4238
  741TMC3    O210960   1.759   4.053  14.457  0.5329 -0.3440 -0.8551
  742TMC3    C110961   1.320   2.580  15.148 -0.0213 -0.2627  0.3419
  742TMC3    C210962   1.277   2.626  15.022  0.1488  0.6967  0.1019
  742TMC3    C310963   1.367   2.654  14.922  0.1094  0.0474  0.4558
  742TMC3    C410964   1.456   2.583  15.176  0.6229  0.5893 -0.6868
  742TMC3    C510965   1.540   2.615  15.079 -0.2627  0.0668 -0.1804
  742TMC3    C610966   1.504   2.648  14.946 -0.5640  0.3587 -0.2503
  742TMC3     C10967   1.226   2.581  15.257 -0.1835 -0.2396  0.1153
  742TMC3     O10968   1.125   2.642  15.236  0.0508 -0.2679  0.0103
  742TMC3     H10969   1.178   2.589  14.996 -1.1820  2.8549  2.1307
  742TMC3    H110970   1.482   2.573  15.281 -1.1558 -0.4909 -0.3497
  742TMC3    H210971   1.582   2.683  14.879 -0.9459 -0.6519 -1.2132
  742TMC3    C710972   1.689   2.609  15.108 -0.7371 -0.2615 -1.3351
  742TMC3    C810973   1.319   2.637  14.781 -0.1034 -0.0081 -0.5824
  742TMC3    O110974   1.768   2.644  15.023 -0.0256  0.1974 -0.0740
  742TMC3    O210975   1.412   2.604  14.705  0.2738  0.0518  0.0918
  743MPD2     C10976   0.149   4.250   2.004  0.2412 -0.3316  0.1568
  743MPD2    C110977   0.156   4.158   1.899 -1.0827  0.8665  0.0904
  743MPD2    C210978   0.270   4.073   1.893  0.3058 -0.6913 -0.1684
  743MPD2    C310979   0.371   4.090   1.981  0.3933  0.3767  0.2906
  743MPD2    C410980   0.356   4.169   2.093  0.4311 -0.3144 -0.7418
  743MPD2    C510981   0.243   4.251   2.102 -0.6410  0.0440 -0.7755
  743MPD2     H10982   0.288   4.012   1.805 -0.2389 -0.6107 -0.3382
  743MPD2    H110983   0.433   4.173   2.169 -0.1675 -2.5264 -0.0147
  743MPD2    H210984   0.066   4.321   2.007 -0.1755 -0.7799 -0.9168
  743MPD2    H310985   0.237   4.307   2.195  2.4398  0.8261 -1.0373
  743MPD2     N10986   0.490   4.016   1.958  0.8574 -0.1905  0.1214
  743MPD2    H510987   0.485   3.960   1.874 -0.2330 -2.2411  1.5508
  743MPD2    N110988   0.063   4.160   1.793 -0.3850  0.6444 -0.3954
  743MPD2    H710989   4.718   4.237   1.802  0.0257  1.1790 -1.8613
  744TMC3    C110990   4.661   4.075   1.602 -0.1101 -0.7715 -0.8510
  744TMC3    C210991   4.583   4.187   1.601  0.4320 -0.2556  0.1034
  744TMC3    C310992   4.471   4.178   1.519  0.5441 -0.7448  0.1481
  744TMC3    C410993   4.651   3.978   1.506 -0.4697  0.0649 -0.1103
  744TMC3    C510994   4.544   3.982   1.421 -0.0045 -0.1493 -0.4016
  744TMC3    C610995   4.449   4.080   1.425 -0.5662 -0.1944 -0.2467
  744TMC3     C10996   0.051   4.059   1.700  0.2959 -0.4200 -0.1998
  744TMC3     O10997   0.114   3.955   1.692  0.2711 -0.3743 -0.4408
  744TMC3     H10998   4.594   4.263   1.678  1.4276  0.3594 -0.6463
  744TMC3    H110999   0.004   3.900   1.496 -1.0690 -0.5027 -0.1496
  744TMC3    H211000   4.366   4.094   1.357 -1.5492 -0.2256  0.9457
  744TMC3    C711001   4.573   3.921   1.292  0.2501  0.0975 -0.0281
  744TMC3    C811002   4.388   4.304   1.511 -0.4541  0.6464  0.4140
  744TMC3    O111003   4.689   3.895   1.260  0.1181  0.2906  0.0371
  744TMC3    O211004   4.430   4.410   1.564 -0.6775 -0.3748  0.0688
  745TMC3    C111005   2.775   2.632  13.572  0.0868 -0.3856 -0.2415
  745TMC3    C211006   2.735   2.603  13.698 -0.0266  0.2685  0.0618
  745TMC3    C311007   2.604   2.556  13.705  0.2389 -0.4508 -1.0222
  745TMC3    C411008   2.706   2.612  13.452 -0.1475  0.3219  0.7541
  745TMC3    C511009   2.589   2.546  13.472  0.4223  0.8206  0.3799
  745TMC3    C611010   2.539   2.517  13.592 -0.3020 -0.3796 -0.1984
  745TMC3     C11011   2.902   2.703  13.564 -0.5319 -0.0160 -0.6562
  745TMC3     O11012   2.978   2.675  13.656 -0.2881  0.6835  0.0705
  745TMC3     H11013   2.800   2.609  13.784 -0.0190 -0.8689  0.1328
  745TMC3    H111014   2.736   2.654  13.357  0.6557  0.7554  1.1992
  745TMC3    H211015   2.447   2.461  13.605  1.5340 -3.3199 -0.0104
  745TMC3    C711016   2.509   2.524  13.352  0.4851  0.3152  0.7714
  745TMC3    C811017   2.530   2.558  13.829  0.1814 -0.0616  0.1428
  745TMC3    O111018   2.386   2.534  13.362 -0.1665 -0.0132 -0.6526
  745TMC3    O211019   2.410   2.519  13.826  0.3837  1.0062  0.7383
  746TMC3    C111020   0.081   4.173  10.777  0.5246 -0.3376 -0.2757
  746TMC3    C211021   0.126   4.104  10.674 -0.0367  0.5544 -0.0781
  746TMC3    C311022   0.104   3.972  10.661  1.0149 -0.0809  0.1076
  746TMC3    C411023   0.025   4.109  10.888 -0.2538  0.3814  0.5476
  746TMC3    C511024   0.004   3.974  10.877  0.5180  0.0319 -0.0543
  746TMC3    C611025   0.034   3.906  10.762  1.3311 -0.0711  0.1802
  746TMC3     C11026   0.080   4.321  10.783 -0.0050  0.3755  0.6171
  746TMC3     O11027   0.017   4.374  10.876 -0.0313 -0.2165 -0.2289
  746TMC3     H11028   0.189   4.147  10.596 -0.0185  1.8337  0.6413
  746TMC3    H111029   0.003   4.181  10.967 -0.2578 -0.5014  1.3512
  746TMC3    H211030   0.012   3.800  10.755  1.0351 -0.1144  1.7232
  746TMC3    C711031   4.613   3.924  10.949 -0.2192 -0.1737 -0.1968
  746TMC3    C811032   0.042   3.953  10.532 -0.6419  0.0175 -0.4821
  746TMC3    O111033   4.543   3.843  10.893 -0.0652 -0.3597 -0.4150
  746TMC3    O211034   4.643   3.943  10.529  0.3453  0.2875  0.2488
  747TMC3    C111035   2.697   4.017  11.118  0.5471 -0.5102  0.0042
  747TMC3    C211036   2.564   3.999  11.101 -0.3081 -0.6218  0.2630
  747TMC3    C311037   2.469   4.076  11.162  0.3448  0.0138 -0.2908
  747TMC3    C411038   2.746   4.117  11.200 -0.9611  0.0924 -0.1864
  747TMC3    C511039   2.645   4.195  11.266  0.0007  0.5624 -0.0569
  747TMC3    C611040   2.508   4.177  11.245  0.3942 -0.2131  0.0643
  747TMC3     C11041   2.794   4.001  11.010  0.3895  0.2063 -0.0414
  747TMC3     O11042   2.878   4.089  11.010 -0.0077 -0.4851  0.2476
  747TMC3     H11043   2.527   3.918  11.039 -0.6271 -0.3235  0.0629
  747TMC3    H111044   2.851   4.132  11.219 -0.5234 -0.3930 -2.1598
  747TMC3    H211045   2.447   4.261  11.277  2.2411  1.1688  0.0107
  747TMC3    C711046   2.681   4.332  11.308  0.4389 -0.2332 -0.0995
  747TMC3    C811047   2.342   4.007  11.194 -0.8012 -0.0156 -0.9851
  747TMC3    O111048   2.603   4.394  11.380  0.0440 -0.3310 -0.0197
  747TMC3    O211049   2.329   3.890  11.162  0.7818 -0.1225 -0.2157
  748MPD2     C11050   4.040   0.314   1.878 -0.0301  0.1465  0.5399
  748MPD2    C111051   4.141   0.224   1.867 -0.2172 -1.1265  0.3779
  748MPD2    C211052   4.265   0.268   1.829  0.4312 -0.7569 -0.2246
  748MPD2    C311053   4.281   0.402   1.795 -0.3900  0.0642  0.4708
  748MPD2    C411054   4.181   0.491   1.825  0.3731  0.2235  0.3630
  748MPD2    C511055   4.058   0.448   1.854 -0.2960 -0.2588  0.4886
  748MPD2     H11056   4.347   0.201   1.807  1.0453 -1.3723  3.8918
  748MPD2    H111057   4.195   0.599   1.817 -0.7441  0.2526 -1.0071
  748MPD2    H211058   3.945   0.285   1.923  0.2139 -0.3234  0.7525
  748MPD2    H311059   3.970   0.507   1.876  0.4242  1.5131 -1.4413
  748MPD2     N11060   4.394   0.449   1.724 -0.5483 -0.1465  0.3028
  748MPD2    H511061   4.473   0.385   1.726 -1.3015 -1.0271  2.7106
  748MPD2    N111062   4.109   0.087   1.881  0.5407 -0.4230 -0.2359
  748MPD2    H711063   4.012   0.078   1.911  0.8233 -0.2134  0.7614
  749TMC3    C111064   4.532   0.576   1.585  0.2924 -0.6095 -0.0138
  749TMC3    C211065   4.641   0.552   1.665 -0.8196 -0.3954  0.6037
  749TMC3    C311066   0.039   0.613   1.623 -0.8057  0.3915  0.0795
  749TMC3    C411067   4.531   0.668   1.487  0.0233  0.7956 -0.0230
  749TMC3    C511068   4.649   0.717   1.443  0.4979 -0.4889 -0.3647
  749TMC3    C611069   0.036   0.699   1.518 -0.1485 -0.3542  0.0479
  749TMC3     C11070   4.404   0.561   1.650 -1.1250  0.3620  0.3485
  749TMC3     O11071   4.321   0.646   1.629 -0.1215 -0.3810 -0.4583
  749TMC3     H11072   4.648   0.483   1.748 -2.4174  1.0439  1.9124
  749TMC3    H111073   4.437   0.681   1.434 -0.1720  0.9255  0.3584
  749TMC3    H211074   0.128   0.752   1.497 -0.5619 -0.1714 -1.2987
  749TMC3    C711075   4.655   0.827   1.355  0.5316  0.3632 -0.5771
  749TMC3    C811076   0.151   0.582   1.703  0.6661  0.3388 -0.1185
  749TMC3    O111077   0.026   0.840   1.280 -0.4898  0.2413 -0.5028
  749TMC3    O211078   0.160   0.636   1.813 -0.6475  0.1536  0.4889
  750MPD2     C11079   0.223   1.471  10.959 -0.1197  0.2345 -0.1582
  750MPD2    C111080   0.132   1.416  11.045 -0.3732 -0.6492  0.5062
  750MPD2    C211081   0.097   1.283  11.026  0.7555 -0.3456 -0.2307
  750MPD2    C311082   0.153   1.207  10.923  0.1956 -0.2185 -0.2884
  750MPD2    C411083   0.241   1.267  10.841 -0.1131 -0.4307 -0.1387
  750MPD2    C511084   0.277   1.395  10.860  0.3063  0.1993  0.4665
  750MPD2     H11085   0.042   1.221  11.095  0.0191  1.0130  0.4029
  750MPD2    H111086   0.292   1.211  10.764  1.6469  0.8529  0.0777
  750MPD2    H211087   0.255   1.574  10.969  3.7512 -0.9165 -0.8368
  750MPD2    H311088   0.345   1.450  10.794 -0.6633  1.0803  0.1976
  750MPD2     N11089   0.116   1.070  10.877  0.1010 -0.1800  0.1123
  750MPD2    H511090   0.148   1.046  10.784  1.8092 -0.6699  0.8386
  750MPD2    N111091   0.072   1.491  11.150 -0.3273  0.4047  0.3493
  750MPD2    H711092   0.106   1.586  11.153 -0.5602  0.4463  1.4059
  751TMC3    C111093   0.032   0.848  10.870 -0.3000 -0.8028 -0.0454
  751TMC3    C211094   4.623   0.800  10.871  0.1184  0.3983  0.4374
  751TMC3    C311095   4.598   0.696  10.790 -1.1686 -0.2558  0.6018
  751TMC3    C411096   0.130   0.806  10.782  0.0461 -0.4169  0.2624
  751TMC3    C511097   0.090   0.700  10.705 -0.0881  0.3534  0.1797
  751TMC3    C611098   4.699   0.634  10.725  0.4779 -0.1075 -0.0655
  751TMC3     C11099   0.042   0.973  10.941 -0.1711 -0.1360 -0.5770
  751TMC3     O11100   4.698   0.987  11.043 -0.5322  0.2477 -0.5293
  751TMC3     H11101   4.549   0.852  10.930 -0.1512 -0.3674  0.7695
  751TMC3    H111102   0.230   0.848  10.778 -0.1941  0.0782 -0.6413
  751TMC3    H211103   4.675   0.556  10.653 -1.4932  0.6378 -0.2205
  751TMC3    C711104   0.179   0.676  10.588  0.2157  0.2884 -0.2680
  751TMC3    C811105   4.469   0.635  10.772  0.5016  0.1325 -0.0607
  751TMC3    O111106   0.226   0.777  10.535 -0.0109 -0.6633 -0.2709
  751TMC3    O211107   4.451   0.567  10.671  0.5042 -0.5290 -0.2456
  752TMC3    C111108   3.787   1.445  16.917 -0.0777 -0.9511  0.3878
  752TMC3    C211109   3.683   1.391  16.986 -0.1342  0.0922  0.0099
  752TMC3    C311110   3.625   1.469  17.083 -0.8893  0.0988 -0.5653
  752TMC3    C411111   3.833   1.568  16.946 -0.0625  0.0044  0.1913
  752TMC3    C511112   3.781   1.639  17.049  0.2760  0.5765 -0.8502
  752TMC3    C611113   3.672   1.598  17.119 -0.1758  0.0003 -0.0672
  752TMC3     C11114   3.791   1.421  16.770 -0.4394  0.2232 -0.8188
  752TMC3     O11115   3.896   1.453  16.714  0.0482  0.4210  1.0879
  752TMC3     H11116   3.670   1.285  16.968  1.8693 -0.4380  1.6216
  752TMC3    H111117   3.922   1.607  16.900 -0.2339 -0.3453 -0.4301
  752TMC3    H211118   3.622   1.664  17.188 -1.3163  0.1420 -1.0205
  752TMC3    C711119   3.844   1.761  17.092 -0.2051  0.6313 -0.0767
  752TMC3    C811120   3.527   1.404  17.163  0.0798 -0.0936  0.0568
  752TMC3    O111121   3.844   1.786  17.216 -0.5746 -0.1690  0.1490
  752TMC3    O211122   3.465   1.311  17.110  0.2384 -0.6014 -0.2291
  753TMC3    C111123   1.082   2.504  13.237  0.1887 -0.0772 -0.4491
  753TMC3    C211124   0.972   2.574  13.281  0.3105  1.2667  0.1111
  753TMC3    C311125   0.850   2.534  13.234 -0.0328  0.3049  0.4156
  753TMC3    C411126   1.077   2.413  13.136  0.1225 -0.9390 -0.1466
  753TMC3    C511127   0.949   2.392  13.080 -0.2596 -0.2813 -0.0205
  753TMC3    C611128   0.832   2.445  13.128 -0.2643  0.1024 -0.1109
  753TMC3     C11129   1.207   2.533  13.299  0.4454  0.0705 -0.3181
  753TMC3     O11130   1.202   2.601  13.400 -0.0029 -0.3647 -0.1757
  753TMC3     H11131   0.989   2.657  13.348 -0.1153  1.4302  0.0204
  753TMC3    H111132   1.161   2.360  13.094  1.8310  2.9067 -1.6152
  753TMC3    H211133   0.733   2.408  13.105 -0.8028  1.4845  0.0224
  753TMC3    C711134   0.934   2.262  13.015 -0.1688  0.3361 -0.6470
  753TMC3    C811135   0.734   2.554  13.323  0.6590 -0.8557 -0.7980
  753TMC3    O111136   1.012   2.176  13.053  0.5804  0.6634 -0.4391
  753TMC3    O211137   0.626   2.508  13.280  0.2354 -0.6930  0.1988
  754MPD2     C11138   3.844   0.388  12.436  0.5542 -0.3744 -0.4367
  754MPD2    C111139   3.837   0.481  12.535 -0.7693  0.4945 -0.0467
  754MPD2    C211140   3.718   0.526  12.584  0.5428  0.4197 -0.4909
  754MPD2    C311141   3.601   0.474  12.530 -0.5553 -0.0338  0.0818
  754MPD2    C411142   3.609   0.386  12.425 -0.1480  0.8319  0.4351
  754MPD2    C511143   3.725   0.341  12.380  0.2586  0.7525 -0.3198
  754MPD2     H11144   3.715   0.607  12.657 -3.0947  0.6803 -0.9098
  754MPD2    H111145   3.518   0.343  12.385 -1.0453  1.0204  2.2857
  754MPD2    H211146   3.939   0.353  12.397  0.3433  1.2385 -2.4312
  754MPD2    H311147   3.721   0.270  12.298 -3.1922  1.0875 -0.4604
  754MPD2     N11148   3.469   0.497  12.578  0.2382  0.1474 -0.3780
  754MPD2    H511149   3.395   0.434  12.550  1.5780 -1.8152  0.4108
  754MPD2    N111150   3.958   0.533  12.589  0.2150  0.2735 -0.1742
  754MPD2    H711151   4.041   0.474  12.591  1.3401  1.8651  0.4049
  755MPD2     C11152   2.963   1.227  13.050  0.1389 -0.2242 -1.1328
  755MPD2    C111153   2.969   1.113  13.134 -0.0096 -0.0067 -0.2036
  755MPD2    C211154   3.012   0.993  13.082  0.2457 -0.1865 -0.4298
  755MPD2    C311155   3.022   0.976  12.944 -0.1327  0.4385  0.0012
  755MPD2    C411156   3.017   1.090  12.861  0.1775 -0.0464 -0.4344
  755MPD2    C511157   2.981   1.212  12.915 -0.3380  0.2962 -1.1331
  755MPD2     H11158   3.013   0.907  13.149  1.3217  0.1334 -0.0319
  755MPD2    H111159   3.052   1.098  12.758 -0.9494  0.1906 -0.8039
  755MPD2    H211160   2.942   1.326  13.090 -1.0939 -1.4262  1.1841
  755MPD2    H311161   2.976   1.301  12.854 -0.3219  0.2061 -1.2675
  755MPD2     N11162   3.059   0.852  12.890  0.2620  0.3294 -0.3417
  755MPD2    H511163   3.084   0.852  12.792 -1.4633  1.5326 -0.7835
  755MPD2    N111164   2.969   1.123  13.273  0.1029 -0.4651  0.2417
  755MPD2    H711165   2.995   1.047  13.334  1.6137 -0.3531 -0.2687
  756MPD2     C11166   0.437   1.653   9.451  0.1162 -0.3285  0.1435
  756MPD2    C111167   0.340   1.749   9.487  0.3013 -0.5578 -0.5469
  756MPD2    C211168   0.217   1.748   9.426  0.1479  0.2670 -1.0671
  756MPD2    C311169   0.197   1.652   9.327  0.3885 -0.6537  0.1756
  756MPD2    C411170   0.299   1.560   9.302 -0.0137 -0.4477  0.2951
  756MPD2    C511171   0.414   1.565   9.359 -0.2096 -0.1993 -0.5761
  756MPD2     H11172   0.135   1.814   9.454 -0.5048 -1.6147  1.4002
  756MPD2    H111173   0.282   1.480   9.231  0.9368 -1.6454  1.4164
  756MPD2    H211174   0.532   1.643   9.502  2.3011  0.4360 -3.7459
  756MPD2    H311175   0.485   1.487   9.334  1.3506  0.5758  1.3327
  756MPD2     N11176   0.080   1.670   9.247  0.0321  0.0315  0.4866
  756MPD2    H511177   0.029   1.758   9.247 -0.8816 -0.4897  0.2866
  756MPD2    N111178   0.368   1.854   9.573  0.5573 -0.4277  0.8154
  756MPD2    H711179   0.291   1.915   9.598 -0.9756 -0.4506 -3.9011
  757MPD2     C11180   4.176   0.958   8.877 -0.6733 -0.5488 -0.0029
  757MPD2    C111181   4.231   0.971   8.999 -0.2139  0.8062  0.1659
  757MPD2    C211182   4.307   1.078   9.030 -0.0464 -0.2022  0.3774
  757MPD2    C311183   4.304   1.188   8.942  0.3178  0.4862  0.3531
  757MPD2    C411184   4.230   1.180   8.829 -0.5718 -0.5697 -0.2570
  757MPD2    C511185   4.169   1.064   8.798 -0.6265  0.1906 -0.2251
  757MPD2     H11186   4.364   1.100   9.119 -0.1646 -0.6357  0.5575
  757MPD2    H111187   4.222   1.261   8.758  1.7866  0.6842  0.9086
  757MPD2    H211188   4.107   0.879   8.847  0.8704 -1.3536 -1.4052
  757MPD2    H311189   4.103   1.066   8.711 -1.4513 -0.3296  0.3833
  757MPD2     N11190   4.365   1.307   8.988 -0.4828 -0.2690  0.5589
  757MPD2    H511191   4.421   1.299   9.072 -1.0327  2.9160  1.2120
  757MPD2    N111192   4.219   0.858   9.084  0.6648 -0.2875  0.0764
  757MPD2    H711193   4.157   0.785   9.051  0.5256 -1.0215  1.9312
  758MPD2     C11194   4.228   1.118  15.896 -0.4024 -0.0546  0.4864
  758MPD2    C111195   4.318   1.033  15.961 -0.1387  0.5271 -0.4080
  758MPD2    C211196   4.314   1.040  16.102 -0.4215  0.6349 -0.2502
  758MPD2    C311197   4.235   1.129  16.176  0.4091  0.7040 -0.1713
  758MPD2    C411198   4.162   1.216  16.103 -0.4932  0.5036 -0.5882
  758MPD2    C511199   4.161   1.214  15.963  0.1901 -0.5215 -0.0946
  758MPD2     H11200   4.402   0.999  16.150 -0.3140  1.2076  0.0399
  758MPD2    H111201   4.090   1.274  16.160 -0.7208 -1.2731  0.9361
  758MPD2    H211202   4.233   1.123  15.788  0.0324 -1.2252  0.4515
  758MPD2    H311203   4.094   1.283  15.913 -0.8640 -0.1280  1.8521
  758MPD2     N11204   4.248   1.142  16.318 -0.6540  0.7624 -0.2453
  758MPD2    H511205   4.232   1.236  16.352  2.8708  1.4691 -0.5270
  758MPD2    N111206   4.412   0.942  15.898  0.1018 -0.1696  0.1671
  758MPD2    H711207   4.429   0.958  15.799  1.6796  0.6917  0.5717
  759MPD2     C11208   3.498   3.504   9.975 -0.5325  1.3983 -0.0086
  759MPD2    C111209   3.474   3.409   9.877  0.5940 -0.7432 -0.0512
  759MPD2    C211210   3.496   3.446   9.747 -0.4756 -0.2906 -0.1422
  759MPD2    C311211   3.547   3.569   9.710 -0.3721  0.1101  0.7943
  759MPD2    C411212   3.579   3.663   9.811 -0.7557  0.0686  0.3117
  759MPD2    C511213   3.544   3.627   9.934 -0.5237  0.1457  0.4667
  759MPD2     H11214   3.477   3.373   9.669 -1.8366  0.2277 -0.2962
  759MPD2    H111215   3.627   3.758   9.790 -2.2443  0.6492 -0.4859
  759MPD2    H211216   3.467   3.491  10.078 -0.1730  3.0820  0.3143
  759MPD2    H311217   3.559   3.699  10.013  1.4318 -0.7692  0.9259
  759MPD2     N11218   3.565   3.600   9.576 -0.1069  0.2843  0.1795
  759MPD2    H511219   3.539   3.523   9.516 -1.2588  0.9640 -0.1857
  759MPD2    N111220   3.418   3.281   9.902 -0.1824  1.0359 -0.1612
  759MPD2    H711221   3.381   3.229   9.823 -1.8168  1.7617  0.1177
  760MPD2     C11222   2.854   1.149  11.697 -0.1492  0.0562  0.1440
  760MPD2    C111223   2.984   1.188  11.710 -0.3841 -0.5630 -0.4106
  760MPD2    C211224   3.076   1.096  11.763  0.0500  0.3935  0.3992
  760MPD2    C311225   3.039   0.969  11.788 -0.2466 -0.0852 -0.0652
  760MPD2    C411226   2.911   0.927  11.774 -0.0767  0.1201  0.0460
  760MPD2    C511227   2.820   1.023  11.729 -0.3615  0.0995  0.5265
  760MPD2     H11228   3.179   1.129  11.769  0.0277  0.1679  2.1108
  760MPD2    H111229   2.862   0.832  11.790 -0.4918  0.4787  0.9771
  760MPD2    H211230   2.778   1.219  11.663  1.5222  0.4405 -2.7785
  760MPD2    H311231   2.714   1.001  11.720  0.0556 -2.0639  0.7684
  760MPD2     N11232   3.131   0.871  11.826  0.3587  0.2959  0.1606
  760MPD2    H511233   3.103   0.774  11.831  1.0462  0.0501 -0.8919
  760MPD2    N111234   3.034   1.314  11.676  0.1359  0.0467 -0.2944
  760MPD2    H711235   3.133   1.328  11.692  0.0737 -1.9261  1.8150
  761MPD2     C11236   3.969   0.576  10.873 -0.5362  0.2172  0.1087
  761MPD2    C111237   4.059   0.496  10.804  0.3045 -0.0113 -0.3158
  761MPD2    C211238   4.195   0.523  10.800 -0.8847 -0.3567 -0.4768
  761MPD2    C311239   4.244   0.630  10.875 -0.1705 -0.2466  0.2629
  761MPD2    C411240   4.155   0.705  10.950  0.2773 -0.2234  0.1230
  761MPD2    C511241   4.022   0.678  10.948  0.7637  0.4084 -0.0296
  761MPD2     H11242   4.266   0.456  10.753 -1.0974 -2.1150  1.6698
  761MPD2    H111243   4.191   0.789  11.008 -2.3309 -1.9847  4.3282
  761MPD2    H211244   3.861   0.574  10.879 -0.4716  1.4242  1.6337
  761MPD2    H311245   3.946   0.735  11.000  2.3192  1.3719  1.1794
  761MPD2     N11246   4.380   0.673  10.871 -0.3607 -0.0558 -0.3058
  761MPD2    H511247   4.411   0.749  10.930 -1.0036 -0.7949  0.9711
  761MPD2    N111248   4.013   0.382  10.741 -0.8041 -0.0335  0.8719
  761MPD2    H711249   3.918   0.353  10.763 -0.7016 -0.0633  1.2684
  762MPD2     C11250   4.501   0.314  10.445  0.0637 -0.4971  0.4367
  762MPD2    C111251   4.475   0.176  10.429 -0.6698  0.2912  0.1157
  762MPD2    C211252   4.550   0.109  10.337  0.2589  0.7907  0.8369
  762MPD2    C311253   4.666   0.163  10.281  0.3951 -0.1955 -0.0530
  762MPD2    C411254   4.703   0.292  10.312  0.1535  0.3401 -0.4827
  762MPD2    C511255   4.616   0.366  10.393  0.0660 -0.1713 -0.1771
  762MPD2     H11256   4.526   0.004  10.324  0.2299  0.9466 -0.3951
  762MPD2    H111257   0.070   0.342  10.275 -0.1415  0.1936 -1.3922
  762MPD2    H211258   4.446   0.375  10.515  0.4917  2.1856 -1.5724
  762MPD2    H311259   4.637   0.470  10.416  0.6479  0.1069 -1.9670
  762MPD2     N11260   0.035   0.078  10.198 -0.4015  0.1256 -0.6559
  762MPD2    H511261   0.018   4.700  10.188 -0.7016 -0.0171  1.2173
  762MPD2    N111262   4.370   0.129  10.513 -0.1850 -0.4201 -0.6015
  762MPD2    H711263   4.312   0.199  10.558  0.0019 -0.5238 -0.1985
  763MPD2     C11264   1.012   0.816  16.319  0.1263 -0.4007 -0.8495
  763MPD2    C111265   1.109   0.855  16.230  0.9977  0.3217 -0.2876
  763MPD2    C211266   1.227   0.914  16.271 -0.0666  0.7141  0.7187
  763MPD2    C311267   1.229   0.964  16.402 -0.0575  0.1818 -0.0655
  763MPD2    C411268   1.127   0.944  16.485  0.4103  0.3946  0.8759
  763MPD2    C511269   1.030   0.861  16.447 -0.0228  1.2008  0.0342
  763MPD2     H11270   1.303   0.923  16.195 -2.2348  1.3178 -1.3669
  763MPD2    H111271   1.131   0.982  16.587  1.9420  1.3508  0.4601
  763MPD2    H211272   0.915   0.782  16.286 -1.1892  3.0876 -0.5005
  763MPD2    H311273   0.945   0.854  16.514  0.1498  1.4919  0.2852
  763MPD2     N11274   1.337   1.040  16.445  0.2299  0.2260  0.6002
  763MPD2    H511275   1.334   1.067  16.543  0.7258  2.4463 -0.0077
  763MPD2    N111276   1.098   0.817  16.096  0.4224  0.6198 -0.4897
  763MPD2    H711277   1.174   0.840  16.032  0.1074  2.0587 -0.3390
  764MPD2     C11278   4.479   3.202  17.330 -0.1507  0.2021  0.3790
  764MPD2    C111279   4.455   3.073  17.275  0.9763  0.3599  0.0121
  764MPD2    C211280   4.405   2.976  17.360  0.0024  0.3757  0.2314
  764MPD2    C311281   4.373   3.013  17.493  0.1820  0.1036  0.0252
  764MPD2    C411282   4.387   3.143  17.547  0.0956  0.0611 -0.1187
  764MPD2    C511283   4.446   3.231  17.461  0.3938 -0.0650  0.6133
  764MPD2     H11284   4.390   2.876  17.323 -1.1731 -0.0236  1.7801
  764MPD2    H111285   4.358   3.176  17.646 -1.3049 -0.3757 -0.3879
  764MPD2    H211286   4.525   3.281  17.272 -1.3830  0.0405 -0.8162
  764MPD2    H311287   4.468   3.328  17.504  0.6494 -1.3918  3.5270
  764MPD2     N11288   4.321   2.911  17.572  0.2947  0.5356  0.6415
  764MPD2    H511289   4.325   2.818  17.531  0.0248 -0.5281  3.0649
  764MPD2    N111290   4.497   3.032  17.146  0.2141  0.2320 -0.3125
  764MPD2    H711291   4.481   2.933  17.132 -1.1462  0.4446 -0.2857
  765MPD2     C11292   3.687   0.350  15.737 -0.1678 -0.9707 -0.0233
  765MPD2    C111293   3.792   0.391  15.821 -1.1887  0.3549 -0.4129
  765MPD2    C211294   3.908   0.319  15.827 -0.0554 -0.2805  0.6425
  765MPD2    C311295   3.926   0.208  15.740 -0.5423 -0.0635 -1.0794
  765MPD2    C411296   3.822   0.183  15.655  0.4083  0.6737 -0.3845
  765MPD2    C511297   3.701   0.242  15.657  0.0214 -0.5961  0.4732
  765MPD2     H11298   3.988   0.345  15.896 -0.1808 -3.4549  1.9656
  765MPD2    H111299   3.840   0.116  15.572  2.8698  1.1065 -0.1977
  765MPD2    H211300   3.589   0.396  15.740  1.5443  2.5479  1.9514
  765MPD2    H311301   3.632   0.208  15.581  0.3218  1.0840 -0.5446
  765MPD2     N11302   4.039   0.127  15.746  0.4634  0.1821  0.0691
  765MPD2    H511303   4.105   0.150  15.820  1.0029  1.2763 -0.7586
  765MPD2    N111304   3.768   0.514  15.884 -0.0306  0.6240 -0.3215
  765MPD2    H711305   3.672   0.544  15.877 -0.6744 -1.0822  1.1671
  766MPD2     C11306   3.273   0.889  15.628  0.3624 -0.4934  0.0478
  766MPD2    C111307   3.366   0.798  15.663 -1.1089  0.6160 -0.8377
  766MPD2    C211308   3.405   0.694  15.571 -0.3547  0.5700  0.1019
  766MPD2    C311309   3.345   0.687  15.443  0.1784  0.2889 -0.0506
  766MPD2    C411310   3.251   0.784  15.411  0.4896  0.5723  0.3851
  766MPD2    C511311   3.207   0.870  15.508 -0.2738 -0.5586 -0.2042
  766MPD2     H11312   3.489   0.628  15.587 -0.2167  0.6182 -0.4185
  766MPD2    H111313   3.196   0.783  15.318  0.4479  3.1137  0.3920
  766MPD2    H211314   3.237   0.965  15.696 -1.1940 -0.4383 -0.8497
  766MPD2    H311315   3.135   0.946  15.478  1.1649  0.3151 -1.4265
  766MPD2     N11316   3.390   0.613  15.339  0.1295  0.4631  0.1849
  766MPD2    H511317   3.351   0.631  15.247 -0.1338 -0.8897  0.0370
  766MPD2    N111318   3.420   0.822  15.794  0.5417  0.3325 -0.6427
  766MPD2    H711319   3.397   0.904  15.850  0.3717  0.6800 -1.2270
  767MPD2     C11320   3.101   1.056  15.018 -0.2359 -0.0397  0.1606
  767MPD2    C111321   3.202   0.962  15.043  0.4361  0.4494  0.0898
  767MPD2    C211322   3.201   0.849  14.963 -0.1316 -0.5868 -0.5148
  767MPD2    C311323   3.098   0.823  14.869  0.2667  0.4372  0.6438
  767MPD2    C411324   2.993   0.908  14.862 -0.2231  0.3658 -0.2283
  767MPD2    C511325   2.994   1.028  14.936 -0.6245  0.8514  0.4562
  767MPD2     H11326   3.285   0.781  14.966  0.9444  0.7858  0.5448
  767MPD2    H111327   2.906   0.888  14.800  0.9326  0.9250 -2.0009
  767MPD2    H211328   3.087   1.145  15.079  0.5689  0.1032  0.1288
  767MPD2    H311329   2.906   1.090  14.929 -0.4856  0.6877 -2.5406
  767MPD2     N11330   3.107   0.709  14.777 -0.0163 -0.4839  0.4381
  767MPD2    H511331   3.181   0.640  14.788 -1.0379 -1.7198 -0.5219
  767MPD2    N111332   3.305   0.999  15.132  0.0531 -0.2793  0.0674
  767MPD2    H711333   3.284   1.080  15.189 -1.5500  0.6022 -1.7579
  768MPD2     C11334   4.224   3.256  11.038 -0.1228  0.2759  0.4173
  768MPD2    C111335   4.213   3.337  11.152  0.2841 -0.3904 -0.0989
  768MPD2    C211336   4.325   3.377  11.225 -0.2190 -0.4914 -0.4808
  768MPD2    C311337   4.447   3.332  11.180 -0.2601 -0.4127  0.0055
  768MPD2    C411338   4.457   3.241  11.075 -0.6736 -0.2770  0.1700
  768MPD2    C511339   4.350   3.207  10.997 -0.5825  0.0112 -0.1126
  768MPD2     H11340   4.323   3.439  11.314  0.2817 -2.2867  0.7793
  768MPD2    H111341   4.549   3.191  11.048 -0.5147 -0.6508  1.4011
  768MPD2    H211342   4.138   3.229  10.979  0.0859 -1.0828  0.7400
  768MPD2    H311343   4.360   3.139  10.913  1.7135 -1.1337  1.1083
  768MPD2     N11344   4.564   3.373  11.239 -0.7051  0.4360 -0.2910
  768MPD2    H511345   4.647   3.346  11.186  0.9526  1.7253  1.6368
  768MPD2    N111346   4.091   3.400  11.195  0.2875 -0.5038  0.4911
  768MPD2    H711347   4.089   3.443  11.286 -1.5447  2.2822 -0.8520
  769MPD2     C11348   0.365   1.858  14.362 -0.2098  0.3403  0.2712
  769MPD2    C111349   0.318   1.930  14.471 -0.0784  0.1080  0.6050
  769MPD2    C211350   0.408   1.958  14.574  0.4362  0.3418 -0.1235
  769MPD2    C311351   0.536   1.922  14.568  0.0159  0.8615 -0.7788
  769MPD2    C411352   0.586   1.848  14.459  0.4182 -0.2221  1.0920
  769MPD2    C511353   0.495   1.816  14.364 -0.8849  0.3542 -0.5442
  769MPD2     H11354   0.377   1.999  14.669 -1.9199 -1.2442 -0.1919
  769MPD2    H111355   0.685   1.806  14.444  1.3109  1.6381  1.8177
  769MPD2    H211356   0.311   1.820  14.275  1.0120 -1.2646  0.2058
  769MPD2    H311357   0.544   1.758  14.287  1.1440 -0.5288  1.3982
  769MPD2     N11358   0.614   1.963  14.681 -0.1956  0.3259  0.1703
  769MPD2    H511359   0.568   2.000  14.763 -0.3613  3.4096 -1.3311
  769MPD2    N111360   0.182   1.974  14.486  0.8464  0.3074 -0.2541
  769MPD2    H711361   0.128   1.951  14.403  1.8289  0.7855 -1.0337
  770MPD2     C11362   4.335   1.571  15.079  0.1226  0.0769  0.5799
  770MPD2    C111363   4.413   1.531  14.974  0.7519 -0.7592 -0.8497
  770MPD2    C211364   4.455   1.625  14.881 -0.2768 -0.4232 -0.4525
  770MPD2    C311365   4.421   1.763  14.897 -0.2771  0.5001 -0.2531
  770MPD2    C411366   4.333   1.796  14.992  0.4150  0.2208  0.7528
  770MPD2    C511367   4.288   1.703  15.083 -0.1882 -0.4846 -0.2541
  770MPD2     H11368   4.511   1.597  14.792  0.7853 -2.5536  0.8900
  770MPD2    H111369   4.289   1.894  15.012 -0.8285  0.2946 -2.3178
  770MPD2    H211370   4.312   1.500  15.158 -1.6665 -2.0706 -1.8857
  770MPD2    H311371   4.216   1.727  15.160  1.0172  0.6081  0.5221
  770MPD2     N11372   4.455   1.858  14.797  0.5683 -0.3212  0.0061
  770MPD2    H511373   4.499   1.821  14.714  3.2085 -0.1442  1.3293
  770MPD2    N111374   4.464   1.400  14.964  0.0707 -0.2517 -0.2492
  770MPD2    H711375   4.433   1.333  15.034  1.7578 -2.4227 -1.5565
  771MPD2     C11376   1.446   4.419  13.728  0.0105 -0.1739 -0.0923
  771MPD2    C111377   1.312   4.442  13.691  0.4588  0.2399 -0.1918
  771MPD2    C211378   1.234   4.329  13.662  0.1074  0.7200  0.3314
  771MPD2    C311379   1.274   4.196  13.699  0.5989  0.5237  0.4860
  771MPD2    C411380   1.400   4.188  13.758 -1.1430 -0.3800 -0.5077
  771MPD2    C511381   1.478   4.295  13.770 -0.4033 -0.0216 -0.4015
  771MPD2     H11382   1.133   4.337  13.622 -0.4834  0.3085  1.7462
  771MPD2    H111383   1.440   4.102  13.811 -1.2000  0.0705  0.2630
  771MPD2    H211384   1.526   4.487  13.753 -0.4725  0.7727 -1.0805
  771MPD2    H311385   1.577   4.290  13.814  0.2806  0.4002 -1.8816
  771MPD2     N11386   1.195   4.083  13.681  0.6481  0.8582 -0.4098
  771MPD2    H511387   1.099   4.094  13.650 -0.3120  0.0138  2.2323
  771MPD2    N111388   1.274   4.572  13.667 -0.7737 -0.7516  0.0078
  771MPD2    H711389   1.346   4.640  13.688 -2.9634  1.0697  1.5809
  772MPD2     C11390   0.724   0.432  13.873  0.3338  0.3029  0.5086
  772MPD2    C111391   0.726   0.333  13.772 -0.3147  0.1617  0.2925
  772MPD2    C211392   0.602   0.280  13.742  1.0172  0.8458 -0.4275
  772MPD2    C311393   0.483   0.324  13.794 -0.4697 -0.3891  0.0911
  772MPD2    C411394   0.487   0.434  13.882  0.3602  0.2273 -0.4129
  772MPD2    C511395   0.610   0.484  13.925 -0.5582  0.0273 -0.7297
  772MPD2     H11396   0.595   0.207  13.662 -0.8237  0.2301  0.2966
  772MPD2    H111397   0.399   0.469  13.934  0.6153 -0.5864  0.5723
  772MPD2    H211398   0.820   0.476  13.898  1.0818  0.5103 -2.7083
  772MPD2    H311399   0.610   0.568  13.993 -2.1024 -0.6742  0.1383
  772MPD2     N11400   0.357   0.263  13.764  0.0269 -0.0285  0.1162
  772MPD2    H511401   0.277   0.310  13.804 -0.2396 -0.4422  0.0715
  772MPD2    N111402   0.844   0.268  13.716  0.1882  0.1230  0.0581
  772MPD2    H711403   0.833   0.192  13.651 -0.6788  1.7368 -1.6898
  773MPD2     C11404   0.318   1.305   0.066  0.3626  0.0801  0.0560
  773MPD2    C111405   0.217   1.218   0.034 -0.0807  0.0705 -0.0872
  773MPD2    C211406   0.216   1.098   0.109 -0.7017 -0.4306 -0.4203
  773MPD2    C311407   0.307   1.076   0.215  0.2334 -0.4056  0.3282
  773MPD2    C411408   0.400   1.174   0.247 -1.0000  0.2474  0.4123
  773MPD2    C511409   0.403   1.289   0.168  0.1933  0.1802  0.3238
  773MPD2     H11410   0.140   1.025   0.083 -1.5783  0.1116  0.6509
  773MPD2    H111411   0.470   1.159   0.328 -1.1670 -2.6178  0.0205
  773MPD2    H211412   0.343   1.386  17.686  1.2354  0.1401  0.4555
  773MPD2    H311413   0.481   1.362   0.183  0.9512 -0.3851 -0.8985
  773MPD2     N11414   0.310   0.946   0.264 -0.8006  0.4056  0.0381
  773MPD2    H511415   0.245   0.877   0.227  1.8592 -2.5829  0.9559
  773MPD2    N111416   0.137   1.227  17.607 -0.1823  0.1852  0.4883
  773MPD2    H711417   0.063   1.158  17.599 -1.0913  1.2124  0.0294
  774MPD2     C11418   4.217   0.155  13.357  0.2538  0.5344 -0.9677
  774MPD2    C111419   4.098   0.145  13.281  0.3863 -0.7471  0.3675
  774MPD2    C211420   4.083   0.217  13.164 -0.2536  0.2533 -0.4311
  774MPD2    C311421   4.193   0.300  13.117  0.1093 -0.3240 -0.3987
  774MPD2    C411422   4.310   0.292  13.191  0.6510  1.0076  0.2100
  774MPD2    C511423   4.328   0.216  13.300  0.2085  0.3510  0.1615
  774MPD2     H11424   3.991   0.217  13.107  1.1308  0.0782 -2.6379
  774MPD2    H111425   4.396   0.348  13.157  0.1038  2.1247  0.6561
  774MPD2    H211426   4.236   0.099  13.448 -1.6465 -0.5506 -1.2309
  774MPD2    H311427   4.423   0.221  13.352 -0.3761 -0.1559  1.2656
  774MPD2     N11428   4.186   0.385  13.006  0.3216 -0.1944  0.3318
  774MPD2    H511429   4.096   0.389  12.961  1.1306 -1.4470 -1.4166
  774MPD2    N111430   3.999   0.069  13.348 -0.2261 -0.3786  0.3661
  774MPD2    H711431   4.019   0.026  13.438 -0.6651 -3.2081 -0.8833
  775MPD2     C11432   0.979   1.661  15.742  0.1692 -0.2859  0.1488
  775MPD2    C111433   0.951   1.775  15.810 -0.2882  0.1713 -0.4099
  775MPD2    C211434   0.934   1.893  15.744 -0.3297  0.5104  0.1778
  775MPD2    C311435   0.944   1.902  15.604 -0.3039  0.4399  0.0184
  775MPD2    C411436   0.990   1.789  15.535  0.3533  0.8189 -0.2473
  775MPD2    C511437   1.005   1.670  15.604 -0.7301  0.3006 -0.2017
  775MPD2     H11438   0.907   1.983  15.797  0.3962  0.0660  1.3011
  775MPD2    H111439   1.004   1.780  15.428  1.6984  1.5769 -0.1388
  775MPD2    H211440   0.988   1.565  15.792  1.2428 -0.1297  0.2441
  775MPD2    H311441   1.035   1.580  15.552 -1.0162  0.6471 -0.9724
  775MPD2     N11442   0.935   2.023  15.532  0.3017 -0.6838 -0.5758
  775MPD2    H511443   0.959   2.011  15.434 -0.0471 -2.4420 -0.4410
  775MPD2    N111444   0.940   1.765  15.951 -0.7043 -0.6370 -0.2350
  775MPD2    H711445   0.927   1.672  15.989 -0.8893 -0.6884 -0.4295
  776MPD2     C11446   4.653   2.153  11.685 -0.0242  0.1096  0.3654
  776MPD2    C111447   4.715   2.111  11.572  0.4422  0.1299  0.2806
  776MPD2    C211448   0.065   2.201  11.498 -0.0867 -0.1080 -0.7587
  776MPD2    C311449   0.058   2.336  11.523 -0.6214 -0.3755  0.3061
  776MPD2    C411450   4.719   2.375  11.639  0.6207 -0.6661  0.6737
  776MPD2    C511451   4.654   2.288  11.718 -0.2889 -0.0477  0.3405
  776MPD2     H11452   0.123   2.158  11.418  0.2960 -0.9673 -0.0243
  776MPD2    H111453   4.699   2.478  11.668 -1.4602 -0.4031 -1.7970
  776MPD2    H211454   4.604   2.088  11.756  0.3910  0.3865  0.9088
  776MPD2    H311455   4.607   2.326  11.808 -0.4484 -3.5150  1.7625
  776MPD2     N11456   0.113   2.432  11.437  0.3349 -0.1917  0.2560
  776MPD2    H511457   0.130   2.523  11.478  0.4716  0.1362 -0.5350
  776MPD2    N111458   4.697   1.975  11.539 -0.3667  0.0726  0.8908
  776MPD2    H711459   4.637   1.929  11.606  0.4513 -2.4865 -0.1254
  777MPD2     C11460   0.520   4.663   0.882 -0.2182  0.4722 -0.4990
  777MPD2    C111461   0.539   4.552   0.951  0.7767  0.3321  0.4851
  777MPD2    C211462   0.507   4.433   0.889  0.0815 -0.2566  0.3869
  777MPD2    C311463   0.448   4.429   0.762 -0.1891 -0.6165  0.7849
  777MPD2    C411464   0.433   4.550   0.690 -0.3018 -1.0937 -0.3290
  777MPD2    C511465   0.471   4.666   0.757  0.0904  0.0872  0.4623
  777MPD2     H11466   0.519   4.336   0.936  0.0857 -0.1967  0.5081
  777MPD2    H111467   0.408   4.556   0.584 -2.6241 -1.8505  0.1774
  777MPD2    H211468   0.553   0.027   0.939 -0.0885  0.5833 -0.7413
  777MPD2    H311469   0.477   0.033   0.694  0.8129 -0.3925 -0.1261
  777MPD2     N11470   0.396   4.302   0.713 -0.9373 -0.3144 -0.1472
  777MPD2    H511471   0.399   4.221   0.775  1.2716 -1.4080 -1.6776
  777MPD2    N111472   0.591   4.569   1.081  0.2247  0.3011  0.1825
  777MPD2    H711473   0.621   4.663   1.107  1.3339 -0.1807  0.6654
  778MPD2     C11474   1.333   0.088  14.384  0.0437  0.7434  0.8805
  778MPD2    C111475   1.326   4.682  14.423  0.5703 -0.0709  0.5454
  778MPD2    C211476   1.410   4.591  14.361  0.7455  0.8543 -0.4607
  778MPD2    C311477   1.503   4.633  14.275  0.3253  0.5005 -0.1439
  778MPD2    C411478   1.518   0.038  14.230 -0.3246  0.0822 -0.1591
  778MPD2    C511479   1.430   0.131  14.292  0.0131  0.4698  0.1049
  778MPD2     H11480   1.407   4.489  14.397 -0.7263  1.1750  0.2979
  778MPD2    H111481   1.585   0.072  14.152 -0.0314 -0.2329 -0.0447
  778MPD2    H211482   1.263   0.163  14.421  0.6594  2.0406 -0.5902
  778MPD2    H311483   1.413   0.234  14.262  0.2339  0.3686 -0.3797
  778MPD2     N11484   1.592   4.536  14.228 -0.5785 -0.2132 -0.6092
  778MPD2    H511485   1.592   4.443  14.269 -0.2588  0.4522  0.8784
  778MPD2    N111486   1.237   4.640  14.518 -0.2742 -0.0403 -0.4613
  778MPD2    H711487   1.222   4.540  14.530 -0.1434  0.1419  1.2699
  779MPD2     C11488   0.647   3.586  13.966  0.3343  0.2963  0.3056
  779MPD2    C111489   0.773   3.549  14.019  0.3982  0.2502  0.2916
  779MPD2    C211490   0.867   3.649  14.029  0.3207 -0.2930 -0.5531
  779MPD2    C311491   0.845   3.782  13.996  0.5246 -0.3011  0.3027
  779MPD2    C411492   0.723   3.817  13.946  1.1289  0.8550  0.5334
  779MPD2    C511493   0.625   3.719  13.936 -0.5981 -0.0678 -0.6239
  779MPD2     H11494   0.962   3.617  14.070 -0.3963 -1.9369 -0.2030
  779MPD2    H111495   0.683   3.912  13.912 -2.1356 -0.6079  0.3716
  779MPD2    H211496   0.563   3.519  13.952 -1.2851  3.1894 -3.6380
  779MPD2    H311497   0.531   3.754  13.895 -0.4144  0.3703 -0.6691
  779MPD2     N11498   0.953   3.879  14.011 -0.5499 -0.0595  0.1635
  779MPD2    H511499   1.039   3.850  14.057 -1.7735 -0.0584  2.3976
  779MPD2    N111500   0.810   3.417  14.050 -0.3986 -0.1475  0.6332
  779MPD2    H711501   0.900   3.404  14.096 -0.1816  0.5992  0.4266
  780MPD2     C11502   4.708   3.490   0.802 -0.7536 -0.6356  0.6234
  780MPD2    C111503   0.014   3.386   0.716 -0.3894 -0.1114  0.0448
  780MPD2    C211504   0.142   3.346   0.691 -0.1334 -0.4684  0.6310
  780MPD2    C311505   0.244   3.412   0.745  0.9269  0.4160  0.2926
  780MPD2    C411506   0.222   3.518   0.825 -0.6057 -0.1818 -0.3305
  780MPD2    C511507   0.091   3.559   0.855  1.2564 -0.3555  0.2952
  780MPD2     H11508   0.172   3.266   0.624 -0.7963 -0.1569 -0.0385
  780MPD2    H111509   0.304   3.571   0.873 -1.1011  0.3830 -0.1006
  780MPD2    H211510   4.605   3.517   0.821 -0.6035 -0.0061  0.5348
  780MPD2    H311511   0.077   3.639   0.927 -0.4521 -0.8465  0.5158
  780MPD2     N11512   0.374   3.363   0.707 -0.0010 -0.8292  0.1144
  780MPD2    H511513   0.386   3.280   0.650 -0.2746 -1.5403  1.1007
  780MPD2    N111514   4.632   3.318   0.646 -0.5622 -0.4058 -0.0555
  780MPD2    H711515   4.539   3.340   0.679 -0.0937  0.9913  0.3220
  781MPD2     C11516   2.093   0.106  11.766  0.1217 -0.9093  0.0413
  781MPD2    C111517   2.173   0.167  11.862  0.6336 -0.0604  0.3642
  781MPD2    C211518   2.291   0.227  11.823  0.8877 -1.0183 -0.2797
  781MPD2    C311519   2.325   0.234  11.691  0.4343 -0.8528 -0.2802
  781MPD2    C411520   2.247   0.177  11.586  0.3524  0.2710 -0.3155
  781MPD2    C511521   2.137   0.103  11.631  0.0606 -0.6918  0.1300
  781MPD2     H11522   2.357   0.254  11.904  0.5542 -1.8406  0.2703
  781MPD2    H111523   2.281   0.183  11.484 -1.9135  2.5312 -0.9278
  781MPD2    H211524   1.999   0.054  11.782 -0.0793 -0.3131  0.8135
  781MPD2    H311525   2.077   0.047  11.561 -1.3203  0.2859  0.5317
  781MPD2     N11526   2.449   0.295  11.651 -0.0955  0.1787  0.1532
  781MPD2    H511527   2.470   0.304  11.552  1.4417  2.8907  0.7571
  781MPD2    N111528   2.151   0.150  11.998 -0.3133  0.0393 -0.2836
  781MPD2    H711529   2.212   0.198  12.063  0.3145  0.9572 -1.5401
  782MPD2     C11530   0.463   1.274   9.720 -0.0869 -0.4486  0.5389
  782MPD2    C111531   0.568   1.219   9.791  0.4219  0.3137  0.5302
  782MPD2    C211532   0.663   1.308   9.844  0.6485  0.6529  0.3190
  782MPD2    C311533   0.633   1.444   9.853 -0.4126 -0.0754  0.6387
  782MPD2    C411534   0.518   1.497   9.791 -0.2402  0.7196  0.0422
  782MPD2    C511535   0.442   1.407   9.719  0.9454  0.1084  0.0624
  782MPD2     H11536   0.752   1.271   9.892  0.1711 -0.7736  0.0844
  782MPD2    H111537   0.505   1.604   9.793  0.3916  0.8062 -0.3779
  782MPD2    H211538   0.384   1.216   9.674 -0.0225  0.8987 -1.2520
  782MPD2    H311539   0.363   1.448   9.657  3.0252 -0.8557 -3.2663
  782MPD2     N11540   0.724   1.514   9.937  0.2440  0.5702  0.4286
  782MPD2    H511541   0.790   1.447   9.975  2.1591  0.5835 -2.8745
  782MPD2    N111542   0.573   1.083   9.818 -0.1046  0.4043 -0.8586
  782MPD2    H711543   0.491   1.027   9.795 -1.1689  1.6949 -0.2523
  783MPD2     C11544   0.299   0.354  10.454 -0.1142 -0.0873  0.6778
  783MPD2    C111545   0.279   0.491  10.462 -0.8232 -0.3119 -0.6463
  783MPD2    C211546   0.340   0.572  10.366  0.3466  0.4074  0.0336
  783MPD2    C311547   0.415   0.515  10.267  0.3479 -0.2380 -0.6520
  783MPD2    C411548   0.417   0.378  10.254  0.1611 -0.5147  0.1383
  783MPD2    C511549   0.368   0.296  10.347  0.1660 -0.7690  0.1878
  783MPD2     H11550   0.319   0.679  10.369  2.9272  0.8973  0.4139
  783MPD2    H111551   0.469   0.332  10.171 -0.4144 -1.3776  0.2594
  783MPD2    H211552   0.256   0.289  10.530  0.8707 -1.5852 -0.0616
  783MPD2    H311553   0.384   0.189  10.348 -2.6935 -1.1696  2.6062
  783MPD2     N11554   0.483   0.590  10.172  0.5902  0.1519 -0.5818
  783MPD2    H511555   0.535   0.535  10.105 -1.1703 -0.2808 -1.5715
  783MPD2    N111556   0.201   0.542  10.572  1.5549  0.5718 -0.0634
  783MPD2    H711557   0.168   0.479  10.644  1.4399  0.5537 -0.1332
  784MPD2     C11558   2.331   0.901   0.976  0.5227  0.5858 -0.2879
  784MPD2    C111559   2.349   1.014   1.049  0.1250  0.4090 -0.2159
  784MPD2    C211560   2.283   1.130   1.019 -0.1297 -0.1045  0.3752
  784MPD2    C311561   2.200   1.133   0.911  0.3043 -0.0091 -0.6047
  784MPD2    C411562   2.176   1.018   0.841 -0.1151 -0.9929 -0.4046
  784MPD2    C511563   2.241   0.903   0.876  0.5964  0.2130 -0.0278
  784MPD2     H11564   2.305   1.224   1.068 -0.0458  0.6324 -1.0742
  784MPD2    H111565   2.111   1.015   0.754 -0.3904  0.3241 -0.2372
  784MPD2    H211566   2.379   0.805   0.990  2.4683  1.4747 -0.9234
  784MPD2    H311567   2.233   0.814   0.815  0.1563  0.2178  0.0236
  784MPD2     N11568   2.142   1.256   0.882  0.1877  0.5303  0.4946
  784MPD2    H511569   2.156   1.330   0.950 -0.5344  0.3993  0.7834
  784MPD2    N111570   2.442   1.021   1.151  0.3981 -0.0249 -0.0279
  784MPD2    H711571   2.435   1.099   1.215  1.9898 -0.7521  1.0266
  785MPD2     C11572   3.237   0.056  11.019  0.7208 -0.2105  0.2536
  785MPD2    C111573   3.218   0.040  10.883 -0.5624 -1.0474  0.2121
  785MPD2    C211574   3.226   4.634  10.827  0.3697  0.9220 -0.1516
  785MPD2    C311575   3.268   4.529  10.904 -0.4932 -0.2957 -0.6159
  785MPD2    C411576   3.281   4.547  11.039  0.3554  0.7900  0.1517
  785MPD2    C511577   3.262   4.670  11.089  0.4886 -1.0547 -0.0990
  785MPD2     H11578   3.186   4.624  10.726  3.2031 -0.9122 -1.0701
  785MPD2    H111579   3.306   4.466  11.106  1.2849  1.5754  0.7519
  785MPD2    H211580   3.212   0.153  11.059 -0.3592 -0.6658  0.6881
  785MPD2    H311581   3.276   4.677  11.197 -1.4582 -1.4824  0.1781
  785MPD2     N11582   3.269   4.405  10.837  0.7828  0.5116  0.1118
  785MPD2    H511583   3.229   4.406  10.744  1.5368  1.5401 -0.1950
  785MPD2    N111584   3.173   0.149  10.808  0.4827 -0.5680 -0.1529
  785MPD2    H711585   3.141   0.236  10.851  1.7556  0.2037 -0.7829
  786MPD2     C11586   1.047   2.728  14.376 -0.2605 -0.6027 -0.2043
  786MPD2    C111587   1.145   2.638  14.397  0.8782  0.1479  0.6660
  786MPD2    C211588   1.201   2.630  14.526  0.3487 -0.8286 -0.5165
  786MPD2    C311589   1.142   2.699  14.628  0.9278  0.2435 -0.0743
  786MPD2    C411590   1.039   2.792  14.608  0.3536 -0.1637 -0.4283
  786MPD2    C511591   0.991   2.805  14.476  0.2541 -0.4864  0.2377
  786MPD2     H11592   1.273   2.553  14.551  0.5131 -0.7101 -0.6247
  786MPD2    H111593   0.993   2.849  14.688  1.1900 -0.6296  0.3839
  786MPD2    H211594   1.014   2.758  14.277 -0.6100  0.4909  0.2433
  786MPD2    H311595   0.920   2.879  14.442  0.8743 -0.0946 -0.2119
  786MPD2     N11596   1.192   2.686  14.756  1.0883 -1.1089  0.1948
  786MPD2    H511597   1.155   2.736  14.836  3.5627  0.6859  0.2249
  786MPD2    N111598   1.199   2.552  14.302  0.0907  0.7695 -0.3390
  786MPD2    H711599   1.271   2.487  14.331 -1.0020  0.2818  1.3048
  787MPD2     C11600   1.194   1.950  14.555  0.2403  0.2724  0.4775
  787MPD2    C111601   1.296   2.028  14.509 -0.1199  0.4081  0.5059
  787MPD2    C211602   1.411   2.035  14.579 -0.5476  0.3768 -0.9771
  787MPD2    C311603   1.432   1.948  14.690  0.2585  0.1624 -0.1668
  787MPD2    C411604   1.327   1.864  14.732 -0.1991  0.8402 -0.6171
  787MPD2    C511605   1.208   1.873  14.666 -0.7019  0.2071  0.2732
  787MPD2     H11606   1.489   2.100  14.539  0.2038  0.4823  0.6733
  787MPD2    H111607   1.325   1.807  14.825  0.4294 -0.7659 -1.5902
  787MPD2    H211608   1.101   1.944  14.500  0.5550  0.8305 -0.1014
  787MPD2    H311609   1.117   1.826  14.699 -0.6761 -0.1283 -0.1311
  787MPD2     N11610   1.560   1.945  14.743  0.8169  0.3786 -0.4229
  787MPD2    H511611   1.629   2.003  14.696  3.2874  0.1336  2.8569
  787MPD2    N111612   1.289   2.104  14.390  0.1287 -0.0300 -0.2874
  787MPD2    H711613   1.358   2.178  14.381 -1.7381  1.7314 -0.2809
  788MPD2     C11614   3.797   0.569   1.202  0.0106  0.0268  0.6352
  788MPD2    C111615   3.717   0.489   1.122  0.4846  0.1562 -0.1444
  788MPD2    C211616   3.631   0.556   1.033  0.2169  0.2128 -0.2775
  788MPD2    C311617   3.640   0.693   1.017  0.1774 -0.6396  0.3960
  788MPD2    C411618   3.728   0.761   1.097  0.3984  0.8090  0.0712
  788MPD2    C511619   3.800   0.700   1.194  0.1524 -0.1847 -0.3045
  788MPD2     H11620   3.567   0.489   0.978 -0.2189 -0.5884  1.2052
  788MPD2    H111621   3.743   0.864   1.067 -0.1505  1.3133  1.5278
  788MPD2    H211622   3.866   0.539   1.281 -0.2349  1.9900  1.6033
  788MPD2    H311623   3.857   0.763   1.262  0.8392 -0.0645 -1.0013
  788MPD2     N11624   3.579   0.757   0.911 -0.4321 -0.5068 -0.3967
  788MPD2    H511625   3.609   0.848   0.878 -1.2327 -0.6468 -1.4998
  788MPD2    N111626   3.724   0.351   1.122  0.0199  0.0939  0.1409
  788MPD2    H711627   3.658   0.301   1.064 -0.9561  0.4015  0.9774
  789MPD2     C11628   3.935   0.542  16.373 -0.0015  0.1450  0.2343
  789MPD2    C111629   3.811   0.480  16.361 -0.8978  0.4066  0.0139
  789MPD2    C211630   3.706   0.523  16.435  0.2180 -0.9711  0.4168
  789MPD2    C311631   3.718   0.628  16.526  0.2639  0.0259 -0.2086
  789MPD2    C411632   3.839   0.691  16.527  0.7003  0.0778  0.3715
  789MPD2    C511633   3.955   0.649  16.460  0.2843  0.7153  0.1754
  789MPD2     H11634   3.609   0.477  16.430 -0.8504  1.2155  1.0180
  789MPD2    H111635   3.851   0.780  16.588 -1.9448  0.2973  0.5702
  789MPD2    H211636   4.021   0.492  16.329  0.5129  0.4042  0.9473
  789MPD2    H311637   4.052   0.694  16.476  1.2045 -0.6362 -1.5855
  789MPD2     N11638   3.616   0.690  16.599 -0.3088 -0.1568  0.7223
  789MPD2    H511639   3.646   0.769  16.656  0.0973 -0.4766  0.9474
  789MPD2    N111640   3.794   0.371  16.274  0.1440  0.6471 -0.1729
  789MPD2    H711641   3.703   0.327  16.288  0.8839  0.0622  2.7611
  790MPD2     C11642   0.016   2.540  13.079  0.9133 -0.3504  0.3270
  790MPD2    C111643   4.653   2.448  13.144  1.2467 -0.3918 -0.2411
  790MPD2    C211644   4.611   2.339  13.066  0.2620 -0.5329  0.4093
  790MPD2    C311645   4.648   2.322  12.932 -0.0003  0.4336 -0.0800
  790MPD2    C411646   0.002   2.425  12.876  0.4756 -0.2419  0.0968
  790MPD2    C511647   0.037   2.533  12.946  0.8161  0.2036 -0.1680
  790MPD2     H11648   4.573   2.253  13.119 -0.3968 -0.5423 -0.0628
  790MPD2    H111649   0.037   2.429  12.773 -0.4346 -2.0724 -0.2897
  790MPD2    H211650   0.046   2.635  13.124 -0.3582 -0.0725  0.5915
  790MPD2    H311651   0.072   2.620  12.893 -0.2831 -0.7267 -2.3990
  790MPD2     N11652   4.607   2.206  12.870 -0.3092  0.7977 -0.6853
  790MPD2    H511653   4.535   2.149  12.912  2.9083 -1.0545  2.3800
  790MPD2    N111654   4.620   2.469  13.276 -0.0177  0.0605 -0.2411
  790MPD2    H711655   4.636   2.556  13.327  1.6220 -1.7068  2.2656
  791MPD2     C11656   4.084   2.139  12.496 -0.2103  0.3392  0.8394
  791MPD2    C111657   4.136   2.008  12.499  0.1560 -1.3439 -0.4308
  791MPD2    C211658   4.049   1.901  12.463  0.1074 -0.3651  0.3144
  791MPD2    C311659   3.918   1.923  12.413 -0.0823  0.1434 -0.4175
  791MPD2    C411660   3.877   2.055  12.403  0.8325  0.0543  0.2533
  791MPD2    C511661   3.959   2.163  12.442 -0.4124 -0.0934  0.1750
  791MPD2     H11662   4.082   1.799  12.478  1.6134  0.1506  0.5763
  791MPD2    H111663   3.778   2.071  12.363  0.2716 -1.1314  1.1353
  791MPD2    H211664   4.141   2.223  12.535 -0.4360  2.2084 -2.8446
  791MPD2    H311665   3.930   2.265  12.422 -2.3906 -0.7246 -0.2009
  791MPD2     N11666   3.838   1.814  12.376  0.5739  0.0502 -0.7065
  791MPD2    H511667   3.879   1.722  12.385  1.4815  0.3450 -1.7939
  791MPD2    N111668   4.267   1.984  12.546  0.0902  0.7774 -0.1367
  791MPD2    H711669   4.317   2.066  12.578 -0.2993  1.5847 -1.5989
  792MPD2     C11670   0.701   2.208  11.056 -1.0013  0.1040 -0.2923
  792MPD2    C111671   0.594   2.249  10.995  0.3094 -0.3411  0.7188
  792MPD2    C211672   0.513   2.157  10.933 -0.1796  0.2622  0.1236
  792MPD2    C311673   0.525   2.019  10.967  0.5047  1.0866  0.1964
  792MPD2    C411674   0.621   1.983  11.053  0.1932 -0.3626 -0.0831
  792MPD2    C511675   0.707   2.080  11.100 -0.1295  0.1985 -0.6753
  792MPD2     H11676   0.427   2.183  10.873 -0.2571 -0.8456 -0.2454
  792MPD2    H111677   0.630   1.880  11.085  2.3488  0.1869  1.0900
  792MPD2    H211678   0.779   2.271  11.098 -0.5574 -0.5185 -0.1600
  792MPD2    H311679   0.784   2.043  11.166 -0.1504  0.6660 -0.3923
  792MPD2     N11680   0.436   1.922  10.918  0.2787  0.8666 -0.1410
  792MPD2    H511681   0.461   1.825  10.933  0.8525  0.9582 -0.5036
  792MPD2    N111682   0.585   2.383  10.965  0.3565 -0.2483  0.0486
  792MPD2    H711683   0.652   2.445  11.008 -3.0525  1.3501  3.0216
  793MPD2     C11684   0.001   2.044  10.082  0.6586 -0.1634 -0.0380
  793MPD2    C111685   0.128   2.061  10.134  0.1577  0.0014  0.5515
  793MPD2    C211686   0.152   2.008  10.266 -0.2037  0.4597  0.1637
  793MPD2    C311687   0.047   1.961  10.341 -0.4063 -0.1269 -0.5652
  793MPD2    C411688   4.642   1.959  10.292 -0.3066  0.4232  0.3271
  793MPD2    C511689   4.618   2.005  10.163  0.0693 -0.5062 -0.3035
  793MPD2     H11690   0.253   1.993  10.303  0.7991  0.9352 -2.3300
  793MPD2    H111691   4.559   1.911  10.342 -0.5869  0.1715 -0.3685
  793MPD2    H211692   4.700   2.067   9.979 -0.4230  0.9905  0.4425
  793MPD2    H311693   4.519   2.001  10.118  0.2258  0.9549 -0.7601
  793MPD2     N11694   0.083   1.896  10.463 -0.2385  0.1084 -0.5413
  793MPD2    H511695   0.178   1.867  10.486 -0.3435  0.0451 -0.1773
  793MPD2    N111696   0.238   2.118  10.063  0.6557 -0.1243  0.2454
  793MPD2    H711697   0.322   2.096  10.115  2.4657  3.2274 -1.2413
  794MPD2     C11698   0.006   1.423  16.774 -0.5945 -0.0574 -0.1353
  794MPD2    C111699   4.638   1.490  16.862 -0.0742 -0.1273 -0.3506
  794MPD2    C211700   4.557   1.592  16.816  0.5693  0.0465 -0.1252
  794MPD2    C311701   4.558   1.622  16.679 -0.0636  0.1360  0.1593
  794MPD2    C411702   4.641   1.547  16.590  0.0547  0.7393 -0.0156
  794MPD2    C511703   0.005   1.449  16.640 -0.4276 -0.4333  0.6192
  794MPD2     H11704   4.484   1.627  16.889 -0.6085 -0.4297 -1.0743
  794MPD2    H111705   4.649   1.567  16.484  3.1307 -0.0635  0.0619
  794MPD2    H211706   0.077   1.344  16.795  2.1949  2.5788  0.2203
  794MPD2    H311707   0.066   1.401  16.565 -1.3804  1.2455 -1.2383
  794MPD2     N11708   4.462   1.711  16.626 -0.4068  0.0227 -0.7824
  794MPD2    H511709   4.468   1.715  16.524 -1.2931  0.6990 -0.8059
  794MPD2    N111710   4.623   1.456  17.002  0.4107  0.8991  0.6742
  794MPD2    H711711   4.553   1.501  17.060  1.0173  2.0366  0.5348
  795MPD2     C11712   2.243   3.380  12.903 -0.4852 -0.1204 -0.7721
  795MPD2    C111713   2.307   3.318  13.005  0.3387  0.1190 -0.1130
  795MPD2    C211714   2.441   3.294  12.992 -0.6687  0.0727 -0.2669
  795MPD2    C311715   2.503   3.318  12.874 -0.0916 -0.0977 -0.5292
  795MPD2    C411716   2.435   3.368  12.768  0.0754 -0.0232 -0.3342
  795MPD2    C511717   2.303   3.402  12.781 -0.4416  0.5473 -0.2805
  795MPD2     H11718   2.500   3.248  13.071  0.0639  2.9072  0.8572
  795MPD2    H111719   2.482   3.391  12.673 -0.5860 -1.1396 -0.9258
  795MPD2    H211720   2.139   3.409  12.914  0.4620  3.0875 -0.2888
  795MPD2    H311721   2.236   3.438  12.704 -2.4142  1.3853  1.8106
  795MPD2     N11722   2.635   3.270  12.866 -0.0547  0.6149  0.1053
  795MPD2    H511723   2.675   3.230  12.951 -0.4935 -0.4778 -0.1910
  795MPD2    N111724   2.259   3.289  13.133 -0.2652  0.0963 -0.0946
  795MPD2    H711725   2.331   3.248  13.192  0.4802  1.9468  0.2692
  796MPD2     C11726   2.038   0.775  15.489  0.7450 -0.0824 -0.2540
  796MPD2    C111727   1.953   0.846  15.572 -0.6704  0.8903 -0.1624
  796MPD2    C211728   1.852   0.923  15.533  0.1031 -0.4966  0.0603
  796MPD2    C311729   1.844   0.949  15.398  0.1346  0.6427  0.9660
  796MPD2    C411730   1.925   0.885  15.308  0.2878 -0.3688 -0.2844
  796MPD2    C511731   2.018   0.790  15.352  0.0218  0.0244 -0.3523
  796MPD2     H11732   1.781   0.970  15.599  1.1198 -0.6416  1.2670
  796MPD2    H111733   1.903   0.886  15.202 -0.0085 -2.9808 -0.2394
  796MPD2    H211734   2.113   0.702  15.517  1.9236  0.1018 -2.9258
  796MPD2    H311735   2.082   0.728  15.290  1.9913  0.4526  1.2151
  796MPD2     N11736   1.751   1.039  15.344  0.1497  0.2421 -0.3842
  796MPD2    H511737   1.767   1.072  15.249  0.5223  0.9951 -0.0661
  796MPD2    N111738   1.978   0.848  15.708  0.3883  0.2630  0.3815
  796MPD2    H711739   1.904   0.898  15.757  1.5127  2.4193 -0.1358
  797MPD2     C11740   3.128   4.671  17.046 -0.1003 -0.1436  0.3192
  797MPD2    C111741   3.040   0.041  17.099 -0.5201 -0.7614 -0.2587
  797MPD2    C211742   2.937   0.088  17.017 -0.1181 -0.2853  0.7221
  797MPD2    C311743   2.904   0.036  16.892 -0.4149  0.0712  0.5837
  797MPD2    C411744   2.989   4.657  16.849  0.3048  0.4417 -0.9828
  797MPD2    C511745   3.100   4.619  16.922  0.0523 -0.1588  0.0024
  797MPD2     H11746   2.870   0.165  17.054 -1.1718 -0.5337 -0.6591
  797MPD2    H111747   2.970   4.610  16.754 -1.5688 -0.4001 -0.1954
  797MPD2    H211748   3.222   4.647  17.094 -0.5739  0.3230  1.4791
  797MPD2    H311749   3.167   4.546  16.877  1.1453  0.4485  0.6431
  797MPD2     N11750   2.793   0.085  16.821  0.4821  0.4256  0.6608
  797MPD2    H511751   2.793   0.059  16.723  0.1985  1.6038  0.3514
  797MPD2    N111752   3.059   0.114  17.214 -0.2503 -0.3489  0.8217
  797MPD2    H711753   2.993   0.190  17.226  1.4477  0.9334  2.0584
  798MPD2     C11754   2.509   0.573  17.309  0.1761 -0.4013  0.1646
  798MPD2    C111755   2.610   0.566  17.212 -0.2911  0.2084  0.5269
  798MPD2    C211756   2.741   0.554  17.254 -0.3688  0.0889  0.1412
  798MPD2    C311757   2.763   0.540  17.394  0.4789 -0.1267 -0.5483
  798MPD2    C411758   2.660   0.551  17.485  0.2392 -0.3976 -0.7429
  798MPD2    C511759   2.530   0.577  17.441  0.4507 -0.8736  0.3062
  798MPD2     H11760   2.821   0.545  17.182  0.2099  0.0018  0.8035
  798MPD2    H111761   2.671   0.552  17.593  0.1397 -1.3797 -0.7243
  798MPD2    H211762   2.405   0.579  17.277 -0.1366  3.1230  1.8841
  798MPD2    H311763   2.447   0.588  17.510  0.5237  1.0042  0.0962
  798MPD2     N11764   2.896   0.497  17.423  0.1410 -0.1371  0.1416
  798MPD2    H511765   2.949   0.465  17.343  1.0069 -0.0859  0.7012
  798MPD2    N111766   2.569   0.547  17.079  0.0198  0.1933  0.0853
  798MPD2    H711767   2.470   0.529  17.064  0.3761 -0.3955 -1.5665
  799MPD2     C11768   1.621   1.466  14.668 -0.8320  0.6241  0.4956
  799MPD2    C111769   1.694   1.457  14.547  0.2677  0.0850  0.1929
  799MPD2    C211770   1.650   1.525  14.438  0.3300 -0.5259 -0.4072
  799MPD2    C311771   1.532   1.603  14.453 -0.0408  0.1436 -0.2477
  799MPD2    C411772   1.462   1.607  14.569 -0.7282 -0.3913 -0.6236
  799MPD2    C511773   1.507   1.543  14.682 -0.3418 -0.4454 -0.4196
  799MPD2     H11774   1.705   1.522  14.345 -1.7530 -1.0315 -1.6272
  799MPD2    H111775   1.363   1.649  14.579 -0.3821  1.1982 -3.6672
  799MPD2    H211776   1.664   1.414  14.752 -2.1204  0.4810  1.0656
  799MPD2    H311777   1.455   1.555  14.776  2.2182  2.5732  0.5911
  799MPD2     N11778   1.476   1.679  14.346 -0.2592 -0.4168 -0.0581
  799MPD2    H511779   1.383   1.719  14.347  0.4196  1.0952  1.9340
  799MPD2    N111780   1.820   1.390  14.538  0.0394 -0.0503 -0.3119
  799MPD2    H711781   1.874   1.382  14.453 -0.8534 -0.7618 -0.8098
  800MPD2     C11782   2.486   2.759  14.292  0.4131 -0.0260  0.6691
  800MPD2    C111783   2.609   2.796  14.243 -0.3033  0.2266 -0.1860
  800MPD2    C211784   2.650   2.743  14.120  0.5066  0.2235  0.0331
  800MPD2    C311785   2.561   2.664  14.051 -0.4491  1.1987 -0.1205
  800MPD2    C411786   2.438   2.624  14.103 -0.7648 -0.7130 -0.6870
  800MPD2    C511787   2.403   2.672  14.223 -0.1061  0.3335  0.3856
  800MPD2     H11788   2.752   2.749  14.085  0.3961  0.3788 -0.2680
  800MPD2    H111789   2.368   2.555  14.057  0.5823 -1.8370 -1.0751
  800MPD2    H211790   2.441   2.801  14.382 -1.4049 -2.9838  1.1557
  800MPD2    H311791   2.314   2.645  14.278  0.3229 -0.3779  0.7332
  800MPD2     N11792   2.606   2.622  13.925 -0.2794 -0.1654  0.4848
  800MPD2    H511793   2.696   2.657  13.893 -0.0626  2.3198  3.8127
  800MPD2    N111794   2.681   2.899  14.311  0.1832  0.3638 -0.3852
  800MPD2    H711795   2.645   2.927  14.402 -1.3784 -0.7987 -0.6490
  801MPD2     C11796   2.429   3.327  14.811 -0.1668  0.5831 -0.1320
  801MPD2    C111797   2.428   3.283  14.683  1.0334  0.2493  0.1227
  801MPD2    C211798   2.300   3.247  14.631 -0.7107  0.5467 -0.1522
  801MPD2    C311799   2.179   3.255  14.699  0.1817  0.8002 -0.2871
  801MPD2    C411800   2.183   3.291  14.830  0.4254 -0.0081  0.0157
  801MPD2    C511801   2.306   3.325  14.877 -0.0295 -0.2217  0.1312
  801MPD2     H11802   2.301   3.214  14.528  0.3339 -1.4047  0.4777
  801MPD2    H111803   2.090   3.285  14.886 -0.0012 -0.5073 -0.7446
  801MPD2    H211804   2.513   3.362  14.871  0.2464 -0.7411  0.0529
  801MPD2    H311805   2.318   3.364  14.977 -1.2604 -0.7006  0.4712
  801MPD2     N11806   2.064   3.197  14.654  0.2817 -0.4568 -0.5597
  801MPD2    H511807   1.992   3.192  14.724  1.7061  1.5880  1.0492
  801MPD2    N111808   2.547   3.239  14.607  0.6831 -0.0366 -0.4158
  801MPD2    H711809   2.529   3.203  14.514 -0.2385 -0.6193 -0.0130
  802MPD2     C11810   1.071   4.472   0.231 -0.3673 -0.2890 -0.0090
  802MPD2    C111811   1.108   4.349   0.276 -0.8097  0.2438 -0.7334
  802MPD2    C211812   1.103   4.243   0.196 -0.4305  0.3525  0.5063
  802MPD2    C311813   1.059   4.253   0.067 -0.0697  0.0725 -0.0365
  802MPD2    C411814   1.021   4.382   0.019  0.6994  0.3833  0.5388
  802MPD2    C511815   1.025   4.489   0.105 -0.3407 -0.1289 -0.5110
  802MPD2     H11816   1.124   4.142   0.230  0.9829  0.3775 -0.2833
  802MPD2    H111817   1.001   4.399  17.601 -0.4195 -1.1932  0.4915
  802MPD2    H211818   1.081   4.562   0.290 -0.6303 -1.5090  1.8984
  802MPD2    H311819   0.995   4.587   0.069 -0.5322 -0.1219 -0.3329
  802MPD2     N11820   1.052   4.131  17.684 -0.0644 -0.2782  0.3780
  802MPD2    H511821   1.086   4.051   0.048  0.2523  0.1228  0.7939
  802MPD2    N111822   1.167   4.329   0.403  0.9708  0.2808  0.3783
  802MPD2    H711823   1.199   4.236   0.429  0.6246 -0.1192 -0.6369
  803MPD2     C11824   2.961   2.046  11.400  0.7563  0.0348 -1.1392
  803MPD2    C111825   3.027   1.995  11.514 -0.5492 -0.6357 -0.0558
  803MPD2    C211826   2.955   1.910  11.599  0.3182  0.7198  0.1690
  803MPD2    C311827   2.836   1.857  11.555  0.2604  0.2087 -0.5667
  803MPD2    C411828   2.794   1.891  11.429  0.1852  0.3929  0.2205
  803MPD2    C511829   2.849   1.989  11.354 -0.0064  0.2649 -0.0937
  803MPD2     H11830   2.998   1.878  11.694  0.8194 -1.0264 -0.6375
  803MPD2    H111831   2.703   1.846  11.389  0.3079  1.2634 -1.0489
  803MPD2    H211832   3.007   2.125  11.342  1.4163  1.5333  1.4009
  803MPD2    H311833   2.809   2.017  11.257 -1.7136  0.3429  0.6222
  803MPD2     N11834   2.756   1.768  11.635  0.4803  0.1099 -0.1627
  803MPD2    H511835   2.660   1.750  11.609  0.2276  1.2573 -0.0531
  803MPD2    N111836   3.149   2.059  11.548 -0.0304 -0.5587 -0.3484
  803MPD2    H711837   3.197   2.044  11.636 -0.4537  2.0951  0.3488
  804MPD2     C11838   2.207   3.149  16.982 -0.0258  0.5309 -0.6818
  804MPD2    C111839   2.247   3.154  17.117  0.6382 -0.1713 -0.4820
  804MPD2    C211840   2.258   3.273  17.178  0.1091  0.1301  0.2610
  804MPD2    C311841   2.242   3.394  17.110  0.0209 -0.2462  0.3718
  804MPD2    C411842   2.208   3.388  16.982  0.6667  0.6334  0.4545
  804MPD2    C511843   2.199   3.269  16.913 -0.0798  0.9269  0.2547
  804MPD2     H11844   2.286   3.273  17.283 -2.3859  0.1389  0.9315
  804MPD2    H111845   2.209   3.480  16.924 -0.0614  0.9273  0.9192
  804MPD2    H211846   2.215   3.059  16.923  0.3921 -0.0645  0.2661
  804MPD2    H311847   2.183   3.278  16.806 -0.3967  0.5354  0.2730
  804MPD2     N11848   2.270   3.511  17.182  0.0678  0.1693 -0.3528
  804MPD2    H511849   2.276   3.504  17.283 -0.7583  0.0932 -0.3132
  804MPD2    N111850   2.263   3.039  17.194 -0.2019 -0.0718 -0.2818
  804MPD2    H711851   2.306   3.054  17.285 -0.5191 -0.7510 -0.0199
  805MPD2     C11852   1.347   1.736  15.520 -0.2408  0.0535  0.4662
  805MPD2    C111853   1.453   1.714  15.435  0.1853 -0.1060  0.2428
  805MPD2    C211854   1.579   1.730  15.497  0.0716 -0.1163 -0.0500
  805MPD2    C311855   1.597   1.753  15.632 -0.9767 -0.0283 -0.1851
  805MPD2    C411856   1.484   1.766  15.719 -0.5947  0.1641 -0.3435
  805MPD2    C511857   1.360   1.749  15.655 -0.1540 -0.7850 -0.2619
  805MPD2     H11858   1.669   1.705  15.441  0.6128 -3.2260  2.2695
  805MPD2    H111859   1.494   1.794  15.823 -2.3763  1.7492 -0.6007
  805MPD2    H211860   1.248   1.703  15.489 -0.5910 -0.9237  2.6474
  805MPD2    H311861   1.269   1.762  15.712  0.3582  0.1212  0.3563
  805MPD2     N11862   1.731   1.748  15.683  0.1737 -0.1548  0.0280
  805MPD2    H511863   1.796   1.761  15.606 -1.2069 -0.4249 -1.1825
  805MPD2    N111864   1.445   1.660  15.305 -0.5686  0.0666 -0.2616
  805MPD2    H711865   1.521   1.615  15.254  0.8173  1.6906  0.3789
  806MPD2     C11866   2.743   0.295   1.195  0.4762  0.2070 -0.3296
  806MPD2    C111867   2.693   0.409   1.246 -0.0075 -0.2544 -0.1624
  806MPD2    C211868   2.657   0.510   1.161  0.9405 -0.6156  0.1455
  806MPD2    C311869   2.652   0.493   1.027  1.1762 -0.4318  0.3726
  806MPD2    C411870   2.698   0.375   0.978 -0.6207 -0.5277  0.1613
  806MPD2    C511871   2.739   0.275   1.066 -0.4434 -0.4737  0.6234
  806MPD2     H11872   2.632   0.605   1.208 -0.4153  0.0433 -1.8941
  806MPD2    H111873   2.709   0.360   0.871 -1.5770 -1.2393  0.1641
  806MPD2    H211874   2.775   0.212   1.256  0.5182 -0.5871 -1.4246
  806MPD2    H311875   2.785   0.181   1.036 -1.7249 -0.5657 -1.0544
  806MPD2     N11876   2.602   0.599   0.950  0.2590 -0.0015  0.2234
  806MPD2    H511877   2.604   0.690   0.996  2.2549  0.1879 -0.2246
  806MPD2    N111878   2.691   0.432   1.389 -0.0415 -0.1835  0.2705
  806MPD2    H711879   2.734   0.357   1.443 -0.0006  0.0537  0.5662
  807MPD2     C11880   2.847   0.075   2.021  0.7780 -0.1736  1.1154
  807MPD2    C111881   2.742   0.129   1.953  0.3606  0.6010 -0.2160
  807MPD2    C211882   2.618   0.064   1.955 -0.4899  0.0933  0.6784
  807MPD2    C311883   2.593   4.682   2.042 -0.0360 -0.5062 -0.1146
  807MPD2    C411884   2.696   4.633   2.121 -0.0391 -0.4898 -0.1613
  807MPD2    C511885   2.821   4.692   2.100 -0.6755 -0.3576  0.1497
  807MPD2     H11886   2.536   0.109   1.901 -2.2548 -2.8783  0.8503
  807MPD2    H111887   2.690   4.546   2.186  0.1450 -0.7010 -0.4235
  807MPD2    H211888   2.941   0.127   2.017 -0.1057  1.3050 -0.5901
  807MPD2    H311889   2.900   4.643   2.157 -1.1558 -2.0350 -0.6172
  807MPD2     N11890   2.459   4.629   2.045  0.1448 -0.1644  0.1726
  807MPD2    H511891   2.397   4.664   1.973 -0.8219 -0.9185  0.6355
  807MPD2    N111892   2.748   0.238   1.870  0.1800  0.0079  0.0884
  807MPD2    H711893   2.656   0.264   1.836 -0.5620 -1.8762  0.6117
  808MPD2     C11894   2.354   2.029   9.334 -0.6940  0.2538 -0.5974
  808MPD2    C111895   2.480   1.993   9.361  0.3701  0.2477 -0.0810
  808MPD2    C211896   2.586   2.076   9.310 -0.1195 -1.1483 -0.8880
  808MPD2    C311897   2.545   2.197   9.244  0.5992 -0.3013 -0.3862
  808MPD2    C411898   2.409   2.220   9.212 -0.4256 -1.1268  0.0059
  808MPD2    C511899   2.316   2.136   9.255 -0.3643 -0.2560  1.0212
  808MPD2     H11900   2.692   2.075   9.333 -0.6370 -1.9253  1.4883
  808MPD2    H111901   2.377   2.312   9.166  0.7309  0.3512  2.1226
  808MPD2    H211902   2.266   1.971   9.362 -2.2288  3.2532  0.7235
  808MPD2    H311903   2.211   2.158   9.246 -0.3291  0.1722  1.5991
  808MPD2     N11904   2.642   2.290   9.200 -0.2835  0.3711  0.2459
  808MPD2    H511905   2.605   2.377   9.165 -0.1002  1.3558  2.5132
  808MPD2    N111906   2.515   1.885   9.446  0.0630  0.1185 -0.6341
  808MPD2    H711907   2.613   1.857   9.452  0.1209 -0.1549 -2.9876
  809MPD2     C11908   3.710   2.484   9.182  0.0413 -0.1314 -0.7262
  809MPD2    C111909   3.635   2.374   9.137  0.2512 -0.6930 -0.3693
  809MPD2    C211910   3.499   2.384   9.117  0.9248 -0.6890  0.1321
  809MPD2    C311911   3.434   2.501   9.134  0.4919  1.1048  0.0083
  809MPD2    C411912   3.508   2.613   9.160 -0.5465  0.5282  0.3096
  809MPD2    C511913   3.640   2.599   9.189  0.3096 -0.2772 -1.3325
  809MPD2     H11914   3.448   2.289   9.102 -3.0048  1.7033 -1.5186
  809MPD2    H111915   3.462   2.710   9.168 -1.5948 -0.0402  1.2852
  809MPD2    H211916   3.813   2.477   9.217  0.8762 -1.3611 -3.4480
  809MPD2    H311917   3.704   2.683   9.211  0.0146 -0.2607 -0.5047
  809MPD2     N11918   3.296   2.518   9.131  0.3783  0.0427 -0.2544
  809MPD2    H511919   3.268   2.613   9.110 -0.9787  0.3007  2.7855
  809MPD2    N111920   3.680   2.240   9.141  0.5131 -0.1932 -0.5738
  809MPD2    H711921   3.616   2.164   9.120 -0.0342  0.0770  0.1350
  810MPD2     C11922   2.515   1.879   9.923  0.7655 -0.6018  0.5594
  810MPD2    C111923   2.402   1.950   9.928  0.3995  0.0156 -0.3906
  810MPD2    C211924   2.412   2.087   9.931 -0.1087  1.3248  0.4573
  810MPD2    C311925   2.535   2.149   9.942  0.1028 -0.1789  0.7056
  810MPD2    C411926   2.646   2.073   9.950 -0.7837 -0.9012 -0.8655
  810MPD2    C511927   2.640   1.939   9.940 -0.7539  0.1951 -0.6288
  810MPD2     H11928   2.317   2.137   9.918 -0.7952 -0.0121  0.3642
  810MPD2    H111929   2.745   2.117   9.950 -0.5135 -1.5139 -0.4955
  810MPD2    H211930   2.516   1.771   9.927 -0.7697 -0.6203  0.4147
  810MPD2    H311931   2.732   1.881   9.941 -1.8462 -1.4867  1.3248
  810MPD2     N11932   2.549   2.285   9.945 -0.4759  0.2505 -0.8100
  810MPD2    H511933   2.641   2.326   9.962  0.6778 -1.0209 -4.1066
  810MPD2    N111934   2.272   1.890   9.906  0.5638  0.2653 -0.8085
  810MPD2    H711935   2.194   1.955   9.902 -0.4081 -0.9102 -0.9006
  811MPD2     C11936   1.654   2.045   9.618  0.1229 -0.2921 -0.1081
  811MPD2    C111937   1.773   2.062   9.685  0.1499 -0.1236 -0.3890
  811MPD2    C211938   1.831   2.187   9.682 -0.8001 -0.2242 -0.3530
  811MPD2    C311939   1.773   2.300   9.617  0.2581  0.2840  0.0416
  811MPD2    C411940   1.663   2.274   9.540  0.9019 -0.4592 -0.5073
  811MPD2    C511941   1.597   2.146   9.546  0.2487 -0.1392  0.1803
  811MPD2     H11942   1.925   2.191   9.736 -1.5344  1.0409  0.7932
  811MPD2    H111943   1.630   2.361   9.485 -1.4584 -1.1926 -0.2301
  811MPD2    H211944   1.597   1.952   9.617 -0.1097 -0.1572  0.4714
  811MPD2    H311945   1.500   2.129   9.501 -0.7180  0.3534  2.0682
  811MPD2     N11946   1.837   2.426   9.631  0.2616 -0.6014 -0.6686
  811MPD2    H511947   1.926   2.418   9.679 -0.2150  2.8530  0.8241
  811MPD2    N111948   1.834   1.960   9.762  0.1234 -0.2096  0.2990
  811MPD2    H711949   1.914   1.990   9.816  0.2467  3.1657 -1.7623
  812MPD2     C11950   1.081   2.108  11.785 -0.4076  0.6794 -0.9146
  812MPD2    C111951   0.992   2.123  11.888  0.6450  0.0308  0.1124
  812MPD2    C211952   0.962   2.011  11.959 -0.6035 -0.3358  0.7306
  812MPD2    C311953   1.002   1.884  11.920  0.4205 -0.1488 -0.0972
  812MPD2    C411954   1.079   1.874  11.809  1.3191  0.6444 -0.2950
  812MPD2    C511955   1.123   1.980  11.744 -0.3366  0.1374 -0.7982
  812MPD2     H11956   0.931   2.021  12.062  0.2520 -0.7371  1.0252
  812MPD2    H111957   1.116   1.776  11.780 -1.4156  0.0225 -1.7235
  812MPD2    H211958   1.128   2.190  11.733 -1.5602  1.5287 -0.6230
  812MPD2    H311959   1.197   1.967  11.666 -0.0834 -1.6440 -0.2677
  812MPD2     N11960   0.944   1.769  11.989 -0.1052  1.0801 -0.0383
  812MPD2    H511961   0.875   1.792  12.060 -2.1493  0.9555 -1.9912
  812MPD2    N111962   0.957   2.257  11.927  0.4692  0.7732 -0.0855
  812MPD2    H711963   0.993   2.333  11.869  0.3964  1.5854  0.9442
  813MPD2     C11964   4.620   3.603  12.603  0.1877 -0.1613 -0.2907
  813MPD2    C111965   4.634   3.738  12.574 -0.2135  0.4039 -0.8678
  813MPD2    C211966   4.537   3.821  12.617  0.2227 -0.1589 -1.1200
  813MPD2    C311967   4.453   3.780  12.722 -0.5964 -0.2380  0.1707
  813MPD2    C411968   4.433   3.647  12.736 -0.6359 -0.1467 -0.1593
  813MPD2    C511969   4.522   3.564  12.680 -1.2636  0.0251  0.8298
  813MPD2     H11970   4.542   3.926  12.590 -0.1907  0.3313  0.7254
  813MPD2    H111971   4.361   3.599  12.801  0.1564 -0.3145  0.6061
  813MPD2    H211972   4.692   3.528  12.569  2.6372  0.9305  2.4966
  813MPD2    H311973   4.519   3.457  12.694 -0.6037 -0.1203 -0.1593
  813MPD2     N11974   4.385   3.878  12.798 -0.3701  0.4186  0.1689
  813MPD2    H511975   4.393   3.974  12.769  1.4638  0.3066  0.3078
  813MPD2    N111976   0.023   3.788  12.491  0.1437  0.5448  0.2771
  813MPD2    H711977   0.071   3.716  12.437 -0.9764  1.3545 -1.8092
  814MPD2     C11978   0.484   0.537  11.773  0.2280 -0.2499 -0.3546
  814MPD2    C111979   0.476   0.606  11.657  0.1165  0.2954  0.1489
  814MPD2    C211980   0.536   0.724  11.648  0.9466  0.0258  0.4061
  814MPD2    C311981   0.607   0.776  11.753 -0.1382  0.1719  0.2531
  814MPD2    C411982   0.591   0.719  11.875 -0.9495 -0.0739  0.3023
  814MPD2    C511983   0.539   0.598  11.880  0.3428 -0.4206  0.3297
  814MPD2     H11984   0.540   0.765  11.547 -0.3603 -0.9357 -0.0281
  814MPD2    H111985   0.630   0.752  11.970 -0.4207 -1.2453  0.4897
  814MPD2    H211986   0.441   0.439  11.788 -1.6077  0.3301 -1.7935
  814MPD2    H311987   0.527   0.552  11.977  0.6068 -0.5601  0.2963
  814MPD2     N11988   0.687   0.891  11.743  0.0669  0.2817 -0.2738
  814MPD2    H511989   0.738   0.922  11.825 -1.2417  1.3533  0.1439
  814MPD2    N111990   0.429   0.541  11.540 -0.0493  0.0604 -0.6217
  814MPD2    H711991   0.447   0.589  11.452 -0.3946  1.1938 -0.0724
  815MPD2     C11992   1.157   3.899  11.901  0.0036 -0.2823 -0.5023
  815MPD2    C111993   1.069   3.795  11.898 -0.7686 -0.0134 -0.2196
  815MPD2    C211994   0.969   3.781  11.994 -0.9019  0.4803  0.0428
  815MPD2    C311995   0.946   3.875  12.091 -0.2559  0.2095  0.6503
  815MPD2    C411996   1.038   3.980  12.092 -0.5577 -0.2117  0.2043
  815MPD2    C511997   1.147   3.987  12.006  0.2948 -0.0280 -0.5779
  815MPD2     H11998   0.900   3.698  11.984  1.7321 -1.6388 -0.3686
  815MPD2    H111999   1.032   4.055  12.170  2.4064 -1.0861  1.2620
  815MPD2    H212000   1.243   3.906  11.835 -0.2440  1.6963 -0.6016
  815MPD2    H312001   1.217   4.064  12.034  0.1459 -0.3690  0.7438
  815MPD2     N12002   0.840   3.857  12.186 -0.1562 -0.3975 -0.3375
  815MPD2    H512003   0.793   3.768  12.178  1.0281 -0.7200 -3.7850
  815MPD2    N112004   1.088   3.700  11.793 -0.1569  0.1383  0.4056
  815MPD2    H712005   1.173   3.711  11.739 -1.1912  0.7898 -1.0909
  816MPD2     C12006   0.537   2.697  17.063  0.0739  0.1136 -0.3661
  816MPD2    C112007   0.603   2.807  17.112  0.8314  0.1872  0.0092
  816MPD2    C212008   0.739   2.794  17.135  0.9896  0.1573 -0.1287
  816MPD2    C312009   0.811   2.682  17.096 -0.2751  0.0608  0.9155
  816MPD2    C412010   0.745   2.581  17.041  0.0112 -0.1206 -0.0664
  816MPD2    C512011   0.610   2.589  17.020 -0.3536 -0.3901 -0.6055
  816MPD2     H12012   0.795   2.882  17.164 -0.2389  0.5529  1.0791
  816MPD2    H112013   0.791   2.488  17.010  1.5660  0.1057  1.6129
  816MPD2    H212014   0.430   2.698  17.048  0.0935 -0.1704 -0.5154
  816MPD2    H312015   0.564   2.505  16.970  0.7491 -0.7994 -0.9287
  816MPD2     N12016   0.948   2.675  17.117  0.1927 -0.0864  0.0582
  816MPD2    H512017   0.994   2.765  17.119  1.3873 -0.6714 -0.6268
  816MPD2    N112018   0.528   2.923  17.153 -0.0196 -0.2890  0.2457
  816MPD2    H712019   0.428   2.924  17.137  0.1639 -0.2519 -0.8770
  817MPD2     C12020   0.294   4.113   9.765  0.1531 -0.3474 -0.0240
  817MPD2    C112021   0.422   4.077   9.735 -0.1929  0.2679  0.6588
  817MPD2    C212022   0.517   4.177   9.707  0.2142 -0.3845  0.1026
  817MPD2    C312023   0.485   4.303   9.714  0.2553 -0.0422  0.6307
  817MPD2    C412024   0.357   4.347   9.742 -0.6221 -0.0827  0.0220
  817MPD2    C512025   0.264   4.247   9.776 -0.7045  0.8378  0.0402
  817MPD2     H12026   0.617   4.153   9.673  0.6679 -2.0999  2.5975
  817MPD2    H112027   0.340   4.454   9.739  0.7096  0.1873  2.0525
  817MPD2    H212028   0.215   4.044   9.794  0.2269 -0.0605  0.8423
  817MPD2    H312029   0.165   4.271   9.812 -1.5348 -0.9195 -1.0983
  817MPD2     N12030   0.594   4.395   9.689 -0.3579  0.3507 -0.5487
  817MPD2    H512031   0.680   4.358   9.648 -1.4334 -0.0444 -2.4480
  817MPD2    N112032   0.454   3.936   9.708 -0.0994 -0.6262  0.3464
  817MPD2    H712033   0.551   3.911   9.693 -0.0605 -0.9087  1.0937
  818MPD2     C12034   4.007   3.902   9.691  0.0445  0.2641 -0.3276
  818MPD2    C112035   3.997   3.835   9.808  0.0355  1.1869  0.1112
  818MPD2    C212036   3.983   3.698   9.811 -0.6067 -0.4066 -0.1934
  818MPD2    C312037   3.954   3.635   9.687 -0.5726  0.0441 -0.0143
  818MPD2    C412038   3.964   3.698   9.571 -1.1971 -0.0461 -0.2663
  818MPD2    C512039   4.000   3.831   9.572 -0.3770  0.3088 -0.0943
  818MPD2     H12040   3.976   3.662   9.913 -3.4356  1.5345  0.3000
  818MPD2    H112041   3.957   3.642   9.479  1.0431  0.7285 -0.9219
  818MPD2    H212042   4.023   4.009   9.684  0.9863  0.2204  1.2374
  818MPD2    H312043   4.019   3.884   9.479 -0.3575  0.2343 -0.1330
  818MPD2     N12044   3.911   3.503   9.678 -0.6528 -0.0669  0.5089
  818MPD2    H512045   3.891   3.459   9.589  1.1055  0.2243 -0.0259
  818MPD2    N112046   4.012   3.897   9.931  0.0639 -0.0764 -0.1502
  818MPD2    H712047   4.021   3.833  10.009 -1.4774  1.5757  1.3782
  819MPD2     C12048   2.325   1.342  15.514 -0.4177  0.0018  0.1591
  819MPD2    C112049   2.379   1.222  15.480  0.0807  0.8796 -0.5731
  819MPD2    C212050   2.485   1.177  15.551  0.0840  0.3106  0.2821
  819MPD2    C312051   2.536   1.258  15.651  0.2102 -0.4027  0.3980
  819MPD2    C412052   2.482   1.380  15.686 -0.1500  0.5775 -0.7306
  819MPD2    C512053   2.375   1.419  15.618 -0.0373  0.3342 -0.3662
  819MPD2     H12054   2.534   1.083  15.530 -2.7838 -0.9458 -0.8503
  819MPD2    H112055   2.537   1.441  15.757  0.2313 -1.6127  0.8424
  819MPD2    H212056   2.242   1.381  15.457 -0.5616  0.2161  0.5199
  819MPD2    H312057   2.328   1.516  15.629  0.2969  0.3788  0.6098
  819MPD2     N12058   2.646   1.201  15.718 -0.1795 -0.2534 -0.7269
  819MPD2    H512059   2.682   1.112  15.687 -2.4036 -1.8348  1.3315
  819MPD2    N112060   2.323   1.153  15.364  0.6720  0.0243  0.2707
  819MPD2    H712061   2.253   1.203  15.310  1.1182 -0.1486 -0.4668
  820MPD2     C12062   1.567   1.029  14.725  0.1077 -0.5586 -0.6950
  820MPD2    C112063   1.601   1.099  14.839 -0.1239 -0.6207  0.4253
  820MPD2    C212064   1.725   1.079  14.901 -0.3614  0.4849 -0.0770
  820MPD2    C312065   1.816   0.977  14.854 -0.6629  0.1806 -0.5391
  820MPD2    C412066   1.764   0.890  14.760  0.5025  0.0174  0.1786
  820MPD2    C512067   1.643   0.918  14.695 -0.0117  0.2517  0.2829
  820MPD2     H12068   1.749   1.144  14.985  1.6715 -2.1247  1.3872
  820MPD2    H112069   1.809   0.798  14.728  1.6175  0.9932 -1.0502
  820MPD2    H212070   1.474   1.052  14.675  1.5558 -1.1719 -3.6696
  820MPD2    H312071   1.606   0.854  14.615  0.7091  0.5391 -0.2830
  820MPD2     N12072   1.948   0.965  14.906  0.5155  0.1257  0.4015
  820MPD2    H512073   1.996   0.877  14.887  0.3480 -0.0326  0.7095
  820MPD2    N112074   1.518   1.206  14.882 -0.2747  0.3382  0.0552
  820MPD2    H712075   1.448   1.229  14.813  0.0851 -0.8699 -0.7074
  821MPD2     C12076   2.437   2.535  13.062 -0.4608 -0.0567  0.9262
  821MPD2    C112077   2.558   2.499  13.110 -0.0569 -0.0709 -0.1535
  821MPD2    C212078   2.669   2.487  13.028 -0.4393  0.2101  0.0540
  821MPD2    C312079   2.655   2.510  12.893  0.1770 -0.0080 -0.5803
  821MPD2    C412080   2.529   2.548  12.846 -0.0258  0.3179  0.4735
  821MPD2    C512081   2.419   2.551  12.931 -0.3897  0.6350 -0.4877
  821MPD2     H12082   2.761   2.450  13.072 -0.1495  1.7168  0.7004
  821MPD2    H112083   2.521   2.583  12.743 -1.3855  0.5858  0.6640
  821MPD2    H212084   2.347   2.539  13.122  1.0558 -0.5815  3.2114
  821MPD2    H312085   2.315   2.562  12.903 -0.3757  0.8018 -0.4746
  821MPD2     N12086   2.772   2.517  12.810  0.0370 -0.4798 -0.6288
  821MPD2    H512087   2.753   2.569  12.725  1.8492 -0.2308 -0.8710
  821MPD2    N112088   2.588   2.497  13.247 -0.5933 -0.1440 -0.5894
  821MPD2    H712089   2.683   2.473  13.274 -0.9584  0.0090  0.8286
  822MPD2     C12090   2.962   2.881  15.877  0.1997  0.0619  0.6070
  822MPD2    C112091   2.951   2.808  15.997  0.1078  0.3513  0.3445
  822MPD2    C212092   2.884   2.860  16.100  0.1240 -0.0554  1.1302
  822MPD2    C312093   2.842   2.991  16.098  0.1031 -0.7019  1.1641
  822MPD2    C412094   2.856   3.071  15.986 -0.1075  0.4108  0.6783
  822MPD2    C512095   2.922   3.010  15.879 -0.0909 -0.1584  0.1826
  822MPD2     H12096   2.893   2.808  16.195  0.5525 -4.0097 -1.1297
  822MPD2    H112097   2.824   3.174  15.976  0.8166  0.4597 -1.7919
  822MPD2    H212098   3.021   2.850  15.791 -1.5080  1.2144 -0.9784
  822MPD2    H312099   2.936   3.070  15.789  0.4948 -0.4765  0.0616
  822MPD2     N12100   2.815   3.061  16.222 -0.2596 -0.9253 -0.1338
  822MPD2    H512101   2.784   3.007  16.302 -0.3128  0.1637  0.5781
  822MPD2    N112102   3.013   2.683  16.017  0.4084  1.3680 -0.8745
  822MPD2    H712103   3.007   2.638  16.108  2.2671 -0.0690 -1.4698
  823MPD2     C12104   2.599   3.229  17.045 -0.6400  0.1971 -0.4368
  823MPD2    C112105   2.619   3.156  16.927 -0.5621  0.4747 -0.5857
  823MPD2    C212106   2.644   3.020  16.946 -0.1418  0.6121 -0.3104
  823MPD2    C312107   2.640   2.959  17.069 -0.7019  0.0832 -0.2290
  823MPD2    C412108   2.600   3.029  17.176 -0.7681 -0.3137  0.2601
  823MPD2    C512109   2.585   3.164  17.163 -0.2738 -0.4001  0.3280
  823MPD2     H12110   2.679   2.968  16.858  0.2393 -1.1193  0.8711
  823MPD2    H112111   2.585   2.988  17.275 -0.9550 -0.0872  0.3268
  823MPD2    H212112   2.577   3.334  17.030  0.2032  0.3655 -0.4903
  823MPD2    H312113   2.564   3.227  17.249 -1.2993 -1.2549  0.7082
  823MPD2     N12114   2.674   2.825  17.096 -0.3942  1.0053  0.0892
  823MPD2    H512115   2.649   2.789  17.188  0.3045  0.5182  0.0894
  823MPD2    N112116   2.646   3.230  16.803  0.2301  0.2777  0.2588
  823MPD2    H712117   2.656   3.331  16.804 -0.8914  0.3984 -0.5254
  824MPD2     C12118   3.258   2.012  15.688  0.0743  0.3028 -1.1484
  824MPD2    C112119   3.365   2.082  15.742 -0.7920  0.2494 -0.0442
  824MPD2    C212120   3.495   2.026  15.741 -0.0933 -0.5322 -0.2965
  824MPD2    C312121   3.516   1.906  15.674  0.1477 -0.0354 -0.9209
  824MPD2    C412122   3.409   1.834  15.619  0.3281 -0.3438 -0.8746
  824MPD2    C512123   3.283   1.889  15.630 -1.2805  0.9118  0.3290
  824MPD2     H12124   3.583   2.076  15.780 -1.0664 -0.3837  1.6849
  824MPD2    H112125   3.425   1.733  15.584  1.7156 -1.1763  2.1200
  824MPD2    H212126   3.160   2.058  15.687  0.0070  0.1770 -0.3162
  824MPD2    H312127   3.199   1.836  15.585  1.1306 -0.7445 -2.2510
  824MPD2     N12128   3.650   1.872  15.665  0.4684  0.9325  0.3530
  824MPD2    H512129   3.719   1.916  15.725  1.7934 -1.0656  0.2786
  824MPD2    N112130   3.329   2.192  15.818 -0.1982  0.0523 -0.1769
  824MPD2    H712131   3.233   2.223  15.801  0.1604  1.7333  0.9593
  825MPD2     C12132   3.960   1.812  14.917 -0.6272 -0.1830  0.1350
  825MPD2    C112133   3.977   1.899  15.020 -0.0585 -0.7295 -0.3297
  825MPD2    C212134   4.016   2.032  15.000 -0.2638 -0.3459 -0.0526
  825MPD2    C312135   4.052   2.078  14.872 -0.5950  0.1439 -0.6606
  825MPD2    C412136   4.046   1.984  14.769 -0.7678  0.4277  1.1003
  825MPD2    C512137   4.015   1.852  14.798  0.9101  1.0718 -0.6346
  825MPD2     H12138   4.032   2.103  15.081 -0.5968 -0.6374  0.2655
  825MPD2    H112139   4.074   2.017  14.669  1.3538 -1.5688  1.0296
  825MPD2    H212140   3.917   1.713  14.927  0.3152 -0.5516  0.5399
  825MPD2    H312141   4.025   1.776  14.721  0.2945 -0.3487  0.7019
  825MPD2     N12142   4.098   2.215  14.848 -0.1042 -0.1547 -0.5715
  825MPD2    H512143   4.148   2.236  14.763 -2.0023  1.0233 -1.3959
  825MPD2    N112144   3.968   1.851  15.155 -0.5647 -0.0662 -0.2118
  825MPD2    H712145   3.961   1.750  15.164 -2.2995  0.2287  1.7516
  826MPD2     C12146   3.696   1.750  13.342  0.1410 -0.2749 -0.6957
  826MPD2    C112147   3.578   1.725  13.272 -0.5688  0.1008  0.0919
  826MPD2    C212148   3.464   1.783  13.317  0.1716 -0.2597 -0.0438
  826MPD2    C312149   3.461   1.888  13.407 -0.1777  0.0861 -1.1588
  826MPD2    C412150   3.582   1.917  13.465  0.4582  0.4096 -0.3758
  826MPD2    C512151   3.701   1.856  13.428  0.1716 -0.1138 -0.1772
  826MPD2     H12152   3.370   1.752  13.272 -0.2644 -0.8819  1.2761
  826MPD2    H112153   3.581   1.995  13.541 -2.0214 -0.1855  0.2086
  826MPD2    H212154   3.791   1.701  13.322 -0.9534 -2.2890 -0.9572
  826MPD2    H312155   3.784   1.896  13.484  0.8850 -0.9763 -0.6233
  826MPD2     N12156   3.346   1.957  13.462  0.5917  0.2718 -0.0989
  826MPD2    H512157   3.352   2.014  13.545  1.8551 -0.2989  0.2015
  826MPD2    N112158   3.578   1.621  13.171  0.1293 -0.2339  0.0143
  826MPD2    H712159   3.671   1.598  13.139  0.0745 -0.8517  0.2998
  827MPD2     C12160   4.539   3.083   9.879 -0.5635  0.1153  0.3246
  827MPD2    C112161   4.505   3.003   9.985  0.2126  0.4278 -0.2815
  827MPD2    C212162   4.491   2.873   9.961 -0.6506  0.7008 -0.0139
  827MPD2    C312163   4.503   2.824   9.831  0.1986 -0.4866  0.3591
  827MPD2    C412164   4.522   2.911   9.724  0.8302 -0.4607 -0.2562
  827MPD2    C512165   4.551   3.041   9.746  0.6167 -0.4595  0.0923
  827MPD2     H12166   4.479   2.803  10.043 -0.6086 -0.2206 -0.8057
  827MPD2    H112167   4.534   2.875   9.623 -1.4343 -0.8106 -0.3986
  827MPD2    H212168   4.561   3.189   9.890 -1.1885  0.4071 -1.2645
  827MPD2    H312169   4.592   3.102   9.666 -1.1452  2.1849  1.2250
  827MPD2     N12170   4.500   2.680   9.815 -0.2311  0.1072 -0.0926
  827MPD2    H512171   4.481   2.631   9.902 -1.6081  1.2274  0.2437
  827MPD2    N112172   4.483   3.065  10.112 -0.2550  0.0057 -0.2325
  827MPD2    H712173   4.520   3.159  10.126  3.8124 -1.4320 -1.3108
  828MPD2     C12174   3.138   2.801  12.317 -0.0775 -0.0450 -0.2029
  828MPD2    C112175   3.127   2.806  12.183 -0.4673 -0.2286 -0.2600
  828MPD2    C212176   3.229   2.761  12.099 -0.4140 -0.4602  0.2904
  828MPD2    C312177   3.346   2.708  12.155  0.1486 -0.1327  0.3161
  828MPD2    C412178   3.352   2.700  12.289 -0.5074 -0.0205  0.7054
  828MPD2    C512179   3.247   2.741  12.375  0.0443  0.5758  0.1067
  828MPD2     H12180   3.209   2.765  11.993  0.6142  0.9232  0.1475
  828MPD2    H112181   3.439   2.653  12.335 -1.0020 -1.1084  0.5205
  828MPD2    H212182   3.057   2.830  12.384  0.2056 -0.2639  0.2264
  828MPD2    H312183   3.243   2.727  12.483 -1.1527 -1.4412 -0.1972
  828MPD2     N12184   3.464   2.671  12.087  0.1319 -0.6857  0.4543
  828MPD2    H512185   3.547   2.645  12.140  0.9841  0.9068 -0.1201
  828MPD2    N112186   3.010   2.860  12.118 -0.2538 -0.5253 -0.4576
  828MPD2    H712187   3.016   2.860  12.016  2.4759 -2.4415 -0.2943
  829MPD2     C12188   3.017   3.302  11.369 -0.8842 -0.6580 -0.9954
  829MPD2    C112189   2.903   3.231  11.372  0.5920 -0.4551  0.1921
  829MPD2    C212190   2.850   3.184  11.490  0.4365 -0.2191  0.6716
  829MPD2    C312191   2.904   3.229  11.611 -0.2203 -0.4495 -0.7699
  829MPD2    C412192   3.018   3.306  11.606 -0.9534 -0.2499  0.3606
  829MPD2    C512193   3.065   3.349  11.483  0.1622 -0.0731  0.3455
  829MPD2     H12194   2.757   3.129  11.498  0.9721 -1.3688 -1.2181
  829MPD2    H112195   3.059   3.355  11.693  2.8025 -0.3564 -1.3582
  829MPD2    H212196   3.068   3.327  11.277  0.7298  0.4534  0.2105
  829MPD2    H312197   3.155   3.410  11.485  0.0330  0.1056  0.6503
  829MPD2     N12198   2.859   3.174  11.731 -0.1888 -0.0616  1.0205
  829MPD2    H512199   2.895   3.213  11.818 -1.3218  0.0630  1.4326
  829MPD2    N112200   2.844   3.206  11.246  0.1207 -0.5442  0.4785
  829MPD2    H712201   2.893   3.247  11.167 -0.1570  0.3012  0.7435
  830MPD2     C12202   3.486   1.256  15.727  0.1402  0.5559 -0.4020
  830MPD2    C112203   3.366   1.268  15.671 -0.7433 -0.1718  0.0491
  830MPD2    C212204   3.350   1.343  15.549  0.3872  0.3450  0.0187
  830MPD2    C312205   3.454   1.425  15.502 -0.0495 -0.4965  0.4500
  830MPD2    C412206   3.579   1.415  15.566  0.8876 -0.1918  0.4885
  830MPD2    C512207   3.588   1.333  15.676 -0.4072  0.4754 -0.2542
  830MPD2     H12208   3.251   1.355  15.505  0.0303  1.6524  1.1872
  830MPD2    H112209   3.658   1.481  15.531 -0.2156  0.0026 -1.6187
  830MPD2    H212210   3.515   1.201  15.816  0.5148  0.8155 -0.3618
  830MPD2    H312211   3.672   1.334  15.745  0.6482 -0.8722 -1.5313
  830MPD2     N12212   3.426   1.527  15.406 -0.1566  0.1745 -0.0788
  830MPD2    H512213   3.505   1.587  15.384  0.6539 -1.9054 -2.7760
  830MPD2    N112214   3.253   1.217  15.744  1.2694 -0.2565  0.5731
  830MPD2    H712215   3.276   1.174  15.834  1.6089 -1.5501 -0.1342
  831MPD2     C12216   3.000   2.990  16.534  0.3723  1.1368 -0.4633
  831MPD2    C112217   3.043   2.905  16.430 -0.6357 -0.5906 -0.1142
  831MPD2    C212218   2.983   2.782  16.409  0.4084 -0.2300 -0.6288
  831MPD2    C312219   2.868   2.742  16.476  0.8064  0.2690  0.5585
  831MPD2    C412220   2.826   2.824  16.581  0.5385 -0.9997 -0.2137
  831MPD2    C512221   2.898   2.939  16.608  0.0713  0.2321 -0.2671
  831MPD2     H12222   3.013   2.721  16.324  2.7330  2.3065 -1.6357
  831MPD2    H112223   2.736   2.816  16.642 -0.3095 -0.1119 -1.3517
  831MPD2    H212224   3.040   3.087  16.558  0.2161  0.8866  0.8023
  831MPD2    H312225   2.863   2.993  16.695 -1.3610  1.5595 -1.6397
  831MPD2     N12226   2.779   2.633  16.441  0.0771  0.5924 -0.3096
  831MPD2    H512227   2.700   2.616  16.503  1.0180  0.2214  0.7826
  831MPD2    N112228   3.134   2.946  16.335  0.0671 -0.2374 -0.1350
  831MPD2    H712229   3.159   2.876  16.266  2.6315  0.1878  0.3704
  832MPD2     C12230   1.225   3.936  17.212  0.3217 -0.2648  0.6043
  832MPD2    C112231   1.185   4.070  17.206 -0.4486 -0.3257 -0.0573
  832MPD2    C212232   1.093   4.104  17.109 -0.2627  0.4336  0.1609
  832MPD2    C312233   1.020   4.001  17.043 -0.3412 -0.0996  0.5648
  832MPD2    C412234   1.054   3.869  17.063 -0.1821  0.6046 -0.0404
  832MPD2    C512235   1.155   3.837  17.146 -0.1753  0.2950  0.7402
  832MPD2     H12236   1.057   4.206  17.100 -0.8134  0.3816  1.7922
  832MPD2    H112237   1.009   3.793  17.001  3.2537 -1.4385 -0.0320
  832MPD2    H212238   1.308   3.898  17.270  0.4520 -1.6125 -0.4659
  832MPD2    H312239   1.186   3.734  17.158  0.8037  0.8453  2.8412
  832MPD2     N12240   0.923   4.025  16.942 -0.4009  0.3283  0.4033
  832MPD2    H512241   0.857   3.951  16.923 -0.6407  0.2557  1.5176
  832MPD2    N112242   1.261   4.169  17.276 -0.3501  0.2109 -0.1345
  832MPD2    H712243   1.347   4.142  17.323 -0.6850  1.6310  1.2893
  833MPD2     C12244   3.426   0.335  12.078 -0.6107  0.9206  0.0992
  833MPD2    C112245   3.476   0.460  12.107  0.1183  0.9956  0.5880
  833MPD2    C212246   3.605   0.495  12.069  0.0008  0.1812  0.2560
  833MPD2    C312247   3.687   0.410  11.993  0.0015 -0.2424 -0.4965
  833MPD2    C412248   3.638   0.281  11.979 -0.2607  0.2918 -0.0108
  833MPD2    C512249   3.510   0.244  12.014  0.0388  0.1036 -0.2778
  833MPD2     H12250   3.644   0.595  12.085 -0.0666  0.2646 -0.0963
  833MPD2    H112251   3.699   0.213  11.921 -1.4088  1.0019 -2.0210
  833MPD2    H212252   3.328   0.306  12.115 -0.1952 -2.1414 -1.1944
  833MPD2    H312253   3.482   0.141  11.994  0.7687 -0.5368  2.0646
  833MPD2     N12254   3.813   0.446  11.939 -0.2930 -0.3887 -0.6593
  833MPD2    H512255   3.864   0.377  11.885  0.5513 -0.2985  0.0396
  833MPD2    N112256   3.402   0.546  12.194 -0.1002 -0.1431  0.3409
  833MPD2    H712257   3.305   0.515  12.193  0.6907 -2.6364  1.0359
  834MPD2     C12258   4.003   0.296  11.095 -0.5586 -0.0097  0.4932
  834MPD2    C112259   3.902   0.252  11.184 -0.5046 -0.2173  0.5878
  834MPD2    C212260   3.912   0.299  11.316  0.0561 -0.4157 -0.1561
  834MPD2    C312261   4.003   0.395  11.349  0.2311  0.0506  0.4294
  834MPD2    C412262   4.093   0.442  11.254  0.0143  0.1496 -0.1172
  834MPD2    C512263   4.091   0.396  11.128  0.1684 -0.0527  0.7454
  834MPD2     H12264   3.838   0.271  11.390 -0.5021  2.4460  0.3678
  834MPD2    H112265   4.173   0.513  11.272 -1.0584  1.5946 -0.9959
  834MPD2    H212266   4.008   0.253  10.996 -0.0150  0.8910  0.1272
  834MPD2    H312267   4.166   0.436  11.061 -0.7783 -0.7051 -0.6957
  834MPD2     N12268   4.009   0.445  11.478 -0.1506  0.1667  0.2546
  834MPD2    H512269   3.946   0.401  11.545  0.5159 -1.8853 -0.4533
  834MPD2    N112270   3.815   0.150  11.141 -0.4594  0.4886  0.1086
  834MPD2    H712271   3.819   0.107  11.049 -0.1097  0.7646 -0.0086
  835MPD2     C12272   3.805   2.978  10.962 -0.2412 -0.4068 -0.1016
  835MPD2    C112273   3.809   3.045  11.079 -0.2706 -0.0820 -0.6063
  835MPD2    C212274   3.930   3.050  11.150  0.5122  0.9753 -0.7292
  835MPD2    C312275   4.034   2.974  11.103 -0.3352 -0.3138  0.4733
  835MPD2    C412276   4.024   2.899  10.983  0.7062 -0.5072  0.5246
  835MPD2    C512277   3.910   2.912  10.907 -0.1146 -0.4766 -0.3854
  835MPD2     H12278   3.933   3.106  11.243 -1.6577  0.1129 -0.1363
  835MPD2    H112279   4.105   2.832  10.961  0.7115  0.1494 -1.4267
  835MPD2    H212280   3.713   2.982  10.906 -0.6982  0.0608  0.6750
  835MPD2    H312281   3.897   2.866  10.810 -2.9339  0.0141 -0.2287
  835MPD2     N12282   4.151   2.956  11.184  0.2509 -0.0717 -0.1895
  835MPD2    H512283   4.219   2.885  11.158 -2.3464 -1.6666 -2.6088
  835MPD2    N112284   3.696   3.102  11.147  0.3770  0.3113 -0.3209
  835MPD2    H712285   3.709   3.141  11.240 -0.2601 -2.0747  0.7460
  836MPD2     C12286   3.788   2.806  11.424  0.6018  0.3255 -0.0516
  836MPD2    C112287   3.865   2.837  11.534 -0.1248 -1.1425  0.1515
  836MPD2    C212288   3.803   2.896  11.643 -0.5460 -0.1103  0.0215
  836MPD2    C312289   3.669   2.921  11.639 -0.3165  0.0684  0.1764
  836MPD2    C412290   3.592   2.891  11.526 -0.2641 -0.2941 -0.2842
  836MPD2    C512291   3.661   2.844  11.417 -0.6062 -0.1759  0.8314
  836MPD2     H12292   3.857   2.926  11.732  1.0308 -0.0003 -0.9685
  836MPD2    H112293   3.486   2.914  11.519  0.2510  1.7761 -1.6700
  836MPD2    H212294   3.828   2.751  11.340 -0.0877 -1.5811  0.8653
  836MPD2    H312295   3.603   2.832  11.327  2.7493  0.4177 -1.4229
  836MPD2     N12296   3.588   2.981  11.742 -0.0530  0.2865 -0.1281
  836MPD2    H512297   3.489   2.984  11.717 -0.4410  0.5585  1.4856
  836MPD2    N112298   4.000   2.808  11.524 -0.2035 -0.8950 -0.4079
  836MPD2    H712299   4.038   2.772  11.437  1.7362  0.9747 -0.3424
  837MPD2     C12300   2.240   3.013   9.991  0.3913 -0.1769  0.1041
  837MPD2    C112301   2.296   2.986   9.866  0.0093 -0.2672  0.0457
  837MPD2    C212302   2.401   3.061   9.826 -0.1276 -0.6703 -0.2957
  837MPD2    C312303   2.440   3.178   9.888  0.5682 -0.3393  0.0128
  837MPD2    C412304   2.395   3.199  10.017  0.0071 -0.7871  0.4005
  837MPD2    C512305   2.301   3.120  10.063 -0.1886  0.4173 -0.2597
  837MPD2     H12306   2.439   3.045   9.726  1.5266  0.2962  0.1832
  837MPD2    H112307   2.418   3.289  10.073  1.8597 -1.2748  0.4073
  837MPD2    H212308   2.163   2.955  10.040  0.3916 -0.3329 -0.0796
  837MPD2    H312309   2.273   3.137  10.166 -0.1309 -0.3591 -0.1181
  837MPD2     N12310   2.532   3.258   9.819 -0.3652 -0.3718  0.3382
  837MPD2    H512311   2.564   3.220   9.731 -1.6814  2.7087 -1.4871
  837MPD2    N112312   2.251   2.882   9.781 -0.7792  0.2256  0.1093
  837MPD2    H712313   2.282   2.888   9.684 -0.6137 -1.7499  0.0421
  838MPD2     C12314   0.292   1.597  11.467  0.1139 -0.2513 -0.2728
  838MPD2    C112315   0.305   1.460  11.465  0.4028 -0.2440 -0.0860
  838MPD2    C212316   0.237   1.386  11.562  0.5166 -1.4035  0.1103
  838MPD2    C312317   0.148   1.442  11.652 -0.7717 -0.3115 -0.2847
  838MPD2    C412318   0.141   1.582  11.668 -0.8173 -0.8103 -0.0210
  838MPD2    C512319   0.215   1.658  11.572  0.4352  1.1291 -0.3691
  838MPD2     H12320   0.246   1.278  11.571  0.3070 -1.2962  1.5395
  838MPD2    H112321   0.090   1.637  11.747 -0.2042 -0.4107  0.1008
  838MPD2    H212322   0.360   1.655  11.406  0.0379  0.3003  0.1620
  838MPD2    H312323   0.215   1.765  11.585 -0.5708  1.0260  0.4835
  838MPD2     N12324   0.086   1.350  11.737  0.1405 -0.2557  0.4274
  838MPD2    H512325   0.089   1.251  11.716  1.2199 -0.6416  2.4756
  838MPD2    N112326   0.378   1.388  11.366 -0.1796 -0.1239  0.1612
  838MPD2    H712327   0.378   1.287  11.370 -1.8015 -0.1242  0.3528
  839MPD2     C12328   0.069   0.665  11.352 -0.1639  0.4408 -0.9744
  839MPD2    C112329   0.096   0.674  11.214  0.0333  0.1362 -0.6050
  839MPD2    C212330   0.196   0.756  11.165  0.0012  0.5425 -0.2728
  839MPD2    C312331   0.256   0.843  11.257 -0.6897 -0.0925 -0.3046
  839MPD2    C412332   0.227   0.826  11.389 -0.8326  0.3460 -0.1378
  839MPD2    C512333   0.148   0.732  11.441 -0.5563  0.1706  0.0335
  839MPD2     H12334   0.211   0.742  11.058 -0.9862 -0.0517 -0.3379
  839MPD2    H112335   0.284   0.897  11.447 -2.2874  0.9366  0.5752
  839MPD2    H212336   4.719   0.599  11.398 -0.1260  0.1991 -1.2619
  839MPD2    H312337   0.146   0.729  11.550 -1.7799  1.2514  0.0415
  839MPD2     N12338   0.338   0.951  11.224 -0.0528  0.0794  0.0262
  839MPD2    H512339   0.374   1.005  11.303 -4.2629 -1.8531  3.2905
  839MPD2    N112340   0.031   0.581  11.125 -0.3353 -0.6131  0.3862
  839MPD2    H712341   0.067   0.570  11.030  0.5055 -0.7172  0.7110
  840MPD2     C12342   0.345   3.212  10.237  0.6301 -0.1821 -0.0780
  840MPD2    C112343   0.303   3.190  10.363 -0.4203 -0.2677  0.0679
  840MPD2    C212344   0.377   3.226  10.478  0.3010  0.2405  0.0169
  840MPD2    C312345   0.505   3.277  10.458 -0.5845  0.5548 -0.3488
  840MPD2    C412346   0.540   3.313  10.331 -0.0571  0.9136  0.2803
  840MPD2    C512347   0.460   3.279  10.221  1.4169  0.5553 -0.2193
  840MPD2     H12348   0.355   3.190  10.578  0.8778  0.7151  0.3210
  840MPD2    H112349   0.640   3.348  10.309  0.7583 -0.6930  1.4963
  840MPD2    H212350   0.282   3.191  10.152 -2.2096 -2.5835  2.6145
  840MPD2    H312351   0.498   3.301  10.122  0.0600 -1.9821 -1.3004
  840MPD2     N12352   0.601   3.303  10.561  0.5307  0.6914  0.3739
  840MPD2    H512353   0.694   3.335  10.534  1.6355 -1.5325  1.5378
  840MPD2    N112354   0.181   3.113  10.366 -0.0723 -0.0943 -0.3473
  840MPD2    H712355   0.149   3.075  10.278 -1.1190 -0.0880  0.0370
  841MPD2     C12356   4.589   3.651  15.375 -0.0018  0.4260  0.4569
  841MPD2    C112357   4.612   3.539  15.291  0.8386  0.3002  0.0046
  841MPD2    C212358   4.638   3.562  15.156  0.4774  0.6928  0.3986
  841MPD2    C312359   4.660   3.690  15.114  0.9456  1.0581 -0.1514
  841MPD2    C412360   4.652   3.801  15.202  0.0404  0.0259  0.3936
  841MPD2    C512361   4.609   3.777  15.325  0.0752  0.2883  0.2170
  841MPD2     H12362   4.666   3.476  15.096 -1.2848  1.0018 -0.8701
  841MPD2    H112363   4.672   3.901  15.167  0.1568 -0.0437  0.2601
  841MPD2    H212364   4.566   3.648  15.480  0.0195  0.7085  0.4712
  841MPD2    H312365   4.596   3.862  15.390 -1.0898  0.2109  0.0810
  841MPD2     N12366   4.693   3.704  14.977  0.2915 -0.2287  0.0075
  841MPD2    H512367   4.705   3.617  14.927 -0.3771  0.7708 -1.8880
  841MPD2    N112368   4.596   3.409  15.337  0.2022  0.0901  0.1731
  841MPD2    H712369   4.612   3.336  15.267 -1.5544  1.8603 -2.0747
  842MPD2     C12370   0.734   4.534  16.642  0.2512 -0.1073 -0.1808
  842MPD2    C112371   0.631   4.443  16.659  0.1396  0.9884 -0.7847
  842MPD2    C212372   0.578   4.437  16.790 -0.1746  0.3500  0.4008
  842MPD2    C312373   0.634   4.526  16.892  0.0714  0.0926 -0.6060
  842MPD2    C412374   0.745   4.607  16.866 -0.3288  0.7348  0.5782
  842MPD2    C512375   0.798   4.603  16.742  0.0095  0.1895  0.4465
  842MPD2     H12376   0.480   4.394  16.805 -0.3720  0.8372  0.5325
  842MPD2    H112377   0.780   4.676  16.942 -1.9477  1.9908  0.1805
  842MPD2    H212378   0.780   4.547  16.545  0.6953 -0.6474 -0.0448
  842MPD2    H312379   0.885   4.665  16.724  1.9028 -2.5577  0.1198
  842MPD2     N12380   0.566   4.539  17.018 -0.8731  0.1025 -0.2787
  842MPD2    H512381   0.584   4.628  17.063  0.7778 -0.5701  0.4048
  842MPD2    N112382   0.575   4.371  16.550 -0.2887  0.3858 -0.3506
  842MPD2    H712383   0.601   4.394  16.455  1.7830  2.0235  0.6144
  843MPD2     C12384   2.830   3.976   0.246 -0.8169  0.9210  0.2204
  843MPD2    C112385   2.864   3.972   0.380 -0.0024 -0.3740  0.1388
  843MPD2    C212386   2.951   4.077   0.431  0.4866 -0.3060 -0.2004
  843MPD2    C312387   2.997   4.172   0.348  0.5695 -0.5029  0.1021
  843MPD2    C412388   2.966   4.171   0.215 -0.2206 -0.2978  0.3804
  843MPD2    C512389   2.888   4.067   0.163  0.1908 -0.2367 -0.1936
  843MPD2     H12390   2.993   4.072   0.531  1.5831 -1.4105 -0.7096
  843MPD2    H112391   3.004   4.244   0.144  0.8409  0.7373  2.0148
  843MPD2    H212392   2.753   3.910   0.207 -1.4569  0.2399  2.6033
  843MPD2    H312393   2.856   4.071   0.060 -3.0384 -0.6113  0.7998
  843MPD2     N12394   3.078   4.279   0.386  0.4794 -0.5644  0.1479
  843MPD2    H512395   3.108   4.341   0.311 -0.6256 -2.9255 -2.2308
  843MPD2    N112396   2.794   3.877   0.461  0.3243 -0.2326 -0.7158
  843MPD2    H712397   2.731   3.815   0.411 -0.5733  1.0056 -1.1310
  844MPD2     C12398   0.821   3.573  16.459  0.2349  0.2212 -0.1434
  844MPD2    C112399   0.901   3.464  16.503 -0.2377  0.2629 -0.1688
  844MPD2    C212400   1.010   3.499  16.589 -0.2540  0.5859 -0.3569
  844MPD2    C312401   1.029   3.621  16.650  0.1786 -0.5132 -0.1559
  844MPD2    C412402   0.952   3.722  16.600 -0.0195  0.1290 -0.7232
  844MPD2    C512403   0.852   3.695  16.511 -0.3632 -0.3479  0.3463
  844MPD2     H12404   1.083   3.422  16.610 -0.7291 -0.1873 -1.5320
  844MPD2    H112405   0.960   3.825  16.633 -0.0677  0.8692 -3.0185
  844MPD2    H212406   0.746   3.580  16.380  1.3961  2.2390 -1.0857
  844MPD2    H312407   0.798   3.779  16.469 -0.3494  0.8035  2.6874
  844MPD2     N12408   1.150   3.642  16.721  0.1432  0.1555 -0.7517
  844MPD2    H512409   1.197   3.553  16.735 -0.6250  0.1256  1.5561
  844MPD2    N112410   0.902   3.332  16.445 -0.1635  0.8604 -0.1287
  844MPD2    H712411   0.966   3.262  16.479 -0.2044  0.2451 -1.3109
  845MPD2     C12412   1.654   4.478  17.037 -0.7798 -0.2269 -0.0106
  845MPD2    C112413   1.522   4.454  17.018  0.1302 -0.4828 -0.7153
  845MPD2    C212414   1.474   4.326  16.988 -0.0283 -0.1979  0.3819
  845MPD2    C312415   1.548   4.210  17.007  0.0030 -0.5391 -0.0700
  845MPD2    C412416   1.686   4.236  17.031  0.2557  0.5170  0.5779
  845MPD2    C512417   1.735   4.365  17.035  0.0901  0.5296  0.3867
  845MPD2     H12418   1.373   4.321  16.950 -0.6234 -0.1855  1.9464
  845MPD2    H112419   1.754   4.152  17.027  1.1581  1.3098 -0.6610
  845MPD2    H212420   1.702   4.575  17.044  0.7177 -0.9305 -0.5020
  845MPD2    H312421   1.840   4.379  17.058 -0.3589  3.0901  0.8881
  845MPD2     N12422   1.490   4.086  16.987 -0.2505  0.2580  0.2080
  845MPD2    H512423   1.390   4.077  16.972 -0.3426  0.6555  0.5708
  845MPD2    N112424   1.433   4.573  17.030 -0.0838 -0.2529  0.1094
  845MPD2    H712425   1.474   4.666  17.040 -0.8832 -0.2506  3.1903
  846MPD2     C12426   2.841   0.139  13.493  0.1412  0.4150  0.2207
  846MPD2    C112427   2.747   0.238  13.516 -0.7939 -0.3316  0.0235
  846MPD2    C212428   2.692   0.259  13.644  0.7222 -0.0660 -0.2777
  846MPD2    C312429   2.743   0.194  13.756 -0.0844  0.9361 -0.1898
  846MPD2    C412430   2.830   0.088  13.732 -0.7778  0.0412 -0.8796
  846MPD2    C512431   2.880   0.064  13.607  0.7243  0.3131 -0.3666
  846MPD2     H12432   2.615   0.333  13.662  0.1847 -1.7044  4.0210
  846MPD2    H112433   2.848   0.016  13.812 -2.9310 -0.3440 -0.7390
  846MPD2    H212434   2.892   0.111  13.402  0.5816  0.1753  0.5421
  846MPD2    H312435   2.952   4.705  13.599 -0.3124 -0.6733  0.3894
  846MPD2     N12436   2.700   0.234  13.888  0.3693 -0.2883  0.1509
  846MPD2    H512437   2.628   0.306  13.887 -0.3985 -1.0826 -0.8419
  846MPD2    N112438   2.690   0.311  13.407 -0.2312 -0.1581 -0.0193
  846MPD2    H712439   2.629   0.383  13.444 -1.1875 -0.1555 -1.6050
  847MPD2     C12440   3.257   2.120  14.118 -1.1536 -0.2609 -0.4514
  847MPD2    C112441   3.246   2.164  14.248  0.1977  0.0851 -0.0445
  847MPD2    C212442   3.365   2.212  14.297 -0.1012  0.0840  0.7482
  847MPD2    C312443   3.493   2.202  14.242  0.2522 -0.1909 -0.5195
  847MPD2    C412444   3.505   2.133  14.123  0.4533 -0.1637 -0.1979
  847MPD2    C512445   3.385   2.102  14.065  0.6065  0.0850 -0.1117
  847MPD2     H12446   3.365   2.272  14.388 -1.6001  0.6365  0.3867
  847MPD2    H112447   3.596   2.118  14.065  2.0868  1.7571  1.8508
  847MPD2    H212448   3.174   2.084  14.058 -1.1366 -1.1289  0.0517
  847MPD2    H312449   3.381   2.074  13.961  3.3306 -2.5301  0.4906
  847MPD2     N12450   3.598   2.262  14.314 -0.0253 -0.0915  0.0264
  847MPD2    H512451   3.569   2.314  14.397  0.2835 -2.0632  1.3688
  847MPD2    N112452   3.126   2.198  14.307 -0.3070 -0.2507 -0.6348
  847MPD2    H712453   3.127   2.253  14.392 -0.7995  0.5075 -1.1150
  848MPD2     C12454   0.789   4.148  16.136 -0.2148  0.6295  0.0847
  848MPD2    C112455   0.862   4.222  16.231 -0.0255 -0.5489  0.0232
  848MPD2    C212456   0.938   4.332  16.192 -0.4430  0.3044 -0.5599
  848MPD2    C312457   0.951   4.362  16.056  0.3945 -0.1618  0.5516
  848MPD2    C412458   0.890   4.274  15.965  0.1524  0.4823 -0.4177
  848MPD2    C512459   0.810   4.172  16.006  0.1953 -0.5124  0.6037
  848MPD2     H12460   0.987   4.396  16.264  0.7949 -1.7288  0.3903
  848MPD2    H112461   0.896   4.293  15.859  0.5072  0.0190 -0.4793
  848MPD2    H212462   0.730   4.061  16.161  1.9285 -1.2901 -1.6206
  848MPD2    H312463   0.758   4.112  15.931  1.0480 -1.2491  0.6113
  848MPD2     N12464   1.016   4.472  15.996  0.1827 -0.1749 -0.4216
  848MPD2    H512465   1.000   4.469  15.896  2.1437 -0.8698 -0.7170
  848MPD2    N112466   0.857   4.188  16.367 -0.2530 -0.3665  0.5327
  848MPD2    H712467   0.887   4.261  16.432 -1.8865 -0.9537  1.9369
  849MPD2     C12468   0.037   4.025  14.293 -0.1678  0.2446 -0.5444
  849MPD2    C112469   0.099   4.104  14.193 -0.6685  0.6366  0.2431
  849MPD2    C212470   0.231   4.145  14.207  0.7946 -0.1052  0.8942
  849MPD2    C312471   0.303   4.103  14.315 -0.3444 -0.0755  0.2024
  849MPD2    C412472   0.241   4.026  14.413 -0.2481 -0.0935 -0.2112
  849MPD2    C512473   0.109   3.993  14.404  0.0826  0.5677  0.3498
  849MPD2     H12474   0.277   4.206  14.131  0.8036  1.6291  2.2999
  849MPD2    H112475   0.300   3.990  14.496 -2.0733 -1.0891  0.6474
  849MPD2    H212476   4.653   3.999  14.284 -0.4335  1.3954 -0.7414
  849MPD2    H312477   0.073   3.937  14.489 -1.3380  1.0902  0.0937
  849MPD2     N12478   0.442   4.132  14.313 -0.5994 -0.0928 -0.3162
  849MPD2    H512479   0.476   4.178  14.229 -0.1148  2.7231  1.4184
  849MPD2    N112480   0.028   4.146  14.073  0.5640 -0.2529  0.5579
  849MPD2    H712481   0.089   4.202  14.014 -0.1669 -0.4442 -0.3706
  850MPD2     C12482   2.699   2.556  14.557  0.0640  0.2508  0.4302
  850MPD2    C112483   2.669   2.550  14.691  0.0320  0.6704  0.1761
  850MPD2    C212484   2.769   2.578  14.786 -0.3099 -0.4275 -0.0106
  850MPD2    C312485   2.903   2.591  14.738  0.3405 -0.2268  0.6410
  850MPD2    C412486   2.930   2.586  14.603  0.2220  0.5684 -0.9258
  850MPD2    C512487   2.828   2.578  14.518  0.2773 -0.4462 -0.2900
  850MPD2     H12488   2.743   2.592  14.891  1.7914 -1.7012  0.6862
  850MPD2    H112489   3.025   2.607  14.555  1.4386 -0.8009  0.8424
  850MPD2    H212490   2.621   2.549  14.482 -0.4844  1.6794  0.8685
  850MPD2    H312491   2.849   2.574  14.412 -0.4570 -0.6671 -0.4293
  850MPD2     N12492   3.015   2.615  14.821  0.1473 -0.0039  0.0336
  850MPD2    H512493   3.106   2.611  14.775  0.1739  1.2492 -0.0453
  850MPD2    N112494   2.534   2.526  14.723 -0.5268  0.7231 -0.7249
  850MPD2    H712495   2.482   2.510  14.638  0.8740 -0.0167 -1.4518
  851MPD2     C12496   2.998   2.376  15.439 -1.3697  0.3650  0.1568
  851MPD2    C112497   2.937   2.305  15.336  0.1788  0.1694  0.3383
  851MPD2    C212498   3.002   2.190  15.292  0.2615 -0.5698 -0.1268
  851MPD2    C312499   3.122   2.155  15.338 -0.0923  0.5474  0.2233
  851MPD2    C412500   3.187   2.231  15.432  0.4181 -0.5316  0.1092
  851MPD2    C512501   3.130   2.350  15.473 -0.1394 -0.5079  0.2825
  851MPD2     H12502   2.952   2.132  15.216 -2.0967  3.0594 -1.3282
  851MPD2    H112503   3.283   2.200  15.472  1.3811  0.6452 -1.2703
  851MPD2    H212504   2.954   2.468  15.476 -1.6594 -0.1602  1.1165
  851MPD2    H312505   3.175   2.408  15.553  0.0657 -0.3561  0.0558
  851MPD2     N12506   3.177   2.038  15.283 -0.0714 -0.1497  0.1281
  851MPD2    H512507   3.122   1.971  15.230 -0.0647 -0.8201  0.9551
  851MPD2    N112508   2.813   2.353  15.285 -0.0737  0.0518 -0.1404
  851MPD2    H712509   2.770   2.434  15.329  3.6621  1.8100  0.3322
  852MPD2     C12510   3.492   3.981  10.246 -0.2203  0.1360 -0.1178
  852MPD2    C112511   3.394   4.083  10.256 -0.2810 -0.5619  0.7659
  852MPD2    C212512   3.368   4.156  10.151  0.3712  0.1830 -0.0839
  852MPD2    C312513   3.455   4.163  10.046  0.1910 -0.8337  0.2762
  852MPD2    C412514   3.566   4.079  10.040  0.2685 -0.4325 -0.3463
  852MPD2    C512515   3.578   3.983  10.142 -0.2797  0.0541  0.0683
  852MPD2     H12516   3.295   4.236  10.148 -1.1299 -1.1486  0.9600
  852MPD2    H112517   3.639   4.076   9.960  0.6245  1.6402 -0.0949
  852MPD2    H212518   3.513   3.916  10.330  2.2826 -0.2450 -1.0208
  852MPD2    H312519   3.662   3.914  10.141 -1.5071 -1.4473  0.8486
  852MPD2     N12520   3.424   4.255   9.945  0.7137  0.1843  0.0699
  852MPD2    H512521   3.329   4.292   9.940  1.0677  1.0756 -0.0579
  852MPD2    N112522   3.312   4.102  10.371 -0.0076 -0.1974  0.2394
  852MPD2    H712523   3.242   4.176  10.364  1.1931  0.7433 -1.7656
  853MPD2     C12524   0.122   4.270  12.162  0.4543  0.2701 -0.4498
  853MPD2    C112525   0.074   4.387  12.102  0.1638 -0.4648 -0.5132
  853MPD2    C212526   0.061   4.391  11.963  0.3432 -0.1292  0.2372
  853MPD2    C312527   0.072   4.272  11.890  0.4022 -0.0834  0.5961
  853MPD2    C412528   0.119   4.163  11.948 -0.0920 -0.0172  0.2144
  853MPD2    C512529   0.151   4.166  12.081 -0.6162  0.3128  0.3464
  853MPD2     H12530   0.023   4.485  11.926  2.7144  0.4517 -0.7023
  853MPD2    H112531   0.140   4.070  11.896 -1.0452  0.5484 -1.1576
  853MPD2    H212532   0.134   4.257  12.269  2.3791 -1.5574 -0.8879
  853MPD2    H312533   0.186   4.073  12.125 -0.4522 -0.5114 -1.5140
  853MPD2     N12534   0.063   4.272  11.747 -0.1289  0.4067 -0.5385
  853MPD2    H512535   0.061   4.182  11.702 -1.0950 -0.7364  1.7740
  853MPD2    N112536   0.045   4.498  12.190 -0.2507 -0.2417 -0.3455
  853MPD2    H712537   0.056   4.475  12.289 -0.8286 -0.0933 -0.2448
  854MPD2     C12538   1.210   4.439  13.322 -0.1483  0.4108 -0.1776
  854MPD2    C112539   1.346   4.467  13.319 -0.4981 -0.1963  0.3361
  854MPD2    C212540   1.442   4.363  13.346 -0.1715 -0.3757 -0.2183
  854MPD2    C312541   1.393   4.235  13.362 -0.3209  0.6584 -0.0584
  854MPD2    C412542   1.259   4.214  13.367 -0.6318  0.4003 -0.1466
  854MPD2    C512543   1.168   4.313  13.349 -0.0127  0.2921 -0.4311
  854MPD2     H12544   1.550   4.375  13.340 -0.1313 -0.5097  0.2317
  854MPD2    H112545   1.216   4.114  13.376 -0.7719  0.5973  1.2695
  854MPD2    H212546   1.137   4.519  13.316 -2.2665 -1.4069  1.5380
  854MPD2    H312547   1.062   4.290  13.353  0.0360  0.0521 -0.4919
  854MPD2     N12548   1.487   4.135  13.399  0.2635  0.4168  0.8655
  854MPD2    H512549   1.582   4.167  13.416  0.5014 -0.0384  0.3949
  854MPD2    N112550   1.393   4.601  13.293  0.2640 -0.0790  0.5189
  854MPD2    H712551   1.323   4.674  13.280 -0.9384 -1.3448 -0.0874
  855MPD2     C12552   1.637   3.741  14.232  0.0492  0.4383  0.9623
  855MPD2    C112553   1.761   3.764  14.174 -0.5403  0.1062  0.2077
  855MPD2    C212554   1.767   3.827  14.049 -0.1723  0.2987  0.0175
  855MPD2    C312555   1.650   3.841  13.976  0.0217  0.6832  0.2637
  855MPD2    C412556   1.532   3.825  14.040 -0.1762 -0.0291  0.2116
  855MPD2    C512557   1.529   3.776  14.162  0.1773 -0.2784  0.5141
  855MPD2     H12558   1.865   3.847  14.007  0.1613  0.9020  1.0762
  855MPD2    H112559   1.434   3.817  13.995  0.0857  0.0431 -0.3707
  855MPD2    H212560   1.624   3.706  14.334  1.1548  1.6852  1.5334
  855MPD2    H312561   1.437   3.754  14.216  0.2908  0.6550  1.0961
  855MPD2     N12562   1.650   3.872  13.838  0.0612 -0.0891  0.2024
  855MPD2    H512563   1.561   3.893  13.795  0.2743  0.5770  0.0827
  855MPD2    N112564   1.883   3.721  14.228 -0.2520  0.4120  0.5608
  855MPD2    H712565   1.966   3.749  14.177 -0.5504 -0.7314 -0.5547
  856MPD2     C12566   3.522   0.387  13.796  0.0570  0.0719  0.3567
  856MPD2    C112567   3.573   0.478  13.888 -0.1612 -0.2000  0.5470
  856MPD2    C212568   3.477   0.548  13.954  1.0668 -0.3250 -0.0296
  856MPD2    C312569   3.341   0.557  13.924 -0.5291 -0.4284 -0.2528
  856MPD2    C412570   3.302   0.487  13.812 -0.4977 -0.6587  0.0136
  856MPD2    C512571   3.388   0.397  13.752  0.0260 -0.3439  0.4380
  856MPD2     H12572   3.513   0.612  14.034 -0.2977  0.5484 -0.1032
  856MPD2    H112573   3.206   0.487  13.761 -0.9354 -0.6601  0.8354
  856MPD2    H212574   3.586   0.318  13.742  0.4045 -0.3847  1.3481
  856MPD2    H312575   3.359   0.331  13.671 -1.7763 -2.1077  2.4919
  856MPD2     N12576   3.249   0.649  13.979  0.8013 -0.0676  0.0936
  856MPD2    H512577   3.181   0.675  13.908  0.9810 -0.8344 -0.3552
  856MPD2    N112578   3.708   0.487  13.924 -0.0878  0.0304  0.3342
  856MPD2    H712579   3.740   0.545  14.001  1.7693 -1.5868  0.7629
  857MPD2     C12580   0.633   2.522  12.748  0.1248  0.9038  0.2161
  857MPD2    C112581   0.765   2.491  12.714  0.4325  0.7239  0.4827
  857MPD2    C212582   0.858   2.572  12.776 -0.3922  0.7404  0.5430
  857MPD2    C312583   0.829   2.664  12.872  0.1120  0.1609 -0.0198
  857MPD2    C412584   0.690   2.691  12.898  0.1638 -0.1833 -0.2499
  857MPD2    C512585   0.598   2.624  12.831  0.3602 -0.2365  0.0308
  857MPD2     H12586   0.965   2.564  12.759 -0.4665  4.1378 -1.5180
  857MPD2    H112587   0.658   2.771  12.964 -1.5265 -0.0525 -1.2425
  857MPD2    H212588   0.562   2.465  12.688  2.8541  0.2391 -2.3703
  857MPD2    H312589   0.493   2.636  12.857  0.6196  2.2492 -0.0798
  857MPD2     N12590   0.935   2.734  12.934  0.3340  0.2495  0.5226
  857MPD2    H512591   1.033   2.706  12.926 -0.1864 -1.2940 -0.4066
  857MPD2    N112592   0.789   2.382  12.619 -0.4856  0.6428  0.3965
  857MPD2    H712593   0.706   2.331  12.590 -1.0243  1.4900  0.4537
  858MPD2     C12594   1.318   1.389  16.978  0.4956 -0.1123 -0.0720
  858MPD2    C112595   1.426   1.440  16.909  0.1850 -0.2623 -0.5068
  858MPD2    C212596   1.495   1.548  16.962  0.1682 -0.4426 -0.1813
  858MPD2    C312597   1.451   1.605  17.084  0.4519  0.3840 -0.1244
  858MPD2    C412598   1.345   1.551  17.148 -0.5267 -0.1034 -0.1790
  858MPD2    C512599   1.284   1.443  17.099  0.8231  0.4084  0.8350
  858MPD2     H12600   1.587   1.578  16.913  1.6783 -3.1872  0.9806
  858MPD2    H112601   1.316   1.587  17.246 -0.9763 -0.4785 -0.1730
  858MPD2    H212602   1.255   1.308  16.941  1.3443 -1.3040  1.0799
  858MPD2    H312603   1.198   1.396  17.145  0.5921 -0.2739 -0.2768
  858MPD2     N12604   1.513   1.720  17.139 -0.0290  0.1947  0.3609
  858MPD2    H512605   1.463   1.764  17.216 -0.4119  2.5166 -1.2096
  858MPD2    N112606   1.468   1.372  16.789 -0.4991 -0.5198  0.7671
  858MPD2    H712607   1.400   1.309  16.747 -0.0434 -1.0422  0.8117
  859MPD2     C12608   4.562   4.184  15.650  0.5206  0.7107 -0.4463
  859MPD2    C112609   4.664   4.139  15.566  0.1194 -0.4610 -0.2316
  859MPD2    C212610   4.721   4.014  15.604 -0.7243 -0.0785  0.8488
  859MPD2    C312611   4.666   3.942  15.708  0.5305  0.5864 -0.1390
  859MPD2    C412612   4.562   3.985  15.780  0.4477 -0.1545 -0.5472
  859MPD2    C512613   4.520   4.113  15.759  0.5824  0.3489 -0.3219
  859MPD2     H12614   0.073   3.963  15.542 -0.7289  1.2534 -0.2692
  859MPD2    H112615   4.515   3.919  15.852 -0.7489  0.3594 -0.8461
  859MPD2    H212616   4.520   4.282  15.628  0.7949  0.6278 -1.3494
  859MPD2    H312617   4.438   4.160  15.813  0.4539  0.1802 -0.3691
  859MPD2     N12618   4.697   3.810  15.726  0.6356 -0.1411 -0.3444
  859MPD2    H512619   4.650   3.763  15.803 -0.9843 -0.1596 -1.3440
  859MPD2    N112620   4.712   4.206  15.446  0.8081  0.3366  0.9162
  859MPD2    H712621   4.665   4.292  15.421  0.9129 -0.3448 -1.5525
  860MPD2     C12622   2.197   3.639  11.706  0.5916 -0.4705  0.1818
  860MPD2    C112623   2.201   3.764  11.769  0.0251  0.1762 -0.3464
  860MPD2    C212624   2.137   3.782  11.894 -0.0945  0.5334  0.3469
  860MPD2    C312625   2.054   3.684  11.949 -0.1403  0.1275 -0.2953
  860MPD2    C412626   2.049   3.566  11.881  0.0283 -0.1505  0.6537
  860MPD2    C512627   2.110   3.547  11.762  0.3097 -0.2512 -0.1833
  860MPD2     H12628   2.143   3.880  11.939  0.1725 -1.5124  4.8112
  860MPD2    H112629   2.003   3.476  11.921  0.8967 -0.7829  0.2234
  860MPD2    H212630   2.233   3.623  11.605 -2.3534 -2.9521 -0.4885
  860MPD2    H312631   2.087   3.457  11.706 -0.3293  0.6453 -1.3805
  860MPD2     N12632   1.992   3.711  12.072 -0.1992  0.1775  0.0678
  860MPD2    H512633   2.012   3.801  12.115  1.1537 -0.0498 -0.0939
  860MPD2    N112634   2.276   3.873  11.717  0.4310 -0.5594  0.7855
  860MPD2    H712635   2.273   3.964  11.761  2.2016  0.1050 -0.4334
  861MPD2     C12636   1.373   2.281  10.849  0.4274 -0.1555  0.0738
  861MPD2    C112637   1.331   2.376  10.939  0.3921  0.1305 -0.6181
  861MPD2    C212638   1.295   2.500  10.892 -0.3880  0.3642  0.4263
  861MPD2    C312639   1.325   2.543  10.763  0.2595 -0.0093 -0.4941
  861MPD2    C412640   1.392   2.455  10.678  0.3988  0.2870  0.0340
  861MPD2    C512641   1.408   2.325  10.725 -0.5721 -0.1223 -0.1200
  861MPD2     H12642   1.246   2.571  10.957  0.4895  2.3178 -1.0372
  861MPD2    H112643   1.417   2.476  10.574  1.7951  1.1738  0.5569
  861MPD2    H212644   1.400   2.180  10.880  1.1279  0.6578  2.1028
  861MPD2    H312645   1.466   2.253  10.669 -0.6033 -0.8389  0.7717
  861MPD2     N12646   1.291   2.671  10.722  0.5455  0.3047 -0.4633
  861MPD2    H512647   1.337   2.697  10.635 -0.7924 -1.4629 -1.7029
  861MPD2    N112648   1.310   2.339  11.074  0.5011  0.6014 -0.1211
  861MPD2    H712649   1.344   2.247  11.101  0.8561  0.1878 -1.9288
  862MPD2     C12650   1.213   2.869  10.119  0.4812  0.4664 -0.7325
  862MPD2    C112651   1.312   2.838  10.215  0.1418  0.6364  0.0942
  862MPD2    C212652   1.367   2.711  10.223  0.0707 -0.3532  0.0903
  862MPD2    C312653   1.314   2.617  10.139 -1.3261  0.2325 -0.6313
  862MPD2    C412654   1.207   2.636  10.058 -0.0595 -0.6727  0.2208
  862MPD2    C512655   1.170   2.767  10.036  0.5419  0.2341 -0.3143
  862MPD2     H12656   1.437   2.688  10.303 -0.0924  0.0580  0.3501
  862MPD2    H112657   1.163   2.555  10.000 -1.8860  1.5506 -1.5315
  862MPD2    H212658   1.175   2.969  10.100 -2.2732 -0.0137  2.2647
  862MPD2    H312659   1.087   2.786   9.969 -0.6140  0.4772  1.1964
  862MPD2     N12660   1.338   2.482  10.160  0.6942 -0.5104  0.2274
  862MPD2    H512661   1.267   2.416  10.128  1.4662 -0.8557 -0.7489
  862MPD2    N112662   1.344   2.922  10.323  0.3017 -0.1562  1.2032
  862MPD2    H712663   1.404   2.884  10.397  0.6732 -2.5542 -0.3140
  863MPD2     C12664   4.522   0.590  16.804 -0.3198 -0.1557  0.6589
  863MPD2    C112665   4.571   0.714  16.838 -0.0977  0.2158  0.1977
  863MPD2    C212666   4.690   0.720  16.910  0.2446 -0.5140 -0.1345
  863MPD2    C312667   0.032   0.611  16.959  0.3479 -0.1292 -0.7140
  863MPD2    C412668   4.697   0.486  16.928 -0.3498  0.1325  0.5836
  863MPD2    C512669   4.590   0.481  16.845  0.4175 -0.0076  0.6033
  863MPD2     H12670   0.010   0.817  16.936 -0.3029  0.5201 -3.1443
  863MPD2    H112671   0.024   0.392  16.953  0.3387  0.1319 -0.7564
  863MPD2    H212672   4.431   0.583  16.746  0.4044 -1.2503 -0.3462
  863MPD2    H312673   4.543   0.387  16.820 -1.2828  0.9823  0.0477
  863MPD2     N12674   0.151   0.615  17.047  0.4066  0.1102 -0.1977
  863MPD2    H512675   0.164   0.528  17.098 -0.8074 -1.0949 -1.9291
  863MPD2    N112676   4.499   0.827  16.795 -0.3568 -0.3049 -0.0606
  863MPD2    H712677   4.411   0.807  16.750 -0.5494  0.6007 -0.1048
  864MPD2     C12678   0.503   1.613  17.470 -0.3880  0.3176  0.0106
  864MPD2    C112679   0.577   1.537  17.378  0.1965  0.3890  0.8625
  864MPD2    C212680   0.689   1.601  17.320 -0.0594 -0.3521 -0.2833
  864MPD2    C312681   0.721   1.732  17.355 -0.2613 -0.1646 -0.2582
  864MPD2    C412682   0.651   1.802  17.448  0.1292 -0.0372  0.1639
  864MPD2    C512683   0.536   1.743  17.498 -0.1243  0.3558  0.1714
  864MPD2     H12684   0.747   1.546  17.246 -0.9258  2.5178 -3.1142
  864MPD2    H112685   0.676   1.904  17.474 -1.0428  0.6736 -1.4689
  864MPD2    H212686   0.415   1.568  17.514 -1.7898  0.8457 -2.2194
  864MPD2    H312687   0.472   1.803  17.562 -1.0733  0.1843 -0.6271
  864MPD2     N12688   0.833   1.795  17.298 -0.1132 -0.2089 -0.2689
  864MPD2    H512689   0.841   1.893  17.325 -0.2717 -0.2353 -0.1291
  864MPD2    N112690   0.520   1.413  17.338 -0.7095  0.1094  0.5261
  864MPD2    H712691   0.435   1.377  17.380 -1.1273 -0.0940 -0.4924
  865MPD2     C12692   1.039   2.303  16.530  0.3393  0.0416 -1.0927
  865MPD2    C112693   0.993   2.184  16.581 -0.4892 -0.0007 -0.1215
  865MPD2    C212694   1.012   2.146  16.712  0.1613  0.3301 -0.4341
  865MPD2    C312695   1.063   2.239  16.797  0.0188  0.3366 -0.5663
  865MPD2    C412696   1.107   2.365  16.750  0.2479  0.3053  0.0949
  865MPD2    C512697   1.085   2.401  16.621  0.4316  0.0495  0.6709
  865MPD2     H12698   0.984   2.049  16.751 -0.7543  0.8220  0.1416
  865MPD2    H112699   1.155   2.438  16.814  0.7986  1.2867 -1.4118
  865MPD2    H212700   1.024   2.333  16.427 -1.9615  1.9349 -0.2143
  865MPD2    H312701   1.110   2.502  16.594 -2.0757  0.7832  1.0986
  865MPD2     N12702   1.086   2.213  16.933  0.6063 -0.4627 -0.3832
  865MPD2    H512703   1.174   2.245  16.972 -0.3021  0.0924  1.2349
  865MPD2    N112704   0.923   2.103  16.483 -0.3094  0.2213 -0.0361
  865MPD2    H712705   0.917   2.146  16.391 -0.9836 -0.2191 -0.1932
  866MPD2     C12706   1.762   2.213  11.267 -0.2826  0.0376  0.4643
  866MPD2    C112707   1.794   2.249  11.136  0.1037 -0.4729  0.0197
  866MPD2    C212708   1.726   2.362  11.082  0.5131 -0.4175 -0.7327
  866MPD2    C312709   1.639   2.444  11.160  0.0902 -0.0218  0.3777
  866MPD2    C412710   1.612   2.405  11.290 -0.0381  0.6855  0.4729
  866MPD2    C512711   1.688   2.300  11.340 -0.2040 -0.0598  1.1053
  866MPD2     H12712   1.744   2.393  10.980  1.7843  2.4029  0.3491
  866MPD2    H112713   1.550   2.471  11.349  1.0302 -0.4310  2.8476
  866MPD2    H212714   1.817   2.135  11.318 -2.5971 -1.2854  0.9332
  866MPD2    H312715   1.673   2.273  11.444  0.2541  0.9808  1.4419
  866MPD2     N12716   1.576   2.561  11.110  0.7265  0.2422  0.0843
  866MPD2    H512717   1.504   2.606  11.165 -1.7954 -2.9530 -0.6130
  866MPD2    N112718   1.887   2.169  11.068  0.2611  0.2355 -0.0787
  866MPD2    H712719   1.942   2.097  11.113 -2.1732  0.1016  2.6501
  867MPD2     C12720   4.099   2.566  16.497 -0.4907 -0.1155 -0.2699
  867MPD2    C112721   4.194   2.490  16.558 -0.4932  0.3399 -0.3982
  867MPD2    C212722   4.294   2.560  16.635  0.2532  0.8144 -0.0964
  867MPD2    C312723   4.283   2.691  16.667 -0.1016  0.0713  0.3248
  867MPD2    C412724   4.169   2.756  16.629  0.2771 -0.6289  0.0867
  867MPD2    C512725   4.084   2.701  16.533  0.5819  0.2341  0.6627
  867MPD2     H12726   4.381   2.506  16.669 -0.7211 -0.9485 -0.4313
  867MPD2    H112727   4.155   2.859  16.660 -0.1147 -0.4016 -0.8461
  867MPD2    H212728   4.041   2.523  16.415 -0.7058  1.1947 -0.8067
  867MPD2    H312729   3.998   2.758  16.500  1.8524  3.1397  2.4363
  867MPD2     N12730   4.388   2.767  16.719 -0.0871 -0.0036  0.0652
  867MPD2    H512731   4.365   2.863  16.740 -3.7930 -0.8768 -0.0288
  867MPD2    N112732   4.209   2.347  16.528  0.0168 -0.0246 -0.1141
  867MPD2    H712733   4.134   2.307  16.471 -0.3021  0.1732  0.1631
  868MPD2     C12734   0.718   0.703  12.792  0.1742 -0.4280 -0.1764
  868MPD2    C112735   0.783   0.822  12.768 -0.4315  0.2654  0.3366
  868MPD2    C212736   0.701   0.927  12.739 -0.3247 -0.5700 -0.3167
  868MPD2    C312737   0.563   0.918  12.753 -0.3336  0.4729  0.3507
  868MPD2    C412738   0.497   0.798  12.768 -0.3452 -0.5774 -0.7588
  868MPD2    C512739   0.584   0.689  12.791  0.0017  0.0050 -0.0940
  868MPD2     H12740   0.740   1.028  12.743 -1.3621 -0.1929  0.2424
  868MPD2    H112741   0.390   0.789  12.778 -0.4069 -1.7263 -2.5141
  868MPD2    H212742   0.782   0.616  12.804  3.3858  2.2049  2.0365
  868MPD2    H312743   0.541   0.590  12.795 -0.0715  0.0920  1.4838
  868MPD2     N12744   0.483   1.040  12.754 -0.5452 -0.4133 -0.1499
  868MPD2    H512745   0.538   1.123  12.733  0.4487 -0.9802  0.2210
  868MPD2    N112746   0.924   0.837  12.781 -0.1467 -0.6043  0.8553
  868MPD2    H712747   0.971   0.757  12.823  0.0831  0.0891  1.9303
  869MPD2     C12748   2.584   3.102   2.380  0.8366  0.2612 -0.0977
  869MPD2    C112749   2.636   3.078   2.258  0.0877 -0.4633 -0.6278
  869MPD2    C212750   2.622   3.173   2.149  0.5963 -0.0270  0.4210
  869MPD2    C312751   2.543   3.283   2.168 -0.0818  0.3560 -0.4083
  869MPD2    C412752   2.488   3.302   2.290 -0.1360 -0.3950 -0.2843
  869MPD2    C512753   2.511   3.222   2.397  0.4380 -0.7941 -0.4425
  869MPD2     H12754   2.686   3.155   2.063 -1.6845  1.7874 -1.6437
  869MPD2    H112755   2.432   3.394   2.298  1.6051  0.5699  0.6259
  869MPD2    H212756   2.598   3.029   2.459 -0.1480  1.3090  1.0385
  869MPD2    H312757   2.466   3.246   2.493  2.9526  0.2502  0.4822
  869MPD2     N12758   2.511   3.375   2.062  0.4898  1.0018 -0.0145
  869MPD2    H512759   2.453   3.455   2.087 -0.3279  0.3117  0.2904
  869MPD2    N112760   2.707   2.961   2.243  0.0096 -1.0809  0.0187
  869MPD2    H712761   2.692   2.900   2.322  0.5520  0.5772  1.4249
  870MPD2     C12762   1.762   2.134   2.040  1.2003  0.2250  0.5263
  870MPD2    C112763   1.875   2.195   1.986  0.0125 -0.5642  0.3111
  870MPD2    C212764   1.859   2.306   1.905 -0.2138  0.1323 -0.0697
  870MPD2    C312765   1.729   2.359   1.876 -0.0931  0.1439 -0.2480
  870MPD2    C412766   1.619   2.298   1.940 -0.2016  0.2567  0.7297
  870MPD2    C512767   1.639   2.184   2.025 -0.0056  0.0139  0.0330
  870MPD2     H12768   1.933   2.323   1.828 -1.1987 -0.0287 -1.0337
  870MPD2    H112769   1.514   2.319   1.920 -0.6693 -1.7510  1.0605
  870MPD2    H212770   1.763   2.049   2.107 -0.2838 -0.3636 -0.1966
  870MPD2    H312771   1.553   2.143   2.077  1.5158 -5.1668 -1.5284
  870MPD2     N12772   1.719   2.440   1.761 -0.3524  0.4098 -0.1121
  870MPD2    H512773   1.809   2.472   1.727  0.4821  0.8700  2.5234
  870MPD2    N112774   1.996   2.137   2.019 -0.3561 -0.0335  0.6782
  870MPD2    H712775   1.992   2.055   2.079 -1.7662 -0.6181 -0.2130
  871MPD2     C12776   2.981   2.354  16.578  0.4033 -0.0211 -0.0482
  871MPD2    C112777   2.935   2.277  16.681  0.9121 -0.2167  0.8101
  871MPD2    C212778   2.904   2.143  16.652 -0.9161  0.0683  0.4589
  871MPD2    C312779   2.909   2.089  16.521  0.5974 -0.3323 -0.0077
  871MPD2    C412780   2.950   2.174  16.420  0.4950 -0.4701  0.8064
  871MPD2    C512781   2.996   2.300  16.451 -0.3770 -0.0617 -0.0721
  871MPD2     H12782   2.868   2.068  16.721  2.4164  0.4463  2.6161
  871MPD2    H112783   2.958   2.134  16.320 -0.1570  0.9073  0.2117
  871MPD2    H212784   2.999   2.459  16.596 -2.5787  0.2940  1.0255
  871MPD2    H312785   3.040   2.354  16.368 -3.0184  0.2469 -1.2678
  871MPD2     N12786   2.871   1.953  16.504 -0.0815  0.3463  0.2200
  871MPD2    H512787   2.854   1.900  16.589  0.0671 -0.5778 -0.3197
  871MPD2    N112788   2.922   2.343  16.806 -0.2554  0.0477  0.5422
  871MPD2    H712789   2.944   2.442  16.811 -2.5783  0.5772  0.3969
  872MPD2     C12790   3.379   4.270  13.594  0.2744 -0.2196  0.2917
  872MPD2    C112791   3.418   4.375  13.669 -0.5290  0.3780 -0.4309
  872MPD2    C212792   3.343   4.406  13.781  0.4443  0.5541 -0.4350
  872MPD2    C312793   3.215   4.352  13.802 -0.4437  0.4556  0.9416
  872MPD2    C412794   3.175   4.248  13.716  0.2421 -0.0611  0.5889
  872MPD2    C512795   3.263   4.214  13.616 -0.2571 -0.8253 -0.3173
  872MPD2     H12796   3.384   4.472  13.856  0.0053  3.3667 -2.6637
  872MPD2    H112797   3.079   4.201  13.735 -0.0897  0.2152 -0.4085
  872MPD2    H212798   3.429   4.242  13.502  0.1107  0.3053  0.0419
  872MPD2    H312799   3.225   4.140  13.546  0.6554 -1.4950 -0.1063
  872MPD2     N12800   3.123   4.395  13.903 -0.5854 -0.4663 -0.0807
  872MPD2    H512801   3.034   4.348  13.920 -0.1657 -1.1952  0.1060
  872MPD2    N112802   3.537   4.449  13.647 -0.2898  0.1468 -0.2169
  872MPD2    H712803   3.558   4.512  13.724 -0.4383  0.9839 -0.8628
  873MPD2     C12804   0.834   0.073   0.788 -0.4335 -0.0200  0.2130
  873MPD2    C112805   0.856   4.720   0.900  0.4402  0.4745  0.5186
  873MPD2    C212806   0.867   4.584   0.891 -0.8161 -0.2571 -0.5451
  873MPD2    C312807   0.836   4.520   0.774  0.2810 -0.1463  0.3605
  873MPD2    C412808   0.806   4.596   0.661  0.0705  0.2441  0.3624
  873MPD2    C512809   0.812   0.013   0.663  0.8411  0.4044 -0.0946
  873MPD2     H12810   0.899   4.529   0.978  0.8147  0.7833 -0.4767
  873MPD2    H112811   0.782   4.543   0.570  0.9169 -1.8844  1.3774
  873MPD2    H212812   0.815   0.179   0.783 -1.1204  0.0526  4.0434
  873MPD2    H312813   0.777   0.063   0.574 -1.5038 -0.7408  0.1868
  873MPD2     N12814   0.823   4.376   0.766 -0.1493 -0.2547  0.2886
  873MPD2    H512815   0.804   4.347   0.670 -4.7070 -0.2811  1.1974
  873MPD2    N112816   0.883   0.066   1.019  0.2478 -0.2959  0.0031
  873MPD2    H712817   0.900   0.166   1.010 -2.7757  0.3271  1.2714
  874MPD2     C12818   0.409   0.016  15.918 -0.0954  0.0033  0.3122
  874MPD2    C112819   0.494   4.645  15.981  0.0149 -0.3809  0.0716
  874MPD2    C212820   0.628   4.665  15.954 -0.1605 -0.3568  0.2019
  874MPD2    C312821   0.681   0.047  15.875 -0.0419  0.0778  0.1754
  874MPD2    C412822   0.591   0.126  15.809  0.2333  0.1549 -0.1118
  874MPD2    C512823   0.457   0.109  15.832  0.8993  0.3229 -0.4457
  874MPD2     H12824   0.700   4.596  15.995  0.0765  1.4361  2.7831
  874MPD2    H112825   0.631   0.206  15.748 -0.8949  0.2817 -0.6945
  874MPD2    H212826   0.303   4.720  15.934  0.2085 -1.7173  0.4097
  874MPD2    H312827   0.397   0.190  15.791  0.2376 -0.3774 -0.8588
  874MPD2     N12828   0.826   0.058  15.865  0.4128 -0.6474 -0.2139
  874MPD2    H512829   0.879   4.706  15.911  0.8494  0.2530  0.7152
  874MPD2    N112830   0.444   4.540  16.063 -0.0033  0.4524 -0.5062
  874MPD2    H712831   0.343   4.531  16.051  0.2569  0.1840 -2.5075
  875MPD2     C12832   1.309   3.163  14.439 -0.1293 -0.2449 -0.3007
  875MPD2    C112833   1.179   3.183  14.471  0.1644  0.6968 -0.7421
  875MPD2    C212834   1.148   3.237  14.596  0.1302 -0.2922 -0.5969
  875MPD2    C312835   1.248   3.261  14.693 -0.0401 -0.0001  1.2519
  875MPD2    C412836   1.378   3.248  14.655  0.3355  0.7752 -0.3859
  875MPD2    C512837   1.407   3.205  14.528 -0.0582 -0.2608 -0.7284
  875MPD2     H12838   1.043   3.257  14.615  1.1336  4.3846 -0.1437
  875MPD2    H112839   1.470   3.285  14.699 -1.2871  0.6262  3.0857
  875MPD2    H212840   1.334   3.142  14.335  1.0938 -0.5960  0.0625
  875MPD2    H312841   1.508   3.208  14.488 -0.2483  2.8406 -0.9799
  875MPD2     N12842   1.221   3.325  14.819 -0.7403  0.3496  0.8393
  875MPD2    H512843   1.306   3.354  14.867 -0.2027  0.7774 -0.3508
  875MPD2    N112844   1.072   3.151  14.376 -0.3791 -0.7761  0.5825
  875MPD2    H712845   0.979   3.176  14.410 -1.1351 -1.0947 -1.2624
  876MPD2     C12846   0.104   4.179  15.959  0.1253  0.2091  0.1238
  876MPD2    C112847   0.229   4.155  15.915  0.9956 -0.2220 -0.0026
  876MPD2    C212848   0.285   4.032  15.956  0.1071 -0.0790  0.5071
  876MPD2    C312849   0.222   3.940  16.035  0.4697 -1.7338  0.0705
  876MPD2    C412850   0.097   3.972  16.083 -0.7689 -0.2266  0.0879
  876MPD2    C512851   0.048   4.093  16.052 -0.2929 -0.1929 -0.6940
  876MPD2     H12852   0.375   3.996  15.907 -0.0142  1.0895 -0.5727
  876MPD2    H112853   0.052   3.912  16.162  1.0675 -0.2689  1.0892
  876MPD2    H212854   0.068   4.279  15.936  0.0356  0.2113  0.2762
  876MPD2    H312855   4.676   4.119  16.101  1.2158  1.5075  1.3047
  876MPD2     N12856   0.287   3.819  16.058  0.0978 -0.0744 -0.8352
  876MPD2    H512857   0.374   3.794  16.011  0.3247 -0.4725 -0.2019
  876MPD2    N112858   0.291   4.247  15.823  0.2233  0.1273  0.0939
  876MPD2    H712859   0.231   4.321  15.789  0.3491  0.4509  0.5685
  877MPD2     C12860   0.081   0.045  15.363  0.2338 -0.1861  1.2854
  877MPD2    C112861   0.220   0.064  15.364  0.2869 -0.1004 -0.0792
  877MPD2    C212862   0.279   0.146  15.269  0.7598 -0.1479 -0.6819
  877MPD2    C312863   0.202   0.195  15.167 -0.5179 -0.2300  0.2760
  877MPD2    C412864   0.064   0.170  15.159  0.0667  0.5172  0.2937
  877MPD2    C512865   0.006   0.093  15.258 -0.5100  0.0341 -0.5808
  877MPD2     H12866   0.387   0.156  15.276  0.2851  2.4685  3.0610
  877MPD2    H112867   0.002   0.200  15.075 -1.0603  0.9620  1.2868
  877MPD2    H212868   0.029   4.705  15.437  0.7620 -0.2427  1.6075
  877MPD2    H312869   4.621   0.071  15.255 -0.9966  2.1831  1.2951
  877MPD2     N12870   0.266   0.250  15.051 -0.5636 -0.1708  0.1184
  877MPD2    H512871   0.201   0.265  14.974 -1.2045  0.1744  0.7322
  877MPD2    N112872   0.307   4.718  15.456  0.5181  0.0882 -0.6345
  877MPD2    H712873   0.397   0.043  15.464  0.7686 -0.3737 -0.7942
  878MPD2     C12874   4.588   3.793  13.092  0.1032  0.3840 -0.3101
  878MPD2    C112875   4.671   3.906  13.093  0.5159  0.2344 -0.3746
  878MPD2    C212876   4.687   3.973  13.210  0.0001 -1.2104  0.0248
  878MPD2    C312877   4.635   3.938  13.335 -0.3433 -0.1998  0.6391
  878MPD2    C412878   4.554   3.827  13.333  0.2024 -0.3049  1.0440
  878MPD2    C512879   4.535   3.756  13.212  0.1085  0.4178 -0.1068
  878MPD2     H12880   0.027   4.062  13.213 -0.3143 -0.9382 -1.8769
  878MPD2    H112881   4.519   3.775  13.421 -2.0881 -2.3641 -1.0846
  878MPD2    H212882   4.572   3.743  12.997  0.9368 -0.7628  0.1531
  878MPD2    H312883   4.470   3.670  13.209  2.0936 -0.9563 -3.5232
  878MPD2     N12884   4.660   4.031  13.447  0.1249 -0.1125 -0.5533
  878MPD2    H512885   0.002   4.110  13.437  0.9176 -0.7709 -0.7838
  878MPD2    N112886   4.707   3.946  12.959 -0.2558 -0.1098 -0.4129
  878MPD2    H712887   4.676   3.889  12.881  0.1462 -0.8742 -0.0109
  879MPD2     C12888   0.749   0.759  16.852  0.1233 -0.5604  0.2641
  879MPD2    C112889   0.810   0.640  16.859  0.1534  0.1129 -0.9350
  879MPD2    C212890   0.772   0.532  16.782 -0.6107 -0.2468  0.6154
  879MPD2    C312891   0.677   0.544  16.688  0.4718  0.5438 -0.0821
  879MPD2    C412892   0.627   0.672  16.663 -0.4514  0.5131 -0.4073
  879MPD2    C512893   0.657   0.778  16.750  0.5942  0.6856 -0.8333
  879MPD2     H12894   0.822   0.438  16.805  0.2939 -0.0858 -0.6724
  879MPD2    H112895   0.562   0.696  16.580 -0.4959  0.1459 -0.4803
  879MPD2    H212896   0.772   0.838  16.923 -1.3880  0.3809 -0.2695
  879MPD2    H312897   0.596   0.868  16.748 -0.8402 -0.2715 -0.4454
  879MPD2     N12898   0.635   0.440  16.603 -0.2704  0.6073 -0.3326
  879MPD2    H512899   0.572   0.463  16.527 -0.6254  0.7397  0.0043
  879MPD2    N112900   0.903   0.615  16.960  0.1469  0.3462 -0.1024
  879MPD2    H712901   0.926   0.678  17.037 -0.9470  2.1798 -1.2850
  880MPD2     C12902   2.040   2.138   0.280 -0.1322  0.5011 -0.0296
  880MPD2    C112903   2.085   2.169   0.406 -1.2584  0.2852  0.4740
  880MPD2    C212904   2.096   2.064   0.492 -0.1986 -0.7576 -0.2103
  880MPD2    C312905   2.076   1.933   0.454 -0.6306 -0.2724  0.1411
  880MPD2    C412906   2.050   1.900   0.321 -0.4388  0.2774 -0.6668
  880MPD2    C512907   2.030   2.005   0.239 -0.3205 -0.4484 -0.0888
  880MPD2     H12908   2.118   2.082   0.597  1.8349  1.0258 -0.9393
  880MPD2    H112909   2.021   1.799   0.295 -0.1475 -0.5596  2.2051
  880MPD2    H212910   2.028   2.212   0.202  0.9039  1.3556  0.6328
  880MPD2    H312911   2.000   1.987   0.137  0.4077 -1.6014 -0.0975
  880MPD2     N12912   2.092   1.838   0.559  0.1453  0.3100 -0.9759
  880MPD2    H512913   2.086   1.865   0.657  1.7144 -1.4767 -0.3734
  880MPD2    N112914   2.079   2.306   0.447 -0.0548 -0.0972 -0.5506
  880MPD2    H712915   2.057   2.378   0.379 -0.3645  0.3789  0.0528
  881MPD2     C12916   2.319   3.121   0.106 -0.5738 -0.1765 -0.5102
  881MPD2    C112917   2.309   2.984   0.089 -0.0049  0.7766  0.7321
  881MPD2    C212918   2.255   2.917   0.194 -0.2762  0.0632 -0.3635
  881MPD2    C312919   2.208   2.981   0.315  0.4208 -0.3559  0.3192
  881MPD2    C412920   2.240   3.116   0.330 -0.3566  0.5313  0.1153
  881MPD2    C512921   2.293   3.185   0.223 -0.1132  0.5270 -0.1263
  881MPD2     H12922   2.248   2.809   0.187  0.3542  0.0782 -1.1524
  881MPD2    H112923   2.212   3.180   0.413  0.1659  0.8374  0.0570
  881MPD2    H212924   2.366   3.187   0.034  0.8330 -0.3121  0.2819
  881MPD2    H312925   2.309   3.291   0.234 -2.1516  0.8502 -0.2646
  881MPD2     N12926   2.125   2.920   0.406 -1.3218  0.4227 -0.0236
  881MPD2    H512927   2.090   2.972   0.486  2.2303  0.7041  1.3627
  881MPD2    N112928   2.332   2.930  17.648  0.2932  0.0276  0.8432
  881MPD2    H712929   2.365   2.992  17.574 -1.4488  0.5777  0.5114
  882MPD2     C12930   0.344   0.235  14.236  0.4942  0.4935 -0.0024
  882MPD2    C112931   0.271   0.293  14.341 -0.1948 -0.3272 -0.4347
  882MPD2    C212932   0.132   0.275  14.342 -0.3313 -0.1915  0.3052
  882MPD2    C312933   0.071   0.206  14.241  0.2966  0.3427 -0.0203
  882MPD2    C412934   0.148   0.142  14.141 -0.3696  0.8979  0.2054
  882MPD2    C512935   0.284   0.158  14.134 -0.3891  0.4724 -0.0120
  882MPD2     H12936   0.073   0.329  14.415 -1.0055  0.1271 -0.4750
  882MPD2    H112937   0.089   0.097  14.062  1.1560  1.4530 -1.2509
  882MPD2    H212938   0.452   0.243  14.242  0.5343 -1.9307  2.3175
  882MPD2    H312939   0.334   0.113  14.049  0.8522 -0.5165  1.2369
  882MPD2     N12940   4.655   0.179  14.238 -0.3564 -0.4828  0.3946
  882MPD2    H512941   4.613   0.111  14.175 -0.2381  1.6606 -2.0401
  882MPD2    N112942   0.349   0.344  14.449 -0.0381 -0.2393 -0.3239
  882MPD2    H712943   0.451   0.338  14.449  0.0319  1.0130 -1.1178
  883MPD2     C12944   2.037   0.445  16.047  0.3811 -0.1849 -0.0417
  883MPD2    C112945   2.073   0.352  15.955 -0.9170  0.3481 -0.4350
  883MPD2    C212946   2.185   0.270  15.978  0.6733  0.3607 -0.0868
  883MPD2    C312947   2.266   0.288  16.090 -0.6866 -0.0464  0.6959
  883MPD2    C412948   2.234   0.392  16.177  0.0561  0.2564 -0.5488
  883MPD2    C512949   2.120   0.456  16.163  0.0956  1.2863  0.5187
  883MPD2     H12950   2.215   0.194  15.908 -0.5853  0.9641 -1.2956
  883MPD2    H112951   2.284   0.408  16.272 -0.6964 -3.8403  0.5108
  883MPD2    H212952   1.950   0.508  16.032  0.7490 -0.3868 -3.0121
  883MPD2    H312953   2.100   0.525  16.244  3.1082  0.8001  1.6962
  883MPD2     N12954   2.390   0.218  16.104  0.2714 -0.3628 -0.3141
  883MPD2    H512955   2.415   0.157  16.027 -0.9056  1.0555 -1.8162
  883MPD2    N112956   1.981   0.341  15.847 -0.0572  0.2378  0.0274
  883MPD2    H712957   1.917   0.419  15.836 -1.1980 -1.2164 -3.7122
  884MPD2     C12958   4.305   0.760  15.192 -0.3969  0.0472  0.4373
  884MPD2    C112959   4.257   0.849  15.101 -0.4638  0.0899  0.3304
  884MPD2    C212960   4.127   0.885  15.109  0.3468  0.2624  0.2526
  884MPD2    C312961   4.040   0.838  15.201 -0.0654  0.2504 -0.7261
  884MPD2    C412962   4.090   0.732  15.281  0.0281 -0.1066  0.0176
  884MPD2    C512963   4.224   0.696  15.280 -0.3216  0.0545  0.2524
  884MPD2     H12964   4.088   0.959  15.040 -1.9519  0.6285  1.9364
  884MPD2    H112965   4.024   0.677  15.346 -0.5501  0.5287 -0.0298
  884MPD2    H212966   4.405   0.721  15.180 -0.1086  0.6560  0.8392
  884MPD2    H312967   4.272   0.621  15.342 -2.1991 -0.5350  1.0019
  884MPD2     N12968   3.916   0.907  15.216 -0.2796 -0.2326 -0.0259
  884MPD2    H512969   3.891   0.985  15.155 -1.9675 -0.2891  0.5979
  884MPD2    N112970   4.340   0.918  15.004 -0.0059  0.2095 -0.7251
  884MPD2    H712971   4.294   0.977  14.935  1.4172  1.5855 -0.4876
  885MPD2     C12972   2.509   0.471   0.389  0.2910  0.8479 -0.0008
  885MPD2    C112973   2.623   0.541   0.373 -0.2230  0.6145 -0.2516
  885MPD2    C212974   2.629   0.647   0.285  0.3511 -0.1751  0.1040
  885MPD2    C312975   2.517   0.667   0.205  0.5675 -0.5203  0.2088
  885MPD2    C412976   2.411   0.584   0.214 -0.2369 -0.1374 -0.1089
  885MPD2    C512977   2.409   0.484   0.299  0.5912 -0.0612  0.2259
  885MPD2     H12978   2.721   0.703   0.276  1.1938 -1.4146  1.0302
  885MPD2    H112979   2.329   0.585   0.144 -1.3917 -1.6182  1.2320
  885MPD2    H212980   2.498   0.391   0.461 -0.1457  2.1976  1.4263
  885MPD2    H312981   2.322   0.419   0.305 -0.7551  1.9391  2.4288
  885MPD2     N12982   2.527   0.762   0.096 -0.4823  0.3946 -0.5645
  885MPD2    H512983   2.623   0.791   0.080 -0.3645  0.7312  0.7458
  885MPD2    N112984   2.722   0.517   0.475  0.5970 -0.2399 -0.0162
  885MPD2    H712985   2.698   0.439   0.535  0.7642  0.2931  0.7432
  886MPD2     C12986   3.853   4.144  15.759 -0.1927 -0.1010 -0.0401
  886MPD2    C112987   3.846   4.121  15.622  0.0563  0.3156 -0.6421
  886MPD2    C212988   3.825   4.232  15.540 -0.5243 -1.3469  0.2596
  886MPD2    C312989   3.841   4.352  15.595 -0.3877 -0.8823 -0.1551
  886MPD2    C412990   3.863   4.374  15.731  0.0223 -0.9556  0.0120
  886MPD2    C512991   3.862   4.267  15.812 -0.9464 -0.0905 -0.6518
  886MPD2     H12992   3.809   4.223  15.433 -0.6816  0.2094  0.1433
  886MPD2    H112993   3.870   4.474  15.773 -2.5050 -0.9639  0.4838
  886MPD2    H212994   3.870   4.064  15.831  5.7283  1.0020 -0.1583
  886MPD2    H312995   3.860   4.272  15.921  0.2432  1.3618 -0.7003
  886MPD2     N12996   3.833   4.466  15.516  0.6265  0.0711  0.1138
  886MPD2    H512997   3.861   4.551  15.564  3.0194  0.1484 -1.4091
  886MPD2    N112998   3.848   3.991  15.560  0.6298  0.3513  0.3473
  886MPD2    H712999   3.836   4.000  15.459  2.7885 -2.3090 -0.1454
  887MPD2     C13000   4.339   4.060  15.186  1.2087  0.4975  0.1698
  887MPD2    C113001   4.289   4.045  15.313  0.4773  0.1065  0.4906
  887MPD2    C213002   4.288   4.150  15.398 -0.1166  0.0508 -0.1596
  887MPD2    C313003   4.343   4.271  15.348  0.4525  0.3169  0.7266
  887MPD2    C413004   4.393   4.288  15.220  0.0680 -0.0559 -0.0828
  887MPD2    C513005   4.397   4.177  15.135  0.0847 -0.3798  0.4010
  887MPD2     H13006   4.248   4.138  15.498  1.3569 -1.6524  0.2251
  887MPD2    H113007   4.419   4.389  15.190 -0.1581  0.1098  0.2772
  887MPD2    H213008   4.339   3.976  15.117 -1.4461 -0.4170  1.2639
  887MPD2    H313009   4.446   4.191  15.039 -0.5487 -0.0411  0.1263
  887MPD2     N13010   4.342   4.382  15.440  0.5185  0.3808 -0.0804
  887MPD2    H513011   4.289   4.371  15.525  1.2561 -2.0674  0.0687
  887MPD2    N113012   4.230   3.925  15.363 -0.2480 -0.2230 -0.7424
  887MPD2    H713013   4.202   3.928  15.461  0.0522 -3.0475 -0.5734
  888MPD2     C13014   1.353   4.248  14.749  0.3004  0.8670  0.1116
  888MPD2    C113015   1.328   4.310  14.869 -0.4280  0.3594 -0.3469
  888MPD2    C213016   1.374   4.438  14.885 -0.5919 -0.1077 -1.1359
  888MPD2    C313017   1.456   4.502  14.794  0.6461  0.0443  0.4693
  888MPD2    C413018   1.487   4.431  14.676  0.1008 -0.0316 -0.2977
  888MPD2    C513019   1.429   4.313  14.654 -0.0134 -0.1596 -0.5883
  888MPD2     H13020   1.347   4.499  14.970 -0.5566 -0.7991 -0.6302
  888MPD2    H113021   1.539   4.485  14.597  2.8377 -2.9432 -0.4658
  888MPD2    H213022   1.323   4.145  14.730  0.2183  1.0184 -0.5612
  888MPD2    H313023   1.457   4.257  14.565 -0.0725 -1.6972  0.3601
  888MPD2     N13024   1.511   4.631  14.837  0.0787 -0.3478 -0.4603
  888MPD2    H513025   1.483   4.664  14.928  0.4248  2.8375 -1.5334
  888MPD2    N113026   1.254   4.258  14.976  0.2958 -0.0428  0.2112
  888MPD2    H713027   1.241   4.307  15.064  0.3729  0.2979  0.0345
  889MPD2     C13028   1.230   3.019  13.748  0.2247 -0.0134  0.2115
  889MPD2    C113029   1.170   3.075  13.635 -0.1285  0.2798 -0.4503
  889MPD2    C213030   1.149   3.208  13.628 -0.3632  0.5345  0.6313
  889MPD2    C313031   1.147   3.284  13.741 -0.3333  0.6719  0.9313
  889MPD2    C413032   1.193   3.231  13.860  0.4830  0.0107  0.1737
  889MPD2    C513033   1.234   3.101  13.863 -0.1503  0.6587 -0.1075
  889MPD2     H13034   1.122   3.258  13.536 -0.1128  0.3831  0.4747
  889MPD2    H113035   1.201   3.281  13.956  0.5581 -2.2989  1.3710
  889MPD2    H213036   1.241   2.913  13.765  3.2077  0.6110  2.2816
  889MPD2    H313037   1.259   3.059  13.960 -2.5699 -1.7683 -0.5128
  889MPD2     N13038   1.110   3.416  13.718 -0.3943  0.3368  0.1439
  889MPD2    H513039   1.092   3.440  13.621 -3.1123 -1.6486  0.1593
  889MPD2    N113040   1.176   3.002  13.517 -0.4417 -0.3226 -0.4646
  889MPD2    H713041   1.223   2.913  13.519 -0.0875 -0.1157  0.4044
  890MPD2     C13042   0.159   0.827  14.545 -0.3177 -0.7522 -0.3132
  890MPD2    C113043   0.276   0.887  14.570 -0.4297  0.4562  0.2512
  890MPD2    C213044   0.341   0.847  14.680  0.0634  0.3860 -0.0534
  890MPD2    C313045   0.291   0.748  14.755  0.3442  0.0798  0.1708
  890MPD2    C413046   0.179   0.682  14.722  0.0502  0.1816  0.2885
  890MPD2    C513047   0.107   0.727  14.619 -0.0683 -0.4641 -0.3863
  890MPD2     H13048   0.431   0.901  14.706  0.6428  0.2148 -1.7049
  890MPD2    H113049   0.144   0.593  14.773 -2.1271 -0.2318 -1.9077
  890MPD2    H213050   0.088   0.861  14.471 -0.8889 -0.3781  0.4045
  890MPD2    H313051   0.009   0.682  14.604  0.4015 -1.4511 -0.4905
  890MPD2     N13052   0.362   0.705  14.872  0.3583  0.5773  0.9846
  890MPD2    H513053   0.452   0.749  14.888  0.9502 -0.8513  1.6076
  890MPD2    N113054   0.313   1.002  14.488  0.1262  0.7161 -0.2912
  890MPD2    H713055   0.249   1.024  14.413  0.5951 -0.7497 -1.1219
  891MPD2     C13056   3.133   4.400  16.500 -0.0800 -0.3927  0.2522
  891MPD2    C113057   3.049   4.363  16.604 -0.2525  0.2116  0.7354
  891MPD2    C213058   3.093   4.281  16.706 -0.7508  0.7782 -0.2772
  891MPD2    C313059   3.217   4.229  16.702 -0.1462  0.1986 -0.4882
  891MPD2    C413060   3.307   4.262  16.605 -0.4990 -0.4139  0.4953
  891MPD2    C513061   3.261   4.355  16.507 -1.0681  0.0765  0.2291
  891MPD2     H13062   3.028   4.256  16.790 -0.6523  2.0730  0.1810
  891MPD2    H113063   3.411   4.233  16.603 -0.0050  1.3722  0.5377
  891MPD2    H213064   3.104   4.464  16.417  0.3419 -2.5634 -1.5513
  891MPD2    H313065   3.319   4.378  16.418  0.7433  0.0712  1.4069
  891MPD2     N13066   3.249   4.141  16.815 -0.3735 -0.6382 -0.4891
  891MPD2    H513067   3.170   4.121  16.875 -0.0181 -1.0120 -0.1486
  891MPD2    N113068   2.912   4.408  16.603 -0.2612 -0.0621 -0.1102
  891MPD2    H713069   2.890   4.460  16.519  1.6159 -1.4059 -1.4467
  892MPD2     C13070   4.144   0.300  15.078 -0.1362  0.2213 -0.1865
  892MPD2    C113071   4.055   0.324  14.977  0.5104 -0.8538  0.4686
  892MPD2    C213072   4.105   0.288  14.850 -0.2145 -0.4835  0.5443
  892MPD2    C313073   4.236   0.246  14.827  0.2394  0.4985  0.0437
  892MPD2    C413074   4.320   0.243  14.930 -0.5165 -0.4776  0.1009
  892MPD2    C513075   4.277   0.254  15.061 -0.4630 -0.1151 -0.0832
  892MPD2     H13076   4.036   0.294  14.766  1.9627 -0.7673 -1.2454
  892MPD2    H113077   4.420   0.201  14.921  0.7142  2.3653  0.6217
  892MPD2    H213078   4.121   0.328  15.180 -1.4018  1.3792 -0.7913
  892MPD2    H313079   4.339   0.252  15.149 -0.5595 -1.3065 -0.0419
  892MPD2     N13080   4.283   0.197  14.701 -0.1960  0.3808 -0.0079
  892MPD2    H513081   4.382   0.182  14.688 -0.3211  0.4799 -1.0795
  892MPD2    N113082   3.922   0.365  14.991  0.0395 -0.3462 -0.2159
  892MPD2    H713083   3.879   0.406  14.909 -1.8415 -0.4714  0.7130
  893MPD2     C13084   1.714   1.915   2.511  0.6847  0.0580  0.3803
  893MPD2    C113085   1.629   2.024   2.481  0.3288  0.5053  0.0603
  893MPD2    C213086   1.492   2.006   2.496 -0.6193  0.1058  0.4570
  893MPD2    C313087   1.437   1.894   2.555 -0.4935 -0.1224  0.5244
  893MPD2    C413088   1.526   1.788   2.569 -0.5869 -0.0934  0.2310
  893MPD2    C513089   1.664   1.800   2.554 -0.1743 -0.8541  0.2768
  893MPD2     H13090   1.419   2.083   2.474  0.6244  0.8313 -1.1018
  893MPD2    H113091   1.498   1.688   2.598  0.6782 -1.3201 -2.7306
  893MPD2    H213092   1.821   1.931   2.496  0.1038 -0.4990 -4.3026
  893MPD2    H313093   1.725   1.713   2.575  0.9684 -0.3482 -0.8775
  893MPD2     N13094   1.300   1.875   2.576 -0.1262  0.2989 -0.1457
  893MPD2    H513095   1.237   1.953   2.562 -2.2056 -1.1111  1.2928
  893MPD2    N113096   1.691   2.134   2.420 -0.2705 -0.3612 -0.3258
  893MPD2    H713097   1.792   2.125   2.412 -0.5444 -0.7291 -3.2865
  894MPD2     C13098   4.158   1.502   0.821 -0.0214 -0.3871 -0.6279
  894MPD2    C113099   4.087   1.544   0.936  0.8284  0.3405  0.6547
  894MPD2    C213100   4.085   1.677   0.972  0.0558 -0.1684  0.3421
  894MPD2    C313101   4.151   1.773   0.901 -0.5712 -0.0778 -0.0952
  894MPD2    C413102   4.228   1.734   0.796 -0.0083 -0.5201 -0.1575
  894MPD2    C513103   4.228   1.605   0.756 -0.3280  0.1405 -0.0913
  894MPD2     H13104   4.021   1.698   1.057 -0.5863  0.8278 -0.3828
  894MPD2    H113105   4.296   1.803   0.748 -0.8909 -1.1687 -2.3158
  894MPD2    H213106   4.154   1.394   0.807 -0.3256 -0.1450 -2.4129
  894MPD2    H313107   4.299   1.576   0.679 -0.4541 -0.8756  0.1746
  894MPD2     N13108   4.144   1.904   0.955 -0.0324  0.4598 -0.3144
  894MPD2    H513109   4.093   1.916   1.041  1.5281 -0.3675  0.7149
  894MPD2    N113110   4.014   1.455   1.022 -0.0431 -0.2117 -0.0633
  894MPD2    H713111   3.969   1.503   1.099 -0.0800 -2.0724  1.0712
  895MPD2     C13112   2.928   4.379  13.476  0.4036  0.2101  0.2016
  895MPD2    C113113   2.871   4.298  13.386 -0.3645  0.5371  0.5760
  895MPD2    C213114   2.951   4.269  13.277 -1.0767  0.4102 -0.0849
  895MPD2    C313115   3.062   4.342  13.238  0.7946 -0.0539  0.2260
  895MPD2    C413116   3.123   4.410  13.338  0.7015 -0.5126 -0.0109
  895MPD2    C513117   3.047   4.443  13.452 -1.1357  0.7634  1.1075
  895MPD2     H13118   2.906   4.192  13.216 -2.9492  2.3359 -1.1476
  895MPD2    H113119   3.219   4.460  13.328  2.3752 -3.7199  0.1974
  895MPD2    H213120   2.893   4.393  13.577 -1.3856 -0.2469 -0.3603
  895MPD2    H313121   3.096   4.502  13.528 -0.8401  1.7154  0.1678
  895MPD2     N13122   3.121   4.337  13.108 -0.0854  0.1173 -0.0496
  895MPD2    H513123   3.211   4.383  13.098 -0.8396  1.1692 -1.9913
  895MPD2    N113124   2.751   4.237  13.400  0.2010  0.1224  0.3087
  895MPD2    H713125   2.731   4.167  13.329 -1.0623 -0.3355  1.1108
  896MPD2     C13126   1.232   1.430   1.979  0.2240  0.4139  0.4654
  896MPD2    C113127   1.231   1.431   1.841  0.4009  0.8197  0.0437
  896MPD2    C213128   1.111   1.411   1.774 -0.7692  0.2723 -0.3269
  896MPD2    C313129   1.002   1.415   1.847 -0.2035 -0.1087  0.2929
  896MPD2    C413130   1.001   1.414   1.986  0.0306 -0.1741 -0.9244
  896MPD2    C513131   1.114   1.423   2.049  0.5300 -0.1248 -0.0073
  896MPD2     H13132   1.111   1.391   1.667 -0.9188 -0.6933 -0.1539
  896MPD2    H113133   0.908   1.411   2.042  0.2143 -1.0113 -0.6635
  896MPD2    H213134   1.322   1.440   2.039 -0.0835  0.1346  0.9689
  896MPD2    H313135   1.114   1.409   2.157 -3.5187 -3.1805 -0.3843
  896MPD2     N13136   0.888   1.408   1.771 -0.0790 -0.7500 -0.4043
  896MPD2    H513137   0.900   1.419   1.670 -1.3454 -0.1287 -0.4914
  896MPD2    N113138   1.358   1.448   1.771  0.1944  0.0532 -0.3770
  896MPD2    H713139   1.444   1.464   1.822 -0.2670 -1.4541  0.8676
  897MPD2     C13140   2.361   3.599  10.121  0.7115  0.4004  0.1931
  897MPD2    C113141   2.379   3.513  10.225  0.1898  0.1040  0.0519
  897MPD2    C213142   2.267   3.496  10.306  0.3376 -0.0109  0.2594
  897MPD2    C313143   2.140   3.547  10.270 -0.1236  0.0314 -0.0624
  897MPD2    C413144   2.129   3.635  10.162  0.0060  0.1150  0.2572
  897MPD2    C513145   2.237   3.656  10.093  0.1228  0.0123  0.1848
  897MPD2     H13146   2.264   3.426  10.389 -2.2984  0.1992  0.3606
  897MPD2    H113147   2.035   3.682  10.136 -0.4802 -0.3707  1.1445
  897MPD2    H213148   2.441   3.627  10.053  1.3068 -1.5110  0.1019
  897MPD2    H313149   2.234   3.719  10.005 -0.7745 -1.1058 -0.5666
  897MPD2     N13150   2.034   3.517  10.360  0.0381  0.0628  0.0123
  897MPD2    H513151   2.057   3.440  10.422 -0.7102  0.1209  0.3621
  897MPD2    N113152   2.512   3.468  10.247 -0.3573 -0.8180  0.1156
  897MPD2    H713153   2.573   3.489  10.169 -0.6260  0.4970  0.2722
  898MPD2     C13154   3.926   4.392   0.018 -0.3850  0.0988  0.3935
  898MPD2    C113155   3.985   4.514  17.666 -0.0607  0.0089 -1.0378
  898MPD2    C213156   3.908   4.615  17.621 -1.4948 -0.3870  0.0125
  898MPD2    C313157   3.772   4.601  17.622 -0.2006  0.3916  0.2971
  898MPD2    C413158   3.715   4.483  17.664  0.0191  0.1428  0.6350
  898MPD2    C513159   3.792   4.383   0.019 -0.3862  0.5304  0.2283
  898MPD2     H13160   3.951   4.706  17.581  2.0525 -2.2347 -0.3531
  898MPD2    H113161   3.608   4.467  17.661  0.2507 -1.2224 -0.0839
  898MPD2    H213162   3.981   4.300   0.032 -1.9925 -0.7114  1.2837
  898MPD2    H313163   3.743   4.290   0.047  0.3164  0.5517  1.5243
  898MPD2     N13164   3.704   4.707  17.564 -0.0873  0.0782 -0.4515
  898MPD2    H513165   3.760   0.068  17.546 -0.1574  0.1627 -0.2833
  898MPD2    N113166   4.122   4.524  17.664  0.3834  0.0947 -0.0460
  898MPD2    H713167   4.166   4.609  17.633  0.4180 -0.7223 -2.2115
  899MPD2     C13168   0.328   0.271   0.057  0.3862  0.5288 -0.0274
  899MPD2    C113169   0.260   0.373  17.687 -0.3414 -0.4539 -0.1343
  899MPD2    C213170   0.126   0.395   0.037  0.0783 -0.5647 -0.4432
  899MPD2    C313171   0.067   0.319   0.138 -0.0395  0.0406 -0.1376
  899MPD2    C413172   0.133   0.210   0.188  0.4541  0.0796  0.2114
  899MPD2    C513173   0.266   0.197   0.156 -0.6164 -0.4840 -0.2083
  899MPD2     H13174   0.066   0.475  17.683  1.7604  0.5924 -0.6080
  899MPD2    H113175   0.100   0.135   0.260 -0.0180 -0.8509 -0.9706
  899MPD2    H213176   0.428   0.253   0.020  0.9560  2.1617  0.6936
  899MPD2    H313177   0.315   0.120   0.216 -1.0999  0.4578  1.4088
  899MPD2     N13178   4.656   0.346   0.187 -0.1629 -0.1261 -0.1802
  899MPD2    H513179   4.616   0.275   0.247  0.3330 -0.9845 -0.8720
  899MPD2    N113180   0.333   0.444  17.582  0.7968  0.6324  0.4112
  899MPD2    H713181   0.421   0.407  17.550  1.5271  3.3371 -0.7930
  900MPD2     C13182   4.666   2.033  12.305 -0.1839  0.1144 -0.0668
  900MPD2    C113183   4.597   1.924  12.255  0.1217 -0.2001 -0.2746
  900MPD2    C213184   4.455   1.935  12.228 -0.0115  0.2939  0.1179
  900MPD2    C313185   4.388   2.049  12.257 -0.1271 -0.5396 -0.0862
  900MPD2    C413186   4.458   2.150  12.324  0.6848  0.7192 -0.1161
  900MPD2    C513187   4.591   2.145  12.346  0.1510 -0.6645  0.2389
  900MPD2     H13188   4.397   1.853  12.189  0.5351  0.9328 -2.0509
  900MPD2    H113189   4.404   2.236  12.363  0.6398  0.7983 -0.3520
  900MPD2    H213190   0.052   2.046  12.302  0.0522 -1.0602  2.8335
  900MPD2    H313191   4.637   2.238  12.377 -1.5175 -0.1827  1.2669
  900MPD2     N13192   4.261   2.063  12.203  0.1819  0.5583 -0.9401
  900MPD2    H513193   4.221   1.981  12.157  0.2971 -0.3767  0.6153
  900MPD2    N113194   4.666   1.801  12.216  0.1452  0.2971  0.0580
  900MPD2    H713195   0.046   1.793  12.217  0.3053  2.3243  0.3372
  901MPD2     C13196   0.118   0.819  12.567 -0.1938  0.0083 -0.6758
  901MPD2    C113197   0.218   0.831  12.469  0.7950 -0.0822  0.1113
  901MPD2    C213198   0.219   0.947  12.389 -0.0500 -0.3436 -0.4554
  901MPD2    C313199   0.119   1.040  12.405  0.0644  0.2922 -1.0477
  901MPD2    C413200   0.016   1.018  12.496 -0.0742  0.2659 -0.2019
  901MPD2    C513201   0.020   0.913  12.567 -0.0815 -0.3870  0.1932
  901MPD2     H13202   0.289   0.956  12.306 -0.2156  0.1113 -0.5421
  901MPD2    H113203   4.653   1.083  12.517 -0.1606 -0.2343  1.0254
  901MPD2    H213204   0.109   0.740  12.641  1.4287  2.1069  1.7211
  901MPD2    H313205   4.663   0.901  12.642  0.0293  0.6437  0.4687
  901MPD2     N13206   0.124   1.159  12.325  0.5122  0.7080  0.5889
  901MPD2    H513207   0.212   1.177  12.278  1.4802 -0.5413  1.9190
  901MPD2    N113208   0.299   0.721  12.459 -0.0944  0.6267  0.3954
  901MPD2    H713209   0.274   0.641  12.516 -0.7478 -0.4660 -1.4209
  902MPD2     C13210   2.548   4.153  12.525  0.3491  0.2627 -0.3032
  902MPD2    C113211   2.580   4.162  12.392  0.1944 -0.1581 -0.0197
  902MPD2    C213212   2.620   4.041  12.332  0.3732  0.2073  0.3816
  902MPD2    C313213   2.633   3.921  12.408 -0.0186  0.0233  0.1314
  902MPD2    C413214   2.595   3.917  12.542  0.1733  0.7228 -0.0482
  902MPD2    C513215   2.547   4.035  12.591 -0.2809  0.3601 -0.2012
  902MPD2     H13216   2.638   4.029  12.226  2.3341 -1.8011  0.9350
  902MPD2    H113217   2.604   3.827  12.603  1.8706 -0.1180 -1.5350
  902MPD2    H213218   2.520   4.238  12.586  1.1614 -0.5146  1.1584
  902MPD2    H313219   2.521   4.039  12.696 -0.6868  1.5696 -0.3479
  902MPD2     N13220   2.685   3.803  12.358 -0.5453 -0.1719 -0.1482
  902MPD2    H513221   2.666   3.718  12.410 -0.2955  0.2002  0.5645
  902MPD2    N113222   2.586   4.290  12.342  0.3878 -0.0883  0.1014
  902MPD2    H713223   2.553   4.363  12.405 -2.9033 -0.9910 -0.5763
  903MPD2     C13224   3.174   3.976  11.881 -0.5056  0.0377  0.2227
  903MPD2    C113225   3.074   3.876  11.901  0.3951 -0.9376  0.7679
  903MPD2    C213226   2.970   3.873  11.813 -0.5985  0.6701  0.1673
  903MPD2    C313227   2.944   3.977  11.724 -0.9308  0.4016  0.5723
  903MPD2    C413228   3.038   4.076  11.703 -1.4999  0.3997 -0.0348
  903MPD2    C513229   3.152   4.071  11.782  0.5238  0.0062 -0.3213
  903MPD2     H13230   2.895   3.795  11.812 -0.0799  0.1968 -2.5603
  903MPD2    H113231   3.029   4.150  11.623  0.7480 -0.0295 -0.6808
  903MPD2    H213232   3.261   3.991  11.944  0.8995  0.0160 -1.7296
  903MPD2    H313233   3.231   4.141  11.760 -1.7407  1.5696 -3.4514
  903MPD2     N13234   2.815   3.987  11.655 -0.5890  0.0093 -0.0240
  903MPD2    H513235   2.752   3.911  11.678 -2.1858  1.7611  1.3547
  903MPD2    N113236   3.105   3.775  11.995 -0.0934 -0.6013  0.6712
  903MPD2    H713237   3.171   3.804  12.066  0.6627 -0.4772 -0.0832
  904MPD2     C13238   3.241   3.352  13.629  0.0220  0.4395 -0.1407
  904MPD2    C113239   3.259   3.492  13.611 -0.3846 -0.3222  0.0506
  904MPD2    C213240   3.376   3.549  13.662 -1.1384 -0.8231  0.3914
  904MPD2    C313241   3.476   3.473  13.728 -0.2597  0.3894 -0.6087
  904MPD2    C413242   3.461   3.331  13.733 -0.1200 -0.2709  0.4149
  904MPD2    C513243   3.342   3.275  13.684  0.2260  0.0762 -0.2517
  904MPD2     H13244   3.385   3.657  13.661  0.7691 -0.9875  1.0989
  904MPD2    H113245   3.533   3.263  13.778  1.8378  2.1844  0.9963
  904MPD2    H213246   3.146   3.311  13.595  0.4384  0.8386 -1.8031
  904MPD2    H313247   3.331   3.167  13.688  1.1863 -0.0062  0.2277
  904MPD2     N13248   3.585   3.532  13.797  0.0301  0.8928  0.0282
  904MPD2    H513249   3.648   3.486  13.861 -2.6080  1.0813  2.7916
  904MPD2    N113250   3.159   3.583  13.569  0.3262 -0.4305 -1.1163
  904MPD2    H713251   3.181   3.682  13.563 -0.0859 -0.2325  0.7687
  905MPD2     C13252   2.744   3.668  12.952  0.4782  0.2390  0.5213
  905MPD2    C113253   2.778   3.775  13.035 -0.2327 -0.2127  0.1032
  905MPD2    C213254   2.832   3.888  12.977  0.6688  0.7949 -0.1501
  905MPD2    C313255   2.866   3.895  12.842 -0.0316 -0.1887  0.5490
  905MPD2    C413256   2.829   3.795  12.763  0.2640 -0.2395  0.7748
  905MPD2    C513257   2.783   3.683  12.817 -0.5731  0.0861  1.0025
  905MPD2     H13258   2.851   3.976  13.037  1.9185 -0.2320  0.9806
  905MPD2    H113259   2.849   3.803  12.657  0.1188 -2.1111  0.6068
  905MPD2    H213260   2.705   3.570  12.976 -1.3532  0.8670  0.0667
  905MPD2    H313261   2.762   3.599  12.752 -4.1428  0.7334  1.3051
  905MPD2     N13262   2.941   4.007  12.804  0.1473 -0.5910 -0.0817
  905MPD2    H513263   2.953   4.076  12.878 -1.6399 -0.2439 -0.1252
  905MPD2    N113264   2.757   3.755  13.171  0.2580 -0.7623  0.3051
  905MPD2    H713265   2.722   3.670  13.216  1.4617 -1.6720 -0.4741
  906MPD2     C13266   0.723   3.414  11.415 -0.3573  0.2314  0.0779
  906MPD2    C113267   0.631   3.379  11.325 -0.9038 -0.5956  0.7315
  906MPD2    C213268   0.514   3.322  11.365  0.2087 -0.4251  0.1465
  906MPD2    C313269   0.493   3.297  11.498 -0.3712 -0.5146 -0.0078
  906MPD2    C413270   0.588   3.333  11.592 -0.3498  0.2349  0.9844
  906MPD2    C513271   0.701   3.394  11.547  0.6715  0.0054  0.3556
  906MPD2     H13272   0.443   3.287  11.291 -0.9894  1.4749  0.4032
  906MPD2    H113273   0.566   3.317  11.697  0.2191  0.7307  1.1788
  906MPD2    H213274   0.815   3.467  11.391  0.0742 -0.3734  0.3739
  906MPD2    H313275   0.781   3.422  11.615  2.3032  0.1199 -1.6332
  906MPD2     N13276   0.368   3.238  11.542  0.5633  0.4330  0.4417
  906MPD2    H513277   0.371   3.190  11.632 -0.1454 -3.5329 -1.6916
  906MPD2    N113278   0.660   3.390  11.184 -0.1288  0.0203 -1.3250
  906MPD2    H713279   0.584   3.370  11.119 -0.4195 -0.0981 -0.9491
  907MPD2     C13280   4.242   2.938  15.266  0.3477 -0.6000 -0.3029
  907MPD2    C113281   4.282   2.806  15.271  0.3075 -0.1582 -0.3522
  907MPD2    C213282   4.328   2.749  15.394 -0.3247  0.7678  0.0562
  907MPD2    C313283   4.334   2.826  15.507 -0.5465 -0.8578 -0.1672
  907MPD2    C413284   4.307   2.958  15.501 -0.9343  0.2987  0.0472
  907MPD2    C513285   4.257   3.011  15.383  0.2124 -0.2920  0.2708
  907MPD2     H13286   4.359   2.646  15.406 -0.3030  0.8038  0.3051
  907MPD2    H113287   4.321   3.022  15.588 -1.1416 -0.7703  0.8685
  907MPD2    H213288   4.187   2.984  15.185  1.1997  0.9769  0.0173
  907MPD2    H313289   4.212   3.109  15.371 -2.3303 -1.6133 -1.1523
  907MPD2     N13290   4.382   2.765  15.624  0.1809 -0.4716  0.2522
  907MPD2    H513291   4.403   2.665  15.619  2.9738  0.2889 -3.7984
  907MPD2    N113292   4.268   2.715  15.164 -0.1988 -0.1147 -0.0411
  907MPD2    H713293   4.282   2.615  15.180  2.6747  0.4398  1.0755
  908MPD2     C13294   3.059   3.311   9.593  0.3897  0.5652  0.0991
  908MPD2    C113295   2.944   3.237   9.627 -0.6030  0.0777 -0.5249
  908MPD2    C213296   2.894   3.239   9.756  0.0370  0.4090 -0.3077
  908MPD2    C313297   2.962   3.311   9.853 -0.7388 -0.3821 -0.0347
  908MPD2    C413298   3.070   3.390   9.809 -0.3714  0.5632  0.4092
  908MPD2    C513299   3.117   3.398   9.683  0.3027  0.4901 -0.1755
  908MPD2     H13300   2.812   3.174   9.783  0.0631  0.6582  0.3647
  908MPD2    H113301   3.122   3.454   9.880 -1.2662 -0.0907  1.6442
  908MPD2    H213302   3.104   3.298   9.495  1.2637 -2.8039  0.9415
  908MPD2    H313303   3.197   3.468   9.660  1.2457 -0.0353  1.4762
  908MPD2     N13304   2.919   3.313   9.985  0.6445 -0.6423  0.1662
  908MPD2    H513305   2.851   3.246  10.017  1.8916 -2.6165 -1.2907
  908MPD2    N113306   2.880   3.169   9.527  0.0093  0.6908  0.7317
  908MPD2    H713307   2.931   3.151   9.440  0.3088 -0.0364  1.0586
  909MPD2     C13308   2.452   1.102  11.674 -0.1973 -0.4493 -0.3388
  909MPD2    C113309   2.440   1.231  11.630 -0.1631 -0.2479 -0.5133
  909MPD2    C213310   2.369   1.328  11.701  0.0060 -0.1478 -0.0208
  909MPD2    C313311   2.292   1.289  11.809  0.3502  0.4433  0.5085
  909MPD2    C413312   2.299   1.159  11.854 -0.0098 -0.2973  0.5039
  909MPD2    C513313   2.378   1.067  11.781  0.3908  0.4956 -0.1297
  909MPD2     H13314   2.365   1.426  11.656  0.2302 -0.3759 -0.5334
  909MPD2    H113315   2.236   1.117  11.931 -0.4426  0.6695  0.6828
  909MPD2    H213316   2.517   1.039  11.614 -0.8741  0.6899 -2.2491
  909MPD2    H313317   2.380   0.963  11.811  2.4994  0.8120  0.7966
  909MPD2     N13318   2.198   1.391  11.847  0.0119 -0.1718 -0.3392
  909MPD2    H513319   2.203   1.484  11.808  0.1748 -1.4135 -3.2322
  909MPD2    N113320   2.504   1.275  11.510 -0.2181  0.2824  0.0874
  909MPD2    H713321   2.489   1.372  11.486 -0.1060 -0.3010 -2.3791
  910MPD2     C13322   3.274   3.576  16.086  0.1840  0.1855 -0.0499
  910MPD2    C113323   3.358   3.541  15.984 -0.0372  0.0537 -0.3802
  910MPD2    C213324   3.333   3.599  15.860  0.0066 -0.4529  0.4562
  910MPD2    C313325   3.218   3.679  15.836 -0.3113  0.7152  0.1053
  910MPD2    C413326   3.141   3.716  15.941 -0.0174  0.2801 -0.5436
  910MPD2    C513327   3.177   3.663  16.064 -0.2374  0.4837  0.2466
  910MPD2     H13328   3.399   3.568  15.779 -0.4502  1.9153 -0.8175
  910MPD2    H113329   3.075   3.802  15.939 -1.4338 -0.8415 -2.4348
  910MPD2    H213330   3.287   3.531  16.184  0.2546  1.5630  0.5611
  910MPD2    H313331   3.119   3.679  16.154  0.4110  0.0837  0.7290
  910MPD2     N13332   3.192   3.741  15.712  0.2757  0.0815 -0.2164
  910MPD2    H513333   3.116   3.807  15.707 -0.6891 -0.9656  0.4639
  910MPD2    N113334   3.477   3.459  15.992 -0.6323  0.0273  0.3454
  910MPD2    H713335   3.534   3.457  15.908 -1.4008  0.0326 -0.1755
  911MPD2     C13336   1.626   3.454  16.444  0.4977 -0.3022 -0.0532
  911MPD2    C113337   1.609   3.560  16.523  0.1008  1.0941  0.1382
  911MPD2    C213338   1.503   3.653  16.490 -0.6190  0.3961  0.1340
  911MPD2    C313339   1.415   3.622  16.383  0.0003 -0.5945  0.3525
  911MPD2    C413340   1.446   3.507  16.313  0.1323 -0.6647 -0.6193
  911MPD2    C513341   1.550   3.423  16.341 -0.2095  0.5333  0.3310
  911MPD2     H13342   1.492   3.742  16.551 -1.6835  0.3495  0.0023
  911MPD2    H113343   1.387   3.486  16.224 -0.2393 -1.6137 -0.1415
  911MPD2    H213344   1.717   3.401  16.470 -0.4082 -1.9691 -0.2946
  911MPD2    H313345   1.585   3.341  16.280  0.9231  0.1306  1.5479
  911MPD2     N13346   1.299   3.693  16.352  0.3856  0.2322 -0.0170
  911MPD2    H513347   1.235   3.659  16.281 -1.8582 -0.5239  2.3697
  911MPD2    N113348   1.711   3.587  16.624 -0.3010  0.0393  0.4498
  911MPD2    H713349   1.779   3.511  16.632 -0.7935 -0.4782 -0.2952
  912MPD2     C13350   0.960   3.603  15.773  0.4925  0.0783  0.1917
  912MPD2    C113351   0.899   3.630  15.889 -0.2392 -0.3265  0.2067
  912MPD2    C213352   0.833   3.527  15.951 -0.2421 -0.0376 -0.2412
  912MPD2    C313353   0.828   3.398  15.901  1.1596  0.2363 -0.1698
  912MPD2    C413354   0.879   3.380  15.771  0.3617  0.6011 -0.4564
  912MPD2    C513355   0.931   3.489  15.700  0.1573  0.0607 -0.4860
  912MPD2     H13356   0.798   3.544  16.052  0.1326 -0.4447 -0.0391
  912MPD2    H113357   0.867   3.286  15.717  0.4801 -0.6141  1.6422
  912MPD2    H213358   1.018   3.679  15.722  4.0506 -0.9005  2.8148
  912MPD2    H313359   0.964   3.471  15.598  1.2562  0.8189 -0.2535
  912MPD2     N13360   0.781   3.290  15.975 -0.3107  0.4036  0.2356
  912MPD2    H513361   0.755   3.311  16.071  1.1593 -2.1059  1.1979
  912MPD2    N113362   0.954   3.736  15.966  0.6523 -0.3463  0.1083
  912MPD2    H713363   1.020   3.791  15.913  0.1976  2.0541  2.0525
  913MPD2     C13364   1.684   4.490  10.120 -0.3422  0.6593 -0.3047
  913MPD2    C113365   1.763   4.567  10.209  0.0304  0.4544  0.3115
  913MPD2    C213366   1.809   4.696  10.168  0.2171  0.6532  0.8800
  913MPD2    C313367   1.773   0.018  10.040 -0.3112  0.2900 -0.0821
  913MPD2    C413368   1.691   4.662   9.962 -0.3145 -0.2100  0.3232
  913MPD2    C513369   1.652   4.538  10.001 -0.5541  0.7949  0.5310
  913MPD2     H13370   1.866   0.033  10.239  2.5695  0.9249 -1.2215
  913MPD2    H113371   1.659   4.693   9.864  0.4413 -0.5858 -0.0382
  913MPD2    H213372   1.641   4.396  10.154 -0.2131  1.2820  1.5633
  913MPD2    H313373   1.583   4.480   9.939  1.7593 -1.8213  0.4274
  913MPD2     N13374   1.805   0.145   9.990 -0.2538  0.2309 -0.1511
  913MPD2    H513375   1.773   0.176   9.899 -2.3921  0.9953  0.8602
  913MPD2    N113376   1.802   4.507  10.332  0.7268  0.3108  0.1666
  913MPD2    H713377   1.768   4.414  10.352  0.1215  0.0081 -2.2715
  914MPD2     C13378   0.029   0.588  11.748  0.3630  0.6060 -0.3140
  914MPD2    C113379   0.063   0.685  11.843  0.4112  0.5327  0.1074
  914MPD2    C213380   0.127   0.653  11.961 -0.0910 -0.0626  0.1799
  914MPD2    C313381   0.159   0.519  11.976 -0.2093  0.4210  0.0896
  914MPD2    C413382   0.110   0.417  11.891 -0.1337 -0.6330  0.9078
  914MPD2    C513383   0.054   0.454  11.776  0.0273 -0.3281  0.4274
  914MPD2     H13384   0.160   0.719  12.040  0.9835  0.2397 -0.5250
  914MPD2    H113385   0.137   0.313  11.905  0.8442 -0.2027  2.3475
  914MPD2    H213386   4.704   0.614  11.654 -0.3210  1.3375  0.2236
  914MPD2    H313387   0.022   0.381  11.703 -0.3592 -1.0741  1.3393
  914MPD2     N13388   0.251   0.495  12.079  0.1669  0.3696  0.2012
  914MPD2    H513389   0.274   0.575  12.137 -3.1608  0.3940  1.5064
  914MPD2    N113390   0.020   0.819  11.819 -0.0316 -0.2849 -0.1960
  914MPD2    H713391   4.662   0.839  11.759 -1.1641 -1.6266  0.8710
  915MPD2     C13392   3.067   0.737  15.822 -0.5513 -0.0987  0.2332
  915MPD2    C113393   2.942   0.780  15.794  0.2538  0.4035 -0.6072
  915MPD2    C213394   2.855   0.811  15.897  0.0071 -0.3962 -0.3358
  915MPD2    C313395   2.900   0.796  16.028  0.1428 -0.1174  0.3761
  915MPD2    C413396   3.021   0.736  16.059 -0.2852  0.4806 -0.1519
  915MPD2    C513397   3.102   0.709  15.956  0.5284  0.1920  0.6727
  915MPD2     H13398   2.763   0.864  15.874  0.2528 -0.1121 -0.6528
  915MPD2    H113399   3.059   0.716  16.158 -1.3891 -1.5508 -0.1478
  915MPD2    H213400   3.138   0.714  15.743  1.1690  1.2788  1.3763
  915MPD2    H313401   3.196   0.660  15.979  1.1781  1.7085  1.2605
  915MPD2     N13402   2.812   0.842  16.125 -0.6248  0.1123  0.6748
  915MPD2    H513403   2.725   0.889  16.103  0.0690  1.2427  0.3402
  915MPD2    N113404   2.911   0.800  15.652 -0.3995  0.4768 -0.0266
  915MPD2    H713405   2.978   0.755  15.591  0.1745  1.6322 -0.2654
  916MPD2     C13406   0.630   3.617  15.649  0.1174  0.0130  0.4409
  916MPD2    C113407   0.557   3.504  15.683  0.2722  0.4952  0.2986
  916MPD2    C213408   0.555   3.400  15.594  0.0188  0.1650 -0.2752
  916MPD2    C313409   0.623   3.414  15.470  0.3829 -0.1081  0.3810
  916MPD2    C413410   0.685   3.536  15.443  0.1425 -0.2412 -0.1444
  916MPD2    C513411   0.691   3.635  15.530 -0.3763  0.1466  0.0944
  916MPD2     H13412   0.496   3.310  15.612  0.2623 -0.2513 -1.5524
  916MPD2    H113413   0.728   3.564  15.347 -1.4766 -0.4454 -0.9287
  916MPD2    H213414   0.645   3.699  15.718  0.3907  1.7372 -1.6798
  916MPD2    H313415   0.743   3.728  15.511  0.7485 -0.2046  1.4083
  916MPD2     N13416   0.613   3.315  15.370  0.1625  0.2157 -0.3806
  916MPD2    H513417   0.564   3.230  15.394 -0.7228  0.8579  0.0899
  916MPD2    N113418   0.493   3.495  15.811  0.9258  0.3199 -0.1917
  916MPD2    H713419   0.509   3.579  15.866 -0.8860  0.1845  0.5405
  917MPD2     C13420   1.215   1.073  10.523  0.5107 -0.2158  0.3019
  917MPD2    C113421   1.264   1.107  10.650  0.2306 -0.2854 -0.5201
  917MPD2    C213422   1.393   1.148  10.664 -0.2506  0.6419 -0.4492
  917MPD2    C313423   1.466   1.174  10.552  0.4553  0.5548 -0.3007
  917MPD2    C413424   1.417   1.154  10.424 -0.3468 -1.0555  0.0365
  917MPD2    C513425   1.290   1.104  10.415 -0.2433  0.2061 -0.4491
  917MPD2     H13426   1.439   1.181  10.757 -0.8456 -1.6242  0.6442
  917MPD2    H113427   1.469   1.179  10.332  4.3040 -0.6962  2.7412
  917MPD2    H213428   1.121   1.021  10.509  0.1522  0.4618  0.2105
  917MPD2    H313429   1.247   1.079  10.319  2.6375  0.2820 -1.7690
  917MPD2     N13430   1.598   1.218  10.553  0.2209  0.4003  0.5983
  917MPD2    H513431   1.636   1.234  10.460 -1.4722 -0.5507 -0.2573
  917MPD2    N113432   1.183   1.096  10.764 -1.0279  0.6668 -0.1768
  917MPD2    H713433   1.090   1.062  10.744 -1.2602  1.0601  0.2274
  918MPD2     C13434   1.316   1.546  11.659 -0.5515  0.0676 -0.0116
  918MPD2    C113435   1.328   1.410  11.662  0.2846  0.4568  0.7600
  918MPD2    C213436   1.269   1.340  11.559 -0.1317 -0.1919 -0.8619
  918MPD2    C313437   1.195   1.395  11.452  0.0981  0.5823 -0.0809
  918MPD2    C413438   1.177   1.524  11.459 -0.3607  0.4165 -0.1502
  918MPD2    C513439   1.241   1.598  11.561 -0.2228 -0.2021 -0.7459
  918MPD2     H13440   1.276   1.232  11.555 -1.8166 -0.4466  2.5414
  918MPD2    H113441   1.128   1.585  11.384 -1.1752  0.9912  0.8602
  918MPD2    H213442   1.353   1.615  11.734  1.1102 -2.5672  1.5899
  918MPD2    H313443   1.230   1.706  11.562 -0.1512 -0.2209  0.8592
  918MPD2     N13444   1.127   1.322  11.346 -0.0244 -0.1268 -0.1052
  918MPD2    H513445   1.080   1.375  11.273  0.1416 -0.9273 -0.8012
  918MPD2    N113446   1.415   1.343  11.746  0.4337  0.1531 -0.6601
  918MPD2    H713447   1.433   1.245  11.725 -1.2490 -0.8560  2.5015
  919MPD2     C13448   1.870   0.194  11.307 -0.0913  0.2183  0.3740
  919MPD2    C113449   1.829   0.065  11.279  0.4028 -0.6299 -0.1850
  919MPD2    C213450   1.805   0.021  11.151  0.1268  0.9172 -0.3527
  919MPD2    C313451   1.827   0.111  11.047  0.3222  0.1679 -0.2169
  919MPD2    C413452   1.852   0.245  11.076  0.2624  0.4633 -0.0233
  919MPD2    C513453   1.876   0.277  11.202  0.4108 -0.0429  0.2988
  919MPD2     H13454   1.777   4.641  11.123 -2.4887  0.9152  2.2175
  919MPD2    H113455   1.858   0.322  11.000  3.1264 -0.7144 -0.9971
  919MPD2    H213456   1.890   0.228  11.407 -0.3404 -0.6209  0.7117
  919MPD2    H313457   1.892   0.382  11.221  3.4799 -0.4962  0.1181
  919MPD2     N13458   1.790   0.091  10.913  0.5189 -0.0476  0.0009
  919MPD2    H513459   1.798   0.170  10.850  0.0949 -0.3947 -0.4892
  919MPD2    N113460   1.793   4.690  11.378  0.3126  0.0965  0.0949
  919MPD2    H713461   1.772   4.594  11.354 -0.7706  0.5483 -0.8167
  920MPD2     C13462   1.625   0.584  10.051 -0.5571 -0.4758 -0.0129
  920MPD2    C113463   1.531   0.482  10.053 -0.1680 -0.0345  0.3420
  920MPD2    C213464   1.540   0.380  10.140  0.2524 -0.4477  0.6309
  920MPD2    C313465   1.634   0.378  10.241  0.8736 -0.4263  0.0612
  920MPD2    C413466   1.719   0.488  10.254 -0.1079  1.0993 -0.1764
  920MPD2    C513467   1.717   0.582  10.154  0.0320 -0.8589 -0.1506
  920MPD2     H13468   1.463   0.304  10.143 -0.5414  0.3029 -0.6905
  920MPD2    H113469   1.790   0.501  10.335 -2.0431  3.0627  1.2010
  920MPD2    H213470   1.618   0.665   9.979 -2.7627 -0.5501  0.1099
  920MPD2    H313471   1.798   0.654  10.153 -0.7010 -0.0328 -0.9685
  920MPD2     N13472   1.629   0.278  10.341 -0.4266 -0.3193 -0.3643
  920MPD2    H513473   1.565   0.204  10.313 -0.7362  0.0767 -0.7115
  920MPD2    N113474   1.428   0.473   9.957 -0.3275  0.1611  0.4164
  920MPD2    H713475   1.367   0.392   9.963 -0.5472  0.5591  3.5432
  921MPD2     C13476   1.991   4.482  16.697 -0.4542 -0.5435  0.3500
  921MPD2    C113477   2.096   4.409  16.743 -0.4317 -0.2591 -0.1749
  921MPD2    C213478   2.083   4.278  16.791 -0.7264  0.0595  0.8943
  921MPD2    C313479   1.958   4.222  16.800  0.2478  0.5945  0.2963
  921MPD2    C413480   1.849   4.296  16.746 -0.1973 -0.7275 -0.0133
  921MPD2    C513481   1.861   4.425  16.698  0.5932  0.1982  0.8312
  921MPD2     H13482   2.168   4.222  16.826 -1.4507 -1.1676  0.6895
  921MPD2    H113483   1.754   4.244  16.740  0.3836 -1.7693 -0.1991
  921MPD2    H213484   2.017   4.581  16.660  1.2332 -0.9645  0.4274
  921MPD2    H313485   1.771   4.468  16.654  1.8201  1.6821 -0.2170
  921MPD2     N13486   1.927   4.093  16.842  0.7291  0.6111 -0.8363
  921MPD2    H513487   1.833   4.062  16.821 -1.0537  3.9741  2.0458
  921MPD2    N113488   2.220   4.472  16.735 -0.7542  0.0734  0.3736
  921MPD2    H713489   2.221   4.569  16.705 -0.2820  0.1451  0.6190
  922MPD2     C13490   3.446   1.787  16.827  0.1457  0.5037 -0.2965
  922MPD2    C113491   3.468   1.847  16.948  0.4791 -0.0502  0.4402
  922MPD2    C213492   3.417   1.790  17.066 -0.1619  0.1300  0.3221
  922MPD2    C313493   3.329   1.689  17.051  0.1894 -0.1633 -0.1813
  922MPD2    C413494   3.293   1.640  16.922  0.1517  0.7591 -0.1258
  922MPD2    C513495   3.362   1.677  16.816 -0.2522 -0.3409  0.7665
  922MPD2     H13496   3.438   1.837  17.161  2.3292  0.3097 -0.3062
  922MPD2    H113497   3.221   1.560  16.910 -0.2372  0.9191  1.1680
  922MPD2    H213498   3.495   1.827  16.739  0.5315 -1.0899 -0.8118
  922MPD2    H313499   3.346   1.629  16.719 -0.7301  1.2719  0.0503
  922MPD2     N13500   3.279   1.640  17.175 -0.4916  0.1311 -0.4027
  922MPD2    H513501   3.310   1.682  17.262  0.6541 -0.1748 -0.6586
  922MPD2    N113502   3.548   1.971  16.954 -0.4549  0.2940 -0.1325
  922MPD2    H713503   3.568   1.998  17.050  0.2016 -4.2205  1.0209
  923MPD2     C13504   4.520   2.625   8.793  0.1061  0.2042  0.3904
  923MPD2    C113505   4.474   2.737   8.860 -0.2277 -0.4573  0.0248
  923MPD2    C213506   4.552   2.807   8.953  0.7492  0.5209  0.0031
  923MPD2    C313507   4.678   2.762   8.978  0.0089 -0.1242  0.1699
  923MPD2    C413508   0.001   2.641   8.926  0.5834 -0.4829  0.0454
  923MPD2    C513509   4.644   2.573   8.838 -0.0460 -0.0854  0.3636
  923MPD2     H13510   4.517   2.905   8.984 -0.9240  0.5335 -1.9229
  923MPD2    H113511   0.101   2.603   8.945  1.5416  1.9556 -0.1642
  923MPD2    H213512   4.464   2.574   8.714  1.0493 -0.9702  0.4874
  923MPD2    H313513   4.684   2.477   8.808 -0.1459  0.6303 -2.0633
  923MPD2     N13514   0.043   2.832   9.067 -0.0976  0.0459 -0.1983
  923MPD2    H513515   0.132   2.790   9.089 -0.7231 -1.4641 -0.5604
  923MPD2    N113516   4.343   2.792   8.822  0.0500  0.0147  0.6187
  923MPD2    H713517   4.324   2.886   8.855  0.3844 -0.4501  2.1285
  924MPD2     C13518   4.502   1.879  15.859 -0.7532  0.1861  0.2297
  924MPD2    C113519   4.423   1.966  15.791  0.3965  0.2122 -0.1029
  924MPD2    C213520   4.460   2.101  15.797 -0.0066  0.0445 -0.0670
  924MPD2    C313521   4.567   2.142  15.881 -0.0603 -0.3346 -0.0645
  924MPD2    C413522   4.639   2.053  15.957 -0.3545  0.5785 -0.1707
  924MPD2    C513523   4.605   1.920  15.937 -0.0780  0.1204 -0.2798
  924MPD2     H13524   4.416   2.166  15.723 -0.5936  0.6197  0.7866
  924MPD2    H113525   4.719   2.087  16.022 -1.9620  0.5555  1.8281
  924MPD2    H213526   4.468   1.777  15.868  0.3274  0.1275  3.6810
  924MPD2    H313527   4.661   1.848  15.996  3.0554  3.0320  0.3483
  924MPD2     N13528   4.597   2.280  15.903  0.5602  0.0169 -0.0772
  924MPD2    H513529   4.669   2.292  15.973 -0.6811  0.7811  1.0624
  924MPD2    N113530   4.322   1.924  15.704  0.6017  0.0254 -0.3183
  924MPD2    H713531   4.336   1.832  15.662  0.0216  1.2141 -3.0865
  925MPD2     C13532   3.232   4.638  14.700  0.2359  0.9255 -0.5658
  925MPD2    C113533   3.115   4.694  14.666  0.8997 -0.1705  0.0867
  925MPD2    C213534   3.051   0.035  14.773 -0.4634  0.3145 -0.4315
  925MPD2    C313535   3.096   0.019  14.909 -0.4998 -0.0133 -0.1707
  925MPD2    C413536   3.204   4.670  14.939  0.5802 -0.2229 -0.0386
  925MPD2    C513537   3.268   4.616  14.831  0.2252 -0.4799 -0.6699
  925MPD2     H13538   2.954   0.078  14.753 -0.2465 -0.1594 -2.4538
  925MPD2    H113539   3.237   4.643  15.039  0.6943 -0.0014 -0.0173
  925MPD2    H213540   3.290   4.587  14.625  0.9430 -1.2463  1.4376
  925MPD2    H313541   3.352   4.551  14.852 -0.4197 -0.9235  0.5470
  925MPD2     N13542   3.031   0.078  15.017  0.0208 -1.0439  0.0969
  925MPD2    H513543   3.066   0.052  15.109  0.2639  0.7155  0.4990
  925MPD2    N113544   3.053   4.672  14.540  0.4253 -0.1560  0.3183
  925MPD2    H713545   2.952   4.681  14.536  0.5677  0.2436 -2.1586
  926MPD2     C13546   2.598   2.859  13.034 -0.0645  0.6397  0.2114
  926MPD2    C113547   2.478   2.884  13.096 -0.6777  0.7702  0.8623
  926MPD2    C213548   2.363   2.909  13.017  0.4372  0.1353 -0.4279
  926MPD2    C313549   2.388   2.948  12.884  0.5307 -0.4865 -0.0068
  926MPD2    C413550   2.511   2.915  12.826  0.0031 -0.2070  0.5788
  926MPD2    C513551   2.619   2.869  12.900  0.1067  0.6546 -0.1671
  926MPD2     H13552   2.262   2.917  13.056  0.7404 -0.3885  0.4712
  926MPD2    H113553   2.531   2.934  12.721  0.3311  0.1377  0.7068
  926MPD2    H213554   2.682   2.821  13.091 -1.3378 -0.3777  1.4047
  926MPD2    H313555   2.711   2.843  12.848  0.1858 -0.4778  0.5524
  926MPD2     N13556   2.298   3.010  12.798 -0.6595  0.0259 -0.1437
  926MPD2    H513557   2.337   3.047  12.712 -1.1701  1.0543  0.0661
  926MPD2    N113558   2.452   2.866  13.229 -0.1170 -0.3606  0.6949
  926MPD2    H713559   2.354   2.873  13.256 -0.4100  0.2573 -0.5650
  927MPD2     C13560   2.413   4.195   0.566 -0.7341 -0.1319 -0.6061
  927MPD2    C113561   2.341   4.310   0.514 -0.4288  0.4607  0.6909
  927MPD2    C213562   2.382   4.375   0.402 -0.6672 -0.1257 -0.4243
  927MPD2    C313563   2.483   4.328   0.324  0.1989 -0.2700 -0.0012
  927MPD2    C413564   2.550   4.207   0.367 -0.5451 -0.2586  0.5972
  927MPD2    C513565   2.518   4.146   0.485  0.5907 -0.2042 -0.0402
  927MPD2     H13566   2.337   4.472   0.388  0.3693  0.3581 -0.3947
  927MPD2    H113567   2.635   4.159   0.321 -2.6919  0.1047 -3.7353
  927MPD2    H213568   2.398   4.143   0.659 -0.7914  0.1466 -0.4579
  927MPD2    H313569   2.586   4.077   0.533  0.5600 -0.2404 -0.0488
  927MPD2     N13570   2.498   4.388   0.199  0.1291  0.3905 -0.1430
  927MPD2    H513571   2.430   4.457   0.169  1.1160  0.0177 -3.2794
  927MPD2    N113572   2.227   4.356   0.588 -0.0230  0.5383  0.7067
  927MPD2    H713573   2.206   4.315   0.679 -1.6195 -0.4250 -0.1012
  928MPD2     C13574   4.335   3.792   1.045  0.1252  0.3211  0.4082
  928MPD2    C113575   4.448   3.853   1.087 -0.3140  0.0365  0.5009
  928MPD2    C213576   4.555   3.866   1.006  0.4807 -0.2871  0.1188
  928MPD2    C313577   4.545   3.828   0.871 -0.0275  0.6118 -0.4272
  928MPD2    C413578   4.424   3.776   0.827 -0.7736  0.2938 -0.4285
  928MPD2    C513579   4.324   3.752   0.918 -0.5937 -0.5116 -0.3160
  928MPD2     H13580   4.637   3.932   1.034  0.2774  0.1245 -0.2507
  928MPD2    H113581   4.399   3.760   0.723 -2.8666  2.0401 -0.1860
  928MPD2    H213582   4.247   3.778   1.106 -1.7330  1.9776 -1.9092
  928MPD2    H313583   4.228   3.717   0.884 -1.6831  1.8974  0.2662
  928MPD2     N13584   4.645   3.871   0.771 -0.2271  0.2761 -0.5656
  928MPD2    H513585   4.616   3.860   0.674  1.0397 -1.0361 -0.7911
  928MPD2    N113586   4.454   3.908   1.219 -0.4332  0.1436 -0.1018
  928MPD2    H713587   4.371   3.908   1.277 -0.8353 -2.7407 -0.7118
  929MPD2     C13588   4.173   2.875   9.519  0.1459 -0.0261 -0.5791
  929MPD2    C113589   4.128   3.003   9.524  0.6082  1.0706  0.4076
  929MPD2    C213590   4.002   3.033   9.487 -0.0446 -0.1583  0.7150
  929MPD2    C313591   3.908   2.936   9.467  0.7755 -0.9023  0.5603
  929MPD2    C413592   3.944   2.803   9.466 -0.2768 -0.3269 -0.2301
  929MPD2    C513593   4.077   2.780   9.487 -0.6285 -0.3217 -0.9640
  929MPD2     H13594   3.969   3.135   9.498 -1.1626 -0.6469  1.8799
  929MPD2    H113595   3.887   2.711   9.474  0.5077 -1.1680 -4.2996
  929MPD2    H213596   4.270   2.848   9.557  1.0981 -0.1549 -3.0705
  929MPD2    H313597   4.117   2.680   9.497  2.1901  0.6625 -2.4355
  929MPD2     N13598   3.769   2.959   9.454  0.2635 -0.0931  0.2573
  929MPD2    H513599   3.731   2.891   9.389 -1.2339  0.1374  0.8860
  929MPD2    N113600   4.206   3.105   9.586  0.4766 -0.8493  0.5355
  929MPD2    H713601   4.288   3.073   9.637  1.6310  0.3705 -0.5328
  930MPD2     C13602   1.669   1.289  14.135  0.4172  0.2093 -0.3526
  930MPD2    C113603   1.607   1.373  14.049 -0.0897  0.0465  0.3531
  930MPD2    C213604   1.512   1.326  13.965 -0.2411 -0.4426  0.3546
  930MPD2    C313605   1.493   1.187  13.955  0.3201  0.0686 -0.8324
  930MPD2    C413606   1.555   1.103  14.046  0.1363  0.8007 -0.2240
  930MPD2    C513607   1.645   1.154  14.135  0.3115 -0.3837 -0.1015
  930MPD2     H13608   1.460   1.400  13.906  2.0645  0.3081 -0.7312
  930MPD2    H113609   1.523   1.000  14.057 -0.6112  0.6378 -3.9499
  930MPD2    H213610   1.740   1.324  14.209  0.4625 -1.3975  0.3590
  930MPD2    H313611   1.687   1.091  14.213  1.5423  0.7987  0.1951
  930MPD2     N13612   1.424   1.124  13.845 -0.9032 -0.4058  0.0321
  930MPD2    H513613   1.425   1.022  13.844  0.4478 -0.3884 -0.9498
  930MPD2    N113614   1.639   1.508  14.040 -0.4910 -0.1750  0.0096
  930MPD2    H713615   1.693   1.554  14.114 -0.9112 -0.0703  0.2481
  931MPD2     C13616   2.284   4.330   1.224 -0.0604 -0.5036  0.2250
  931MPD2    C113617   2.155   4.362   1.199 -0.6115  0.3599 -0.0333
  931MPD2    C213618   2.066   4.366   1.308  0.2103 -0.7807 -0.1282
  931MPD2    C313619   2.110   4.308   1.432 -0.1855 -0.1141  1.3232
  931MPD2    C413620   2.241   4.276   1.449  0.2742 -0.0383  0.3096
  931MPD2    C513621   2.320   4.283   1.341 -0.5770 -0.5220  1.1433
  931MPD2     H13622   1.958   4.370   1.293  0.3468 -0.1124 -0.9161
  931MPD2    H113623   2.277   4.234   1.542 -0.2662 -1.2373 -0.0247
  931MPD2    H213624   2.355   4.331   1.142 -0.8697  1.4594 -0.4599
  931MPD2    H313625   2.424   4.256   1.347 -0.4603 -0.2606  0.3062
  931MPD2     N13626   2.031   4.278   1.555  0.0427  0.2094  0.4064
  931MPD2    H513627   2.083   4.240   1.634  1.7789  0.1692 -0.7488
  931MPD2    N113628   2.130   4.410   1.063 -0.1983  0.7493  0.2948
  931MPD2    H713629   2.205   4.404   0.995 -1.9801 -0.9393 -1.5236
  932MPD2     C13630   3.519   4.116  11.467 -0.1174 -0.6847 -0.0164
  932MPD2    C113631   3.462   4.152  11.344 -0.2917 -0.0575  0.0568
  932MPD2    C213632   3.352   4.083  11.303  0.4585 -0.0269 -0.3959
  932MPD2    C313633   3.294   3.980  11.381 -0.3615 -0.0380 -0.1036
  932MPD2    C413634   3.351   3.950  11.503  0.0027  0.2918 -0.0674
  932MPD2    C513635   3.465   4.011  11.543 -0.3729 -0.4231  0.5196
  932MPD2     H13636   3.318   4.109  11.204 -1.9436  1.2318  0.7750
  932MPD2    H113637   3.310   3.868  11.562  0.7106  2.3680  3.3328
  932MPD2    H213638   3.611   4.166  11.494 -0.2914  0.1803 -1.0283
  932MPD2    H313639   3.517   3.973  11.630 -0.1459  1.0945  1.0511
  932MPD2     N13640   3.186   3.892  11.344 -0.3018  0.1984 -0.1245
  932MPD2    H513641   3.169   3.812  11.403  1.2945 -0.0637 -0.0128
  932MPD2    N113642   3.493   4.265  11.261 -0.3625  0.1046  0.6758
  932MPD2    H713643   3.450   4.275  11.170  2.7144  0.7122 -0.7137
  933MPD2     C13644   4.021   4.307   1.458 -0.1093  0.3405 -0.3201
  933MPD2    C113645   4.148   4.357   1.479 -0.0162 -0.4429 -0.3467
  933MPD2    C213646   4.162   4.497   1.488 -0.0438  0.5777 -0.1464
  933MPD2    C313647   4.051   4.572   1.484  0.0071 -0.3253 -0.6890
  933MPD2    C413648   3.919   4.520   1.468 -0.3962  0.6195  0.2974
  933MPD2    C513649   3.908   4.384   1.461 -0.1612  0.4049  0.0764
  933MPD2     H13650   4.257   4.548   1.497  0.7545 -0.9658  0.2463
  933MPD2    H113651   3.828   4.576   1.453 -0.1338  0.9520 -0.0609
  933MPD2    H213652   4.006   4.200   1.450  1.8814  0.0353  0.1975
  933MPD2    H313653   3.810   4.339   1.454 -0.3020  0.5800  0.9200
  933MPD2     N13654   4.081   4.707   1.489  0.5662 -0.3719 -0.4238
  933MPD2    H513655   4.179   0.014   1.490  0.2574  0.7208 -0.2008
  933MPD2    N113656   4.258   4.271   1.489  0.1224 -0.5169  0.4112
  933MPD2    H713657   4.233   4.174   1.471  0.6936 -0.2222 -1.9897
  934MPD2     C13658   0.327   1.472   2.214  0.0927  0.2398  0.3057
  934MPD2    C113659   0.362   1.391   2.109  0.1299  0.8966 -1.4333
  934MPD2    C213660   0.269   1.377   2.009  0.5616  0.5641  0.4173
  934MPD2    C313661   0.141   1.441   2.016 -1.3717 -0.2106 -0.0578
  934MPD2    C413662   0.114   1.515   2.133  1.4990  0.1476 -0.8778
  934MPD2    C513663   0.209   1.534   2.227 -0.0001 -0.1782 -0.0667
  934MPD2     H13664   0.284   1.313   1.923 -1.9868  0.3917  0.1169
  934MPD2    H113665   0.021   1.569   2.145  1.6899  0.0827  0.9200
  934MPD2    H213666   0.404   1.498   2.285  1.0451 -3.1538  0.5056
  934MPD2    H313667   0.210   1.591   2.319  0.1707  0.1354 -0.2583
  934MPD2     N13668   0.052   1.445   1.910 -0.7144 -0.5785  0.1344
  934MPD2    H513669   4.712   1.525   1.909  1.7574  1.2823 -1.6253
  934MPD2    N113670   0.483   1.317   2.096  0.7233 -0.4944 -0.1077
  934MPD2    H713671   0.483   1.261   2.011 -0.1577  0.1563 -0.5368
  935MPD2     C13672   0.518   1.104   1.371 -0.1047 -0.1367  0.3291
  935MPD2    C113673   0.420   1.107   1.268 -0.3144 -0.6607  0.1817
  935MPD2    C213674   0.297   1.158   1.296 -0.5735  0.2178 -0.1070
  935MPD2    C313675   0.267   1.192   1.429 -0.2307 -0.6529 -0.0908
  935MPD2    C413676   0.358   1.176   1.528 -0.5406  0.0911 -0.3712
  935MPD2    C513677   0.485   1.135   1.496  0.1961 -0.5144  0.0177
  935MPD2     H13678   0.219   1.169   1.221 -0.3058 -1.7808 -0.6930
  935MPD2    H113679   0.335   1.188   1.633  0.0173  4.0456 -0.7010
  935MPD2    H213680   0.617   1.063   1.353 -0.2100 -0.2300 -0.0189
  935MPD2    H313681   0.558   1.122   1.576 -1.3931  0.7404  1.6608
  935MPD2     N13682   0.143   1.232   1.481 -0.1013 -0.1197 -0.4686
  935MPD2    H513683   0.127   1.237   1.581  0.4892 -0.7687 -0.3477
  935MPD2    N113684   0.448   1.064   1.134 -0.0143 -0.4885  0.2563
  935MPD2    H713685   0.369   1.076   1.072  0.4397  0.5812 -0.1139
  936MPD2     C13686   4.546   2.438  12.586  0.0622 -0.3357 -0.2747
  936MPD2    C113687   4.490   2.519  12.683 -0.4779 -0.6087 -0.4679
  936MPD2    C213688   4.534   2.644  12.706 -0.3962 -0.6874  0.2049
  936MPD2    C313689   4.642   2.698  12.638  0.0856 -0.5783 -0.2483
  936MPD2    C413690   4.696   2.626  12.531  0.1903 -1.2643  0.1269
  936MPD2    C513691   4.650   2.496  12.510  0.0449  0.5650  0.6455
  936MPD2     H13692   4.491   2.702  12.788  0.1950 -1.5010  1.0875
  936MPD2    H113693   0.058   2.664  12.472 -0.3674 -0.7564 -0.3331
  936MPD2    H213694   4.518   2.337  12.558  0.8923 -1.0874  1.6320
  936MPD2    H313695   4.707   2.434  12.441 -0.7377  0.7592 -0.1650
  936MPD2     N13696   4.693   2.828  12.680  0.3090  0.0102  0.8771
  936MPD2    H513697   4.648   2.864  12.764 -1.2227  0.6903 -0.2538
  936MPD2    N113698   4.384   2.472  12.762 -0.1357 -0.6862  0.3204
  936MPD2    H713699   4.348   2.543  12.825  3.0913 -1.6459  3.2883
  937MPD2     C13700   1.922   3.981  11.487 -0.2454  0.0296  0.5346
  937MPD2    C113701   1.971   4.109  11.476 -0.1959  0.3433  0.1814
  937MPD2    C213702   2.085   4.143  11.404  0.0721 -0.2196 -0.3267
  937MPD2    C313703   2.150   4.039  11.340 -0.3077  0.3015  0.3750
  937MPD2    C413704   2.091   3.917  11.337  0.1891  0.3349 -0.2768
  937MPD2    C513705   1.982   3.885  11.406 -0.5395 -0.3170  0.0875
  937MPD2     H13706   2.115   4.247  11.398  0.3314 -0.1726  1.8440
  937MPD2    H113707   2.140   3.844  11.274 -1.3011 -0.7140 -0.2357
  937MPD2    H213708   1.833   3.964  11.547  0.8278 -0.7302  1.8945
  937MPD2    H313709   1.945   3.783  11.400 -2.6964  0.4238  0.8052
  937MPD2     N13710   2.264   4.082  11.276 -0.0030 -0.6142 -0.6322
  937MPD2    H513711   2.291   4.178  11.296  0.3637 -0.5767 -1.3172
  937MPD2    N113712   1.901   4.227  11.523  0.5655 -0.4697 -0.4402
  937MPD2    H713713   1.935   4.321  11.504 -0.8624 -0.0090 -0.7082
  938MPD2     C13714   4.366   1.195   1.132  0.5477  0.1892  0.2281
  938MPD2    C113715   4.477   1.123   1.089  0.7592  0.8730 -0.5896
  938MPD2    C213716   4.538   1.036   1.168  0.0076  0.3214  0.5472
  938MPD2    C313717   4.495   1.015   1.301 -0.2116 -0.4774 -0.1721
  938MPD2    C413718   4.376   1.076   1.348  0.3916 -0.3596  0.0088
  938MPD2    C513719   4.320   1.166   1.262  0.6681  0.0052  0.0610
  938MPD2     H13720   4.630   0.988   1.135  0.5186 -0.4594  3.1209
  938MPD2    H113721   4.340   1.063   1.449 -1.8888  3.0690 -0.3759
  938MPD2    H213722   4.306   1.265   1.074  0.5986  1.3500  1.5930
  938MPD2    H313723   4.231   1.220   1.296  0.2415  0.4825 -1.7888
  938MPD2     N13724   4.551   0.913   1.385 -0.0045 -0.6123 -0.0781
  938MPD2    H513725   4.502   0.894   1.472  0.7493  2.4948  1.0180
  938MPD2    N113726   4.535   1.149   0.966  0.1998 -0.0721 -0.6088
  938MPD2    H713727   4.617   1.094   0.941  2.7842  3.7020 -0.4490
  939MPD2     C13728   0.688   1.931   0.947  0.0153  0.0289  0.2218
  939MPD2    C113729   0.704   2.057   0.885  0.2519  0.1015 -0.2723
  939MPD2    C213730   0.827   2.082   0.824  0.0034  0.3293 -0.9559
  939MPD2    C313731   0.927   1.988   0.806  0.2306  0.4585  0.0564
  939MPD2    C413732   0.907   1.865   0.863  0.5177 -0.4484  0.0801
  939MPD2    C513733   0.792   1.840   0.934 -0.0710 -0.0421  0.1327
  939MPD2     H13734   0.833   2.177   0.771  0.8896 -0.9738 -3.1905
  939MPD2    H113735   0.984   1.789   0.862  0.4020 -0.5950  2.3484
  939MPD2    H213736   0.595   1.909   0.997 -0.8722  0.3534 -1.3023
  939MPD2    H313737   0.779   1.736   0.964  1.9494 -0.4654 -0.4466
  939MPD2     N13738   1.039   2.022   0.725 -0.1035 -0.0610 -0.1321
  939MPD2    H513739   1.033   2.107   0.670  0.5105 -0.0205 -0.1355
  939MPD2    N113740   0.610   2.159   0.905 -0.1631 -0.1235 -0.3159
  939MPD2    H713741   0.542   2.136   0.977 -0.2597 -0.1372 -0.4114
  940MPD2     C13742   4.413   2.788  13.826 -0.2732 -0.1983 -0.5984
  940MPD2    C113743   4.526   2.824  13.892  0.1489  0.7844 -0.0286
  940MPD2    C213744   4.652   2.828  13.827  0.2806 -0.0300  0.6979
  940MPD2    C313745   4.646   2.804  13.694 -0.9914 -0.1731 -0.3466
  940MPD2    C413746   4.528   2.772  13.630 -0.2409 -0.2768  0.3226
  940MPD2    C513747   4.414   2.779  13.693  0.8720 -0.2428 -0.2750
  940MPD2     H13748   0.017   2.859  13.885 -0.0553  0.0390  1.1556
  940MPD2    H113749   4.529   2.757  13.522 -1.9185  0.7888  0.1507
  940MPD2    H213750   4.321   2.790  13.883  0.2924  2.4400  0.2149
  940MPD2    H313751   4.319   2.753  13.647  0.2735 -0.2098  0.9510
  940MPD2     N13752   0.049   2.803  13.623  0.2900 -0.7552 -0.1565
  940MPD2    H513753   0.130   2.815  13.682 -0.5907 -0.1197  0.9290
  940MPD2    N113754   4.512   2.854  14.028  0.1562  0.2313 -0.0881
  940MPD2    H713755   4.420   2.873  14.065  0.6846  0.3973  1.1381
  941MPD2     C13756   3.899   1.011   9.111  0.2681 -0.4041 -0.4620
  941MPD2    C113757   3.932   1.033   9.243 -0.6897  0.2751  0.1449
  941MPD2    C213758   3.899   0.935   9.339 -0.1421 -0.0459  0.4717
  941MPD2    C313759   3.833   0.819   9.303 -0.1532 -0.0558  0.4421
  941MPD2    C413760   3.800   0.806   9.172  0.2451 -0.5337  0.2518
  941MPD2    C513761   3.833   0.895   9.073 -0.4442  0.1320 -0.6086
  941MPD2     H13762   3.942   0.950   9.437  0.2799  1.8596  0.0040
  941MPD2    H113763   3.740   0.721   9.141  1.1704 -0.7777 -0.8676
  941MPD2    H213764   3.940   1.072   9.031  2.0365  1.1178  1.5835
  941MPD2    H313765   3.818   0.869   8.969 -1.7064 -2.1979  0.1595
  941MPD2     N13766   3.806   0.714   9.394  0.2469 -0.4188 -0.7708
  941MPD2    H513767   3.751   0.639   9.353  1.6548 -1.2909 -1.0448
  941MPD2    N113768   3.999   1.143   9.297  0.2089  0.2083 -0.4341
  941MPD2    H713769   4.024   1.138   9.395 -0.4393 -1.3277 -0.3572
  942MPD2     C13770   2.961   2.116   8.798 -0.1851 -0.1580  0.4074
  942MPD2    C113771   3.087   2.112   8.864  0.6607  0.1290  0.0895
  942MPD2    C213772   3.171   2.218   8.839 -0.1923 -0.4715 -0.3192
  942MPD2    C313773   3.135   2.319   8.752 -0.4904 -0.3992  0.0414
  942MPD2    C413774   3.006   2.322   8.699  0.5156  0.7866 -0.6942
  942MPD2    C513775   2.917   2.220   8.723 -0.1508 -0.9571 -0.9523
  942MPD2     H13776   3.271   2.220   8.881  0.1286  1.6412 -1.2058
  942MPD2    H113777   2.974   2.410   8.643  2.6252  1.9014 -0.1291
  942MPD2    H213778   2.892   2.033   8.804  0.1203 -0.3310  1.5374
  942MPD2    H313779   2.818   2.216   8.678 -0.9070 -0.2069  0.6620
  942MPD2     N13780   3.220   2.432   8.736 -0.1425 -0.3218  0.7580
  942MPD2    H513781   3.166   2.505   8.692  0.9322  1.0603  1.7468
  942MPD2    N113782   3.127   2.003   8.939 -0.0164  0.0872  0.5467
  942MPD2    H713783   3.223   2.004   8.972  0.0167 -0.7251  0.4937
  943MPD2     C13784   2.847   1.546   9.392  0.3539 -0.2184  0.6524
  943MPD2    C113785   2.760   1.444   9.401  0.5244 -0.8586  0.0870
  943MPD2    C213786   2.635   1.463   9.332 -0.1751  0.1932  0.0253
  943MPD2    C313787   2.613   1.573   9.251  0.3339  0.0936 -0.2939
  943MPD2    C413788   2.705   1.679   9.254  0.0622 -0.4116 -0.0215
  943MPD2    C513789   2.813   1.666   9.328  0.1185 -0.7704  0.7476
  943MPD2     H13790   2.559   1.385   9.337 -1.5228  1.4705 -0.8029
  943MPD2    H113791   2.687   1.775   9.207 -1.3714 -1.1809 -1.0701
  943MPD2    H213792   2.945   1.535   9.437 -0.5864  1.2869  3.0765
  943MPD2    H313793   2.900   1.731   9.329  1.1936 -2.1534 -2.0072
  943MPD2     N13794   2.497   1.583   9.177  0.4532  0.2110 -0.1081
  943MPD2    H513795   2.475   1.674   9.137  1.0472  0.4733  0.1724
  943MPD2    N113796   2.795   1.335   9.487 -0.4142 -0.4023  0.0188
  943MPD2    H713797   2.873   1.354   9.548 -0.5928 -0.4436  0.2593
  944MPD2     C13798   2.955   0.665  10.762  0.2034 -0.0025  0.0567
  944MPD2    C113799   2.836   0.613  10.722  0.6619  0.6102 -0.4351
  944MPD2    C213800   2.724   0.623  10.808  0.4111 -0.7658 -0.1745
  944MPD2    C313801   2.733   0.688  10.933 -0.9692  0.4012 -0.1241
  944MPD2    C413802   2.856   0.747  10.971 -0.2430 -0.4079  1.7582
  944MPD2    C513803   2.964   0.731  10.884 -0.9287  0.4678 -0.4880
  944MPD2     H13804   2.634   0.567  10.784 -0.6496  1.2932 -1.0214
  944MPD2    H113805   2.875   0.797  11.065  1.2149 -0.9579  1.7616
  944MPD2    H213806   3.044   0.661  10.700  1.1251  0.6473  1.3289
  944MPD2    H313807   3.054   0.787  10.906 -0.4513 -0.9694  1.2467
  944MPD2     N13808   2.624   0.693  11.017  0.0258 -0.0998  0.5507
  944MPD2    H513809   2.540   0.641  10.993 -0.3416  1.3434 -1.2160
  944MPD2    N113810   2.829   0.578  10.586  0.1531 -0.0133  0.3549
  944MPD2    H713811   2.905   0.609  10.527 -0.1504 -1.1105 -0.6081
    1TCq1    O113812   4.271   2.209  14.096 -0.1235 -0.7863  0.0386
    1TCq1    C113813   4.374   2.131  14.141  0.2584 -0.4055 -0.9575
    1TCq1    O213814   4.367   2.049  14.232 -0.1135 -0.2322  0.0387
    1TCq1    C213815   4.483   2.151  14.040  0.8457 -0.6742  1.1801
    1TCq1    C313816   4.458   2.130  13.906  0.6676 -0.3717 -0.4374
    1TCq1    C413817   4.563   2.126  13.815  0.4116  0.3318 -0.2022
    1TCq1    C513818   4.693   2.133  13.869 -0.0636  0.1231 -0.6151
    1TCq1    C613819   4.710   2.140  14.001 -0.2870  0.3911 -0.0477
    1TCq1    C713820   4.612   2.161  14.085  0.6637 -0.4195  0.0589
    1TCq1    C813821   0.126   2.140  14.045  0.4076 -0.5596 -0.4928
    1TCq1    O413822   0.209   2.072  13.985 -0.2931  0.4827 -0.8965
    1TCq1    C913823   4.533   2.108  13.672  0.0104  0.3630 -0.5829
    1TCq1    O513824   4.631   2.102  13.593  0.0577  0.5417  0.5536
    1TCq1    O613825   4.418   2.067  13.643 -0.1910 -0.3218  0.2978
    1TCq1    H113826   4.296   2.272  14.025 -0.5088 -1.0116 -0.2971
    1TCq1    H213827   4.362   2.107  13.860  0.5115 -1.7258  0.5589
    1TCq1    H313828   0.065   2.122  13.816 -1.5461 -0.1043 -3.1605
    1TCq1    H413829   4.628   2.159  14.193  1.0962 -2.5518 -0.0508
    2MPD2     C13830   0.493   2.301  14.382  0.5893 -0.6965  0.5479
    2MPD2    C113831   0.375   2.371  14.400  0.0314 -0.1560 -1.2087
    2MPD2    C213832   0.260   2.337  14.326  0.0064  0.7998  0.2960
    2MPD2    C313833   0.265   2.238  14.227  0.4295  0.0026  0.4272
    2MPD2    C413834   0.386   2.172  14.208 -0.3439 -0.2230  0.7619
    2MPD2    C513835   0.494   2.199  14.289 -0.2326  0.0787 -0.0684
    2MPD2     H13836   0.163   2.380  14.346 -0.5938 -0.6674  0.5620
    2MPD2    H113837   0.391   2.077  14.157 -1.7294  0.0304  0.1376
    2MPD2    H213838   0.570   2.316  14.457  0.6147  1.0777  0.1695
    2MPD2    H313839   0.580   2.133  14.284  1.5468  2.4094 -0.3508
    2MPD2     N13840   0.143   2.216  14.157 -0.0219 -0.0316  0.3370
    2MPD2    H513841   0.068   2.282  14.175 -0.9256 -0.8110 -0.6326
    2MPD2    N113842   0.363   2.468  14.497  0.1157 -0.3776 -0.4062
    2MPD2    H713843   0.442   2.491  14.556  0.6839 -0.2613 -1.2144
    3TMC2    C113844   0.279   2.675  14.587 -0.0322  0.1164  0.3818
    3TMC2    C213845   0.302   2.641  14.721  0.4077  0.3338 -0.2764
    3TMC2    C313846   0.267   2.732  14.813  0.5616 -0.0257  0.2326
    3TMC2    C413847   0.216   2.795  14.551 -0.7208 -0.1565  0.9572
    3TMC2    C513848   0.184   2.882  14.650 -0.3470  0.0591 -0.1713
    3TMC2    C613849   0.214   2.853  14.782  0.2241  0.0693  0.5631
    3TMC2     C13850   0.269   2.565  14.488 -0.0828  0.2983 -0.1606
    3TMC2     O13851   0.183   2.588  14.397 -0.3637  0.1290 -0.3412
    3TMC2     H13852   0.358   2.552  14.747  1.4612  0.8188 -0.8811
    3TMC2    H113853   0.176   2.798  14.451 -0.3502  1.0854  0.8527
    3TMC2    H213854   0.178   2.915  14.863 -0.8645  1.4747 -0.9735
    3TMC2    C713855   0.109   3.006  14.622  0.6258 -0.0683 -0.1949
    3TMC2    C813856   0.250   2.688  14.950 -0.1441  0.6221 -0.5431
    3TMC2    O113857   0.063   3.066  14.717 -0.7361  0.2392 -0.2241
    3TMC2    O213858   0.225   2.761  15.044 -0.0691 -0.1615 -0.2922
    3TMC2    O513859   0.239   2.554  14.960 -0.1652  0.1394  0.2362
    3TMC2    H513860   0.223   2.514  14.872  1.6802  1.6440 -0.7971
    4MPD2     C13861   3.906   3.380  13.541  0.0764  0.2632  0.1795
    4MPD2    C113862   3.997   3.464  13.493  0.6515 -1.0534 -0.3638
    4MPD2    C213863   4.128   3.433  13.510  0.0632 -0.0173  0.7403
    4MPD2    C313864   4.163   3.332  13.601  0.1190  0.5017 -0.4266
    4MPD2    C413865   4.066   3.250  13.657  0.1349  0.1645 -0.1089
    4MPD2    C513866   3.930   3.274  13.618 -0.0026  0.0478 -0.3493
    4MPD2     H13867   4.203   3.504  13.478 -0.4440 -1.1149 -2.8485
    4MPD2    H113868   4.091   3.174  13.731 -1.0375 -1.3439 -1.2675
    4MPD2    H213869   3.800   3.401  13.532 -0.0106 -0.5138 -0.5940
    4MPD2    H313870   3.846   3.208  13.636  0.5309 -0.6997 -0.6167
    4MPD2     N13871   4.298   3.311  13.633 -0.4887  0.4518  0.5824
    4MPD2    H513872   4.367   3.377  13.598 -0.6484  1.0714  1.4246
    4MPD2    N113873   3.948   3.570  13.415  0.1017  0.2861 -0.2286
    4MPD2    H713874   3.850   3.589  13.433  0.3030 -0.9481  2.1757
    5TCq2    C113875   4.345   3.220  13.724  0.2251  0.0223 -0.1813
    5TCq2    O213876   4.287   3.157  13.811 -0.2180 -0.1637 -0.6270
    5TCq2    C213877   4.490   3.240  13.749 -0.5505 -0.0467 -0.5104
    5TCq2    C313878   4.573   3.250  13.638  0.2576  0.1424 -0.3221
    5TCq2    C413879   4.709   3.231  13.651  0.0194 -0.1804 -0.8807
    5TCq2    C513880   0.033   3.207  13.781 -0.0452  0.6736 -0.1329
    5TCq2    C613881   4.667   3.203  13.890 -0.2561  0.2856 -0.1635
    5TCq2    C713882   4.531   3.205  13.874 -0.2137  0.2343  0.0192
    5TCq2    C813883   4.719   3.177  14.021 -0.0371 -0.3612  0.6924
    5TCq2    O413884   0.103   3.114  14.028  0.4487  0.0391 -0.1197
    5TCq2    C913885   0.075   3.237  13.538  0.2279  0.5405 -0.3775
    5TCq2    O513886   0.197   3.206  13.556 -0.1025  0.1735  0.7944
    5TCq2    O613887   0.018   3.256  13.428 -0.0924  0.1780 -0.6121
    5TCq2    H213888   4.536   3.248  13.536  2.2097  0.2244 -1.0361
    5TCq2    H313889   0.140   3.197  13.797  0.0380  2.3950  0.3528
    5TCq2    H413890   4.468   3.196  13.962 -1.7486  0.6382 -1.0445
    6MPD1     C13891   4.452   0.533  12.518  0.6814 -0.7139 -0.0343
    6MPD1    C113892   4.346   0.460  12.467 -0.6689 -0.1130  0.1972
    6MPD1    C213893   4.310   0.349  12.534 -0.4842  0.4519  0.0001
    6MPD1    C313894   4.389   0.291  12.635 -0.2771  0.0677  0.1012
    6MPD1    C413895   4.497   0.359  12.680  0.1714 -0.4782 -0.4789
    6MPD1    C513896   4.522   0.477  12.618 -0.0894  0.2152  0.2157
    6MPD1     H13897   4.221   0.297  12.499 -0.5848  1.3146 -1.0225
    6MPD1    H113898   4.558   0.325  12.763 -0.4563  0.7185  0.4778
    6MPD1    H213899   4.465   0.633  12.476 -0.0424 -1.2257 -1.4793
    6MPD1    H313900   4.614   0.525  12.648 -0.2604  1.6555 -1.5012
    6MPD1     N13901   4.349   0.167  12.683  0.2706 -0.4031  0.1805
    6MPD1    H513902   4.270   0.126  12.633 -2.0833  3.6536  0.5416
    6MPD1    N113903   4.265   0.511  12.367 -0.2134  0.7170  0.7952
    6MPD1    H613904   4.328   0.552  12.298  0.7578 -0.4358  1.0024
    6MPD1    H713905   4.207   0.443  12.318  1.1088 -0.4682  0.8930
    7MPD2     C13906   4.089   4.445  13.391  0.4829  0.3220 -0.5573
    7MPD2    C113907   4.034   4.419  13.273  0.9054 -0.3226 -0.1076
    7MPD2    C213908   3.941   4.313  13.265  0.0475 -0.3205 -0.1504
    7MPD2    C313909   3.904   4.245  13.374 -0.2635 -0.6554 -0.1260
    7MPD2    C413910   3.944   4.279  13.498  0.4049  0.1592 -1.1644
    7MPD2    C513911   4.032   4.382  13.508  0.2745  0.1389  0.1171
    7MPD2     H13912   3.914   4.277  13.167  2.2492 -0.9692 -0.5181
    7MPD2    H113913   3.917   4.224  13.588  0.7074  2.0119  0.0697
    7MPD2    H213914   4.164   4.522  13.408  0.3198  0.9374 -2.7240
    7MPD2    H313915   4.075   4.402  13.605  2.3109  0.7802 -0.9172
    7MPD2     N13916   3.838   4.130  13.335 -0.3110 -0.6015 -0.0810
    7MPD2    H513917   3.844   4.106  13.236  4.4942 -0.3228  0.1625
    7MPD2    N113918   4.082   4.476  13.153 -0.7386  0.6784  0.0399
    7MPD2    H713919   4.024   4.459  13.071  2.1629 -0.2730 -1.8070
    8TMC3    C113920   3.777   3.909  13.341  0.0311  0.7885  0.1249
    8TMC3    C213921   3.855   3.804  13.378 -0.1642  0.1321 -0.3390
    8TMC3    C313922   3.939   3.757  13.284  1.2827 -0.2564  0.5068
    8TMC3    C413923   3.760   3.936  13.208 -0.0514  0.3431  0.4105
    8TMC3    C513924   3.837   3.876  13.121  0.0645 -0.0284  0.0360
    8TMC3    C613925   3.934   3.791  13.156  0.5568 -0.0016  0.0854
    8TMC3     C13926   3.804   4.031  13.418 -0.0381  0.1078  0.0388
    8TMC3     O13927   3.818   4.008  13.541  0.1194  0.2612 -0.2297
    8TMC3     H13928   3.878   3.796  13.484  0.0878  1.7300 -0.2686
    8TMC3    H113929   3.674   3.993  13.175  1.2833  1.4042 -1.2672
    8TMC3    H213930   3.999   3.738  13.087  1.3449 -0.5172  1.2110
    8TMC3    C713931   3.866   3.964  13.016 -0.0983 -0.8908 -0.3704
    8TMC3    C813932   4.023   3.649  13.327 -0.6337  0.2551  0.2405
    8TMC3    O113933   3.851   4.082  13.047 -0.1112  0.3985 -0.2032
    8TMC3    O213934   4.131   3.636  13.271 -0.2587  0.1577  0.1263
    9TMC3    C113935   4.308   4.710  12.838 -0.1351 -0.3963  0.5011
    9TMC3    C213936   4.259   4.629  12.741 -0.0061  0.0782  0.0918
    9TMC3    C313937   4.174   4.528  12.769 -0.2288 -0.0415  0.2733
    9TMC3    C413938   4.290   4.684  12.971 -0.2222 -0.0096  0.0396
    9TMC3    C513939   4.210   4.577  12.997  0.4438 -0.1942 -0.1829
    9TMC3    C613940   4.148   4.500  12.904  0.5448  0.3787  0.1346
    9TMC3     C13941   4.382   0.113  12.803  0.0850 -0.0647 -0.8810
    9TMC3     O13942   4.449   0.161  12.895  0.1691 -0.5072  0.2930
    9TMC3     H13943   4.287   4.645  12.637  0.3062 -0.5903  0.0730
    9TMC3    H113944   4.327   0.032  13.046 -0.1667 -1.8956  1.7538
    9TMC3    H213945   4.120   4.398  12.925 -0.9177  0.4625 -1.3579
    9TMC3    C713946   4.197   4.551  13.137 -0.5168 -0.8740 -0.5744
    9TMC3    C813947   4.125   4.431  12.662  0.1686 -1.1888 -0.3194
    9TMC3    O113948   4.294   4.569  13.215  0.3748  0.8016 -0.2638
    9TMC3    O213949   4.200   4.424  12.567  0.4485  0.5633 -0.0466
   10MPD2     C13950   4.064   3.921  12.705  1.4191 -0.0067 -0.0251
   10MPD2    C113951   3.994   3.984  12.801  0.3496 -1.3329 -0.1004
   10MPD2    C213952   3.973   4.121  12.786 -0.0222 -0.2803  0.0709
   10MPD2    C313953   4.048   4.197  12.699  0.0915 -0.5164 -0.1724
   10MPD2    C413954   4.137   4.131  12.611  0.1682 -0.4336  0.2704
   10MPD2    C513955   4.121   3.993  12.604 -0.2112 -0.3831  0.2054
   10MPD2     H13956   3.920   4.174  12.865 -1.5271 -2.6931  0.6505
   10MPD2    H113957   4.191   4.186  12.535 -0.2679  1.5230  1.3841
   10MPD2    H213958   4.068   3.813  12.692 -0.5330  0.0045 -0.7263
   10MPD2    H313959   4.162   3.939  12.520  1.3179  0.1673  0.5991
   10MPD2     N13960   4.035   4.338  12.717 -0.0595 -0.7348  0.1031
   10MPD2    H513961   3.967   4.368  12.786 -0.0617 -1.0994  0.2623
   10MPD2    N113962   3.924   3.908  12.904 -0.2543 -0.1805  1.0913
   10MPD2    H713963   3.943   3.809  12.891 -4.0210 -0.4974 -2.0988
   11MPD2     C13964   4.698   3.250  14.523  0.1764  0.6252  0.3374
   11MPD2    C113965   0.026   3.145  14.443 -0.7831  0.1631 -0.6357
   11MPD2    C213966   0.011   3.163  14.306  0.4566  0.0839  0.3193
   11MPD2    C313967   4.674   3.267  14.249  0.4539 -0.1082 -0.4041
   11MPD2    C413968   4.623   3.367  14.329  0.0865  0.3953  0.2287
   11MPD2    C513969   4.638   3.355  14.463  0.9342  0.3587  0.1305
   11MPD2     H13970   0.048   3.079  14.249 -0.2638  0.3600 -0.5474
   11MPD2    H113971   4.575   3.448  14.276 -0.1617  1.0222  1.4024
   11MPD2    H213972   4.704   3.251  14.632 -0.6974  3.0843  0.3652
   11MPD2    H313973   4.597   3.441  14.515  1.0819  0.8058 -0.4849
   11MPD2     N13974   4.660   3.265  14.110  0.3657  0.0178 -0.0952
   11MPD2    H513975   4.603   3.342  14.077  0.0053  0.5637  1.7710
   11MPD2    N113976   0.105   3.037  14.490  0.0998 -0.1567 -0.1447
   11MPD2    H713977   0.153   2.980  14.421  1.1308 -2.5375  2.5261
    1MPD1     C13978   2.639   0.229   0.155  0.1788 -0.5206  0.1755
    1MPD1    C113979   2.722   0.120   0.179  0.0581 -0.2861 -0.1043
    1MPD1    C213980   2.778   0.055   0.070 -0.5049 -0.0924 -0.2471
    1MPD1    C313981   2.764   0.098  17.629  0.1549 -0.9668 -0.1109
    1MPD1    C413982   2.684   0.214  17.614 -0.2370 -0.7251 -0.3647
    1MPD1    C513983   2.618   0.276   0.025  0.8388  0.3180  1.3675
    1MPD1     H13984   2.834   4.685   0.089 -0.5949 -0.0891  0.0343
    1MPD1    H113985   2.661   0.251  17.514  0.5156 -2.4136 -1.1661
    1MPD1    H213986   2.589   0.275   0.239  0.9881  0.3440  0.1695
    1MPD1    H313987   2.561   0.366   0.004 -0.9608 -0.4710  2.8139
    1MPD1     N13988   2.807   0.028  17.512 -0.4156  0.2244 -0.1545
    1MPD1    H513989   2.784   0.061  17.419  0.3763 -2.1367 -1.2157
    1MPD1    N113990   2.733   0.057   0.303 -0.5296  0.0186  0.0628
    1MPD1    H613991   2.831   0.040   0.323 -1.0137 -0.1300  2.4124
    1MPD1    H713992   2.709   0.117   0.382 -2.3203  0.5241 -0.8663
    2MPD1     C13993   3.605   4.334  17.116 -0.1129 -0.5094  0.6724
    2MPD1    C113994   3.583   4.364  17.247 -0.2095  0.2548  0.3811
    2MPD1    C213995   3.452   4.390  17.286 -0.3598 -0.5707 -0.1928
    2MPD1    C313996   3.344   4.394  17.191  0.0962 -0.0200 -0.3462
    2MPD1    C413997   3.369   4.356  17.052  0.5320 -0.0379  0.2477
    2MPD1    C513998   3.503   4.331  17.019 -0.2423  0.3398  0.1106
    2MPD1     H13999   3.430   4.409  17.390 -0.1702  2.3022 -0.6910
    2MPD1    H114000   3.292   4.352  16.976  1.1208  1.6334 -0.4355
    2MPD1    H214001   3.704   4.306  17.083  0.2222  1.3349  0.1456
    2MPD1    H314002   3.531   4.313  16.916  1.8927  1.4037  0.5135
    2MPD1     N14003   3.215   4.419  17.237  0.2912 -0.4940  0.2111
    2MPD1    H514004   3.199   4.456  17.330  0.6142  2.6515 -0.9658
    2MPD1    N114005   3.688   4.365  17.334  0.5891  0.2594  0.9518
    2MPD1    H614006   3.778   4.352  17.288 -0.2470 -0.1844 -0.5367
    2MPD1    H714007   3.688   4.440  17.403  1.2785  1.2665 -0.1439
    3TMC3    C114008   2.977   4.424  17.244  0.2828  0.2874  0.1283
    3TMC3    C214009   2.862   4.427  17.159 -1.3979  0.0736 -0.5069
    3TMC3    C314010   2.765   4.517  17.195  0.0091  0.0806 -0.4697
    3TMC3    C414011   2.985   4.495  17.361 -0.6214 -0.0936  0.5977
    3TMC3    C514012   2.882   4.575  17.388  0.2524 -0.4456 -0.0665
    3TMC3    C614013   2.771   4.593  17.310  0.1566  0.0870  0.8073
    3TMC3     C14014   3.098   4.367  17.180 -0.7420 -0.2123 -0.2224
    3TMC3     O14015   3.079   4.325  17.070 -0.2674 -0.2649  0.1170
    3TMC3     H14016   2.867   4.367  17.068  1.5112  2.9545 -2.2276
    3TMC3    H114017   3.057   4.483  17.441  1.7398  0.3861 -1.4658
    3TMC3    H214018   2.677   4.629  17.350  0.0905  1.7088 -0.8263
    3TMC3    C714019   2.877   4.633  17.520  0.4197  0.0587  0.1940
    3TMC3    C814020   2.628   4.480  17.162  0.6659  0.2027  0.2824
    3TMC3    O114021   2.937   4.577  17.608 -0.4657 -0.3249 -0.5325
    3TMC3    O214022   2.609   4.361  17.161 -0.0464 -0.6021  0.0325
    4MPD1     C14023   2.142   4.600  17.065 -0.1020 -0.0663 -0.1290
    4MPD1    C114024   2.221   4.706  17.019 -0.4923  0.0050 -0.3117
    4MPD1    C214025   2.359   4.698  17.032  0.4560 -0.5709  0.8220
    4MPD1    C314026   2.422   4.578  17.068  0.2085  0.0115 -0.7670
    4MPD1    C414027   2.343   4.469  17.099 -0.3668  0.0644  0.1509
    4MPD1    C514028   2.203   4.487  17.106  0.3323 -0.0684 -0.2714
    4MPD1     H14029   2.414   0.067  17.010 -0.5240  0.3594  2.2716
    4MPD1    H114030   2.377   4.377  17.144  0.4099  1.5832  2.6289
    4MPD1    H214031   2.034   4.605  17.062 -0.0962  0.6695  0.9881
    4MPD1    H314032   2.138   4.406  17.138 -0.0948  0.1001 -0.6952
    4MPD1     N14033   2.558   4.580  17.105  0.9488 -0.5709 -0.5263
    4MPD1    H514034   2.607   4.667  17.086  0.1260 -0.7486 -3.4787
    4MPD1    N114035   2.156   0.106  16.988  0.1509  0.7575 -0.0881
    4MPD1    H614036   2.211   0.156  16.918 -1.1181  0.8771 -0.9970
    4MPD1    H714037   2.062   0.091  16.951  0.1612 -1.6923  0.8770
    1TCq1    O114038   3.263   3.470  11.191 -0.3787 -0.3072 -0.5129
    1TCq1    C114039   3.356   3.567  11.209 -0.4936 -0.0820  0.3814
    1TCq1    O214040   3.410   3.604  11.314  0.1643  0.2520 -0.6475
    1TCq1    C214041   3.360   3.642  11.090  0.3858 -0.0164  0.0534
    1TCq1    C314042   3.363   3.574  10.971 -0.1339 -0.0742 -0.2765
    1TCq1    C414043   3.405   3.640  10.856 -0.5826 -0.0577  0.2509
    1TCq1    C514044   3.460   3.756  10.873 -0.7624  0.6889  0.8277
    1TCq1    C614045   3.473   3.824  10.990 -0.1016  0.0024 -0.1335
    1TCq1    C714046   3.422   3.762  11.101 -1.1033  0.9869  0.4801
    1TCq1    C814047   3.557   3.944  10.992  0.7549 -1.0489 -0.0800
    1TCq1    O414048   3.581   3.993  10.880  0.0564  0.1798  0.1916
    1TCq1    C914049   3.427   3.560  10.737 -0.5953 -0.0004 -0.0462
    1TCq1    O514050   3.476   3.607  10.627 -0.2680  0.1214 -0.1941
    1TCq1    O614051   3.388   3.439  10.737  0.4596 -0.2990 -0.2719
    1TCq1    H114052   3.210   3.473  11.109 -2.1985 -2.5088  0.5939
    1TCq1    H214053   3.327   3.472  10.965 -0.8212 -0.1646  5.2008
    1TCq1    H314054   3.512   3.807  10.793  0.2607 -2.1227 -0.2973
    1TCq1    H414055   3.420   3.811  11.198  1.1183 -0.6992  1.3703
    2MPD1     C14056   3.962   4.219  11.148 -0.7705  0.1991 -0.1302
    2MPD1    C114057   3.923   4.144  11.260 -0.3557 -0.0978 -0.8853
    2MPD1    C214058   3.815   4.059  11.245 -0.0914  0.2561 -0.0852
    2MPD1    C314059   3.743   4.054  11.129  0.0845  0.2473 -0.2023
    2MPD1    C414060   3.775   4.147  11.028  0.7550 -0.2113  0.8467
    2MPD1    C514061   3.889   4.224  11.034  0.2761  0.4303 -0.5189
    2MPD1     H14062   3.801   3.992  11.329  2.2636  1.5037  1.2922
    2MPD1    H114063   3.708   4.162  10.944  0.1059  0.6853  1.5218
    2MPD1    H214064   4.047   4.287  11.154 -0.4127 -0.3409  0.9876
    2MPD1    H314065   3.904   4.289  10.949 -1.4652  1.7665  0.1969
    2MPD1     N14066   3.635   3.955  11.106  0.4152  0.4266  0.1886
    2MPD1    H514067   3.621   3.891  11.184 -1.1629  0.2991 -0.2026
    2MPD1    N114068   3.993   4.143  11.381  0.1013 -0.5416  0.1001
    2MPD1    H614069   4.076   4.201  11.381  0.9097 -1.7125  0.0592
    2MPD1    H714070   3.991   4.054  11.431 -1.6458 -0.1367  0.7508
    1TCq1    O114071   0.494   1.235  15.321 -0.0882 -0.9302 -0.1568
    1TCq1    C114072   0.493   1.247  15.456 -0.4137 -0.1418 -0.1756
    1TCq1    O214073   0.585   1.222  15.531 -0.1766 -0.0693  0.2186
    1TCq1    C214074   0.376   1.325  15.504  0.0147  0.5660  0.0468
    1TCq1    C314075   0.372   1.446  15.447  0.4596  0.1217  0.4355
    1TCq1    C414076   0.318   1.555  15.520 -0.6660  0.4311  0.3458
    1TCq1    C514077   0.280   1.544  15.648  0.4131 -0.4422  0.5992
    1TCq1    C614078   0.289   1.416  15.701  0.0015 -0.0051  0.3092
    1TCq1    C714079   0.356   1.312  15.641  0.2740 -0.1655 -0.1876
    1TCq1    C814080   0.277   1.405  15.845 -0.3378  0.2663  0.2211
    1TCq1    O414081   0.329   1.311  15.905 -0.1338 -0.0008 -0.0316
    1TCq1    C914082   0.266   1.664  15.438 -0.8934  0.5621 -0.7977
    1TCq1    O514083   0.199   1.749  15.503 -0.1165 -0.1591 -0.0912
    1TCq1    O614084   0.293   1.667  15.313 -0.5911  0.2993 -0.4549
    1TCq1    H114085   0.407   1.257  15.281 -0.2592  0.9555  1.2552
    1TCq1    H214086   0.385   1.454  15.340  0.7670  0.8171  0.5225
    1TCq1    H314087   0.224   1.621  15.698 -0.4517  1.3195 -3.0839
    1TCq1    H414088   0.353   1.211  15.682  2.0669 -0.9005 -1.9015
    2MPD1     C14089   0.146   1.626  16.295  0.3362 -0.9400 -0.2969
    2MPD1    C114090   0.120   1.711  16.186  0.7652  0.5306  0.6308
    2MPD1    C214091   0.135   1.657  16.060 -0.2246 -1.0251 -0.2737
    2MPD1    C314092   0.190   1.533  16.036  0.1227  0.1527 -0.6056
    2MPD1    C414093   0.240   1.464  16.139  0.2985  0.0718 -0.1933
    2MPD1    C514094   0.206   1.505  16.265 -0.4470 -0.5096 -0.0059
    2MPD1     H14095   0.105   1.715  15.973 -1.1877 -0.8283  0.1854
    2MPD1    H114096   0.292   1.370  16.128  2.3502  1.2132 -0.2177
    2MPD1    H214097   0.111   1.651  16.395 -0.5008  0.8710 -1.0433
    2MPD1    H314098   0.242   1.446  16.348  0.8368  0.5963  0.2203
    2MPD1     N14099   0.192   1.498  15.899 -0.7783 -0.0254  0.0957
    2MPD1    H514100   0.133   1.554  15.839 -0.0963  0.1297 -0.4396
    2MPD1    N114101   0.064   1.837  16.205  0.1871 -0.3217  0.4414
    2MPD1    H614102   0.096   1.902  16.133  0.1693  0.2278  0.9311
    2MPD1    H714103   0.088   1.876  16.296  1.3520 -1.7600  0.7485
    1MPD1     C14104   0.642   4.272  12.192  0.2110  0.4324 -0.1064
    1MPD1    C114105   0.775   4.314  12.179 -0.5339 -0.2421 -0.3243
    1MPD1    C214106   0.841   4.316  12.057 -0.2644  0.6376  0.3543
    1MPD1    C314107   0.767   4.266  11.948  0.0125 -0.2939 -0.0087
    1MPD1    C414108   0.632   4.229  11.957 -0.0218  0.1610  0.1826
    1MPD1    C514109   0.578   4.232  12.083 -0.0636  0.3956 -0.0485
    1MPD1     H14110   0.941   4.355  12.047 -0.4758  1.7837  2.6696
    1MPD1    H114111   0.579   4.188  11.872  0.9840 -1.7033  0.4731
    1MPD1    H214112   0.598   4.277  12.291  0.7034 -0.1783  0.1393
    1MPD1    H314113   0.476   4.199  12.095 -0.2973  0.7361 -1.1318
    1MPD1     N14114   0.836   4.257  11.826 -0.2748 -0.0757  0.4548
    1MPD1    H514115   0.932   4.289  11.832  0.3393 -1.2298 -3.1599
    1MPD1    N114116   0.846   4.369  12.289  0.2262  0.9983 -0.2586
    1MPD1    H614117   0.942   4.389  12.263  0.2885 -0.1923 -0.9053
    1MPD1    H714118   0.847   4.318  12.377 -0.8430 -0.2786 -1.0012
    2MPD1     C14119   0.283   4.559  11.250 -0.3940  0.7132  0.1387
    2MPD1    C114120   0.242   4.523  11.123  0.2825 -1.1849  0.3012
    2MPD1    C214121   0.313   4.419  11.061 -0.1655 -0.5004  0.4621
    2MPD1    C314122   0.416   4.349  11.126 -0.4214  0.0764  0.5826
    2MPD1    C414123   0.443   4.388  11.252 -0.6147 -0.1236  0.1683
    2MPD1    C514124   0.381   4.495  11.315 -0.6999  0.2734  0.3316
    2MPD1     H14125   0.284   4.388  10.962 -0.1410 -0.2132  0.3661
    2MPD1    H114126   0.513   4.330  11.311 -1.6349 -0.4919  1.0172
    2MPD1    H214127   0.233   4.645  11.293 -0.6848  1.2790 -1.3375
    2MPD1    H314128   0.400   4.515  11.420  1.6692  0.9098 -0.2366
    2MPD1     N14129   0.477   4.236  11.071  0.5598  0.9649  0.0572
    2MPD1    H514130   0.540   4.191  11.136  2.7850  1.2045 -1.9466
    2MPD1    N114131   0.140   4.587  11.048 -0.4789 -0.4116 -0.1697
    2MPD1    H614132   0.069   4.623  11.113 -0.3519 -1.1798  0.3912
    2MPD1    H714133   0.102   4.524  10.978  1.4136  0.1005 -1.6389
    3MPD1     C14134   0.032   3.445  10.645  0.4442  0.1827  0.8086
    3MPD1    C114135   4.716   3.499  10.763  1.3580 -0.0802  0.0078
    3MPD1    C214136   0.081   3.577  10.827 -0.0232 -0.1115  0.2862
    3MPD1    C314137   0.209   3.599  10.778 -0.0636 -0.0564  0.3914
    3MPD1    C414138   0.248   3.545  10.653  0.1622 -0.1680  0.0646
    3MPD1    C514139   0.153   3.470  10.589  0.1113  0.3776 -0.1380
    3MPD1     H14140   0.054   3.621  10.922  0.9630  0.6387  0.2272
    3MPD1    H114141   0.346   3.560  10.609  0.7627 -2.1835  0.7016
    3MPD1    H214142   4.684   3.385  10.588 -0.8434  2.2303  0.2378
    3MPD1    H314143   0.182   3.410  10.503  0.0124 -0.6698  0.5681
    3MPD1     N14144   0.296   3.679  10.851 -0.0784 -0.6358  0.7879
    3MPD1    H514145   0.251   3.727  10.928 -2.8159  0.5596 -1.5231
    3MPD1    N114146   4.600   3.449  10.828  0.1481  0.3936 -0.4378
    3MPD1    H614147   4.522   3.407  10.778 -0.2688 -0.5311  0.9752
    3MPD1    H714148   4.563   3.510  10.901  1.1310 -0.2415  0.5987
    4MPD2     C14149   0.799   4.418  10.990 -0.5850 -0.8117  0.1974
    4MPD2    C114150   0.894   4.450  11.079  0.3006  0.5828 -0.0417
    4MPD2    C214151   0.954   4.579  11.064 -0.7050 -0.5665  0.1647
    4MPD2    C314152   0.928   4.671  10.962 -0.5415 -0.0292  0.6022
    4MPD2    C414153   0.821   4.635  10.881 -0.0142  0.5071  0.1305
    4MPD2    C514154   0.753   4.511  10.891 -0.3894  0.4743  0.3790
    4MPD2     H14155   1.017   4.608  11.148  1.1560  0.4611 -1.6022
    4MPD2    H114156   0.784   4.704  10.806  0.8982 -0.1265 -0.9024
    4MPD2    H214157   0.746   4.323  10.992  0.2284 -1.2341  1.5795
    4MPD2    H314158   0.666   4.493  10.828 -0.4939  1.3071  0.2866
    4MPD2     N14159   0.991   0.078  10.939  0.0878  0.0678 -0.0827
    4MPD2    H514160   0.951   0.149  10.878 -1.8489 -1.0591 -0.0985
    4MPD2    N114161   0.932   4.370  11.196 -0.2799 -0.8759 -0.0901
    4MPD2    H714162   1.008   4.408  11.252  0.2634 -3.1242  0.6932
    5TMC3    C114163   0.913   4.195  11.369 -0.1083 -0.3270  0.7622
    5TMC3    C214164   0.828   4.216  11.477 -0.7466 -0.2771 -0.3642
    5TMC3    C314165   0.885   4.237  11.600  0.3225 -0.3708  0.2774
    5TMC3    C414166   1.049   4.198  11.383  0.1593 -0.5936 -0.5339
    5TMC3    C514167   1.102   4.212  11.511  0.1007  0.4439 -0.1665
    5TMC3    C614168   1.016   4.234  11.621 -0.5430 -0.1967 -0.9000
    5TMC3     C14169   0.860   4.261  11.246  0.5620  0.4974  0.5389
    5TMC3     O14170   0.747   4.226  11.214 -0.5063 -0.4597 -0.5343
    5TMC3     H14171   0.724   4.234  11.451 -1.1856 -1.5336  0.5008
    5TMC3    H114172   1.111   4.196  11.295  3.6371  0.9082  1.8824
    5TMC3    H214173   1.058   4.236  11.721 -1.0508  0.9233 -0.7184
    5TMC3    C714174   1.244   4.257  11.519  0.9596 -0.5009  0.0765
    5TMC3    C814175   0.786   4.226  11.701 -0.2852 -0.6604 -0.4815
    5TMC3    O114176   1.309   4.220  11.419  0.7552 -0.1214 -0.3587
    5TMC3    O214177   0.676   4.184  11.668 -0.9332  0.4335 -0.2052
    6TMC3    C114178   0.512   4.040  10.933 -0.3338 -0.2889  0.7016
    6TMC3    C214179   0.430   3.934  10.903  0.3524 -0.5169  0.3598
    6TMC3    C314180   0.481   3.805  10.908 -0.1041  0.5105 -0.1287
    6TMC3    C414181   0.638   4.030  10.963 -0.0097  0.0536 -0.7370
    6TMC3    C514182   0.686   3.904  10.975 -0.0689  0.0076 -0.1468
    6TMC3    C614183   0.611   3.796  10.948 -0.3138  0.0759 -0.8512
    6TMC3     C14184   0.441   4.165  10.957 -0.6472  0.8065 -0.2511
    6TMC3     O14185   0.361   4.189  10.866 -0.3646 -0.1357  0.1390
    6TMC3     H14186   0.324   3.941  10.883  0.2245  0.8528  1.5065
    6TMC3    H114187   0.683   4.121  11.001  0.3470 -0.7693  0.7931
    6TMC3    H214188   0.663   3.701  10.952 -0.2046  0.2121  0.6395
    6TMC3    C714189   0.824   3.891  11.012  0.4834  0.0050 -0.4653
    6TMC3    C814190   0.424   3.708  10.821 -0.7151  0.3975 -0.1326
    6TMC3    O114191   0.856   3.785  11.063  0.2680 -0.3449  0.6299
    6TMC3    O214192   0.496   3.660  10.733 -0.3040 -0.3879  0.6982
    7MPD2     C14193   1.418   0.005  11.541 -0.1877 -0.5364  0.2059
    7MPD2    C114194   1.423   4.632  11.441  0.3487 -0.2668  0.5363
    7MPD2    C214195   1.385   4.502  11.471 -0.2478  0.4781  0.4752
    7MPD2    C314196   1.337   4.475  11.591  0.0253 -0.1429 -0.4315
    7MPD2    C414197   1.330   4.570  11.690 -0.3060  0.7463 -0.1469
    7MPD2    C514198   1.373   4.699  11.663  0.2297  0.0760 -0.2613
    7MPD2     H14199   1.393   4.423  11.398 -1.3618  1.9898 -1.2692
    7MPD2    H114200   1.299   4.553  11.792 -0.4381 -3.0713 -0.8363
    7MPD2    H214201   1.436   0.110  11.518 -3.5791 -0.1222 -0.5146
    7MPD2    H314202   1.364   0.056  11.737 -0.5411 -0.2995  0.0327
    7MPD2     N14203   1.275   4.353  11.614  0.4332  0.0516 -0.2650
    7MPD2    H514204   1.223   4.353  11.700 -0.0719  1.2194 -0.5760
    7MPD2    N114205   1.459   4.676  11.308 -0.2827  0.9362  0.0896
    7MPD2    H714206   1.451   0.053  11.284  1.7403  1.2290  0.6269
    8TMC3    C114207   1.417   4.626  11.080 -0.7784 -0.2903  0.0051
    8TMC3    C214208   1.412   4.513  11.000  0.4051 -0.4161 -0.3377
    8TMC3    C314209   1.304   4.507  10.909  0.0215 -0.4704 -0.3978
    8TMC3    C414210   1.319   0.007  11.081 -0.3843 -0.3176  0.7009
    8TMC3    C514211   1.216   4.707  10.998 -0.0484  0.5875 -0.7733
    8TMC3    C614212   1.208   4.600  10.909  0.2572 -0.4167 -0.1832
    8TMC3     C14213   1.482   4.585  11.207 -0.5547  0.4668 -0.6287
    8TMC3     O14214   1.500   4.462  11.214  0.4835 -0.0968 -0.3830
    8TMC3     H14215   1.487   4.434  10.992 -0.0235 -0.9645  0.9353
    8TMC3    H114216   1.328   0.101  11.134 -2.1081  1.1777 -1.6395
    8TMC3    H214217   1.129   4.585  10.836  2.0077 -1.8747 -1.7579
    8TMC3    C714218   1.121   0.103  10.976  0.1350 -0.1947 -0.0066
    8TMC3    C814219   1.246   4.380  10.897  0.1511 -0.7032  0.7191
    8TMC3    O114220   1.171   0.216  10.982 -0.4032  0.1519 -0.2711
    8TMC3    O214221   1.157   4.360  10.813 -0.2679  1.1950 -0.3842
    9MPD2     C14222   1.270   4.097  11.123  0.2075  0.0275 -0.4759
    9MPD2    C114223   1.213   4.186  11.029  0.0856  0.2035  0.1172
    9MPD2    C214224   1.092   4.142  10.974 -0.1470  0.4261  0.1797
    9MPD2    C314225   1.031   4.027  11.022 -0.2473 -0.1554 -0.0720
    9MPD2    C414226   1.101   3.935  11.104  0.0336  0.2699 -0.0580
    9MPD2    C514227   1.225   3.966  11.144  1.1132  0.2045 -0.7693
    9MPD2     H14228   1.035   4.193  10.897  1.6218 -0.8532 -1.9834
    9MPD2    H114229   1.058   3.849  11.154 -0.7931  1.4932  1.3555
    9MPD2    H214230   1.364   4.131  11.166  0.1219 -0.2960 -0.0438
    9MPD2    H314231   1.280   3.919  11.225  2.5594  1.6338 -0.9356
    9MPD2     N14232   0.898   3.998  10.978  0.8106  0.5034 -0.1979
    9MPD2    H514233   0.852   4.067  10.919 -1.7437  0.0421  1.2155
    9MPD2    N114234   1.272   4.309  11.007  0.5213  0.8193 -0.3329
    9MPD2    H714235   1.349   4.335  11.067 -0.0668 -1.6434  1.4810
    1MPD1     C14236   1.193   3.333  16.009 -0.1053  0.2564 -0.1436
    1MPD1    C114237   1.164   3.359  16.141 -0.0035 -0.2055 -0.2869
    1MPD1    C214238   1.236   3.298  16.245  0.4693  0.2330  0.1841
    1MPD1    C314239   1.333   3.200  16.206 -0.7144  0.1482 -0.0291
    1MPD1    C414240   1.349   3.173  16.071 -0.0716  0.0840  0.4167
    1MPD1    C514241   1.271   3.232  15.974  0.3268  0.0815 -0.6552
    1MPD1     H14242   1.214   3.323  16.348 -2.1722  0.3770 -0.4297
    1MPD1    H114243   1.406   3.084  16.045 -1.2453  0.2398 -2.7702
    1MPD1    H214244   1.134   3.372  15.926 -1.8300 -1.6666  0.1688
    1MPD1    H314245   1.299   3.207  15.872  2.5535  0.9000 -0.2522
    1MPD1     N14246   1.410   3.126  16.300  0.1135  0.4867 -0.4486
    1MPD1    H514247   1.485   3.062  16.272 -1.5170 -1.3209 -0.6913
    1MPD1    N114248   1.084   3.468  16.183  0.2350 -0.5698  0.7201
    1MPD1    H614249   1.052   3.454  16.278  2.4311  1.9768  1.8451
    1MPD1    H714250   1.009   3.487  16.117  1.6037  1.9761 -0.1280
    2MPD1     C14251   1.359   3.095  17.303 -0.3370 -0.2412 -0.4399
    2MPD1    C114252   1.407   2.974  17.259  0.4825  1.0457  0.7350
    2MPD1    C214253   1.465   2.954  17.133 -0.2735 -0.5783 -0.4364
    2MPD1    C314254   1.464   3.063  17.043  0.0612  0.0644 -0.5819
    2MPD1    C414255   1.421   3.185  17.090  0.2997  0.2687  0.1809
    2MPD1    C514256   1.365   3.198  17.214 -0.0441  0.6601 -0.1749
    2MPD1     H14257   1.509   2.859  17.107  0.3086 -0.8332  1.4353
    2MPD1    H114258   1.424   3.276  17.031 -0.2184  0.3182  0.2293
    2MPD1    H214259   1.328   3.116  17.405  1.7284  1.3121 -0.1124
    2MPD1    H314260   1.344   3.296  17.255 -1.0959 -0.4530  1.9676
    2MPD1     N14261   1.506   3.061  16.906 -0.7095  0.4053 -0.3352
    2MPD1    H514262   1.485   3.147  16.856 -1.5365  0.2070 -0.3358
    2MPD1    N114263   1.424   2.867  17.358  0.1517  0.0447 -0.3501
    2MPD1    H614264   1.415   2.771  17.324 -0.1274 -0.1613  0.3035
    2MPD1    H714265   1.345   2.869  17.422 -0.0481 -1.5063 -0.5360
    3TCq2    C114266   1.563   2.954  16.841 -0.2364 -0.8487  0.9204
    3TCq2    O214267   1.601   2.845  16.888  0.4476 -0.4382 -0.0132
    3TCq2    C214268   1.593   2.989  16.700 -0.1334  0.1639  0.1203
    3TCq2    C314269   1.694   2.919  16.633  0.0898 -0.4367 -0.2410
    3TCq2    C414270   1.701   2.940  16.501 -0.3282 -0.7623 -0.4550
    3TCq2    C514271   1.617   3.024  16.435 -0.2045  0.3977 -0.5335
    3TCq2    C614272   1.506   3.076  16.499 -0.6832  0.0697 -0.0328
    3TCq2    C714273   1.501   3.066  16.636 -0.1618 -0.3951  0.6315
    3TCq2    C814274   1.402   3.145  16.436 -0.2709  0.0779 -0.2304
    3TCq2    O414275   1.320   3.202  16.505  0.2728  0.4063 -0.6932
    3TCq2    C914276   1.791   2.862  16.424 -0.3573  0.5546 -0.0322
    3TCq2    O514277   1.812   2.897  16.306  0.1671  0.1530  0.2045
    3TCq2    O614278   1.859   2.778  16.485 -0.1178 -0.0785  0.2138
    3TCq2    H214279   1.772   2.864  16.685 -0.1623  0.2646  0.8963
    3TCq2    H314280   1.644   3.032  16.330 -0.0631 -0.4761 -0.5624
    3TCq2    H414281   1.410   3.086  16.693 -0.5121  1.2979 -0.5137
    1TCq1    O114282   2.818   2.115  12.800 -0.3847 -0.6650  0.1335
    1TCq1    C114283   2.907   2.084  12.706  0.3868 -0.0801 -0.7190
    1TCq1    O214284   2.996   2.158  12.676 -0.7169  0.5266 -0.0844
    1TCq1    C214285   2.920   1.939  12.715 -0.3498  0.4666  0.0869
    1TCq1    C314286   2.822   1.843  12.701  0.3431  0.3832  0.7909
    1TCq1    C414287   2.858   1.719  12.660  0.0143 -0.1399  0.3858
    1TCq1    C514288   2.988   1.679  12.648  0.0368  0.0673 -0.3918
    1TCq1    C614289   3.083   1.770  12.687  0.2743  0.2442 -0.3660
    1TCq1    C714290   3.054   1.898  12.717  0.6447 -1.2810 -0.5666
    1TCq1    C814291   3.217   1.724  12.677  0.5531  0.8738 -1.3759
    1TCq1    O414292   3.249   1.634  12.601 -0.0746  0.1104 -0.2576
    1TCq1    C914293   2.751   1.649  12.606 -0.2495 -0.2570  0.4592
    1TCq1    O514294   2.633   1.687  12.638  0.3392  0.0496 -0.2868
    1TCq1    O614295   2.776   1.554  12.526 -0.0777 -0.1958 -0.2059
    1TCq1    H114296   2.753   2.050  12.835  0.5020 -0.4350  2.2126
    1TCq1    H214297   2.721   1.877  12.682  0.3660  0.7372  1.3039
    1TCq1    H314298   2.996   1.587  12.593  2.0653  0.9885 -1.6450
    1TCq1    H414299   3.128   1.975  12.738 -0.9261  0.2682 -0.6658
    2MPD2     C14300   3.517   1.721  12.684 -0.2178  0.3194 -0.3377
    2MPD2    C114301   3.436   1.783  12.779  0.2767 -0.0253  0.1980
    2MPD2    C214302   3.500   1.853  12.884  0.1296 -0.4725  0.2215
    2MPD2    C314303   3.642   1.852  12.897 -0.5117 -1.0824 -0.1251
    2MPD2    C414304   3.713   1.790  12.800 -0.5799  0.7213  0.6846
    2MPD2    C514305   3.654   1.728  12.693 -0.0976  0.2633  1.0821
    2MPD2     H14306   3.440   1.904  12.958  1.0400 -0.4267  0.9344
    2MPD2    H114307   3.819   1.806  12.790 -0.6514  1.2438  0.7230
    2MPD2    H214308   3.480   1.667  12.598 -0.2600  1.6574 -1.1537
    2MPD2    H314309   3.714   1.704  12.606 -3.4591 -1.9249 -0.6469
    2MPD2     N14310   3.695   1.928  13.004 -0.4552  0.2755 -0.0781
    2MPD2    H514311   3.638   1.993  13.057 -2.6453 -1.5001 -0.2578
    2MPD2    N114312   3.296   1.790  12.765  0.1042 -0.2780  0.3741
    2MPD2    H714313   3.243   1.846  12.831 -0.6795  0.7121 -1.1074
    3TCq1    O114314   3.784   2.340  13.461 -0.3715  0.4897  0.0392
    3TCq1    C114315   3.722   2.234  13.402 -0.5812  0.0044  0.2047
    3TCq1    O214316   3.601   2.227  13.392 -0.5555 -0.5468 -0.0900
    3TCq1    C214317   3.816   2.161  13.326  0.2903  0.0405 -0.8162
    3TCq1    C314318   3.948   2.158  13.362  0.6322 -0.2644 -0.3542
    3TCq1    C414319   4.038   2.099  13.285 -0.5255  0.1501 -0.4064
    3TCq1    C514320   4.000   2.042  13.170 -0.2667  0.3218 -0.6971
    3TCq1    C614321   3.866   2.033  13.139 -0.3973 -0.0189  0.7294
    3TCq1    C714322   3.776   2.096  13.212  0.4088  0.4908  0.3460
    3TCq1    C814323   3.826   1.932  13.035 -0.4699 -0.5286  0.0035
    3TCq1    O414324   3.916   1.869  12.984  0.1573  0.1716  0.3300
    3TCq1    C914325   4.176   2.098  13.324 -0.2823 -0.6705  0.1171
    3TCq1    O514326   4.200   2.113  13.445  0.0409 -0.5916  0.3546
    3TCq1    O614327   4.249   2.025  13.251 -0.1759 -0.0914  0.1165
    3TCq1    H114328   3.880   2.338  13.482 -0.3471 -0.7112 -0.1847
    3TCq1    H214329   3.982   2.203  13.455 -0.2848 -2.1911  0.9064
    3TCq1    H314330   4.081   2.001  13.111 -0.8044 -0.3451 -0.9700
    3TCq1    H414331   3.671   2.102  13.185  0.2264  1.3787  1.2536
    1MPD2     C14332   3.174   3.286  14.837 -0.5246 -0.0850  0.2834
    1MPD2    C114333   3.071   3.309  14.933 -0.5942 -0.9699 -0.6066
    1MPD2    C214334   2.979   3.210  14.958  0.1811 -0.0079  0.1894
    1MPD2    C314335   2.983   3.088  14.887  0.3703 -0.0770 -0.4081
    1MPD2    C414336   3.082   3.068  14.795 -0.1767 -0.4041  0.5317
    1MPD2    C514337   3.181   3.164  14.771 -0.4261 -0.0003  0.3078
    1MPD2     H14338   2.903   3.234  15.032  0.4519  1.0296  0.1398
    1MPD2    H114339   3.090   2.966  14.758 -1.9956 -0.1658 -0.5481
    1MPD2    H214340   3.245   3.366  14.823 -1.1969  0.2739 -1.0037
    1MPD2    H314341   3.265   3.146  14.706 -0.9793  0.4822 -0.5474
    1MPD2     N14342   2.880   2.991  14.891  0.0166  0.7506  0.2627
    1MPD2    H514343   2.870   2.921  14.818  0.9800  0.2037  0.6667
    1MPD2    N114344   3.047   3.430  15.001 -0.3599  0.1307 -0.2520
    1MPD2    H714345   2.953   3.433  15.040 -0.2347 -2.6971  0.2477
    2TMC3    C114346   3.056   3.649  15.067 -0.0262  0.2120  0.0545
    2TMC3    C214347   2.962   3.611  15.158 -0.1491 -0.5772 -0.1214
    2TMC3    C314348   2.867   3.706  15.187  0.4017  0.1728 -0.1009
    2TMC3    C414349   3.068   3.774  15.015 -0.2901 -0.1376  0.0818
    2TMC3    C514350   2.966   3.865  15.052 -1.0458  0.5862  0.5271
    2TMC3    C614351   2.866   3.829  15.130  0.1991 -0.7054 -0.2151
    2TMC3     C14352   3.132   3.542  15.003 -0.1356  0.3170  0.3114
    2TMC3     O14353   3.237   3.563  14.946  0.0256  0.0081  0.1603
    2TMC3     H14354   2.978   3.537  15.236  3.2442 -0.0567 -0.3081
    2TMC3    H114355   3.137   3.806  14.938  0.4518 -1.6917  0.0954
    2TMC3    H214356   2.796   3.906  15.161  1.5245 -0.1073  1.3445
    2TMC3    C714357   2.941   3.968  14.953  0.4751 -0.3613  0.1162
    2TMC3    C814358   2.760   3.668  15.278 -0.2854  0.2121  0.6238
    2TMC3    O114359   2.824   3.990  14.936  0.0808 -0.0948  0.3277
    2TMC3    O214360   2.701   3.760  15.330  0.6633  0.4682 -0.1405
    3TCq1    O114361   3.582   4.660  14.151 -0.0280 -0.3165 -0.1291
    3TCq1    C114362   3.580   4.525  14.131  0.8072 -0.0142 -0.4359
    3TCq1    O214363   3.539   4.480  14.029 -0.3517 -0.1444  0.5333
    3TCq1    C214364   3.578   4.460  14.265 -0.4324 -0.6879 -0.0903
    3TCq1    C314365   3.679   4.483  14.358 -0.1082 -0.0954  0.1817
    3TCq1    C414366   3.654   4.437  14.485 -0.0619 -0.6564  0.3377
    3TCq1    C514367   3.529   4.392  14.517  0.1576  0.2619 -0.9536
    3TCq1    C614368   3.432   4.378  14.424 -0.4075  0.4468  0.5986
    3TCq1    C714369   3.454   4.411  14.293  0.2873  0.1178  0.2020
    3TCq1    C814370   3.295   4.358  14.465  0.2448 -0.3722 -0.0760
    3TCq1    O414371   3.220   4.341  14.371  0.0289  0.1512  0.3771
    3TCq1    C914372   3.744   4.454  14.592  1.2145  0.0995  0.2534
    3TCq1    O514373   3.843   4.530  14.574 -0.0680  0.0798  0.5364
    3TCq1    O614374   3.738   4.369  14.683  0.2063 -0.2762 -0.1196
    3TCq1    H114375   3.573   4.687  14.245  3.2659  0.0836  0.0686
    3TCq1    H214376   3.778   4.520  14.332 -0.1725 -0.2073 -0.2238
    3TCq1    H314377   3.511   4.351  14.616 -0.0918 -1.5847 -1.7697
    3TCq1    H414378   3.372   4.416  14.222 -0.8778 -1.2720  1.4598
    4MPD2     C14379   3.050   4.321  14.611  0.1712 -0.0962  0.0477
    4MPD2    C114380   3.165   4.275  14.656  0.1428  0.9686  0.3018
    4MPD2    C214381   3.164   4.189  14.767 -0.6765  0.2250 -0.8323
    4MPD2    C314382   3.045   4.130  14.807  0.0280  0.0029 -0.0682
    4MPD2    C414383   2.931   4.172  14.747  0.6266 -0.4151 -0.0365
    4MPD2    C514384   2.927   4.277  14.659  0.0165  0.3757 -0.2570
    4MPD2     H14385   3.254   4.155  14.816 -0.0016  2.2630 -0.6471
    4MPD2    H114386   2.833   4.134  14.772 -0.0249  1.7672  0.6880
    4MPD2    H214387   3.045   4.395  14.533  1.5949 -1.8047 -1.6740
    4MPD2    H314388   2.831   4.312  14.621 -0.0628  0.4678  0.0271
    4MPD2     N14389   3.050   4.027  14.905  0.5293 -0.1172  0.2715
    4MPD2    H514390   3.138   4.019  14.955  0.3365  1.3322  0.8238
    4MPD2    N114391   3.284   4.318  14.597 -0.4669 -0.5295  0.1139
    4MPD2    H714392   3.373   4.295  14.642  0.5643  2.5931 -0.3162
    5TMC2    C114393   2.453   2.956  15.027 -0.0160  0.8673  0.3079
    5TMC2    C214394   2.397   2.953  14.908  0.1204  0.6836 -0.3548
    5TMC2    C314395   2.479   2.919  14.804  0.2047  0.3031 -0.5041
    5TMC2    C414396   2.578   2.924  15.060  0.4536 -0.3776 -0.3382
    5TMC2    C514397   2.663   2.918  14.957 -0.3760 -0.7885 -0.0089
    5TMC2    C614398   2.612   2.908  14.824 -0.1737 -0.0468 -0.4700
    5TMC2     C14399   2.402   3.068  15.103  0.5750 -0.0218 -0.1957
    5TMC2     O14400   2.282   3.085  15.111 -0.1939  0.0375 -0.3554
    5TMC2     H14401   2.296   2.985  14.886 -0.4262  0.2822  1.5757
    5TMC2    H114402   2.615   2.932  15.162  0.8629  1.1652 -0.6092
    5TMC2    H214403   2.674   2.899  14.735  0.1612 -0.5440 -0.1832
    5TMC2    C714404   2.775   3.003  14.980 -0.1706  0.7068 -0.4562
    5TMC2    C814405   2.426   2.909  14.667 -0.4037  0.0411  0.7736
    5TMC2    O114406   2.761   3.084  15.066 -0.5123 -0.3066  0.9222
    5TMC2    O214407   2.490   2.923  14.562 -0.1493  0.5975 -0.2161
    5TMC2    O514408   2.311   2.843  14.675  0.0071  0.0425  0.0730
    5TMC2    H514409   2.287   2.824  14.768  2.0390  1.0968  0.8309
    6MPD2     C14410   2.503   3.524  15.332  0.1973 -0.0456 -0.3035
    6MPD2    C114411   2.620   3.468  15.283 -0.8885 -0.6844 -0.6401
    6MPD2    C214412   2.609   3.341  15.229  0.2367  0.0981  0.8632
    6MPD2    C314413   2.494   3.277  15.209 -0.2967  0.3712 -0.1149
    6MPD2    C414414   2.375   3.330  15.258  0.3443 -0.7362  0.0118
    6MPD2    C514415   2.386   3.446  15.322  1.0743 -0.2636 -0.5288
    6MPD2     H14416   2.698   3.288  15.195  0.3654 -0.3224  1.8755
    6MPD2    H114417   2.275   3.289  15.247  0.0881  0.3414 -1.8656
    6MPD2    H214418   2.504   3.623  15.376  0.0545  0.8549 -2.3182
    6MPD2    H314419   2.293   3.479  15.365  0.9508 -0.9633 -0.2548
    6MPD2     N14420   2.507   3.150  15.147 -0.9190 -0.3158  0.0394
    6MPD2    H514421   2.599   3.122  15.112 -1.6490  0.5587 -2.6335
    6MPD2    N114422   2.744   3.535  15.265  0.6098  0.0083  0.2096
    6MPD2    H714423   2.812   3.486  15.207  0.6239  0.0111  0.2237
  945NH4     N114424   4.176   3.506  13.012 -0.2802 -0.2225 -0.2319
  945NH4     H214425   4.096   3.522  12.948  0.7577 -0.5661 -1.6053
  945NH4     H314426   4.142   3.451  13.094 -0.0427  0.8930  0.6103
  945NH4     H414427   4.214   3.596  13.046  2.0371 -1.2167 -0.1916
  945NH4     H514428   4.253   3.454  12.966 -1.6435 -1.0354 -1.6080
  946SOD     NA14429   3.102   4.153   2.567  0.2097  0.2821 -0.0558
  947SOD     NA14430   4.246   3.890  14.519 -0.1180  0.1239  0.2460
  948SOD     NA14431   0.392   1.831   3.662 -0.3642 -0.6842 -0.0169
  949SOD     NA14432   0.702   3.179   4.042  0.0436  0.0876 -0.2441
  950SOD     NA14433   2.642   3.906  15.487 -0.2394  0.2527  0.1657
  951SOD     NA14434   1.040   3.071   1.260  0.4580  0.1262 -0.0356
  952SOD     NA14435   3.095   1.447   9.843 -0.1250  0.4268  0.0674
  953SOD     NA14436   2.824   4.084  12.078  0.0815 -0.7471 -0.3268
  954SOD     NA14437   0.581   0.979  12.200 -0.0255  0.0827 -0.1773
  955SOD     NA14438   0.740   1.043   0.327 -0.6023 -0.2660  0.3175
  956SOD     NA14439   1.915   0.010   1.666 -0.0561 -0.0228  0.4134
  957SOD     NA14440   0.919   1.943  14.219 -0.2202 -0.5692  0.6016
  958SOD     NA14441   3.269   1.208   9.691 -0.3085  1.0429 -0.1547
  959SOD     NA14442   3.524   0.566  11.268 -0.3877 -0.1598  0.4674
  960SOD     NA14443   0.053   3.031  15.976 -0.7201  0.0721  0.1762
  961SOD     NA14444   4.201   2.126  13.647 -0.2472  0.6548 -0.1719
  962SOD     NA14445   0.465   3.938  17.169  0.6334 -0.0120  0.2191
  963SOD     NA14446   1.310   4.614   4.099  0.2867 -0.5085  0.0195
  964SOD     NA14447   3.954   2.995  11.989  0.0662  0.4282 -0.9449
  965SOD     NA14448   3.922   2.311  11.423 -0.1105 -0.1691  0.5906
  966SOD     NA14449   2.409   1.166   9.352 -0.5646  0.0825 -0.0833
  967SOD     NA14450   3.255   1.812  10.453 -0.3090 -0.0817  0.2567
  968SOD     NA14451   1.030   1.653   9.619 -0.2601 -0.1099  0.5626
  969SOD     NA14452   1.438   2.949  14.181  0.3602  0.5258 -0.6444
  970SOD     NA14453   0.021   1.198   7.983 -0.0126  0.2334  0.3160
  971SOD     NA14454   2.645   1.448  12.396  0.1685 -0.1653 -0.0840
  972SOD     NA14455   2.555   1.012  10.545  0.0838  0.1670  0.4566
  973SOD     NA14456   3.250   3.332  10.604 -0.0173 -0.0681  0.3501
  974SOD     NA14457   0.990   1.254   0.645  0.2556 -0.0286  0.0738
  975SOD     NA14458   4.162   0.603  10.278 -0.4099  0.0404 -0.3692
  976SOD     NA14459   0.772   3.180  13.555  0.2787 -0.2994 -0.3369
  977SOD     NA14460   0.617   3.019  14.524  0.1440 -0.0795  0.1175
  978SOD     NA14461   3.756   3.971  10.715  0.2684 -0.5313 -0.0128
  979SOD     NA14462   1.091   2.398  16.154  0.2292  0.1719 -0.3277
  980SOD     NA14463   3.266   0.174  16.635 -0.5024 -0.3196  0.2282
  981SOD     NA14464   0.863   1.330   2.681 -0.5200 -0.2615  0.0837
  982SOD     NA14465   3.960   2.821   1.564 -0.3393  0.3133 -0.1041
  983SOD     NA14466   1.682   4.083   9.655  0.2049 -0.1796  0.1490
  984SOD     NA14467   0.687   4.338   7.851  0.0602 -0.3001 -0.4250
  985SOD     NA14468   4.662   1.022   9.550  0.6593  0.2105 -0.4389
  986SOD     NA14469   2.361   1.780  14.747 -0.1305  0.0908  0.0101
  987SOD     NA14470   1.827   2.888  15.601  0.0317  0.0189  0.0130
  988SOD     NA14471   3.903   1.175  12.547  0.1477 -0.3708  0.0604
  989SOD     NA14472   4.299   1.618  12.331 -0.2877 -0.3579 -0.1336
  990SOD     NA14473   1.149   1.520   1.369 -0.1929 -0.4148  0.1483
  991SOD     NA14474   4.523   3.098  15.870 -0.6571 -0.2137  0.0171
  992SOD     NA14475   2.661   1.343  13.167  0.0791  0.1709  0.3755
  993SOD     NA14476   4.421   2.028  13.424 -0.2887  0.2059 -0.5594
  994SOD     NA14477   2.713   4.276  16.190  0.0673 -0.0604 -0.4035
  995SOD     NA14478   2.326   1.680  17.625  0.2010 -0.3868  0.1978
  996SOD     NA14479   2.102   1.754  12.990  0.2583 -0.0542 -0.1041
  997SOD     NA14480   0.858   3.247   5.137  0.1180  0.0432  0.3195
  998SOD     NA14481   2.373   1.240  10.897  0.0951 -0.5537  0.3277
  999SOD     NA14482   3.207   1.219  10.058 -0.3488  0.3575 -0.3285
 1000SOD     NA14483   4.005   2.043  11.500 -0.0996  0.3091 -0.2337
 1001SOD     NA14484   0.133   0.965  12.992 -0.5136 -0.0428 -0.2348
 1002SOD     NA14485   0.151   2.881   3.009 -0.0186 -0.1748  0.2057
 1003SOD     NA14486   3.114   0.911  10.091 -0.1155  0.2668 -0.2124
 1004SOD     NA14487   2.939   3.416   0.284 -0.6909 -0.4992 -0.3334
 1005SOD     NA14488   4.412   0.705  16.272 -0.2624 -0.4591 -0.4560
 1006SOD     NA14489   4.647   2.352  10.713  0.0790  0.1853 -0.2019
 1007SOD     NA14490   2.399   2.630  12.458 -0.1290 -0.3440  0.2153
 1008SOD     NA14491   3.618   1.978   7.863  0.1009  0.2052  0.6395
 1009SOD     NA14492   0.108   3.070  10.996  0.1246  0.4826  0.2016
 1010SOD     NA14493   2.863   0.929   4.675  1.0287 -0.2179 -0.0386
 1011SOL     OW14494   1.248   1.700   3.779 -0.0056 -0.0456 -0.1883
 1011SOL    HW114495   1.203   1.782   3.800 -0.9813 -0.0112 -2.3922
 1011SOL    HW214496   1.316   1.708   3.845  0.8359 -0.9208 -0.9628
 1012SOL     OW14497   3.675   1.162   6.165 -0.2089 -0.1086 -0.0963
 1012SOL    HW114498   3.764   1.146   6.136 -0.6579 -3.7727  0.5647
 1012SOL    HW214499   3.652   1.074   6.193 -3.3822  0.6088 -0.4111
 1013SOL     OW14500   2.294   3.729   9.723 -0.3031 -0.4851 -0.5776
 1013SOL    HW114501   2.285   3.634   9.723 -1.1076 -0.4154  0.1805
 1013SOL    HW214502   2.202   3.755   9.735  0.7056  2.9465 -0.0287
 1014SOL     OW14503   4.301   1.049   7.716 -0.2368 -0.1864 -0.4319
 1014SOL    HW114504   4.305   0.998   7.635 -2.3453 -0.8533 -0.1304
 1014SOL    HW214505   4.276   0.981   7.779  3.2104 -2.4393 -1.4588
 1015SOL     OW14506   4.202   1.222   7.991  0.2256 -0.7040 -0.5292
 1015SOL    HW114507   4.163   1.287   8.050  0.0164 -2.3717  1.1594
 1015SOL    HW214508   4.151   1.249   7.915  0.7501  0.4833 -0.4699
 1016SOL     OW14509   3.368   3.295   4.718  0.0023  0.1711  0.4459
 1016SOL    HW114510   3.279   3.292   4.754 -0.2816 -2.2257 -0.4322
 1016SOL    HW214511   3.367   3.332   4.630  0.6837 -0.2210  0.2679
 1017SOL     OW14512   4.027   0.711   8.675 -0.0524  0.0126  0.0501
 1017SOL    HW114513   4.016   0.684   8.766  0.6978 -0.6745 -0.0632
 1017SOL    HW214514   3.945   0.670   8.645  1.0143 -2.6883  0.8426
 1018SOL     OW14515   3.030   0.690  11.355  0.4595  0.3352  0.3091
 1018SOL    HW114516   3.002   0.767  11.304  0.7260  0.3593  0.2035
 1018SOL    HW214517   3.075   0.639  11.288 -1.0907 -1.6695  0.8025
 1019SOL     OW14518   3.784   2.442  10.970 -0.1680 -0.0431 -0.1198
 1019SOL    HW114519   3.754   2.363  11.015 -1.0365 -0.7459 -1.9318
 1019SOL    HW214520   3.758   2.496  11.044  2.7297  1.4406 -0.1498
 1020SOL     OW14521   1.178   2.885   4.147 -1.1727  0.3199  0.3738
 1020SOL    HW114522   1.220   2.824   4.087 -0.1908  0.8686  0.4906
 1020SOL    HW214523   1.149   2.827   4.217  1.4069 -2.3479 -0.7773
 1021SOL     OW14524   3.428   3.528   7.666 -0.7191  0.3762  0.0839
 1021SOL    HW114525   3.463   3.563   7.584 -1.8337  0.4990 -0.3528
 1021SOL    HW214526   3.451   3.601   7.722 -0.1950 -0.0149  0.3719
 1022SOL     OW14527   4.076   0.957   5.667  0.5272  0.5886  0.2271
 1022SOL    HW114528   4.020   1.030   5.639  0.1221 -0.0360 -0.5685
 1022SOL    HW214529   4.041   0.889   5.610  0.2875  0.8387  0.0709
 1023SOL     OW14530   3.387   1.249   5.304 -0.0771  0.2600 -0.7477
 1023SOL    HW114531   3.335   1.325   5.332 -0.3709 -0.1536 -0.1676
 1023SOL    HW214532   3.376   1.257   5.210 -0.1074 -3.3340 -1.0404
 1024SOL     OW14533   2.367   1.767   8.456 -0.9390 -0.9288 -0.5800
 1024SOL    HW114534   2.279   1.748   8.423 -1.3472 -0.1653  0.0670
 1024SOL    HW214535   2.375   1.692   8.515 -1.4827  1.4552  2.5073
 1025SOL     OW14536   2.562   4.359   5.789  0.7935 -0.4975 -0.3893
 1025SOL    HW114537   2.561   4.446   5.750  2.1382 -0.6569 -0.7702
 1025SOL    HW214538   2.501   4.375   5.861  1.1770 -1.2599  0.1108
 1026SOL     OW14539   1.666   2.524   3.648 -0.3888 -0.1439  0.2563
 1026SOL    HW114540   1.711   2.501   3.566  0.2396  2.1789 -0.0752
 1026SOL    HW214541   1.677   2.619   3.649  2.3206 -0.4374 -1.9615
 1027SOL     OW14542   2.966   3.320   4.589  0.3641  0.1418 -0.0559
 1027SOL    HW114543   2.968   3.253   4.520  0.9627 -0.3762  0.4671
 1027SOL    HW214544   3.014   3.286   4.665 -0.1132 -2.4404 -0.9042
 1028SOL     OW14545   2.377   1.817   6.736 -0.0802 -0.0546 -0.9632
 1028SOL    HW114546   2.329   1.878   6.793  2.8880 -0.1416  1.6311
 1028SOL    HW214547   2.372   1.866   6.654  0.2791 -2.1088 -2.1909
 1029SOL     OW14548   0.224   3.499   6.448  0.4027 -0.1179  0.0514
 1029SOL    HW114549   0.178   3.583   6.451  2.3335  0.9605 -0.6895
 1029SOL    HW214550   0.158   3.449   6.400  0.8095 -0.7635  0.1646
 1030SOL     OW14551   1.335   0.758  11.884  0.3136  0.4871 -1.0069
 1030SOL    HW114552   1.339   0.849  11.916  2.6850 -0.0987  0.3566
 1030SOL    HW214553   1.255   0.770  11.833 -1.0315  0.8178  1.2083
 1031SOL     OW14554   3.319   3.135   6.604  0.5016 -0.2271 -0.5797
 1031SOL    HW114555   3.360   3.056   6.568 -0.3882 -0.9935  0.0951
 1031SOL    HW214556   3.233   3.101   6.631 -0.6419  2.1372 -1.2394
 1032SOL     OW14557   3.868   1.611  13.105 -0.1383  0.2129  0.0505
 1032SOL    HW114558   3.932   1.629  13.174 -1.5518 -0.4851  1.5196
 1032SOL    HW214559   3.876   1.697  13.063  0.8095  0.2866  0.3701
 1033SOL     OW14560   2.236   4.574   0.200 -0.4398  0.6262  0.2582
 1033SOL    HW114561   2.300   4.616   0.256  0.1964  1.7683 -1.3289
 1033SOL    HW214562   2.178   4.538   0.268  0.8816  0.2015  1.1534
 1034SOL     OW14563   1.244   4.557   2.328  0.0418 -0.4859 -0.1281
 1034SOL    HW114564   1.203   4.508   2.399  2.0402 -2.6839 -0.4861
 1034SOL    HW214565   1.167   4.572   2.274 -0.5155  0.2949  0.9011
 1035SOL     OW14566   0.121   2.070   2.328  0.3544 -0.2488 -0.4261
 1035SOL    HW114567   0.205   2.082   2.283 -0.0900  0.0403 -1.1878
 1035SOL    HW214568   0.142   2.131   2.399  2.1786 -0.4175 -0.8240
 1036SOL     OW14569   3.338   3.432   0.467  0.0705  0.9679  0.1238
 1036SOL    HW114570   3.390   3.392   0.397 -2.4073 -0.2931 -0.9982
 1036SOL    HW214571   3.403   3.499   0.486  0.2885  0.8103 -0.0576
 1037SOL     OW14572   2.273   0.341   3.509  0.2896  0.1247 -0.8096
 1037SOL    HW114573   2.227   0.335   3.426 -0.1000 -0.1154 -0.5787
 1037SOL    HW214574   2.305   0.430   3.494  0.5567 -0.4755 -3.6691
 1038SOL     OW14575   2.022   3.579   2.883  0.2315 -0.6970  0.1894
 1038SOL    HW114576   2.083   3.506   2.891  0.2379 -0.6794  0.3045
 1038SOL    HW214577   2.069   3.662   2.875 -0.5984 -0.3188 -0.7181
 1039SOL     OW14578   4.114   1.745   6.076  0.8142  0.1562 -0.1349
 1039SOL    HW114579   4.085   1.817   6.020 -0.4705  1.4351  2.1614
 1039SOL    HW214580   4.168   1.786   6.144 -0.9104 -0.7508  1.7979
 1040SOL     OW14581   3.815   4.544   4.804  0.8823  0.3987 -0.0638
 1040SOL    HW114582   3.770   4.573   4.883 -0.7255 -1.2316 -0.3817
 1040SOL    HW214583   3.866   4.466   4.828 -0.6251 -1.1089 -1.7976
 1041SOL     OW14584   3.505   4.089   2.674  0.3479  0.6243 -0.2156
 1041SOL    HW114585   3.584   4.111   2.625 -0.4632 -0.8258 -2.2050
 1041SOL    HW214586   3.436   4.135   2.625 -0.2079  0.5756  0.5236
 1042SOL     OW14587   4.289   4.414  10.346 -0.3508 -0.1460  0.6240
 1042SOL    HW114588   4.248   4.358  10.412 -0.1555 -1.2737 -0.2198
 1042SOL    HW214589   4.334   4.479  10.401 -0.4051  0.8691 -0.5524
 1043SOL     OW14590   0.850   4.706   2.523 -0.0932 -0.3802 -0.0859
 1043SOL    HW114591   0.885   0.014   2.439 -0.0993  0.8626  0.3404
 1043SOL    HW214592   0.757   4.714   2.505  0.5537  3.2211 -1.7089
 1044SOL     OW14593   3.455   2.295   7.157 -0.4703  0.2492 -0.6310
 1044SOL    HW114594   3.461   2.364   7.224  1.2934 -0.4166 -0.0876
 1044SOL    HW214595   3.403   2.338   7.090  0.4881 -0.7248 -2.0074
 1045SOL     OW14596   2.929   3.308   7.100  0.2333 -0.0214  0.1062
 1045SOL    HW114597   3.007   3.348   7.062  0.4485 -0.8512 -0.3372
 1045SOL    HW214598   2.893   3.386   7.142  1.8665 -0.0138  1.5083
 1046SOL     OW14599   4.597   0.163   6.829 -0.0260  0.2888 -0.0592
 1046SOL    HW114600   4.593   0.112   6.910 -3.0634 -0.9061 -0.9558
 1046SOL    HW214601   4.689   0.140   6.817 -0.9358 -2.5751 -1.4606
 1047SOL     OW14602   3.530   0.292   7.471 -0.7894 -0.7842 -0.3700
 1047SOL    HW114603   3.597   0.322   7.410  0.9803 -0.7536  1.5951
 1047SOL    HW214604   3.577   0.211   7.488  1.7688  0.5536 -1.0185
 1048SOL     OW14605   0.999   1.163  16.871 -0.1071  0.1583  0.1561
 1048SOL    HW114606   0.939   1.176  16.945  1.9848  3.0965  1.3540
 1048SOL    HW214607   0.938   1.156  16.798 -1.2284  0.0116  1.1029
 1049SOL     OW14608   4.603   2.058   5.562 -0.0539  0.4700  0.0814
 1049SOL    HW114609   4.583   2.007   5.484  3.7128  0.3656 -0.8467
 1049SOL    HW214610   4.685   2.015   5.590 -0.6446  0.4290  1.7623
 1050SOL     OW14611   3.863   0.700   7.427 -0.0259 -0.8043 -0.6841
 1050SOL    HW114612   3.839   0.685   7.336  0.0591 -0.5822 -0.7456
 1050SOL    HW214613   3.783   0.746   7.453 -0.9067 -1.7926 -1.6587
 1051SOL     OW14614   1.831   3.560   3.575  0.7891 -0.3088 -0.7788
 1051SOL    HW114615   1.891   3.572   3.649  0.7638 -1.3657 -0.5741
 1051SOL    HW214616   1.872   3.481   3.539  2.2573  0.6405 -1.1621
 1052SOL     OW14617   2.654   3.084   3.320  0.1960  0.5148  0.1665
 1052SOL    HW114618   2.627   3.107   3.409 -0.5187 -3.3130  0.9494
 1052SOL    HW214619   2.615   2.996   3.315 -0.3894  0.7257  1.1242
 1053SOL     OW14620   0.122   3.051   3.364 -0.5741 -0.7697  0.2762
 1053SOL    HW114621   0.107   3.128   3.310  2.4403  0.8109  1.6834
 1053SOL    HW214622   0.168   2.996   3.301 -1.9650  1.8166 -2.9832
 1054SOL     OW14623   2.194   0.911   2.090  0.0332 -0.7411 -0.0902
 1054SOL    HW114624   2.229   0.852   2.157  1.1746  0.0687  0.0329
 1054SOL    HW214625   2.102   0.897   2.114  0.3437 -2.3277  0.1682
 1055SOL     OW14626   0.807   0.952  11.997  0.6399 -0.8298  0.0080
 1055SOL    HW114627   0.892   0.990  11.972 -0.3705  1.4262  0.0476
 1055SOL    HW214628   0.764   1.032  12.028 -0.9788 -1.7633  0.1310
 1056SOL     OW14629   0.989   2.608  16.085 -0.4513  0.5501  0.0125
 1056SOL    HW114630   0.971   2.702  16.090  0.6707  0.8298 -1.2547
 1056SOL    HW214631   0.908   2.576  16.046  0.2317  0.0934 -1.0320
 1057SOL     OW14632   1.468   3.952   9.054  0.5434  0.0510  0.0790
 1057SOL    HW114633   1.443   3.934   9.144 -0.4361  0.3391 -0.1371
 1057SOL    HW214634   1.382   3.980   9.024 -0.2122 -0.4084  1.8271
 1058SOL     OW14635   3.749   1.484   9.334  0.0666  0.0502  0.0581
 1058SOL    HW114636   3.766   1.523   9.249  0.3076 -2.1773 -0.9279
 1058SOL    HW214637   3.722   1.396   9.306  1.1337  0.0358 -0.9106
 1059SOL     OW14638   3.913   4.166   6.572 -0.7073 -0.9116  0.2386
 1059SOL    HW114639   3.969   4.204   6.503 -3.3139  2.6578  0.0966
 1059SOL    HW214640   3.835   4.137   6.525 -0.5630 -1.3210  0.2499
 1060SOL     OW14641   4.321   0.797   6.488 -0.4231  0.4130  0.9843
 1060SOL    HW114642   4.412   0.777   6.511 -0.4836  0.3611  1.1789
 1060SOL    HW214643   4.306   0.887   6.517  0.2700  1.5121 -1.9741
 1061SOL     OW14644   1.398   2.232   6.021 -0.4401 -0.4917  0.4208
 1061SOL    HW114645   1.368   2.301   5.961 -0.7769 -0.5672  0.5010
 1061SOL    HW214646   1.425   2.172   5.952 -0.8523  0.2223 -0.3740
 1062SOL     OW14647   0.122   4.520   8.366  1.1980  0.1326  0.2577
 1062SOL    HW114648   0.064   4.561   8.431  1.1791 -0.0640  0.3647
 1062SOL    HW214649   0.180   4.479   8.430 -1.1800 -0.3694  2.1071
 1063SOL     OW14650   1.652   3.202  13.948 -0.2330 -0.3685  0.0371
 1063SOL    HW114651   1.648   3.112  13.914 -1.1486  0.0158 -0.8848
 1063SOL    HW214652   1.741   3.191  13.982 -0.1447 -0.2996 -0.1696
 1064SOL     OW14653   2.803   0.374   6.157  0.0841 -1.1413 -0.6248
 1064SOL    HW114654   2.729   0.326   6.118 -0.7828 -0.1945 -0.1565
 1064SOL    HW214655   2.871   0.307   6.162  1.6196  0.5042  0.4647
 1065SOL     OW14656   1.907   3.242   3.875  0.0125  0.2865 -0.3669
 1065SOL    HW114657   1.869   3.224   3.788  1.3189 -1.7351 -0.5307
 1065SOL    HW214658   1.954   3.322   3.852  0.9356 -0.5273 -1.3309
 1066SOL     OW14659   0.846   4.511  13.434  0.2308 -0.0564  0.1938
 1066SOL    HW114660   0.908   4.541  13.500 -0.8149 -0.5325  1.3832
 1066SOL    HW214661   0.889   4.497  13.349  0.6729 -1.3733  0.6316
 1067SOL     OW14662   3.235   2.090  10.108  0.1505 -0.3869 -0.0716
 1067SOL    HW114663   3.294   2.090  10.184 -1.0790 -0.6788  0.8712
 1067SOL    HW214664   3.299   2.068  10.040 -0.7800  0.0064 -1.0714
 1068SOL     OW14665   1.503   1.134  15.944  0.2262 -0.1664  0.3416
 1068SOL    HW114666   1.450   1.168  16.016  0.8555  0.9961  0.2552
 1068SOL    HW214667   1.480   1.196  15.875  0.5336 -1.6750 -1.1091
 1069SOL     OW14668   3.751   0.147   3.605 -0.2537 -0.7574  0.3965
 1069SOL    HW114669   3.822   0.175   3.662 -0.6734 -0.2282  0.6571
 1069SOL    HW214670   3.684   0.117   3.666 -1.4959 -1.5557 -1.3270
 1070SOL     OW14671   2.177   0.605  10.994  0.7897 -0.3869 -0.0748
 1070SOL    HW114672   2.129   0.612  11.077 -1.5480  1.4232 -1.5918
 1070SOL    HW214673   2.112   0.571  10.933  1.3728 -0.6088 -0.5809
 1071SOL     OW14674   4.418   4.333   6.311 -0.0711 -0.6923  0.7337
 1071SOL    HW114675   4.455   4.352   6.397  1.1419 -1.8568  0.4842
 1071SOL    HW214676   4.486   4.356   6.248 -1.0597 -1.8768 -0.7649
 1072SOL     OW14677   3.587   3.361   0.292 -0.7833 -0.1301 -0.7203
 1072SOL    HW114678   3.683   3.364   0.287 -0.6787 -0.4507  1.0072
 1072SOL    HW214679   3.557   3.388   0.205 -1.0487  0.1342 -0.5471
 1073SOL     OW14680   1.236   0.169   3.377  0.1355  0.4827 -0.2810
 1073SOL    HW114681   1.296   0.244   3.367  1.1972 -0.1980  0.9655
 1073SOL    HW214682   1.248   0.117   3.298  0.1788  0.8855 -0.5395
 1074SOL     OW14683   2.589   0.461  15.557  0.1556  0.6939  0.1665
 1074SOL    HW114684   2.515   0.500  15.603 -0.1154  1.2606 -0.7628
 1074SOL    HW214685   2.559   0.380  15.516 -0.3873  1.1342 -0.2960
 1075SOL     OW14686   0.504   0.517  13.129 -0.6318  0.3454  0.1760
 1075SOL    HW114687   0.555   0.545  13.053  0.2369  0.4151  0.7872
 1075SOL    HW214688   0.505   0.601  13.175 -1.2739  0.3218  0.2325
 1076SOL     OW14689   4.650   4.024   8.215 -0.1648 -0.2848  0.0001
 1076SOL    HW114690   4.668   3.999   8.124  0.4940 -1.5409  0.4885
 1076SOL    HW214691   4.618   4.114   8.208  0.2761 -0.0608  0.8821
 1077SOL     OW14692   3.337   3.126   3.073 -0.4904  0.1488 -0.0087
 1077SOL    HW114693   3.267   3.118   3.008  0.0626 -0.3687 -0.5338
 1077SOL    HW214694   3.329   3.038   3.110 -1.1168  0.2444  0.0927
 1078SOL     OW14695   2.886   2.877   7.324 -0.0355 -0.1558 -0.0909
 1078SOL    HW114696   2.843   2.886   7.409 -0.2754 -2.1998  0.0099
 1078SOL    HW214697   2.916   2.967   7.312 -2.2890  0.7482  0.9994
 1079SOL     OW14698   2.915   1.907   3.786  0.1203  0.4560 -0.0626
 1079SOL    HW114699   2.911   1.839   3.853  0.9408  1.1650  0.6966
 1079SOL    HW214700   3.009   1.921   3.775 -0.0062  1.1819 -0.2409
 1080SOL     OW14701   2.873   2.881  14.594 -0.6393  0.4035 -0.4463
 1080SOL    HW114702   2.943   2.910  14.536 -0.9828 -0.5414 -1.3354
 1080SOL    HW214703   2.904   2.793  14.614 -1.2791  0.4390  0.7264
 1081SOL     OW14704   1.804   3.987  11.893  0.0982 -0.1916 -0.6471
 1081SOL    HW114705   1.817   4.067  11.842  0.7851 -0.4866 -0.9305
 1081SOL    HW214706   1.709   3.985  11.907  0.2469 -0.2718  0.3997
 1082SOL     OW14707   0.627   3.372   2.933 -0.0101 -0.4940 -0.0295
 1082SOL    HW114708   0.582   3.388   3.016  0.5603 -0.7198  0.3218
 1082SOL    HW214709   0.714   3.398   2.962  0.5808  0.7989 -2.9769
 1083SOL     OW14710   1.141   1.470   5.008  0.5849  0.1409  0.0916
 1083SOL    HW114711   1.125   1.524   5.086 -1.0472  0.4093 -0.4436
 1083SOL    HW214712   1.050   1.458   4.980  0.3109  2.3453  0.0829
 1084SOL     OW14713   1.536   3.068  17.670  0.4588  0.4729  0.6716
 1084SOL    HW114714   1.475   3.126   0.028  1.4522  0.4042  2.1014
 1084SOL    HW214715   1.519   2.988   0.032  0.1683 -0.8897 -1.6297
 1085SOL     OW14716   4.464   3.718   3.881  0.5549 -1.1730 -0.1955
 1085SOL    HW114717   4.464   3.805   3.840 -0.3753 -1.0826  0.0044
 1085SOL    HW214718   4.417   3.737   3.962  2.7943 -0.0064  0.8293
 1086SOL     OW14719   1.113   4.101   1.227 -0.0930 -0.2935 -0.4125
 1086SOL    HW114720   1.072   4.188   1.236  0.5400 -0.2460  1.9891
 1086SOL    HW214721   1.037   4.055   1.262  1.0179 -3.1618 -1.8381
 1087SOL     OW14722   1.659   3.499  11.880  0.4184  0.2438  0.6479
 1087SOL    HW114723   1.708   3.487  11.961  0.6355  1.6223  0.7238
 1087SOL    HW214724   1.670   3.593  11.864  1.9367 -0.2230 -1.0718
 1088SOL     OW14725   3.532   3.585   5.701  0.3277  0.2919  0.3173
 1088SOL    HW114726   3.459   3.523   5.710  1.7586 -1.3499  0.6642
 1088SOL    HW214727   3.587   3.557   5.627  0.5262  2.3547 -0.3133
 1089SOL     OW14728   1.855   2.949  15.159  0.2453  0.6539  0.4385
 1089SOL    HW114729   1.891   3.022  15.210 -0.9087  0.3737  1.6332
 1089SOL    HW214730   1.797   2.924  15.231  2.3125  1.9467  2.5837
 1090SOL     OW14731   1.352   3.837   4.225 -0.2145 -0.1053 -0.0996
 1090SOL    HW114732   1.430   3.839   4.281 -0.5440  2.5646  0.2938
 1090SOL    HW214733   1.387   3.901   4.163 -1.6551  0.9910  0.2182
 1091SOL     OW14734   0.680   3.936   9.473 -0.2865  0.2369 -0.1390
 1091SOL    HW114735   0.708   3.911   9.385 -1.9581  0.6647 -0.7908
 1091SOL    HW214736   0.603   3.987   9.451 -0.7507 -0.3401  0.1428
 1092SOL     OW14737   3.528   4.009  12.548  0.0339  0.2884  0.4142
 1092SOL    HW114738   3.503   3.993  12.457  0.6005  2.9886 -0.2182
 1092SOL    HW214739   3.534   3.921  12.585  0.3586  0.2618  0.2987
 1093SOL     OW14740   4.257   1.995  10.780 -0.1962  0.2573 -0.0255
 1093SOL    HW114741   4.182   2.050  10.755  1.2869  1.1930 -2.3664
 1093SOL    HW214742   4.235   1.980  10.872 -0.2753  0.8674  0.0540
 1094SOL     OW14743   3.434   1.383   3.168  0.5250 -0.4351  0.2489
 1094SOL    HW114744   3.502   1.394   3.102  0.6072 -1.5883  0.1311
 1094SOL    HW214745   3.484   1.416   3.243 -1.1952  2.8485 -0.0351
 1095SOL     OW14746   4.663   2.981   6.779  0.1422  0.1872  0.4479
 1095SOL    HW114747   0.033   2.987   6.809  0.6117 -0.2951 -0.9185
 1095SOL    HW214748   4.656   2.886   6.786 -0.9679  0.0849 -2.4344
 1096SOL     OW14749   1.447   4.162   4.420  0.2384 -0.1059 -0.4330
 1096SOL    HW114750   1.461   4.084   4.366  0.6038  0.1146 -0.6572
 1096SOL    HW214751   1.363   4.144   4.463  0.9975 -2.2904  0.1010
 1097SOL     OW14752   3.786   4.214  16.841  0.3022  0.4142 -0.4432
 1097SOL    HW114753   3.790   4.243  16.749  2.5863  2.7649  0.3606
 1097SOL    HW214754   3.733   4.135  16.833  0.2505  0.3113  1.0198
 1098SOL     OW14755   4.451   0.494   2.202 -0.1303  0.3889  0.6157
 1098SOL    HW114756   4.363   0.473   2.231  0.0790 -0.1908  0.8171
 1098SOL    HW214757   4.442   0.571   2.145  0.3565  0.7932  1.0772
 1099SOL     OW14758   2.229   4.248   6.361  0.4201  0.2454  0.0101
 1099SOL    HW114759   2.266   4.169   6.400  1.4563 -0.3248 -2.1701
 1099SOL    HW214760   2.241   4.300   6.441 -4.6521  0.1844  0.8408
 1100SOL     OW14761   2.462   2.006   5.019 -0.1610 -0.6288 -0.4484
 1100SOL    HW114762   2.411   2.047   4.949 -0.4634  0.3707  0.3550
 1100SOL    HW214763   2.455   2.073   5.087  1.4369  0.1556 -1.0444
 1101SOL     OW14764   2.066   0.240   6.885  0.4785 -0.1435  0.2926
 1101SOL    HW114765   1.972   0.253   6.896  0.6732  0.2760  1.4819
 1101SOL    HW214766   2.073   0.154   6.925  0.1975 -0.1163  0.3987
 1102SOL     OW14767   2.247   1.645   0.149  0.2486  0.0732  0.2979
 1102SOL    HW114768   2.186   1.582   0.187 -0.2884  0.8154  0.6668
 1102SOL    HW214769   2.273   1.695   0.226 -0.4183 -2.6871  2.3404
 1103SOL     OW14770   1.251   1.918   9.661 -0.0465 -0.2124  0.0778
 1103SOL    HW114771   1.170   1.909   9.613 -0.2951  1.7140  0.1236
 1103SOL    HW214772   1.311   1.890   9.592  0.4941  0.0724  0.4266
 1104SOL     OW14773   4.242   3.306   5.066  0.1003 -0.8048  0.0524
 1104SOL    HW114774   4.238   3.226   5.013  1.6827 -1.5350  1.0484
 1104SOL    HW214775   4.314   3.285   5.125 -0.2687 -0.3327  0.6747
 1105SOL     OW14776   0.226   0.948   7.257 -0.1466  0.1128  0.6042
 1105SOL    HW114777   0.292   0.966   7.190  1.6185 -2.1119  1.7332
 1105SOL    HW214778   0.250   1.014   7.321  1.9460 -3.2472  3.3087
 1106SOL     OW14779   0.319   3.192   7.501 -0.3479  0.3286 -0.8682
 1106SOL    HW114780   0.231   3.155   7.511 -0.8030  1.8566  0.6712
 1106SOL    HW214781   0.324   3.249   7.577 -1.2847  0.5731 -0.9877
 1107SOL     OW14782   0.296   4.623  11.974 -0.4890 -0.0226  0.2493
 1107SOL    HW114783   0.207   4.638  12.005 -0.8852  2.4195 -1.9725
 1107SOL    HW214784   0.295   4.690  11.905  0.0378 -0.2933 -0.0213
 1108SOL     OW14785   3.634   2.021   3.240  0.3423 -0.0486  0.2801
 1108SOL    HW114786   3.563   1.978   3.192 -1.2620  1.9744  0.8633
 1108SOL    HW214787   3.703   1.955   3.248 -0.0963 -0.4719  0.5297
 1109SOL     OW14788   3.034   1.742   2.415  0.1363  0.4297 -0.7693
 1109SOL    HW114789   3.034   1.689   2.335 -1.4235 -2.2142  0.9765
 1109SOL    HW214790   3.129   1.751   2.421  0.2566 -1.5077  0.1610
 1110SOL     OW14791   3.695   3.067   4.114  0.3685  0.0652  0.7417
 1110SOL    HW114792   3.757   3.006   4.154 -0.0568 -0.2703  0.8904
 1110SOL    HW214793   3.741   3.080   4.031  0.1864 -2.0295  0.3042
 1111SOL     OW14794   1.619   2.640   5.460 -0.1465 -0.2783 -0.3423
 1111SOL    HW114795   1.655   2.552   5.466  0.0209 -0.3788 -2.8441
 1111SOL    HW214796   1.650   2.672   5.376 -0.8727 -0.8322 -0.8193
 1112SOL     OW14797   4.715   2.441  16.992  0.2568 -0.0087 -0.1336
 1112SOL    HW114798   4.634   2.413  16.948 -0.3120 -0.6551  1.3598
 1112SOL    HW214799   0.051   2.365  16.997 -0.6096 -0.6817 -0.3761
 1113SOL     OW14800   2.741   1.458   0.028  0.0612  0.0930  0.4542
 1113SOL    HW114801   2.780   1.392  17.657 -2.4113  1.5201 -2.7937
 1113SOL    HW214802   2.776   1.432   0.113  1.1262  0.8385  0.2480
 1114SOL     OW14803   1.308   1.338   7.138  0.2469  0.1316  0.1180
 1114SOL    HW114804   1.398   1.372   7.132  0.1686  0.2575 -0.3827
 1114SOL    HW214805   1.269   1.408   7.085 -0.0373 -0.4765 -0.4690
 1115SOL     OW14806   0.374   3.972  15.563 -0.6391  0.1778  0.0305
 1115SOL    HW114807   0.352   4.021  15.484 -0.6424 -0.1913 -0.1973
 1115SOL    HW214808   0.302   3.912  15.583  2.4141 -2.6026  2.6030
 1116SOL     OW14809   1.171   0.487   7.016  0.0273 -0.3723  0.0752
 1116SOL    HW114810   1.254   0.443   6.999  0.7283  0.9834  0.0130
 1116SOL    HW214811   1.186   0.520   7.105 -2.8929  1.3311 -0.1037
 1117SOL     OW14812   1.435   1.104   1.209  0.0866 -0.0075 -0.4178
 1117SOL    HW114813   1.441   1.044   1.135  0.2032 -1.3795  0.7221
 1117SOL    HW214814   1.515   1.087   1.259  0.9363  1.7474 -1.1843
 1118SOL     OW14815   2.295   4.698  12.744 -0.1314  0.0589 -0.3356
 1118SOL    HW114816   2.299   0.046  12.679  0.0345  0.4262  0.0609
 1118SOL    HW214817   2.328   0.013  12.827  0.6219 -0.3841 -0.4447
 1119SOL     OW14818   1.695   1.380   8.346  0.1569  0.0918 -0.1338
 1119SOL    HW114819   1.789   1.378   8.366  0.0538  0.9486  0.4129
 1119SOL    HW214820   1.677   1.286   8.344 -0.0024  0.1222 -0.1479
 1120SOL     OW14821   2.012   4.655   7.664  0.0662 -0.0523 -0.6008
 1120SOL    HW114822   1.937   4.678   7.719 -1.5105 -3.3695 -1.3894
 1120SOL    HW214823   2.020   0.018   7.619 -2.5131  0.2335 -0.5218
 1121SOL     OW14824   1.098   1.310   2.747  0.0866 -0.0973 -0.4716
 1121SOL    HW114825   1.143   1.326   2.829 -0.4477  2.0881 -0.6012
 1121SOL    HW214826   1.165   1.302   2.679 -1.2071  0.7547 -1.8557
 1122SOL     OW14827   1.987   1.004   2.476 -0.5611  0.0648  0.1097
 1122SOL    HW114828   1.956   1.082   2.523  1.6147  0.9076  0.1217
 1122SOL    HW214829   1.988   1.038   2.387  3.5344 -1.1024 -0.2482
 1123SOL     OW14830   1.880   0.264   2.217  0.5844 -0.2032  0.4630
 1123SOL    HW114831   1.907   0.210   2.143  3.1914  0.3465  1.0115
 1123SOL    HW214832   1.813   0.206   2.253  1.3416 -1.5428 -0.3329
 1124SOL     OW14833   1.616   0.015   6.561 -0.2417  0.2736  0.2960
 1124SOL    HW114834   1.546   0.048   6.617 -1.5929 -1.1704 -0.5438
 1124SOL    HW214835   1.690   0.059   6.602 -0.0804  1.0767 -0.8485
 1125SOL     OW14836   2.597   3.767  11.801 -0.2822  0.2140  0.0780
 1125SOL    HW114837   2.648   3.686  11.806 -1.4323 -0.5349 -0.0998
 1125SOL    HW214838   2.521   3.745  11.747  1.8028  0.0030 -2.7250
 1126SOL     OW14839   2.201   3.230   5.281 -0.1228  0.3961 -0.1258
 1126SOL    HW114840   2.216   3.303   5.221  1.0562  1.0056  0.9046
 1126SOL    HW214841   2.294   3.209   5.292 -0.3999 -0.7030  0.2039
 1127SOL     OW14842   1.833   0.548   9.180  0.2216 -0.3633 -0.4680
 1127SOL    HW114843   1.796   0.622   9.229 -1.2071 -1.1002 -0.4538
 1127SOL    HW214844   1.924   0.552   9.209  0.0709 -4.0989  0.4657
 1128SOL     OW14845   0.168   3.830  13.659 -0.0503  0.1436 -0.4630
 1128SOL    HW114846   0.202   3.762  13.600 -1.7370 -0.1162 -1.1437
 1128SOL    HW214847   0.076   3.819  13.635  0.1121 -0.5030 -0.7884
 1129SOL     OW14848   3.296   0.674   3.487  0.1998  0.3682  0.4804
 1129SOL    HW114849   3.240   0.606   3.450 -1.1072  0.5523  2.1411
 1129SOL    HW214850   3.237   0.740   3.451  1.5133  1.0200 -0.4759
 1130SOL     OW14851   4.619   4.288   7.099 -0.1310 -0.1464 -0.9133
 1130SOL    HW114852   4.652   4.365   7.145  0.5437 -0.2363 -1.2361
 1130SOL    HW214853   4.690   4.224   7.108  0.0233  0.0931 -0.4138
 1131SOL     OW14854   1.614   0.181   7.418 -0.1942  0.4017 -0.3259
 1131SOL    HW114855   1.669   0.251   7.455  1.0430 -0.8666  0.2397
 1131SOL    HW214856   1.534   0.191   7.470  0.2308 -0.2117  0.4425
 1132SOL     OW14857   4.717   0.572  13.254  0.5074  0.2233  0.2183
 1132SOL    HW114858   4.719   0.544  13.162 -0.3666  1.1655 -0.0877
 1132SOL    HW214859   0.025   0.495  13.301 -1.6881  0.5971  2.1574
 1133SOL     OW14860   4.103   0.134   8.874 -0.0358 -0.0331  0.2091
 1133SOL    HW114861   4.138   0.077   8.943 -0.4174 -0.0042  0.4304
 1133SOL    HW214862   4.011   0.122   8.898 -0.2540 -0.5112 -0.8995
 1134SOL     OW14863   2.914   1.930   0.381 -0.1604  0.1753  0.3659
 1134SOL    HW114864   3.006   1.956   0.382  0.7708 -3.1481  0.5148
 1134SOL    HW214865   2.910   1.888   0.295 -0.3302 -1.4073  1.1507
 1135SOL     OW14866   3.979   4.494   9.548  0.6123  0.3604 -0.0065
 1135SOL    HW114867   3.956   4.455   9.632  1.1625  0.7540  0.3273
 1135SOL    HW214868   4.042   4.428   9.519 -1.4200 -1.7362  0.3166
 1136SOL     OW14869   2.166   0.146  16.383 -0.3454 -0.0637 -0.3681
 1136SOL    HW114870   2.238   0.187  16.335 -0.5157  0.3243 -0.2970
 1136SOL    HW214871   2.111   0.109  16.314  0.8943 -0.5859 -1.0785
 1137SOL     OW14872   3.419   1.501   2.527 -0.2859 -0.6323  0.1114
 1137SOL    HW114873   3.410   1.506   2.622  0.1903 -1.8262  0.2248
 1137SOL    HW214874   3.425   1.406   2.513 -0.4447 -0.5527 -0.4875
 1138SOL     OW14875   0.426   1.017  13.117 -0.4249 -0.3109 -0.2062
 1138SOL    HW114876   0.387   0.940  13.076  1.0439 -0.5147 -1.2343
 1138SOL    HW214877   0.422   0.993  13.209 -2.9099  1.4838  0.1417
 1139SOL     OW14878   0.408   1.456   6.844  0.4444  0.1653 -0.6643
 1139SOL    HW114879   0.363   1.391   6.898  0.8011 -2.0871 -3.1048
 1139SOL    HW214880   0.372   1.432   6.759  1.6076  0.8520 -1.3590
 1140SOL     OW14881   2.917   2.865  13.946 -0.2512 -0.0051 -0.2503
 1140SOL    HW114882   2.835   2.892  13.905  0.7284 -2.0928 -3.6019
 1140SOL    HW214883   2.910   2.898  14.035  0.9625  0.6018 -0.3835
 1141SOL     OW14884   3.439   4.018   4.389 -0.0376 -0.0936 -0.0454
 1141SOL    HW114885   3.457   3.926   4.373 -0.7937  0.1949 -2.4765
 1141SOL    HW214886   3.530   4.046   4.402  0.0789 -0.3253 -0.3747
 1142SOL     OW14887   3.132   3.785   0.613  0.1555  0.0816 -0.2534
 1142SOL    HW114888   3.054   3.836   0.591  0.6853  1.2414  0.5445
 1142SOL    HW214889   3.112   3.704   0.568 -1.6317 -0.9633  2.3859
 1143SOL     OW14890   0.509   2.570   4.452 -0.8726 -0.3149 -0.1568
 1143SOL    HW114891   0.488   2.554   4.360  2.7982 -1.7208 -0.7410
 1143SOL    HW214892   0.497   2.488   4.500  2.0092 -0.0033  1.1157
 1144SOL     OW14893   1.352   0.818   3.867 -0.4690  0.1157  0.4549
 1144SOL    HW114894   1.415   0.886   3.891 -1.8454  1.4286  0.3449
 1144SOL    HW214895   1.290   0.838   3.938  0.1985  0.8546  0.8343
 1145SOL     OW14896   0.718   3.767   8.343  0.1428  0.2274  0.6728
 1145SOL    HW114897   0.741   3.734   8.430 -1.6610  1.4897  1.6353
 1145SOL    HW214898   0.800   3.795   8.304  0.1893 -0.1871  0.4741
 1146SOL     OW14899   2.667   0.029   3.560 -0.1390  0.3316 -0.1426
 1146SOL    HW114900   2.719   4.683   3.516  2.1824  0.6546  2.1065
 1146SOL    HW214901   2.668   0.097   3.492 -1.0191 -2.1426 -2.6166
 1147SOL     OW14902   2.397   0.409   3.253  0.1180 -0.0162 -0.3493
 1147SOL    HW114903   2.382   0.455   3.170  0.0320  0.8013  0.1212
 1147SOL    HW214904   2.319   0.355   3.271  0.3715 -0.2856 -0.0760
 1148SOL     OW14905   0.429   4.671   5.472  0.1214  0.3282  0.4056
 1148SOL    HW114906   0.407   4.614   5.399 -0.1003 -0.2116  0.8910
 1148SOL    HW214907   0.348   0.002   5.475 -1.1614 -1.5442 -1.3027
 1149SOL     OW14908   2.053   1.763   4.639  0.3952 -0.1421 -0.1149
 1149SOL    HW114909   2.008   1.801   4.563  0.7052  1.8446  0.6960
 1149SOL    HW214910   2.118   1.826   4.668  0.4388 -0.2935  0.1132
 1150SOL     OW14911   3.649   3.743  11.295  0.8859  0.4399 -0.0491
 1150SOL    HW114912   3.569   3.694  11.312  0.4241  1.4120  0.6110
 1150SOL    HW214913   3.680   3.767  11.382 -1.1403  0.8087  0.5703
 1151SOL     OW14914   0.697   2.391   9.562  0.1080  0.1704  0.5772
 1151SOL    HW114915   0.731   2.359   9.479 -2.0007  1.1593 -0.6816
 1151SOL    HW214916   0.741   2.475   9.577  0.6215  0.1498 -0.8091
 1152SOL     OW14917   2.118   3.182   5.887 -0.3816 -0.6621 -0.1486
 1152SOL    HW114918   2.134   3.192   5.792  0.8014 -2.9408 -0.1884
 1152SOL    HW214919   2.184   3.117   5.910  0.8142  1.4622  2.4639
 1153SOL     OW14920   1.740   0.136   9.694  0.3752  0.3195  0.2224
 1153SOL    HW114921   1.688   0.066   9.654  1.6402 -0.1124 -0.6937
 1153SOL    HW214922   1.828   0.098   9.685  0.3337 -0.3427  2.7865
 1154SOL     OW14923   0.149   4.406   9.164 -0.3342 -0.1247  0.1591
 1154SOL    HW114924   0.204   4.453   9.101 -1.1757  2.1252  1.0848
 1154SOL    HW214925   0.164   4.455   9.245  2.3800  2.0174 -1.6409
 1155SOL     OW14926   2.435   3.745   4.516  0.3349 -0.1311  0.1611
 1155SOL    HW114927   2.503   3.692   4.475  1.1800  1.9123 -1.0747
 1155SOL    HW214928   2.364   3.682   4.500 -0.9367  0.7679  2.3351
 1156SOL     OW14929   2.812   2.521   7.571  0.1187  0.0301  0.1840
 1156SOL    HW114930   2.752   2.596   7.568 -0.4197 -0.3926  0.2859
 1156SOL    HW214931   2.882   2.552   7.628 -0.1717  1.1507 -0.0578
 1157SOL     OW14932   4.477   1.683  10.195  0.4870  0.4222  0.4753
 1157SOL    HW114933   4.445   1.593  10.186 -0.2339  0.3186  3.9418
 1157SOL    HW214934   4.403   1.722  10.148  0.5265  0.7930  0.7277
 1158SOL     OW14935   2.804   0.077   4.671  0.3507  0.0722  0.3441
 1158SOL    HW114936   2.853   4.716   4.678  1.8214  0.9164 -0.2091
 1158SOL    HW214937   2.716   0.042   4.656  0.9623 -0.8135 -1.1686
 1159SOL     OW14938   1.460   3.851   7.573 -0.1978 -0.0837 -0.4091
 1159SOL    HW114939   1.379   3.900   7.582  0.2079  0.5702 -0.3426
 1159SOL    HW214940   1.443   3.791   7.646  0.6908 -0.9066 -0.8686
 1160SOL     OW14941   0.905   2.354   2.230  0.5523 -0.1370  0.4646
 1160SOL    HW114942   0.953   2.432   2.260 -1.1466  1.1733 -0.2684
 1160SOL    HW214943   0.968   2.286   2.256  1.6512  0.1627 -1.4268
 1161SOL     OW14944   1.389   2.131   7.345  0.0636 -0.2551 -0.2489
 1161SOL    HW114945   1.424   2.160   7.261 -0.3520  0.6775 -0.0925
 1161SOL    HW214946   1.433   2.046   7.355 -3.2219 -1.8989  0.1996
 1162SOL     OW14947   1.214   0.434   2.923 -0.2738  0.2223  0.8944
 1162SOL    HW114948   1.203   0.364   2.859 -1.0317  0.5269  0.6876
 1162SOL    HW214949   1.157   0.507   2.898 -0.8495 -0.7500 -0.6165
 1163SOL     OW14950   4.187   0.298   4.152 -0.0642 -0.0232 -0.1870
 1163SOL    HW114951   4.148   0.237   4.089 -1.0048 -0.3976  0.7746
 1163SOL    HW214952   4.176   0.257   4.238 -0.7415  0.0475 -0.2472
 1164SOL     OW14953   3.857   3.161   3.887  0.1549 -0.7904  0.5450
 1164SOL    HW114954   3.934   3.200   3.846 -0.6436 -2.5502 -2.6111
 1164SOL    HW214955   3.791   3.231   3.889  0.8343 -0.1613  0.6572
 1165SOL     OW14956   1.279   4.716   2.890  0.1795 -0.2513  0.4068
 1165SOL    HW114957   1.309   0.052   2.819  1.0061 -4.2958 -2.4910
 1165SOL    HW214958   1.198   4.692   2.845 -0.2545  2.5084 -0.2815
 1166SOL     OW14959   4.004   0.722   7.656  0.1778 -0.2231 -0.3852
 1166SOL    HW114960   3.953   0.697   7.579  0.7007  0.1161 -0.8455
 1166SOL    HW214961   4.002   0.644   7.711 -1.7621  1.1123  1.4617
 1167SOL     OW14962   4.691   2.023   7.024 -0.1288 -0.4186 -0.2627
 1167SOL    HW114963   0.011   1.955   6.971  1.8978  1.8724 -1.6428
 1167SOL    HW214964   4.674   1.979   7.107  0.2113  1.3271  0.7288
 1168SOL     OW14965   0.354   0.932   7.807  0.3825 -0.9145 -0.0820
 1168SOL    HW114966   0.419   0.871   7.840  0.6620 -0.5668  0.0018
 1168SOL    HW214967   0.293   0.880   7.754  0.1730  1.5880 -2.3248
 1169SOL     OW14968   0.178   4.550   6.812 -0.3174 -0.1588  0.0260
 1169SOL    HW114969   0.217   4.499   6.882 -0.7396 -0.1879  0.2362
 1169SOL    HW214970   0.226   4.507   6.741 -0.8723  0.3213 -0.6503
 1170SOL     OW14971   3.088   0.297  13.632 -0.0365 -0.0572  0.2919
 1170SOL    HW114972   3.178   0.271  13.609  0.4449  1.0528  0.9179
 1170SOL    HW214973   3.040   0.217  13.653  0.1957 -0.9914 -2.7823
 1171SOL     OW14974   4.447   1.109  13.364  0.0983 -0.0459  0.0313
 1171SOL    HW114975   4.368   1.062  13.393 -0.8781  0.4510 -1.7649
 1171SOL    HW214976   4.487   1.042  13.308  0.3606 -0.1674  0.3633
 1172SOL     OW14977   2.146   0.896   7.018 -0.2153  0.3056 -0.3615
 1172SOL    HW114978   2.172   0.893   7.110  3.4010 -0.4066 -1.3954
 1172SOL    HW214979   2.152   0.989   6.993  1.5127 -0.1604 -1.6732
 1173SOL     OW14980   0.208   4.234   6.126 -0.0518  0.5247  0.1868
 1173SOL    HW114981   0.280   4.261   6.182 -0.2174  1.5889 -0.1184
 1173SOL    HW214982   0.232   4.277   6.044 -0.1261 -2.9907 -1.6584
 1174SOL     OW14983   3.950   2.367   4.662 -0.6180  0.1689 -0.3467
 1174SOL    HW114984   3.874   2.387   4.716 -0.8010  0.0115 -0.5480
 1174SOL    HW214985   3.917   2.405   4.581 -0.6277 -1.6491 -1.1933
 1175SOL     OW14986   2.202   0.838  12.120  0.0422 -0.1678 -0.8009
 1175SOL    HW114987   2.155   0.911  12.160  0.9279  0.2435 -0.5027
 1175SOL    HW214988   2.154   0.839  12.037 -0.6890 -0.1554 -0.3787
 1176SOL     OW14989   4.154   1.431   2.022  0.1056  0.0320  0.3812
 1176SOL    HW114990   4.078   1.427   2.080 -0.3656 -0.5815 -0.2802
 1176SOL    HW214991   4.230   1.428   2.080  0.2642 -0.5656  0.1370
 1177SOL     OW14992   2.325   0.600  16.609 -0.3586 -1.0761  0.2552
 1177SOL    HW114993   2.238   0.614  16.646 -0.1461  0.5417  0.1131
 1177SOL    HW214994   2.364   0.687  16.609 -0.4477 -1.0388  2.5572
 1178SOL     OW14995   0.894   0.597  14.185  0.6111 -0.2470  0.6034
 1178SOL    HW114996   0.902   0.619  14.092  0.5686  1.6160  1.0435
 1178SOL    HW214997   0.837   0.669  14.213 -3.2627 -2.6583 -1.0319
 1179SOL     OW14998   4.660   4.210   2.315 -0.0436 -0.2121  0.0281
 1179SOL    HW114999   4.620   4.272   2.254  1.9994 -0.2206 -1.3283
 1179SOL    HW215000   4.578   4.174   2.349  0.5735 -0.7262  0.9915
 1180SOL     OW15001   2.479   2.910  15.391  0.2745  0.0734 -0.1640
 1180SOL    HW115002   2.540   2.963  15.442  0.5382 -1.4134  1.0586
 1180SOL    HW215003   2.510   2.824  15.417 -0.2911  0.1890  0.9133
 1181SOL     OW15004   1.265   3.335   4.331  0.0877 -0.2659  0.0215
 1181SOL    HW115005   1.314   3.417   4.324 -0.1020 -0.1927 -0.4907
 1181SOL    HW215006   1.281   3.315   4.423  0.6166  1.8606  0.3901
 1182SOL     OW15007   2.896   0.907   6.143 -0.2609  0.0319  0.1748
 1182SOL    HW115008   2.881   0.842   6.074  0.5920 -1.7065  1.6250
 1182SOL    HW215009   2.953   0.856   6.201 -1.4934 -0.0357  1.3369
 1183SOL     OW15010   1.799   4.330   4.108 -0.0781  0.7834 -0.2950
 1183SOL    HW115011   1.737   4.373   4.167  1.8552  0.5343  1.9280
 1183SOL    HW215012   1.876   4.382   4.131  0.7054  0.5107 -2.2921
 1184SOL     OW15013   0.109   3.783  17.260  0.0203 -0.4111  0.5209
 1184SOL    HW115014   0.036   3.789  17.198  1.0693 -0.1739 -0.6930
 1184SOL    HW215015   0.084   3.856  17.316 -0.1527 -0.1769  0.1369
 1185SOL     OW15016   4.279   3.859   8.858 -0.1081 -0.6760 -0.5392
 1185SOL    HW115017   4.213   3.924   8.883  1.7410  0.8183  0.4289
 1185SOL    HW215018   4.335   3.851   8.935  0.1593  2.7677 -0.3985
 1186SOL     OW15019   0.136   0.206   6.454  0.1461 -0.2950  0.3936
 1186SOL    HW115020   0.213   0.256   6.428  0.0870  0.2080  1.1897
 1186SOL    HW215021   0.148   0.183   6.546  1.8096 -0.8039  0.0306
 1187SOL     OW15022   1.466   2.883   0.881 -1.1513 -0.2561  0.7500
 1187SOL    HW115023   1.423   2.838   0.808 -1.8935  0.4168  0.7763
 1187SOL    HW215024   1.514   2.950   0.831 -2.2154 -0.3805 -0.4416
 1188SOL     OW15025   1.868   0.575   2.197 -0.2041  0.1201  0.5253
 1188SOL    HW115026   1.863   0.480   2.210  0.8809  0.1302  1.0114
 1188SOL    HW215027   1.952   0.565   2.152  0.9046  2.4172  2.0680
 1189SOL     OW15028   3.997   2.625   7.672  0.0363  0.1458  0.7379
 1189SOL    HW115029   3.999   2.530   7.671  3.0950  0.2258 -0.0956
 1189SOL    HW215030   4.063   2.649   7.606 -1.7945 -1.3018 -1.6345
 1190SOL     OW15031   4.709   2.805   5.619  0.4728  0.2966 -0.3923
 1190SOL    HW115032   4.659   2.727   5.644 -1.9171  1.5473 -1.2708
 1190SOL    HW215033   0.049   2.759   5.562  1.0566  0.8721 -0.2216
 1191SOL     OW15034   3.322   0.896   8.950  0.0529  0.1261 -0.3255
 1191SOL    HW115035   3.265   0.822   8.973  0.1322  0.5075  1.0892
 1191SOL    HW215036   3.282   0.923   8.867 -1.8142 -0.4166  0.3880
 1192SOL     OW15037   4.451   4.593   5.205  0.2692  0.0971  0.2304
 1192SOL    HW115038   4.418   4.523   5.262 -0.5797  0.6029  0.3597
 1192SOL    HW215039   4.370   4.628   5.170 -0.4149  0.1906  1.9226
 1193SOL     OW15040   2.193   2.053   4.370  0.2084  0.0681 -0.6466
 1193SOL    HW115041   2.209   1.961   4.349  0.9133 -0.0584  0.4076
 1193SOL    HW215042   2.246   2.094   4.302 -0.2543 -1.7923 -2.1076
 1194SOL     OW15043   2.569   0.003   7.989 -0.0828  0.3804  0.2259
 1194SOL    HW115044   2.564   4.635   7.952 -1.0455  0.3836  0.3599
 1194SOL    HW215045   2.541   4.706   8.078  0.9670  1.3020  0.7387
 1195SOL     OW15046   4.574   3.339  10.104 -0.0416 -0.2087  0.7627
 1195SOL    HW115047   4.540   3.402  10.168  0.1912 -2.4134  3.0739
 1195SOL    HW215048   4.667   3.358  10.110  0.0611 -0.7308  0.8500
 1196SOL     OW15049   0.924   4.357   4.357 -0.1420  0.4135 -0.1850
 1196SOL    HW115050   0.981   4.286   4.327 -1.2984  0.0277 -1.4973
 1196SOL    HW215051   0.859   4.314   4.412  0.0004 -0.4138 -0.6717
 1197SOL     OW15052   4.044   0.970  16.714  0.1214 -0.0287  0.1466
 1197SOL    HW115053   3.977   0.989  16.647 -0.7654  1.8884  1.5832
 1197SOL    HW215054   4.017   1.036  16.778  2.0852  2.1164 -1.2407
 1198SOL     OW15055   4.540   0.655  14.393 -0.1334 -0.2613  0.3152
 1198SOL    HW115056   4.567   0.686  14.307  0.5146  1.6397  1.1976
 1198SOL    HW215057   4.553   0.560  14.385  0.6078  0.0274 -1.9405
 1199SOL     OW15058   1.177   1.918   5.251  0.5059  0.3286 -0.2047
 1199SOL    HW115059   1.205   1.831   5.280 -0.4312  0.4702  1.1022
 1199SOL    HW215060   1.225   1.928   5.169  2.1469  2.1414  0.9814
 1200SOL     OW15061   2.406   4.177   8.956 -0.0221 -0.1397 -0.5650
 1200SOL    HW115062   2.459   4.166   9.035 -1.9476 -1.8962  0.4892
 1200SOL    HW215063   2.319   4.159   8.992  0.3679  0.9514  0.9187
 1201SOL     OW15064   0.694   1.172  13.096  0.2202 -0.5702  0.5225
 1201SOL    HW115065   0.760   1.106  13.117  0.0712 -0.3268  1.7961
 1201SOL    HW215066   0.609   1.129  13.108  0.5744 -0.6036  2.9330
 1202SOL     OW15067   2.238   2.064   9.657 -0.7072  0.0291  0.4464
 1202SOL    HW115068   2.310   2.122   9.630 -1.0709  0.0676 -0.4508
 1202SOL    HW215069   2.266   1.975   9.636  0.3291  0.5317 -0.3518
 1203SOL     OW15070   0.262   4.270   5.219  0.0641 -0.3127  0.7270
 1203SOL    HW115071   0.228   4.241   5.303 -0.2557 -0.0178  0.6986
 1203SOL    HW215072   0.224   4.200   5.166  0.3742 -1.1204  1.5784
 1204SOL     OW15073   0.894   0.895   0.387  0.2929  0.1675  0.5049
 1204SOL    HW115074   0.960   0.834   0.355  0.6146  0.3162  0.8760
 1204SOL    HW215075   0.899   0.890   0.482  0.4308 -1.1150  0.4298
 1205SOL     OW15076   2.426   4.073  16.921  0.0140  0.6370 -0.1442
 1205SOL    HW115077   2.397   4.163  16.906 -2.5427 -0.1640 -0.0870
 1205SOL    HW215078   2.342   4.032  16.943 -0.3443  0.7267 -1.3560
 1206SOL     OW15079   1.177   4.405   8.583  0.2001 -0.2835 -0.0079
 1206SOL    HW115080   1.127   4.477   8.545 -0.5774 -0.9608 -0.2642
 1206SOL    HW215081   1.245   4.451   8.634 -0.7054  0.6788  0.3333
 1207SOL     OW15082   2.641   0.176   4.949  0.0380 -0.5074  0.5212
 1207SOL    HW115083   2.621   0.100   5.004 -2.6993 -0.0898  0.0911
 1207SOL    HW215084   2.676   0.129   4.874  0.5874 -0.1756  0.5663
 1208SOL     OW15085   1.416   1.815   4.779 -0.1805 -0.3258 -0.7157
 1208SOL    HW115086   1.338   1.830   4.726 -1.2287  0.4784  1.0489
 1208SOL    HW215087   1.398   1.736   4.829  2.2546  0.1276  0.8582
 1209SOL     OW15088   0.113   3.748   6.477  0.1884 -0.2406  0.0669
 1209SOL    HW115089   0.073   3.761   6.562  2.5360  2.2321  0.7934
 1209SOL    HW215090   0.052   3.795   6.420  2.2425  1.6901 -0.5440
 1210SOL     OW15091   1.042   1.618  11.177  0.0769  0.7021  0.1804
 1210SOL    HW115092   1.131   1.637  11.206  0.4744 -2.4487  1.0397
 1210SOL    HW215093   1.001   1.704  11.188  2.7437  1.8611  0.9577
 1211SOL     OW15094   2.496   3.873   2.411  0.0306  0.6379  0.2537
 1211SOL    HW115095   2.444   3.875   2.331  1.3805  0.4475 -0.6451
 1211SOL    HW215096   2.451   3.944   2.456 -0.4938  0.5168 -0.0755
 1212SOL     OW15097   2.874   3.773   5.174 -0.3288 -0.2973 -0.4997
 1212SOL    HW115098   2.850   3.712   5.244 -3.0648  2.0808  0.6005
 1212SOL    HW215099   2.883   3.710   5.101  1.1386  0.8172 -1.2922
 1213SOL     OW15100   3.449   0.270  16.723  0.9034 -0.9101  0.2128
 1213SOL    HW115101   3.528   0.272  16.777  1.1593 -1.9719 -0.1268
 1213SOL    HW215102   3.436   0.365  16.718 -1.2514 -1.2053  0.3811
 1214SOL     OW15103   4.174   0.384   0.595 -0.3448 -0.4270 -0.2354
 1214SOL    HW115104   4.259   0.399   0.638 -0.1963  0.0680 -0.7006
 1214SOL    HW215105   4.113   0.397   0.668  2.8345 -0.0159  2.3852
 1215SOL     OW15106   4.057   3.664   3.649  0.1930  0.1809  0.2129
 1215SOL    HW115107   4.131   3.605   3.662  1.5486  1.7240 -0.4930
 1215SOL    HW215108   4.076   3.713   3.569 -2.9033  2.5002  0.9039
 1216SOL     OW15109   4.534   1.909   6.705 -0.3950 -0.5832  0.3262
 1216SOL    HW115110   4.550   1.822   6.741  3.5114 -0.8431 -2.1281
 1216SOL    HW215111   4.463   1.945   6.759 -0.7907 -1.7289  0.5617
 1217SOL     OW15112   2.726   1.831   7.596  0.2585  0.1885  0.0096
 1217SOL    HW115113   2.738   1.916   7.637 -0.8658  0.6700 -0.6434
 1217SOL    HW215114   2.820   1.818   7.583  0.1274 -1.1757  0.4782
 1218SOL     OW15115   4.521   1.931   7.241 -0.1827  0.3384  0.2555
 1218SOL    HW115116   4.523   1.863   7.308  1.2984  0.3053  0.1777
 1218SOL    HW215117   4.524   2.011   7.292 -1.5063  0.9350 -0.5915
 1219SOL     OW15118   1.652   4.463   0.886  0.5872  0.3210 -0.1071
 1219SOL    HW115119   1.622   4.385   0.933 -0.2183  1.6814  1.6160
 1219SOL    HW215120   1.646   4.528   0.956 -1.0190 -0.1956  0.2489
 1220SOL     OW15121   0.487   3.016   8.524 -0.1715  0.1317 -0.0956
 1220SOL    HW115122   0.460   3.031   8.615 -2.1638  0.4339 -0.7284
 1220SOL    HW215123   0.417   3.063   8.478 -1.2591 -1.6548 -0.2965
 1221SOL     OW15124   0.653   0.364   3.850 -0.2833 -0.1197 -0.4264
 1221SOL    HW115125   0.713   0.429   3.815 -0.5384 -0.6915 -1.9350
 1221SOL    HW215126   0.578   0.419   3.874  0.8604  0.7432  1.1212
 1222SOL     OW15127   2.663   3.113   6.247 -0.4873  0.2458  0.4331
 1222SOL    HW115128   2.663   3.177   6.176 -2.1211 -0.0416  0.1764
 1222SOL    HW215129   2.720   3.043   6.217 -1.5258  0.2956 -1.6764
 1223SOL     OW15130   1.876   1.463  17.005 -0.6349 -0.6437 -1.0356
 1223SOL    HW115131   1.823   1.541  17.022  1.0454 -0.0378  1.4338
 1223SOL    HW215132   1.890   1.428  17.093 -0.2092 -3.0040 -2.0440
 1224SOL     OW15133   0.562   2.705   0.962 -0.3741  0.0821  0.2730
 1224SOL    HW115134   0.623   2.662   1.023 -0.5526 -0.4910  0.0518
 1224SOL    HW215135   0.487   2.710   1.022  0.8633 -1.0520  1.9250
 1225SOL     OW15136   0.089   0.520   7.352  0.4888 -0.2854 -0.8126
 1225SOL    HW115137   0.035   0.468   7.292  0.1938 -1.1099  0.1878
 1225SOL    HW215138   0.115   0.588   7.289  1.3986 -0.4345 -0.5874
 1226SOL     OW15139   3.161   2.908  10.526 -0.5329  0.0328 -0.0159
 1226SOL    HW115140   3.234   2.851  10.551 -1.4256 -1.1725 -0.1528
 1226SOL    HW215141   3.107   2.843  10.481  0.5368 -1.2918  0.6296
 1227SOL     OW15142   0.045   1.764  14.715 -0.6637 -0.1086  0.2199
 1227SOL    HW115143   0.065   1.770  14.808 -2.5652  3.2009  0.4185
 1227SOL    HW215144   0.097   1.836  14.679 -0.7730  0.4137  1.1187
 1228SOL     OW15145   2.762   1.620  15.043 -0.0101 -0.2081  0.7364
 1228SOL    HW115146   2.745   1.537  14.996 -1.2680  0.9262 -0.8125
 1228SOL    HW215147   2.855   1.631  15.023  0.3136 -1.2900  1.6551
 1229SOL     OW15148   1.699   1.819   4.955 -0.0521 -0.1495  0.5536
 1229SOL    HW115149   1.783   1.848   4.993 -1.0038  0.4083  2.2582
 1229SOL    HW215150   1.686   1.735   4.998 -2.0277 -0.4958 -0.7690
 1230SOL     OW15151   1.600   4.433   5.874 -0.3776  0.1284  0.0035
 1230SOL    HW115152   1.522   4.439   5.818 -0.0722  1.5535 -0.2606
 1230SOL    HW215153   1.602   4.341   5.899  1.7990 -0.3056 -1.8374
 1231SOL     OW15154   0.226   3.250   0.378  0.2446 -0.4866  0.0490
 1231SOL    HW115155   0.181   3.234   0.295 -0.5505  0.3866  0.3087
 1231SOL    HW215156   0.150   3.242   0.436  0.4332  2.3987  0.6778
 1232SOL     OW15157   3.015   1.038   9.272 -0.9047  0.0434 -0.5320
 1232SOL    HW115158   2.972   1.114   9.232 -2.3705 -1.2056 -1.3364
 1232SOL    HW215159   2.934   0.989   9.280 -0.9763  0.5238  1.5852
 1233SOL     OW15160   0.457   0.840   5.570  0.2447 -0.0281  0.8841
 1233SOL    HW115161   0.535   0.890   5.548  0.7492 -2.6663 -3.2084
 1233SOL    HW215162   0.383   0.886   5.529 -1.8714 -3.3614  0.9394
 1234SOL     OW15163   0.581   1.924  14.054  0.3415 -0.0766 -0.1953
 1234SOL    HW115164   0.635   1.999  14.077 -1.8424  1.7782 -1.1344
 1234SOL    HW215165   0.541   1.952  13.972  0.6261  1.7769  0.3113
 1235SOL     OW15166   0.774   4.583   6.912 -0.2157  0.2986 -0.7424
 1235SOL    HW115167   0.735   4.667   6.936 -0.7984  0.1291 -1.0901
 1235SOL    HW215168   0.720   4.523   6.963  1.9505 -1.4808 -0.5438
 1236SOL     OW15169   0.921   4.158  13.589 -0.3473  0.3091  0.0371
 1236SOL    HW115170   0.852   4.092  13.592 -0.2820  0.1876 -1.2419
 1236SOL    HW215171   0.868   4.237  13.574 -0.3538  0.1077 -0.9696
 1237SOL     OW15172   2.460   0.142   6.877  0.7119 -0.5540 -0.0278
 1237SOL    HW115173   2.425   0.231   6.885 -0.4769 -0.8892 -1.3979
 1237SOL    HW215174   2.392   0.092   6.922 -1.6342  1.2084 -1.6479
 1238SOL     OW15175   4.272   1.834   4.264  0.7542 -0.0474 -0.0824
 1238SOL    HW115176   4.356   1.864   4.298  1.0964 -1.0714 -0.0274
 1238SOL    HW215177   4.301   1.765   4.204  2.1954 -0.2216  0.8117
 1239SOL     OW15178   3.333   0.404  13.359 -0.1630  0.1763  0.1769
 1239SOL    HW115179   3.264   0.463  13.389  1.1284  1.3982  0.7271
 1239SOL    HW215180   3.392   0.466  13.316  0.9398 -0.3210  0.9655
 1240SOL     OW15181   3.232   2.941   1.682  0.1715  0.1834  0.5748
 1240SOL    HW115182   3.219   3.026   1.724  1.4060 -0.1814  1.6906
 1240SOL    HW215183   3.229   2.896   1.766  3.6104  0.9257  1.0923
 1241SOL     OW15184   4.402   1.200   5.722 -0.0177 -0.2136  0.1518
 1241SOL    HW115185   4.383   1.113   5.686  0.2938 -0.4811  0.6324
 1241SOL    HW215186   4.416   1.173   5.813  0.4448 -1.6865 -0.3608
 1242SOL     OW15187   0.562   1.602   0.340  0.5716 -0.5018 -0.6709
 1242SOL    HW115188   0.600   1.643   0.262  0.4550 -1.0232 -1.0006
 1242SOL    HW215189   0.631   1.538   0.359  2.1902  1.4220 -0.0092
 1243SOL     OW15190   0.262   2.897  17.149 -0.9199 -0.1060 -0.1026
 1243SOL    HW115191   0.200   2.948  17.202  0.3865  0.4159  0.9120
 1243SOL    HW215192   0.217   2.816  17.126 -2.0494  0.5359 -0.1693
 1244SOL     OW15193   4.330   3.246   0.230  0.4262 -0.0997 -0.3770
 1244SOL    HW115194   4.326   3.166   0.178 -1.3003 -1.6359  2.1280
 1244SOL    HW215195   4.253   3.228   0.284  0.6580  0.8815  0.2785
 1245SOL     OW15196   3.566   1.093  12.526 -0.5169  0.0563 -0.5319
 1245SOL    HW115197   3.637   1.133  12.475  0.2008 -0.4102  0.0912
 1245SOL    HW215198   3.518   1.173  12.544 -0.9332 -0.3612  0.2359
 1246SOL     OW15199   0.982   3.799   2.637  0.1174 -0.6521  0.2857
 1246SOL    HW115200   0.924   3.793   2.713 -0.1320 -0.2603  0.1293
 1246SOL    HW215201   0.965   3.891   2.614  1.7845 -0.2483  0.6383
 1247SOL     OW15202   2.861   1.414   7.330 -0.5832 -0.4888 -0.4811
 1247SOL    HW115203   2.944   1.439   7.371 -1.4907 -0.3409  1.2677
 1247SOL    HW215204   2.862   1.318   7.331  1.0755 -0.4888 -2.2023
 1248SOL     OW15205   3.310   0.366   4.600 -0.1630 -0.4066 -0.1350
 1248SOL    HW115206   3.400   0.362   4.569 -1.0728 -1.7730 -2.6008
 1248SOL    HW215207   3.319   0.334   4.690  0.4966  0.2237  0.0171
 1249SOL     OW15208   0.994   4.084   5.410 -0.0124 -0.4567 -0.0674
 1249SOL    HW115209   1.064   4.021   5.392 -1.0229 -1.8015  0.6443
 1249SOL    HW215210   1.044   4.161   5.436  2.0004 -1.4174 -1.1141
 1250SOL     OW15211   2.080   3.446   5.513 -0.3609 -0.0465 -0.5316
 1250SOL    HW115212   2.106   3.511   5.578 -1.9188 -0.7499  0.8029
 1250SOL    HW215213   2.091   3.501   5.435  1.3921  2.2778  1.3542
 1251SOL     OW15214   1.971   0.181   5.626  0.3267 -0.2699  0.5712
 1251SOL    HW115215   1.986   0.247   5.559  0.5097  2.0561  2.9102
 1251SOL    HW215216   1.877   0.181   5.645  0.1289 -0.2947 -0.4304
 1252SOL     OW15217   4.441   2.341   2.683  0.1032 -0.4021  0.1097
 1252SOL    HW115218   4.346   2.351   2.686  0.1549 -0.9327  3.5134
 1252SOL    HW215219   4.439   2.296   2.598 -1.5568 -0.5176  0.2150
 1253SOL     OW15220   4.059   1.783   1.954 -0.2288  0.5315  0.0572
 1253SOL    HW115221   4.139   1.833   1.973  0.4452 -0.8078  0.8290
 1253SOL    HW215222   4.103   1.699   1.935 -0.0754  0.7193 -0.4117
 1254SOL     OW15223   2.430   2.253   8.760 -0.3024  0.3571  0.2995
 1254SOL    HW115224   2.457   2.167   8.728 -1.6676 -0.5320  1.5156
 1254SOL    HW215225   2.505   2.313   8.758  0.8290 -1.0012  2.0685
 1255SOL     OW15226   1.573   0.642  14.923  0.0305 -0.6565 -0.1935
 1255SOL    HW115227   1.627   0.615  14.849 -0.4156 -0.2973 -0.6542
 1255SOL    HW215228   1.494   0.587  14.918  1.0078 -2.0945  0.1612
 1256SOL     OW15229   2.471   2.336  10.674 -0.0708  0.1395 -0.3997
 1256SOL    HW115230   2.405   2.276  10.642 -0.9017 -1.0840  3.5826
 1256SOL    HW215231   2.547   2.305  10.624 -0.3341 -1.0755 -0.0353
 1257SOL     OW15232   2.216   2.061  12.637  0.3843 -0.0787 -0.3740
 1257SOL    HW115233   2.289   2.044  12.696 -0.3373 -1.2417  0.1854
 1257SOL    HW215234   2.227   1.995  12.569 -0.9623  1.3434 -1.9793
 1258SOL     OW15235   1.589   0.785   8.925 -0.0230 -0.3916  0.1661
 1258SOL    HW115236   1.531   0.861   8.922  1.2822  0.6141  0.5722
 1258SOL    HW215237   1.658   0.824   8.872  1.0789 -1.1608  1.0501
 1259SOL     OW15238   2.692   2.777  15.842 -0.7060 -0.0187  0.1255
 1259SOL    HW115239   2.645   2.858  15.824 -1.7088 -0.6639 -0.1138
 1259SOL    HW215240   2.778   2.817  15.830 -0.6142  0.6551  2.9903
 1260SOL     OW15241   3.110   0.756   9.904 -0.5497  0.5664 -0.2425
 1260SOL    HW115242   3.029   0.718   9.938  0.5760  0.6448  2.6116
 1260SOL    HW215243   3.122   0.711   9.821  1.0317 -1.0061  0.8161
 1261SOL     OW15244   3.366   1.045  11.500 -0.1058  0.5495 -0.1209
 1261SOL    HW115245   3.287   1.087  11.464  0.0472 -0.6767 -1.8838
 1261SOL    HW215246   3.386   1.102  11.574 -0.7909  0.3487  0.2241
 1262SOL     OW15247   0.111   4.449   5.869 -0.5220 -0.3439 -0.0206
 1262SOL    HW115248   0.021   4.465   5.898  0.3165  2.1517  1.2537
 1262SOL    HW215249   0.156   4.534   5.870  0.6405 -0.9448 -1.7835
 1263SOL     OW15250   2.232   2.435   7.774 -0.2555 -0.2785 -0.5155
 1263SOL    HW115251   2.185   2.451   7.692  1.3925 -2.7381 -1.9274
 1263SOL    HW215252   2.172   2.384   7.828 -2.8058  2.0680 -1.1261
 1264SOL     OW15253   0.123   0.054   4.446 -0.1616 -0.3047 -0.1931
 1264SOL    HW115254   0.055   4.710   4.461 -0.3954 -0.3323 -1.3728
 1264SOL    HW215255   0.076   0.129   4.410  2.1493  2.1193  1.8242
 1265SOL     OW15256   4.273   3.543   3.837  0.4459  0.2133  0.0299
 1265SOL    HW115257   4.273   3.470   3.899  0.9697 -0.6994 -1.0231
 1265SOL    HW215258   4.344   3.604   3.858  0.3929  0.3749 -0.2643
 1266SOL     OW15259   3.189   0.224   4.411  0.2854 -0.2727 -0.8318
 1266SOL    HW115260   3.238   0.260   4.485 -0.0949  1.2473 -1.3163
 1266SOL    HW215261   3.162   0.139   4.446 -1.1326  0.3208 -0.4940
 1267SOL     OW15262   2.985   3.144   7.851  0.6615  0.6594 -0.4407
 1267SOL    HW115263   2.986   3.216   7.789 -0.6507 -1.0792 -2.4826
 1267SOL    HW215264   2.931   3.181   7.920  1.0794  1.3618 -0.4929
 1268SOL     OW15265   2.805   1.823   2.097 -0.0906 -0.0155 -0.2430
 1268SOL    HW115266   2.753   1.783   2.027  1.6430  0.5630 -1.8633
 1268SOL    HW215267   2.864   1.750   2.117 -0.6276 -0.1159  0.9994
 1269SOL     OW15268   3.744   0.609   7.192 -0.1392  0.0186  0.1983
 1269SOL    HW115269   3.744   0.641   7.101  0.8448  0.9031  0.5216
 1269SOL    HW215270   3.753   0.516   7.172 -1.9412 -0.1290  0.0580
 1270SOL     OW15271   1.785   4.560  13.540  0.7358 -0.3682 -0.0269
 1270SOL    HW115272   1.716   4.540  13.476  1.4546 -0.8223 -0.6586
 1270SOL    HW215273   1.754   4.649  13.554  0.9578 -0.4364  0.9075
 1271SOL     OW15274   0.180   2.565   7.723 -0.5830  0.2683 -0.0291
 1271SOL    HW115275   0.191   2.488   7.779  2.1693  0.5418 -0.2284
 1271SOL    HW215276   0.215   2.634   7.779 -0.0534  0.3088 -0.4078
 1272SOL     OW15277   1.215   1.100   4.310 -0.0112  0.6012 -0.1221
 1272SOL    HW115278   1.135   1.144   4.337  1.3639  2.2341  1.2884
 1272SOL    HW215279   1.260   1.098   4.395  1.3942 -1.3842 -0.8975
 1273SOL     OW15280   3.617   0.559   7.834  0.1669  0.2191  0.2126
 1273SOL    HW115281   3.585   0.632   7.887 -1.8173  0.1848 -0.9546
 1273SOL    HW215282   3.585   0.488   7.889  0.7202 -0.3475 -0.2095
 1274SOL     OW15283   4.713   3.812   0.086 -0.9068 -0.6453  0.2646
 1274SOL    HW115284   4.655   3.888   0.088 -0.3197 -0.2043  0.6717
 1274SOL    HW215285   4.682   3.752   0.154  0.7143 -0.1332  1.4754
 1275SOL     OW15286   0.260   3.494   7.313  0.4646  0.6538  0.1316
 1275SOL    HW115287   0.217   3.534   7.389 -1.9097 -1.6632  0.0205
 1275SOL    HW215288   0.312   3.566   7.279  1.5082 -0.5835 -0.8913
 1276SOL     OW15289   2.188   1.510   3.079 -0.6998  0.0163 -0.3247
 1276SOL    HW115290   2.137   1.580   3.118 -0.6605  0.5093 -1.1531
 1276SOL    HW215291   2.118   1.468   3.029 -0.6789 -1.1828  0.6519
 1277SOL     OW15292   0.568   4.070   9.141  0.1252  0.3794  0.4354
 1277SOL    HW115293   0.560   3.976   9.125 -0.5617  0.1236  2.2899
 1277SOL    HW215294   0.506   4.085   9.212  0.0920  1.6210  0.1367
 1278SOL     OW15295   1.837   0.044  14.471 -0.2935  0.1042  0.1008
 1278SOL    HW115296   1.753   0.024  14.514  1.7582  1.6415  4.8862
 1278SOL    HW215297   1.899   4.713  14.521 -0.5189  2.1548  2.5351
 1279SOL     OW15298   3.582   3.858   3.097 -0.1187 -0.1719  0.3785
 1279SOL    HW115299   3.660   3.825   3.140  0.4489 -0.7406 -1.0853
 1279SOL    HW215300   3.512   3.824   3.153 -0.7155  0.2139 -0.1234
 1280SOL     OW15301   3.005   0.628   5.736 -0.4824  0.3747 -1.2284
 1280SOL    HW115302   2.911   0.640   5.748 -0.2654  0.7827  0.0715
 1280SOL    HW215303   3.033   0.590   5.820 -1.7492 -0.9471 -1.3950
 1281SOL     OW15304   0.100   0.272  16.637  0.0126 -0.3399 -0.1043
 1281SOL    HW115305   0.177   0.261  16.693  1.9761  2.0611 -2.2908
 1281SOL    HW215306   0.086   0.366  16.621  1.8065 -0.0629 -0.0469
 1282SOL     OW15307   1.892   3.703   5.495 -0.3403  0.0299  0.0588
 1282SOL    HW115308   1.921   3.657   5.416  1.5376  0.8794  0.2629
 1282SOL    HW215309   1.935   3.788   5.487 -0.1739 -0.2349 -1.7970
 1283SOL     OW15310   3.553   0.997   2.473 -0.6125  0.2896  0.1754
 1283SOL    HW115311   3.599   0.927   2.520  0.8043  1.2479  0.1986
 1283SOL    HW215312   3.569   0.961   2.385 -0.3262 -0.5314  0.5584
 1284SOL     OW15313   2.225   0.618   0.589  0.1804 -0.2808  0.5538
 1284SOL    HW115314   2.272   0.687   0.542 -0.6853  0.8644  1.3410
 1284SOL    HW215315   2.144   0.667   0.608  0.1527  0.1122 -0.5685
 1285SOL     OW15316   4.647   3.296   3.654  0.3381  0.5288 -0.5385
 1285SOL    HW115317   4.658   3.336   3.568 -2.4587  1.9032 -0.2374
 1285SOL    HW215318   4.682   3.207   3.651 -1.0188  0.0095 -0.5496
 1286SOL     OW15319   2.349   1.902   4.118 -0.0392 -0.7474 -0.2490
 1286SOL    HW115320   2.305   1.907   4.033  0.9517  0.0430 -0.7155
 1286SOL    HW215321   2.337   1.993   4.143 -0.8242 -0.8082 -0.4060
 1287SOL     OW15322   0.564   0.263   7.259 -0.2052  0.3311  0.0511
 1287SOL    HW115323   0.625   0.310   7.201 -1.1621 -0.9783 -2.0119
 1287SOL    HW215324   0.488   0.320   7.272  0.5177  1.7392 -1.9083
 1288SOL     OW15325   3.247   4.195   2.246  0.0135 -0.5883  0.1589
 1288SOL    HW115326   3.315   4.217   2.310 -0.8177  0.3340  0.7238
 1288SOL    HW215327   3.279   4.249   2.173  0.1562 -2.5615 -1.2270
 1289SOL     OW15328   1.105   1.946  12.628 -0.3261  0.3224  0.0556
 1289SOL    HW115329   1.038   1.979  12.569 -1.9661 -1.5162  0.9010
 1289SOL    HW215330   1.185   1.994  12.606  0.3606 -1.0641 -0.5180
 1290SOL     OW15331   2.147   2.329  16.780 -1.0852  0.0560 -0.9745
 1290SOL    HW115332   2.183   2.244  16.806  0.3111  0.3994 -1.7778
 1290SOL    HW215333   2.088   2.294  16.713  0.9487 -2.2357 -1.5634
 1291SOL     OW15334   3.164   0.608   4.179  0.1074  0.5401 -0.5396
 1291SOL    HW115335   3.171   0.513   4.177  1.9661  0.6839 -0.5635
 1291SOL    HW215336   3.220   0.634   4.252 -0.8601 -0.8588  0.6930
 1292SOL     OW15337   0.712   2.636  10.224  0.3549 -0.3939 -0.0469
 1292SOL    HW115338   0.711   2.544  10.249  0.3833 -0.4641 -0.3036
 1292SOL    HW215339   0.692   2.684  10.305  3.2482  1.1712 -0.2745
 1293SOL     OW15340   1.834   3.933   0.298  0.0004  0.0379  0.3013
 1293SOL    HW115341   1.858   3.993   0.227  1.2190 -1.1043 -0.2452
 1293SOL    HW215342   1.910   3.886   0.333 -0.0742 -0.6158 -0.4330
 1294SOL     OW15343   4.137   4.603   5.537  0.3396 -0.5822 -0.1129
 1294SOL    HW115344   4.089   4.570   5.461 -1.7307 -0.5741  1.1700
 1294SOL    HW215345   4.061   4.635   5.586 -1.6506 -3.2660 -1.4875
 1295SOL     OW15346   4.231   0.755  15.619 -0.3758  0.0170  0.3253
 1295SOL    HW115347   4.273   0.674  15.591 -0.5909 -0.0010  0.0612
 1295SOL    HW215348   4.137   0.739  15.617 -0.3223 -0.1247 -0.8943
 1296SOL     OW15349   2.230   1.356   6.839  0.2300  0.6076  0.5411
 1296SOL    HW115350   2.257   1.439   6.879 -0.4390 -0.0107  2.2995
 1296SOL    HW215351   2.210   1.393   6.753 -2.5431  0.3883  1.1065
 1297SOL     OW15352   4.081   1.140  13.266 -0.1344  0.8909 -0.0844
 1297SOL    HW115353   4.085   1.147  13.171 -1.4010 -2.2247 -0.3868
 1297SOL    HW215354   4.107   1.053  13.297  1.4680  2.2294  2.3662
 1298SOL     OW15355   3.087   2.132  12.948 -0.6654  0.0105  0.1765
 1298SOL    HW115356   3.147   2.201  12.977  0.7557 -1.9150  1.8379
 1298SOL    HW215357   3.020   2.185  12.906  0.9423 -0.3393 -2.8055
 1299SOL     OW15358   2.351   1.377   4.854 -0.5403 -0.3426  0.1580
 1299SOL    HW115359   2.389   1.289   4.849  0.1115 -0.0105 -0.7469
 1299SOL    HW215360   2.374   1.414   4.769  1.1499 -0.1919  0.6782
 1300SOL     OW15361   4.416   2.610   5.013  0.2968 -0.0524 -0.1873
 1300SOL    HW115362   4.359   2.555   5.065 -1.2815  1.5817 -0.1972
 1300SOL    HW215363   4.393   2.592   4.922 -0.5497  0.3289 -0.0455
 1301SOL     OW15364   4.153   0.291  12.234 -0.1776  0.1892  0.2027
 1301SOL    HW115365   4.203   0.257  12.160  2.3004  0.2070  1.8849
 1301SOL    HW215366   4.061   0.275  12.211  0.4352 -2.2343 -0.5416
 1302SOL     OW15367   2.109   1.892   2.529 -0.3028  0.3463 -0.2816
 1302SOL    HW115368   2.062   1.888   2.613 -0.6494  3.9516 -0.2709
 1302SOL    HW215369   2.198   1.865   2.550  0.3067 -0.2468 -3.7617
 1303SOL     OW15370   0.166   3.830   6.998  0.1752  0.5721 -0.6990
 1303SOL    HW115371   0.118   3.747   6.994 -0.6199  1.0173 -0.3737
 1303SOL    HW215372   0.221   3.822   7.076 -0.5731  1.4142 -0.0963
 1304SOL     OW15373   3.883   1.693  17.674 -0.0904 -0.4935 -0.4717
 1304SOL    HW115374   3.958   1.700  17.616 -0.1684 -0.6097 -0.5864
 1304SOL    HW215375   3.922   1.698   0.074  1.8370 -0.6586 -1.3401
 1305SOL     OW15376   3.544   3.275   6.763  0.2907 -0.0138  0.5875
 1305SOL    HW115377   3.621   3.218   6.764 -1.3532 -2.2364  0.0981
 1305SOL    HW215378   3.500   3.262   6.679  0.5992 -3.1776  0.9124
 1306SOL     OW15379   0.148   2.987   0.735 -0.1657  0.0008 -0.5369
 1306SOL    HW115380   0.145   2.957   0.825 -0.3847  1.5656 -0.0138
 1306SOL    HW215381   0.079   2.940   0.688 -0.0857 -0.9796  0.3447
 1307SOL     OW15382   0.654   4.315   8.085 -0.4679  0.2068  0.3263
 1307SOL    HW115383   0.559   4.321   8.087 -0.6094 -2.0891  0.5952
 1307SOL    HW215384   0.669   4.243   8.145  2.0993 -1.7113 -2.5660
 1308SOL     OW15385   2.865   4.339   9.489  0.0165 -0.1176 -0.2743
 1308SOL    HW115386   2.957   4.318   9.474 -0.3722 -0.8488 -1.6363
 1308SOL    HW215387   2.877   4.428   9.522 -0.6442 -0.1845  0.1551
 1309SOL     OW15388   3.368   0.745  13.507  0.1269  0.1137  0.1326
 1309SOL    HW115389   3.423   0.742  13.585  1.6350 -1.0563 -0.9571
 1309SOL    HW215390   3.372   0.840  13.494 -0.1181  0.1357  0.2258
 1310SOL     OW15391   4.574   3.405   6.641  0.7438 -0.7496 -0.5706
 1310SOL    HW115392   4.551   3.371   6.728  0.1863 -0.4897 -0.6156
 1310SOL    HW215393   4.551   3.325   6.594  0.7616 -1.3407  0.4198
 1311SOL     OW15394   1.991   1.635   2.475  0.2095  0.2405  0.4161
 1311SOL    HW115395   1.967   1.636   2.568 -0.0106  4.5586  0.2863
 1311SOL    HW215396   2.043   1.714   2.477  0.5851 -0.0566  2.5889
 1312SOL     OW15397   0.839   1.464  13.663 -0.1348  0.1532  0.3766
 1312SOL    HW115398   0.880   1.517  13.731 -0.8465 -0.8764  1.5926
 1312SOL    HW215399   0.877   1.512  13.589  1.1755  0.4943  1.2712
 1313SOL     OW15400   3.520   3.253  14.847  0.0566  0.2450 -0.1529
 1313SOL    HW115401   3.514   3.334  14.899  0.9810  0.4951 -0.4391
 1313SOL    HW215402   3.616   3.252  14.841  0.0474  0.2030 -0.2767
 1314SOL     OW15403   4.094   0.151   8.304 -0.1177 -0.2575  0.3954
 1314SOL    HW115404   4.125   0.078   8.251  0.8100 -0.3575  1.0848
 1314SOL    HW215405   4.037   0.203   8.246 -1.0979  2.1012  3.4823
 1315SOL     OW15406   3.734   2.225  15.385  0.5983 -0.0025 -0.2639
 1315SOL    HW115407   3.780   2.271  15.455 -0.1177  2.4964 -1.4579
 1315SOL    HW215408   3.806   2.176  15.345  0.0005 -2.3704  1.5459
 1316SOL     OW15409   4.136   1.424   1.490  0.6143 -0.4410 -0.3453
 1316SOL    HW115410   4.048   1.456   1.511  0.1992 -1.7341 -0.1271
 1316SOL    HW215411   4.157   1.484   1.418 -1.5625  2.9031  1.8259
 1317SOL     OW15412   0.287   3.700   2.748  0.0799 -0.0396 -0.4527
 1317SOL    HW115413   0.210   3.690   2.803 -0.5890  1.4605 -1.0959
 1317SOL    HW215414   0.279   3.612   2.710  0.0025 -0.7247  1.1667
 1318SOL     OW15415   4.543   2.352   7.176 -0.0134 -0.4028 -0.0437
 1318SOL    HW115416   4.573   2.379   7.263  0.4700  0.5029 -0.4886
 1318SOL    HW215417   4.585   2.266   7.175 -0.4682 -0.5752 -2.5713
 1319SOL     OW15418   0.119   2.452  10.016 -0.3970 -0.1304 -0.0386
 1319SOL    HW115419   0.107   2.542   9.985 -0.6433  0.4612  1.7629
 1319SOL    HW215420   0.146   2.416   9.931  1.7214 -2.0740  1.4518
 1320SOL     OW15421   4.495   4.400   7.492 -0.2677  0.6356  0.9458
 1320SOL    HW115422   4.427   4.428   7.553 -1.9625  1.1223 -1.1500
 1320SOL    HW215423   4.536   4.324   7.532 -1.4653 -0.9251 -0.7615
 1321SOL     OW15424   4.647   4.710   2.615 -1.1987  0.3783 -0.0446
 1321SOL    HW115425   4.711   4.642   2.636  0.5053  1.5608 -1.4000
 1321SOL    HW215426   4.651   4.699   2.520 -1.3873 -0.9605  0.1067
 1322SOL     OW15427   2.028   2.257   3.895 -0.2079  0.0996 -0.0574
 1322SOL    HW115428   1.962   2.317   3.861  0.4355  1.7148  1.5804
 1322SOL    HW215429   2.098   2.321   3.886  1.1178 -1.6083 -1.8785
 1323SOL     OW15430   2.399   4.328   7.233  0.0574  0.3079 -0.0053
 1323SOL    HW115431   2.329   4.340   7.297  2.0353  0.7387  2.0704
 1323SOL    HW215432   2.362   4.250   7.192  0.1460 -1.2641  2.9462
 1324SOL     OW15433   3.618   4.428   7.383 -0.0750  0.4383  0.1728
 1324SOL    HW115434   3.570   4.465   7.457 -0.5695 -0.8625  0.5104
 1324SOL    HW215435   3.550   4.371   7.348  2.2552 -2.8643  0.9988
 1325SOL     OW15436   3.934   1.281  10.337  0.3411  0.1231  0.0758
 1325SOL    HW115437   3.910   1.373  10.343  1.7160  0.5938 -1.3526
 1325SOL    HW215438   4.029   1.282  10.350  0.3425  2.2683 -0.0696
 1326SOL     OW15439   3.735   0.761   4.187  0.4251 -0.1698  0.7572
 1326SOL    HW115440   3.710   0.815   4.112 -1.0257 -1.8999 -0.0138
 1326SOL    HW215441   3.770   0.818   4.255  2.2223 -1.2952  0.7818
 1327SOL     OW15442   0.796   0.765   6.753  0.2255 -0.0057  0.3459
 1327SOL    HW115443   0.844   0.754   6.836  1.7608 -0.5217 -0.5963
 1327SOL    HW215444   0.862   0.784   6.687 -1.7633 -0.9388 -1.8936
 1328SOL     OW15445   2.800   3.238   9.149 -1.2553 -0.0338 -0.5968
 1328SOL    HW115446   2.748   3.290   9.210  0.0068 -0.2239  0.6365
 1328SOL    HW215447   2.871   3.297   9.125 -1.3532  1.4686  2.8745
 1329SOL     OW15448   1.615   3.647   0.278  0.8254 -1.1363  0.6449
 1329SOL    HW115449   1.656   3.702   0.345 -1.2130  0.5003  0.5365
 1329SOL    HW215450   1.578   3.711   0.217 -0.1492 -1.8524  0.5019
 1330SOL     OW15451   4.631   1.450   3.953 -0.2659  0.0422 -0.5220
 1330SOL    HW115452   4.696   1.381   3.963 -0.0505  0.3959  0.5060
 1330SOL    HW215453   4.555   1.417   4.002 -0.1886  3.0916  1.6462
 1331SOL     OW15454   3.704   3.732  17.492 -0.0483 -0.0143 -0.0627
 1331SOL    HW115455   3.696   3.762  17.402 -0.4498 -0.4926 -0.1826
 1331SOL    HW215456   3.713   3.819  17.533  0.9025  0.0618 -0.4222
 1332SOL     OW15457   2.370   4.633  15.174  0.1228  0.4946  0.0452
 1332SOL    HW115458   2.463   4.617  15.184  0.2378 -0.6386 -2.8991
 1332SOL    HW215459   2.348   4.561  15.115 -0.1945  2.3344 -2.0826
 1333SOL     OW15460   0.638   1.179  13.494  0.6821 -0.1439  0.5758
 1333SOL    HW115461   0.669   1.228  13.418 -0.7556 -0.1662 -0.0334
 1333SOL    HW215462   0.714   1.183  13.552  2.0635 -0.4997 -1.1812
 1334SOL     OW15463   4.223   0.749  16.729  0.4615 -0.7050  0.0948
 1334SOL    HW115464   4.157   0.818  16.730 -0.0948 -1.2433  0.8107
 1334SOL    HW215465   4.192   0.681  16.789 -0.6241 -1.5945 -1.5065
 1335SOL     OW15466   4.605   3.090   1.006 -0.4138 -0.4633  0.1276
 1335SOL    HW115467   4.597   2.998   0.980 -2.0358  0.3390 -2.1762
 1335SOL    HW215468   4.699   3.110   1.012 -0.8529  1.2809  1.1432
 1336SOL     OW15469   4.645   2.465  15.358 -0.2062  0.3854  0.4751
 1336SOL    HW115470   4.692   2.532  15.408  2.0625  1.4313 -3.0517
 1336SOL    HW215471   4.719   2.432  15.308 -0.7811 -0.4734  0.1979
 1337SOL     OW15472   3.665   0.193   7.883 -0.1741  0.1528 -0.0136
 1337SOL    HW115473   3.736   0.210   7.820 -0.3246 -1.6282 -0.6587
 1337SOL    HW215474   3.596   0.214   7.820  0.6849  0.2855 -0.9205
 1338SOL     OW15475   2.183   0.683  10.510  0.0909  0.1010  0.0549
 1338SOL    HW115476   2.097   0.653  10.538  0.3833  0.2215  1.1086
 1338SOL    HW215477   2.237   0.626  10.566  0.7284  1.7261  1.0940
 1339SOL     OW15478   0.905   1.241  13.932 -0.1433  0.2179  0.4414
 1339SOL    HW115479   0.991   1.246  13.974  0.3383 -2.3195 -0.2769
 1339SOL    HW215480   0.867   1.325  13.959  2.3225  1.7347 -0.7553
 1340SOL     OW15481   2.389   1.732   3.582 -0.0368  0.3631 -0.0881
 1340SOL    HW115482   2.460   1.712   3.521 -1.4423  1.4151 -2.0695
 1340SOL    HW215483   2.430   1.743   3.667  1.0215 -1.6866 -0.3394
 1341SOL     OW15484   2.015   0.609   9.460 -0.2803  0.6635  0.0084
 1341SOL    HW115485   2.108   0.627   9.447 -0.3798  1.0982 -0.1042
 1341SOL    HW215486   1.970   0.689   9.430 -1.3665 -0.3625 -1.1062
 1342SOL     OW15487   4.197   1.202   0.559 -0.3380  0.7998 -0.6427
 1342SOL    HW115488   4.170   1.141   0.490  2.8866 -1.0773 -0.2402
 1342SOL    HW215489   4.238   1.275   0.514  0.0624  0.3880 -0.9447
 1343SOL     OW15490   4.486   0.861   4.267 -0.0352 -0.3358 -0.1006
 1343SOL    HW115491   4.557   0.837   4.207 -0.8566 -2.5338 -0.2051
 1343SOL    HW215492   4.405   0.833   4.226  1.3295 -1.3838 -2.0845
 1344SOL     OW15493   2.158   4.102   8.513  0.2236 -0.6500  0.2352
 1344SOL    HW115494   2.227   4.169   8.504 -1.0387  0.7081  0.6061
 1344SOL    HW215495   2.079   4.155   8.505  0.2641 -0.7177 -0.5669
 1345SOL     OW15496   0.941   1.805   7.944  0.5085  0.5677 -0.3451
 1345SOL    HW115497   0.933   1.890   7.901 -0.9199  0.8584  0.5081
 1345SOL    HW215498   0.983   1.746   7.881 -0.2472 -1.0477  0.6585
 1346SOL     OW15499   1.188   1.977   3.006  0.2224 -0.3316  0.1644
 1346SOL    HW115500   1.177   2.059   3.054  2.4914  0.0202  0.1066
 1346SOL    HW215501   1.231   2.007   2.927 -1.9532  1.1948 -0.4351
 1347SOL     OW15502   0.886   3.419   1.916  0.3078 -0.6130 -0.1900
 1347SOL    HW115503   0.858   3.429   2.007  1.0036  1.2695 -0.1898
 1347SOL    HW215504   0.821   3.471   1.868  0.5480  0.4436  0.6335
 1348SOL     OW15505   1.747   4.120   9.260 -0.1992  0.3219  0.4068
 1348SOL    HW115506   1.833   4.164   9.259 -0.0296 -0.0226 -0.4171
 1348SOL    HW215507   1.733   4.092   9.350  2.4630  0.9594  1.0269
 1349SOL     OW15508   4.356   3.552   0.386  0.1579 -0.4672 -0.1027
 1349SOL    HW115509   4.299   3.629   0.379 -0.3448 -0.8897 -0.6414
 1349SOL    HW215510   4.305   3.488   0.338 -1.2497  0.6613 -0.1092
 1350SOL     OW15511   0.964   2.595   9.391  0.2274 -0.0346 -0.1774
 1350SOL    HW115512   0.935   2.504   9.395 -2.9039  0.9460 -0.4398
 1350SOL    HW215513   1.047   2.595   9.343  1.3194  2.2293  1.7371
 1351SOL     OW15514   1.470   2.391   3.743  0.5858 -0.4895  0.6635
 1351SOL    HW115515   1.397   2.443   3.710  0.8390  0.6437  1.8718
 1351SOL    HW215516   1.536   2.455   3.715 -0.0791 -0.2706 -0.3861
 1352SOL     OW15517   2.143   2.087   2.983  0.5826 -0.7668 -0.1922
 1352SOL    HW115518   2.166   2.154   3.048 -0.2779 -0.2506 -0.4121
 1352SOL    HW215519   2.232   2.080   2.948  0.4343 -1.7553 -0.3501
 1353SOL     OW15520   4.365   2.675   3.433  0.0857 -0.1274  0.1852
 1353SOL    HW115521   4.298   2.644   3.372 -0.0689 -0.1943  0.3873
 1353SOL    HW215522   4.309   2.736   3.480  0.1652  0.1235 -0.0439
 1354SOL     OW15523   4.621   1.795   2.698  0.5400  0.4345 -0.3756
 1354SOL    HW115524   4.620   1.862   2.630  2.8675  0.0154 -0.8386
 1354SOL    HW215525   4.708   1.766   2.671  0.6721  1.2786 -0.8474
 1355SOL     OW15526   1.341   0.687   9.069 -0.1850 -0.4635  0.6095
 1355SOL    HW115527   1.340   0.752   8.999  4.8349 -2.0202 -0.9522
 1355SOL    HW215528   1.249   0.698   9.092  0.1883  0.2316  1.7914
 1356SOL     OW15529   4.283   3.452   5.831 -0.1739 -0.0090 -0.2390
 1356SOL    HW115530   4.243   3.539   5.841  1.0004  0.1359  3.1325
 1356SOL    HW215531   4.262   3.434   5.740  0.5439 -1.0655 -0.2013
 1357SOL     OW15532   3.360   0.731   7.757 -0.2843  0.6017  0.7190
 1357SOL    HW115533   3.330   0.643   7.734 -0.1997  0.9015 -0.5093
 1357SOL    HW215534   3.350   0.780   7.676  1.8148  0.0379  0.1172
 1358SOL     OW15535   1.540   3.338   6.975 -0.1145 -0.1553  0.5648
 1358SOL    HW115536   1.580   3.329   7.062  1.3526  0.9949 -0.0092
 1358SOL    HW215537   1.549   3.255   6.928  2.6160  1.0440 -0.9757
 1359SOL     OW15538   2.470   3.326   7.183  0.5492 -0.6582 -0.6902
 1359SOL    HW115539   2.375   3.324   7.185  0.6066 -1.3663  1.3647
 1359SOL    HW215540   2.506   3.278   7.258  0.2587 -2.1209 -1.4909
 1360SOL     OW15541   2.947   0.901   4.902  0.1913  0.0172  0.4275
 1360SOL    HW115542   2.901   0.839   4.958 -0.8825  0.9314  0.5499
 1360SOL    HW215543   2.921   0.982   4.946 -0.1195 -1.5636  3.1399
 1361SOL     OW15544   3.651   1.270  11.251  0.0504 -0.7545 -0.1215
 1361SOL    HW115545   3.628   1.180  11.271 -2.3527  0.1691  1.2767
 1361SOL    HW215546   3.747   1.276  11.254 -0.0239 -0.8582  1.9793
 1362SOL     OW15547   0.646   0.478   5.707 -0.5288 -0.7252 -0.3139
 1362SOL    HW115548   0.619   0.457   5.796  0.7416 -1.9539 -0.2330
 1362SOL    HW215549   0.695   0.400   5.682 -1.0846 -0.7428 -1.3551
 1363SOL     OW15550   0.406   2.049   2.278  0.5017  0.0118  0.2467
 1363SOL    HW115551   0.430   2.062   2.370 -0.4009  1.7583  0.2358
 1363SOL    HW215552   0.418   1.955   2.264  1.5802  0.2060 -0.1318
 1364SOL     OW15553   4.475   0.162   9.978  0.0552 -0.4170 -0.4500
 1364SOL    HW115554   4.562   0.188   9.947 -0.0749  1.0881  0.4197
 1364SOL    HW215555   4.442   0.227  10.040  1.2087 -0.1741 -0.0973
 1365SOL     OW15556   3.570   0.648   4.511  0.1087 -0.1889  0.0274
 1365SOL    HW115557   3.627   0.619   4.440 -1.6326  0.5332 -1.6617
 1365SOL    HW215558   3.571   0.561   4.553 -2.9992 -0.8627 -1.2956
 1366SOL     OW15559   4.366   2.937   7.590 -0.3784  0.0230  0.2287
 1366SOL    HW115560   4.432   2.930   7.522 -2.1258  1.8303 -1.6576
 1366SOL    HW215561   4.375   3.029   7.616 -0.7034 -0.1786  1.0539
 1367SOL     OW15562   2.613   3.728   5.549  0.2320  0.1327 -0.3707
 1367SOL    HW115563   2.537   3.680   5.582  1.1023 -1.0734 -0.1692
 1367SOL    HW215564   2.682   3.704   5.610  0.1850 -0.5283 -0.5767
 1368SOL     OW15565   3.622   2.733   4.780  0.7511 -0.2838 -0.3472
 1368SOL    HW115566   3.650   2.824   4.793 -0.9503  0.2223 -0.1696
 1368SOL    HW215567   3.626   2.718   4.685 -1.0662 -1.7203 -0.2000
 1369SOL     OW15568   0.499   4.059   7.316  0.6348  1.1078 -0.0237
 1369SOL    HW115569   0.586   4.044   7.279  0.0628  0.1866 -0.9973
 1369SOL    HW215570   0.521   4.068   7.409 -0.4364 -0.5364  0.3917
 1370SOL     OW15571   2.123   4.256   5.794  0.4819  0.3934 -0.4477
 1370SOL    HW115572   2.184   4.329   5.809 -1.5341  1.7432  1.1901
 1370SOL    HW215573   2.038   4.283   5.829  0.4787 -0.4075  0.1527
 1371SOL     OW15574   2.235   0.058   5.080  0.1194  0.1260 -1.1359
 1371SOL    HW115575   2.143   0.039   5.059 -0.4465 -1.2209  2.5441
 1371SOL    HW215576   2.244   0.144   5.040  2.5437  1.3779  2.1444
 1372SOL     OW15577   3.230   0.032   6.262  0.2673  0.0613  0.0541
 1372SOL    HW115578   3.203   4.714   6.344 -0.7374 -0.1983 -0.3980
 1372SOL    HW215579   3.155   0.005   6.208  1.0016  0.6077 -1.2369
 1373SOL     OW15580   0.958   3.414  12.136 -0.5317 -0.0361 -0.3514
 1373SOL    HW115581   0.977   3.451  12.050 -1.9001 -0.1875 -0.7189
 1373SOL    HW215582   1.024   3.348  12.154 -1.7008 -1.0719  0.1588
 1374SOL     OW15583   3.433   3.646   6.625 -0.3819  0.4828  0.0107
 1374SOL    HW115584   3.494   3.629   6.696  1.9321 -2.2775 -2.6090
 1374SOL    HW215585   3.397   3.559   6.608  2.7980 -0.6237 -1.1488
 1375SOL     OW15586   3.312   2.605  14.607  0.5829  0.8272 -0.5390
 1375SOL    HW115587   3.346   2.694  14.595  2.2631  0.0676 -1.3011
 1375SOL    HW215588   3.392   2.557  14.586 -0.0523  0.3059 -1.7743
 1376SOL     OW15589   4.396   4.144   9.191 -0.1349  0.2972  0.1490
 1376SOL    HW115590   4.464   4.206   9.216  1.1579 -0.7751 -0.7228
 1376SOL    HW215591   4.382   4.089   9.268 -2.1451  0.0281 -0.3886
 1377SOL     OW15592   3.754   2.578   1.866 -0.3406 -0.4531  0.2295
 1377SOL    HW115593   3.690   2.529   1.813  1.0773 -0.9579 -0.9982
 1377SOL    HW215594   3.801   2.638   1.809  0.1631 -1.0405  0.0289
 1378SOL     OW15595   1.601   3.319   9.569  1.0290 -0.1676  0.2821
 1378SOL    HW115596   1.615   3.230   9.535 -0.5346  0.3827 -1.8150
 1378SOL    HW215597   1.566   3.362   9.491  0.8771  0.7469  0.8554
 1379SOL     OW15598   0.431   0.138   7.950 -0.6514  0.4777 -0.3086
 1379SOL    HW115599   0.464   0.098   7.869 -0.9555  2.3705 -1.3705
 1379SOL    HW215600   0.337   0.127   7.937 -0.3789  0.9460 -2.6385
 1380SOL     OW15601   3.508   0.341  11.186  0.7971  0.6510  0.5219
 1380SOL    HW115602   3.585   0.287  11.202  1.0253  0.2453 -1.8571
 1380SOL    HW215603   3.432   0.289  11.214  0.5220  0.7405 -0.0494
 1381SOL     OW15604   2.099   0.019   2.923  0.1594 -0.0908  0.8051
 1381SOL    HW115605   2.084   0.002   3.016  1.9410  0.1376  1.1353
 1381SOL    HW215606   2.071   0.110   2.911 -0.1260 -0.5837 -2.4367
 1382SOL     OW15607   1.849   4.446   8.993  0.4499 -0.0763  0.3787
 1382SOL    HW115608   1.933   4.468   8.953  1.5196 -2.1615  1.4276
 1382SOL    HW215609   1.861   4.478   9.083 -1.8957  2.9573 -0.3862
 1383SOL     OW15610   2.833   4.408   8.049 -0.3188  0.1765  0.1708
 1383SOL    HW115611   2.833   4.481   8.111  1.0400 -0.4252  0.8776
 1383SOL    HW215612   2.747   4.376   8.076 -1.1401  4.0321  2.0615
 1384SOL     OW15613   2.094   4.382  16.395  0.1311 -0.1886 -0.0720
 1384SOL    HW115614   2.133   4.300  16.424 -1.4828 -0.9084  0.0392
 1384SOL    HW215615   2.032   4.407  16.464  0.5452 -0.1797  0.2956
 1385SOL     OW15616   2.153   2.111   5.546 -0.1434  0.0674 -0.7275
 1385SOL    HW115617   2.243   2.080   5.553  0.3836  1.4319 -1.6546
 1385SOL    HW215618   2.155   2.150   5.459  1.2861  0.0079 -0.7222
 1386SOL     OW15619   0.518   2.389   4.824  0.3573  1.0272 -0.7673
 1386SOL    HW115620   0.481   2.422   4.905 -2.2556  2.2595 -2.4505
 1386SOL    HW215621   0.612   2.378   4.834 -0.2121 -3.8433 -0.7885
 1387SOL     OW15622   1.102   2.683   3.160  0.2471 -0.2059 -0.2034
 1387SOL    HW115623   1.198   2.680   3.166  0.3389  2.4859 -0.0198
 1387SOL    HW215624   1.063   2.713   3.243  1.4181  1.1225 -0.1309
 1388SOL     OW15625   0.673   3.744   9.277 -0.0622  0.2569 -0.2248
 1388SOL    HW115626   0.696   3.655   9.250 -1.5108  0.2519 -1.4198
 1388SOL    HW215627   0.582   3.744   9.248 -0.0448  1.6586 -0.2802
 1389SOL     OW15628   0.608   3.706   6.664 -0.2644  0.1138  0.5060
 1389SOL    HW115629   0.590   3.622   6.624  1.7289  0.5812 -1.3405
 1389SOL    HW215630   0.532   3.718   6.722 -0.8611  1.2891 -0.5089
 1390SOL     OW15631   2.655   3.485  16.071  0.0600  0.0423 -0.5946
 1390SOL    HW115632   2.693   3.410  16.118  2.1442  0.4000 -1.7094
 1390SOL    HW215633   2.610   3.437  16.002  2.2109  1.2325 -2.8201
 1391SOL     OW15634   0.864   1.045  10.446 -0.2586 -0.2442  0.6692
 1391SOL    HW115635   0.866   0.967  10.391  1.3988 -1.1736  2.0321
 1391SOL    HW215636   0.782   1.088  10.425 -0.9540 -2.1333 -0.4573
 1392SOL     OW15637   1.815   1.530   8.726 -0.2637 -0.1000 -0.1819
 1392SOL    HW115638   1.803   1.469   8.799 -0.3080 -0.4003 -0.4403
 1392SOL    HW215639   1.733   1.512   8.680 -0.2999  1.0557 -0.5813
 1393SOL     OW15640   0.516   1.869   3.851  0.4478 -0.7043  0.0584
 1393SOL    HW115641   0.571   1.802   3.891 -0.3636 -2.4720 -1.7929
 1393SOL    HW215642   0.493   1.917   3.931 -3.1868 -1.1970 -0.6981
 1394SOL     OW15643   4.649   2.545  11.950  0.5815 -0.2805  0.4691
 1394SOL    HW115644   4.606   2.518  12.031 -0.5017  2.0883  0.6856
 1394SOL    HW215645   4.700   2.617  11.987 -0.4291  1.5609 -1.6895
 1395SOL     OW15646   0.431   4.166   6.847 -0.2941 -0.3352 -0.2648
 1395SOL    HW115647   0.482   4.085   6.850 -1.1962 -0.9420 -1.4819
 1395SOL    HW215648   0.374   4.157   6.771 -0.0726 -1.3185 -0.3147
 1396SOL     OW15649   4.568   3.615   7.467 -0.1439  0.0495 -0.4595
 1396SOL    HW115650   4.632   3.547   7.490 -0.3683  0.1244  0.4195
 1396SOL    HW215651   4.610   3.671   7.402 -0.5778  0.3922 -0.4394
 1397SOL     OW15652   3.788   2.159   0.920 -0.2703 -0.0688  0.0306
 1397SOL    HW115653   3.843   2.214   0.864  0.7366 -2.4855 -1.3706
 1397SOL    HW215654   3.795   2.073   0.878  1.6938  0.7158 -1.2160
 1398SOL     OW15655   1.443   0.868   9.991 -0.4019 -0.1864 -0.3373
 1398SOL    HW115656   1.468   0.787   9.946 -0.0001 -1.4243  2.1327
 1398SOL    HW215657   1.410   0.846  10.078  3.3393  0.6392  1.2915
 1399SOL     OW15658   0.950   3.181   1.088  0.0348  0.2211  0.7151
 1399SOL    HW115659   0.875   3.232   1.118 -1.3757 -0.6744 -1.3457
 1399SOL    HW215660   0.939   3.203   0.996  0.0592  1.0249  0.9075
 1400SOL     OW15661   2.132   1.597  15.339 -0.5078  0.0187  1.4776
 1400SOL    HW115662   2.127   1.657  15.265 -0.5292 -2.7192 -0.7269
 1400SOL    HW215663   2.054   1.621  15.389 -0.3006  0.6077  1.5245
 1401SOL     OW15664   4.244   1.073  17.038  0.3904 -0.1365  0.9235
 1401SOL    HW115665   4.167   1.024  17.069 -0.3932 -0.9645 -2.3234
 1401SOL    HW215666   4.282   1.095  17.123 -0.6339  3.6470  0.3990
 1402SOL     OW15667   3.315   4.336  15.104  0.0153 -0.0314  0.1405
 1402SOL    HW115668   3.287   4.245  15.114  1.7944 -0.6119 -0.2186
 1402SOL    HW215669   3.385   4.329  15.040 -0.2154  1.6694 -0.2890
 1403SOL     OW15670   3.315   4.131   1.107 -0.3684  0.1466 -0.0436
 1403SOL    HW115671   3.322   4.135   1.012  0.0497  0.8082  0.0159
 1403SOL    HW215672   3.281   4.217   1.129 -3.5409 -1.8076  2.7099
 1404SOL     OW15673   3.008   3.505   2.987 -0.1358 -0.0699  0.1216
 1404SOL    HW115674   3.047   3.544   2.909 -2.2673 -2.6935 -2.3040
 1404SOL    HW215675   2.915   3.529   2.979 -0.3141 -0.8817 -0.3532
 1405SOL     OW15676   0.109   1.481   9.974 -0.0245  0.6191 -0.2838
 1405SOL    HW115677   0.124   1.509   9.883  0.9043  1.6022  0.1694
 1405SOL    HW215678   0.184   1.522  10.018 -0.0833  1.3664 -0.8733
 1406SOL     OW15679   1.066   4.370   9.063 -0.5010 -0.3228 -0.4141
 1406SOL    HW115680   1.046   4.283   9.028 -1.1989 -0.5652  0.5906
 1406SOL    HW215681   1.158   4.384   9.041 -1.3246  2.6497 -1.8995
 1407SOL     OW15682   2.663   1.823  15.181  0.3057  0.4911  0.5285
 1407SOL    HW115683   2.608   1.769  15.237 -1.7214  2.4188  0.3831
 1407SOL    HW215684   2.688   1.751  15.123 -1.8234  0.3329 -0.1773
 1408SOL     OW15685   1.199   2.973   7.934  0.1946  0.0290  0.0261
 1408SOL    HW115686   1.251   3.052   7.952 -0.6894  0.7011 -0.3273
 1408SOL    HW215687   1.270   2.920   7.901 -0.0841 -0.9209  0.9540
 1409SOL     OW15688   0.528   1.028   7.617  0.4562 -0.3314 -0.3870
 1409SOL    HW115689   0.475   1.020   7.696 -0.9943  2.7593 -1.0532
 1409SOL    HW215690   0.536   0.934   7.601  3.6873 -0.0898 -0.2539
 1410SOL     OW15691   3.757   1.602  17.404  0.1814  0.4473 -0.3008
 1410SOL    HW115692   3.719   1.672  17.456 -1.0855  0.0541 -0.7010
 1410SOL    HW215693   3.802   1.651  17.335  0.3670  0.0457 -0.4694
 1411SOL     OW15694   2.364   2.704   7.277  0.7683  0.0188  0.8928
 1411SOL    HW115695   2.427   2.637   7.303  0.6749 -0.7606 -0.9226
 1411SOL    HW215696   2.411   2.782   7.307  0.0635  0.1764  1.5995
 1412SOL     OW15697   2.020   2.336   3.271 -0.0406 -0.0214 -0.1583
 1412SOL    HW115698   1.935   2.303   3.241 -1.4092  1.2294  2.3536
 1412SOL    HW215699   2.060   2.257   3.307 -1.0316 -0.9683 -1.1125
 1413SOL     OW15700   4.080   0.621   8.928 -0.1777 -1.0400  0.7322
 1413SOL    HW115701   4.078   0.546   8.870  0.3004 -0.9767  0.6399
 1413SOL    HW215702   4.034   0.574   8.998 -0.4055  0.1598  1.4000
 1414SOL     OW15703   2.900   2.607   4.411 -0.1222 -0.4373 -0.4803
 1414SOL    HW115704   2.934   2.520   4.392  0.7921 -0.7276  2.3999
 1414SOL    HW215705   2.816   2.592   4.454  0.3039 -1.6896 -0.0785
 1415SOL     OW15706   2.657   4.307  10.422  0.1371  0.0542 -0.1307
 1415SOL    HW115707   2.613   4.363  10.486  2.8583  0.8064  1.1197
 1415SOL    HW215708   2.739   4.290  10.470 -0.1555  1.8578  1.0339
 1416SOL     OW15709   1.654   1.709  12.883  0.3539 -0.0628  0.4433
 1416SOL    HW115710   1.622   1.799  12.869  1.5064  0.3254  0.2799
 1416SOL    HW215711   1.665   1.665  12.799 -2.9200  0.4852 -0.2627
 1417SOL     OW15712   4.592   3.044   4.346  0.0108 -0.2312  0.1239
 1417SOL    HW115713   4.597   2.949   4.338  1.7260 -0.1011 -0.3605
 1417SOL    HW215714   4.670   3.071   4.297  1.2356  0.5636  2.4725
 1418SOL     OW15715   4.129   3.831  10.846  0.0736  0.1109 -0.2923
 1418SOL    HW115716   4.143   3.737  10.852 -1.3456 -0.0615  0.1714
 1418SOL    HW215717   4.041   3.840  10.810  0.0059 -0.8060 -0.3447
 1419SOL     OW15718   2.236   2.735   2.544  0.4316  0.1568  0.0682
 1419SOL    HW115719   2.185   2.673   2.491  1.2014  1.1169 -1.7920
 1419SOL    HW215720   2.285   2.770   2.469 -1.9031 -0.7374 -1.8945
 1420SOL     OW15721   0.349   4.170   0.136  0.0015 -0.6542 -0.3288
 1420SOL    HW115722   0.366   4.242   0.197 -1.0754 -0.6736 -0.0023
 1420SOL    HW215723   0.368   4.221   0.057 -1.8526 -1.5785 -1.3679
 1421SOL     OW15724   0.676   4.095  13.700  0.0562  0.0469 -0.3649
 1421SOL    HW115725   0.600   4.077  13.755  0.8976 -0.4627  0.6335
 1421SOL    HW215726   0.747   4.108  13.764 -0.0264  1.8069 -0.6446
 1422SOL     OW15727   1.153   0.510   4.821  0.6568 -0.4442  0.4261
 1422SOL    HW115728   1.136   0.454   4.897 -1.6099 -1.6937 -1.0129
 1422SOL    HW215729   1.065   0.530   4.790  0.5633 -1.8640 -0.1974
 1423SOL     OW15730   1.378   3.941   7.180 -0.6384 -0.4057  0.2999
 1423SOL    HW115731   1.285   3.921   7.184 -1.1497  1.5036 -1.8854
 1423SOL    HW215732   1.397   3.915   7.089 -0.0244  2.6046 -0.4296
 1424SOL     OW15733   1.606   3.464   8.570  0.1506  0.4103  0.2923
 1424SOL    HW115734   1.525   3.476   8.521 -0.2972 -1.1703  0.6386
 1424SOL    HW215735   1.622   3.370   8.566 -1.4590  0.1994 -0.6718
 1425SOL     OW15736   3.479   4.596   7.536  0.9355 -0.1668 -0.1414
 1425SOL    HW115737   3.457   4.675   7.586  0.0570  0.7950 -2.0362
 1425SOL    HW215738   3.414   4.536   7.571  0.9404 -0.4600 -0.6423
 1426SOL     OW15739   2.371   3.401  16.635  0.3460 -0.6358  0.1050
 1426SOL    HW115740   2.360   3.320  16.584 -3.1110 -0.4089  0.5152
 1426SOL    HW215741   2.313   3.465  16.595 -0.6485 -0.9670  0.9986
 1427SOL     OW15742   2.818   3.478   5.973 -0.2068 -0.5006 -0.1659
 1427SOL    HW115743   2.831   3.493   5.879  2.0642  1.4540  0.4690
 1427SOL    HW215744   2.822   3.567   6.007 -2.6454  0.1524 -1.5428
 1428SOL     OW15745   2.042   0.528   4.814  0.1086 -0.3064  0.6949
 1428SOL    HW115746   2.121   0.560   4.859  0.5328 -0.5591  0.1296
 1428SOL    HW215747   2.070   0.437   4.818  2.5529  0.3413 -1.5972
 1429SOL     OW15748   0.472   2.531   4.181 -0.1694 -0.3271  0.2691
 1429SOL    HW115749   0.552   2.555   4.134  0.0266 -1.7115 -0.0783
 1429SOL    HW215750   0.419   2.516   4.103  0.2657  0.1956 -0.1279
 1430SOL     OW15751   3.583   0.890   2.216 -0.5847  0.1891  0.7696
 1430SOL    HW115752   3.678   0.876   2.223 -0.3418  1.1468 -0.5321
 1430SOL    HW215753   3.566   0.880   2.122  1.1229 -0.3751  0.5073
 1431SOL     OW15754   0.370   2.409   2.563 -0.1566 -0.6804  0.4155
 1431SOL    HW115755   0.385   2.449   2.477  3.2951  0.7145  1.6832
 1431SOL    HW215756   0.281   2.374   2.559 -2.2244  4.6224  0.9696
 1432SOL     OW15757   0.545   3.785  15.942 -0.1089 -0.2377  0.0340
 1432SOL    HW115758   0.585   3.842  15.877  2.0578 -1.8065  0.0186
 1432SOL    HW215759   0.608   3.785  16.014  0.3694 -1.6802 -0.3817
 1433SOL     OW15760   2.475   1.140   7.618  0.1595  0.0591 -0.2244
 1433SOL    HW115761   2.522   1.186   7.687  0.3028 -0.4115 -0.0097
 1433SOL    HW215762   2.401   1.199   7.599 -0.2937 -0.5139 -0.2486
 1434SOL     OW15763   1.622   3.508  10.034 -0.2200  0.3223  0.0905
 1434SOL    HW115764   1.717   3.493  10.034 -0.4681 -1.2645 -0.7589
 1434SOL    HW215765   1.594   3.510   9.942 -2.3811 -0.9174  0.7184
 1435SOL     OW15766   2.334   4.174   3.676 -0.2546  0.2226  0.4962
 1435SOL    HW115767   2.357   4.092   3.633  0.7351  0.7724 -0.0388
 1435SOL    HW215768   2.379   4.242   3.626 -1.6584 -0.5972 -1.8248
 1436SOL     OW15769   4.596   2.703   5.178  0.2036 -0.1668  0.0562
 1436SOL    HW115770   4.522   2.677   5.124  0.2407  0.6382 -0.3862
 1436SOL    HW215771   4.667   2.675   5.120  1.0290  0.3158  0.8256
 1437SOL     OW15772   3.985   3.243   5.185 -0.4363  0.1598  0.7740
 1437SOL    HW115773   4.070   3.245   5.142 -0.9496  0.0148 -0.2664
 1437SOL    HW215774   3.943   3.163   5.152  3.8278 -1.1676 -1.3874
 1438SOL     OW15775   3.082   3.799  17.089 -0.0841 -0.4049  0.4278
 1438SOL    HW115776   3.117   3.740  17.022 -0.9809  0.2270 -0.6019
 1438SOL    HW215777   2.990   3.806  17.062  0.5055 -1.1530 -1.7928
 1439SOL     OW15778   3.553   2.097   3.567  0.4631  0.4048  0.2864
 1439SOL    HW115779   3.646   2.076   3.564  0.7360  1.7974 -1.3081
 1439SOL    HW215780   3.559   2.164   3.498 -1.8112  0.6793  0.3781
 1440SOL     OW15781   0.946   3.232  10.218 -0.1019  0.4771 -0.3807
 1440SOL    HW115782   1.039   3.252  10.224  0.3163 -0.8966 -2.3035
 1440SOL    HW215783   0.924   3.283  10.140  1.4283  2.1977  0.3194
 1441SOL     OW15784   1.465   4.338   5.265  0.4235 -0.4061 -0.5705
 1441SOL    HW115785   1.468   4.310   5.174  1.6411 -0.1913 -0.6004
 1441SOL    HW215786   1.440   4.256   5.309  1.3078  0.0205  0.7478
 1442SOL     OW15787   3.737   0.301  10.789 -0.2489  0.1619  0.2277
 1442SOL    HW115788   3.652   0.259  10.774  0.2153  0.4494 -3.2502
 1442SOL    HW215789   3.704   0.387  10.762 -0.4774  0.2247  0.7076
 1443SOL     OW15790   1.007   3.325  13.176 -0.5448 -0.0026  0.2753
 1443SOL    HW115791   0.930   3.281  13.141  0.8702 -0.7319 -1.8672
 1443SOL    HW215792   1.064   3.248  13.183 -1.1258 -0.2386  2.3737
 1444SOL     OW15793   0.487   3.291   1.873  0.7422  0.4103 -0.3166
 1444SOL    HW115794   0.398   3.308   1.841  1.0209  1.4057 -0.5722
 1444SOL    HW215795   0.500   3.199   1.851  1.8040  0.1242  1.4799
 1445SOL     OW15796   2.189   0.851   7.360  0.2812  0.4385  0.5879
 1445SOL    HW115797   2.176   0.777   7.419  1.8540 -0.6541 -0.4476
 1445SOL    HW215798   2.282   0.870   7.366 -0.1299  3.1211 -1.6096
 1446SOL     OW15799   2.208   1.642  11.658 -0.5893  0.4672 -0.0310
 1446SOL    HW115800   2.192   1.730  11.693  0.1979  1.2219 -1.5461
 1446SOL    HW215801   2.160   1.651  11.576 -1.8001 -2.8668  0.3349
 1447SOL     OW15802   1.534   1.672  10.488 -0.0207  0.1692  0.1391
 1447SOL    HW115803   1.624   1.639  10.485 -0.3681 -0.7285 -0.3464
 1447SOL    HW215804   1.547   1.767  10.486 -2.4981  0.4656 -2.4497
 1448SOL     OW15805   0.972   3.546  10.316 -1.2791  0.6962  0.1600
 1448SOL    HW115806   1.061   3.512  10.323 -1.6310 -0.2497  0.0143
 1448SOL    HW215807   0.988   3.640  10.321 -0.2596  0.5427 -0.3137
 1449SOL     OW15808   0.412   1.944  10.475 -0.1422  0.3120  0.4711
 1449SOL    HW115809   0.405   2.008  10.545  2.0190  1.1158 -0.0621
 1449SOL    HW215810   0.486   1.892  10.506  0.3884  0.1411 -1.0920
 1450SOL     OW15811   2.151   4.271   7.378  0.4337  0.3819 -0.0593
 1450SOL    HW115812   2.112   4.344   7.427  2.6333  2.5400 -1.5083
 1450SOL    HW215813   2.071   4.247   7.331  0.1405 -1.5913  1.4692
 1451SOL     OW15814   1.464   0.989   6.440  0.2711  0.5412  0.0579
 1451SOL    HW115815   1.531   0.950   6.495  1.2539  1.9221 -0.1430
 1451SOL    HW215816   1.500   0.959   6.357 -2.2108  1.2385 -1.2650
 1452SOL     OW15817   2.272   2.916  16.570  0.8556 -0.4321 -0.5977
 1452SOL    HW115818   2.201   2.853  16.581 -0.6475  0.9322 -2.5941
 1452SOL    HW215819   2.260   2.942  16.479 -1.5180 -0.2377 -0.2226
 1453SOL     OW15820   2.835   4.301  15.181  0.4187 -0.1993  0.5509
 1453SOL    HW115821   2.917   4.346  15.195 -1.3118  2.4369  2.1071
 1453SOL    HW215822   2.847   4.231  15.246  2.4421  0.3215  0.7235
 1454SOL     OW15823   2.040   0.560   8.208  0.7824  0.1545  0.0104
 1454SOL    HW115824   2.091   0.549   8.128  0.8017  0.1575  0.0224
 1454SOL    HW215825   1.957   0.532   8.168 -0.1549  2.8261  0.1295
 1455SOL     OW15826   4.628   1.537   7.222 -0.7115 -0.4513 -0.0036
 1455SOL    HW115827   4.559   1.522   7.287 -0.5650  0.4335  0.3575
 1455SOL    HW215828   4.596   1.575   7.140  1.5257  1.7039  0.1472
 1456SOL     OW15829   1.662   0.874   3.348 -0.4893  0.3906  0.5216
 1456SOL    HW115830   1.689   0.911   3.431  2.2579 -1.7401  0.5696
 1456SOL    HW215831   1.673   0.944   3.283 -0.3299  0.0368  0.1640
 1457SOL     OW15832   3.907   1.808   7.057  0.2115 -0.0459  0.0384
 1457SOL    HW115833   3.926   1.899   7.081 -1.2676 -0.3393  2.3201
 1457SOL    HW215834   3.855   1.811   6.977 -1.7075  0.5632  1.3188
 1458SOL     OW15835   4.339   3.134  16.785 -0.2794 -0.3405  0.4108
 1458SOL    HW115836   4.320   3.131  16.879 -0.6976  2.2525  0.4128
 1458SOL    HW215837   4.378   3.221  16.781  0.7240 -0.7741  0.9158
 1459SOL     OW15838   3.254   0.966  13.308 -0.3581  0.1878  0.0678
 1459SOL    HW115839   3.303   1.048  13.319  1.2016 -0.6731 -0.6031
 1459SOL    HW215840   3.277   0.931  13.223  1.7811  0.8273  0.3772
 1460SOL     OW15841   4.079   0.108  12.569 -0.1311  0.1684 -1.1467
 1460SOL    HW115842   4.013   0.165  12.608 -0.0806 -0.9031  0.5274
 1460SOL    HW215843   4.021   0.044  12.529  1.9222 -3.5307  1.7972
 1461SOL     OW15844   4.693   2.714   6.725  0.1357  0.0635 -0.0532
 1461SOL    HW115845   0.063   2.688   6.735 -0.1991 -0.4206  1.7940
 1461SOL    HW215846   4.674   2.642   6.665  1.5231 -0.3149 -0.0364
 1462SOL     OW15847   2.048   2.752  16.654 -0.2697  0.4120 -0.3538
 1462SOL    HW115848   1.969   2.749  16.601 -0.3565 -3.6098 -0.0195
 1462SOL    HW215849   2.020   2.776  16.742 -0.5720  1.1194 -0.6468
 1463SOL     OW15850   2.165   0.155   1.951  0.0107  0.0608  0.2183
 1463SOL    HW115851   2.140   0.084   1.892 -0.6723 -0.1075  0.7120
 1463SOL    HW215852   2.083   0.204   1.941  0.8992  1.3343 -0.8388
 1464SOL     OW15853   3.554   1.893   8.489  0.1921  0.0478 -0.4219
 1464SOL    HW115854   3.555   1.798   8.494  0.5964  0.0873  0.2196
 1464SOL    HW215855   3.614   1.919   8.559 -1.0354 -0.7205  0.9049
 1465SOL     OW15856   4.566   4.054   5.580 -0.1794 -0.3564 -0.8398
 1465SOL    HW115857   4.474   4.078   5.565  0.1017 -0.1388 -2.2179
 1465SOL    HW215858   4.570   3.960   5.562  2.9379  0.0415 -2.1163
 1466SOL     OW15859   3.627   3.516  16.521  0.6907  0.5289 -0.0507
 1466SOL    HW115860   3.649   3.565  16.442  3.1878 -0.5731 -0.0422
 1466SOL    HW215861   3.711   3.488  16.557  0.9571 -0.2445 -1.2758
 1467SOL     OW15862   1.016   3.813   6.893 -0.3246  0.6055 -0.2045
 1467SOL    HW115863   1.101   3.820   6.850 -0.8528  3.1850 -0.8060
 1467SOL    HW215864   0.965   3.760   6.832 -0.0806  3.7992 -3.1948
 1468SOL     OW15865   0.857   1.422  11.237 -0.0432 -0.2113 -0.0397
 1468SOL    HW115866   0.837   1.454  11.325  0.7198 -0.8646  0.3686
 1468SOL    HW215867   0.914   1.494  11.212 -0.3162 -0.0780 -0.2787
 1469SOL     OW15868   0.474   0.983  13.372 -0.1305  0.2378 -0.3692
 1469SOL    HW115869   0.455   0.911  13.433 -0.3232 -0.5056 -1.2960
 1469SOL    HW215870   0.523   1.047  13.422 -0.8130  0.4969 -0.0303
 1470SOL     OW15871   0.752   4.242   4.554 -0.4126 -0.7575 -0.1292
 1470SOL    HW115872   0.666   4.263   4.590 -0.0070  0.0396  0.3589
 1470SOL    HW215873   0.746   4.146   4.554 -0.4372 -0.7606 -1.1063
 1471SOL     OW15874   3.723   3.162  11.432  0.4828  0.4129  0.3779
 1471SOL    HW115875   3.668   3.100  11.480 -0.2959  1.1020  0.3571
 1471SOL    HW215876   3.769   3.214  11.498 -1.1517  4.6784 -1.8824
 1472SOL     OW15877   1.631   0.602  15.429  0.1127  0.6498  0.0786
 1472SOL    HW115878   1.570   0.670  15.401 -1.2134 -0.5355  0.0956
 1472SOL    HW215879   1.577   0.524  15.439  0.9877  0.0113 -0.1183
 1473SOL     OW15880   4.197   2.208   5.167  0.0410 -0.9850  0.4616
 1473SOL    HW115881   4.133   2.280   5.167  0.0851 -0.9424  0.7232
 1473SOL    HW215882   4.212   2.195   5.074 -0.2781  0.2441  0.2431
 1474SOL     OW15883   2.495   3.944  14.041 -0.3467  0.1599 -0.2629
 1474SOL    HW115884   2.511   4.010  14.108 -1.1568 -2.4570  2.5006
 1474SOL    HW215885   2.445   3.987  13.971 -0.5598 -0.1552 -0.3046
 1475SOL     OW15886   4.297   0.927   3.364  0.0978  0.0555  0.6527
 1475SOL    HW115887   4.279   0.936   3.457  0.9203  1.5346  0.6592
 1475SOL    HW215888   4.263   1.010   3.333 -0.9052 -0.4317  0.4386
 1476SOL     OW15889   3.961   0.931   2.500 -0.6818 -0.1815 -0.1401
 1476SOL    HW115890   4.045   0.975   2.488 -1.0337 -0.0809 -2.2441
 1476SOL    HW215891   3.902   1.005   2.511 -0.3361  0.0580  0.1109
 1477SOL     OW15892   1.123   4.452   7.180 -0.4434  0.4878 -0.4260
 1477SOL    HW115893   1.183   4.451   7.256  0.9390 -0.1610 -1.5243
 1477SOL    HW215894   1.134   4.361   7.154 -0.5618  0.0535  1.0000
 1478SOL     OW15895   0.052   1.245  14.524  0.6081  0.1956 -0.7745
 1478SOL    HW115896   0.072   1.278  14.436 -0.5589 -0.3726 -1.2602
 1478SOL    HW215897   4.699   1.184  14.522 -0.8820  2.0162 -1.3885
 1479SOL     OW15898   1.183   0.825   7.182  0.0005  0.6567  0.2738
 1479SOL    HW115899   1.257   0.773   7.215  0.9676  0.1649 -2.6314
 1479SOL    HW215900   1.216   0.914   7.192  1.3043  0.1598  0.4088
 1480SOL     OW15901   1.606   1.070   8.561  0.6822  0.3843 -0.0425
 1480SOL    HW115902   1.609   0.989   8.510  0.6107 -0.3496  1.1222
 1480SOL    HW215903   1.561   1.125   8.497  0.3744  0.1779 -0.0042
 1481SOL     OW15904   1.155   2.902  15.257  0.4780  0.1223 -0.1128
 1481SOL    HW115905   1.231   2.914  15.314  1.7297  0.3069 -1.8454
 1481SOL    HW215906   1.132   2.810  15.271  0.5889  0.4666  2.2916
 1482SOL     OW15907   1.881   2.667  13.588 -0.2625  0.0685 -0.3642
 1482SOL    HW115908   1.976   2.669  13.582 -0.3527  3.4125 -0.5002
 1482SOL    HW215909   1.856   2.759  13.599  0.7874 -0.0346  2.8436
 1483SOL     OW15910   2.836   0.795  12.573 -0.1438  0.2144 -0.5446
 1483SOL    HW115911   2.791   0.752  12.645 -0.4802  0.3221 -0.6887
 1483SOL    HW215912   2.753   0.810  12.527 -0.3885 -2.8129 -1.0704
 1484SOL     OW15913   0.343   3.174  13.323 -0.4365 -0.0745  0.0797
 1484SOL    HW115914   0.373   3.261  13.300  1.0747 -0.7282 -0.4474
 1484SOL    HW215915   0.282   3.197  13.393  1.3707 -0.1566  1.6865
 1485SOL     OW15916   4.538   2.724  11.775 -0.4475 -0.1696 -0.0034
 1485SOL    HW115917   4.448   2.700  11.798 -1.1073  1.4673 -0.8369
 1485SOL    HW215918   4.594   2.678  11.837 -1.0612  1.0572  1.4633
 1486SOL     OW15919   1.494   3.773   6.991 -0.5180 -0.1847  0.1497
 1486SOL    HW115920   1.524   3.710   7.058  2.5899 -1.4226 -2.3877
 1486SOL    HW215921   1.428   3.715   6.954 -0.1899 -0.7309  0.4083
 1487SOL     OW15922   3.255   1.267   1.993 -0.4805  0.2590 -0.3964
 1487SOL    HW115923   3.208   1.208   1.934  2.9976 -4.6942  1.7836
 1487SOL    HW215924   3.263   1.211   2.070  0.9756  1.3762  0.2577
 1488SOL     OW15925   2.142   0.365   7.367 -0.5646 -0.7789  0.1713
 1488SOL    HW115926   2.075   0.373   7.300 -0.5313  2.7989  0.5515
 1488SOL    HW215927   2.212   0.399   7.311  0.1647 -0.5968  1.1784
 1489SOL     OW15928   0.038   1.105  11.310 -0.8425  0.2327 -0.7232
 1489SOL    HW115929   0.038   1.039  11.241 -0.3655 -1.6529  1.0754
 1489SOL    HW215930   0.008   1.184  11.266 -0.3007  0.8050 -0.0502
 1490SOL     OW15931   1.088   1.848   6.923 -0.4185 -0.0925  0.0677
 1490SOL    HW115932   1.121   1.795   6.850  0.5797 -0.4714  0.7972
 1490SOL    HW215933   1.049   1.778   6.974  0.9617 -0.6434  0.3346
 1491SOL     OW15934   0.671   3.118  11.961 -0.5544 -0.4346 -0.6746
 1491SOL    HW115935   0.688   3.210  11.938  1.7209 -0.4681  0.9169
 1491SOL    HW215936   0.762   3.088  11.958 -0.4319 -0.2460  1.0211
 1492SOL     OW15937   0.164   0.212   8.227 -0.4797  0.1305 -0.2005
 1492SOL    HW115938   0.153   0.135   8.170  0.0278 -0.4729  0.5240
 1492SOL    HW215939   0.101   0.190   8.295  1.0049 -3.2337  0.0677
 1493SOL     OW15940   1.334   0.100   3.122  0.3105  0.4580  0.1802
 1493SOL    HW115941   1.329   0.061   3.035  3.4508 -0.3948  0.3744
 1493SOL    HW215942   1.391   0.175   3.108 -1.6730  2.1791  1.3093
 1494SOL     OW15943   2.332   3.772   6.641  0.8613 -0.6758 -0.7873
 1494SOL    HW115944   2.298   3.691   6.602  0.0837 -0.5421 -0.4056
 1494SOL    HW215945   2.420   3.746   6.668  1.2525  0.0867 -1.3336
 1495SOL     OW15946   3.370   3.267   0.705  0.0463  0.0668 -0.0475
 1495SOL    HW115947   3.351   3.344   0.758 -1.8542  0.9676 -2.0368
 1495SOL    HW215948   3.388   3.317   0.626  0.1437  1.6210  0.9532
 1496SOL     OW15949   1.727   2.956  13.608 -0.8757 -0.2868 -0.3345
 1496SOL    HW115950   1.658   3.017  13.580  0.3628  1.4656  0.4439
 1496SOL    HW215951   1.743   2.972  13.701 -0.7091 -0.4534 -0.3335
 1497SOL     OW15952   3.753   3.363  13.935  0.1164 -0.6521  1.0579
 1497SOL    HW115953   3.776   3.270  13.928 -1.0241 -0.9894  1.8088
 1497SOL    HW215954   3.834   3.407  13.910  0.9314 -1.4596  2.2576
 1498SOL     OW15955   1.852   3.515   7.504 -0.1903  0.0214  0.5940
 1498SOL    HW115956   1.894   3.475   7.428  0.3098 -1.9268  1.9033
 1498SOL    HW215957   1.876   3.607   7.490 -2.1107  0.2070 -1.4374
 1499SOL     OW15958   3.067   4.270   9.110 -0.5244  0.0627  0.0480
 1499SOL    HW115959   3.066   4.261   9.015  0.4726  3.5568 -0.3173
 1499SOL    HW215960   2.981   4.308   9.128 -0.2876  1.3887 -1.5654
 1500SOL     OW15961   1.848   3.830   8.274 -0.0051 -1.0880  0.2928
 1500SOL    HW115962   1.768   3.807   8.322  0.2895 -0.8532  0.8929
 1500SOL    HW215963   1.918   3.814   8.337  0.5356  1.9398  0.4593
 1501SOL     OW15964   2.962   1.221   8.364  0.2449 -0.2140 -0.0490
 1501SOL    HW115965   3.007   1.305   8.353 -0.8109  0.1642 -1.4331
 1501SOL    HW215966   2.870   1.242   8.380  0.9414  1.4836  1.7474
 1502SOL     OW15967   2.531   1.165   2.218  0.0429  0.1252  0.3218
 1502SOL    HW115968   2.501   1.077   2.195 -0.9559  1.1517 -2.2716
 1502SOL    HW215969   2.618   1.149   2.253  0.2586  0.1022 -0.2359
 1503SOL     OW15970   3.698   4.182   7.223  0.4399 -0.5746 -0.2971
 1503SOL    HW115971   3.724   4.269   7.192 -1.4622  1.4708  3.7939
 1503SOL    HW215972   3.622   4.148   7.176  1.1510 -2.4799 -0.0617
 1504SOL     OW15973   1.898   4.342   0.319  0.3198  0.0913 -0.2270
 1504SOL    HW115974   1.834   4.400   0.362 -0.6933 -0.7610 -0.5700
 1504SOL    HW215975   1.977   4.383   0.353 -0.3870  0.7941  0.5914
 1505SOL     OW15976   1.706   2.735   4.416 -0.7193 -0.2811 -0.1447
 1505SOL    HW115977   1.627   2.739   4.363 -1.4581 -0.5405  0.9312
 1505SOL    HW215978   1.769   2.734   4.344 -2.8729 -1.8187 -2.0281
 1506SOL     OW15979   2.813   3.558   3.837  0.5023 -0.5701 -0.0815
 1506SOL    HW115980   2.849   3.640   3.802  1.1491 -0.9736 -0.3779
 1506SOL    HW215981   2.821   3.502   3.759  0.1398 -2.0552  0.9625
 1507SOL     OW15982   1.614   2.938  16.108 -0.1046 -0.1753  0.2110
 1507SOL    HW115983   1.687   2.919  16.167 -1.3060  0.8465  2.0674
 1507SOL    HW215984   1.598   2.850  16.073  0.7519 -0.2068 -0.0956
 1508SOL     OW15985   4.402   0.674   5.223 -0.1785 -0.3560 -0.0368
 1508SOL    HW115986   4.478   0.618   5.234  0.4279  0.7750  1.5207
 1508SOL    HW215987   4.330   0.634   5.272 -0.6932 -0.7690 -1.1271
 1509SOL     OW15988   3.702   4.123   1.792 -0.2195 -0.1074  0.3892
 1509SOL    HW115989   3.707   4.089   1.881  0.7020 -2.0905 -0.4205
 1509SOL    HW215990   3.693   4.218   1.803 -2.0326 -0.2382  0.0166
 1510SOL     OW15991   1.010   2.907   2.270  0.3633 -0.0681 -0.0517
 1510SOL    HW115992   1.024   2.997   2.300 -3.3354  0.1458  1.0337
 1510SOL    HW215993   0.947   2.877   2.335 -0.3366  0.7214 -0.3608
 1511SOL     OW15994   2.675   1.026   3.125  0.3439 -0.2370 -1.1824
 1511SOL    HW115995   2.668   0.944   3.077 -0.7435 -0.6860 -0.2612
 1511SOL    HW215996   2.724   1.069   3.055  1.5532 -1.6998 -1.2348
 1512SOL     OW15997   1.300   4.085   7.644 -0.8584 -0.3688  0.7088
 1512SOL    HW115998   1.226   4.063   7.700  0.1043  1.1647  2.6013
 1512SOL    HW215999   1.258   4.139   7.577 -2.9933 -0.0421  2.3213
 1513SOL     OW16000   2.776   2.354   8.049 -0.4924  0.8873  0.1629
 1513SOL    HW116001   2.738   2.326   8.132 -1.0967  2.6932  0.5001
 1513SOL    HW216002   2.770   2.449   8.059 -1.7239  0.7252  1.0357
 1514SOL     OW16003   2.467   3.389   6.905 -0.0955 -0.0765  0.3479
 1514SOL    HW116004   2.521   3.392   6.984  0.8248  3.7441 -0.4459
 1514SOL    HW216005   2.428   3.476   6.905 -0.8518 -0.4140  0.0833
 1515SOL     OW16006   3.583   1.024   4.652 -0.1660 -0.9504  0.4524
 1515SOL    HW116007   3.638   0.946   4.648  2.0420  0.6713 -1.0794
 1515SOL    HW216008   3.564   1.039   4.560  1.0676  0.5553  0.4343
 1516SOL     OW16009   4.247   1.806   3.392  0.3950 -0.2101  0.3042
 1516SOL    HW116010   4.209   1.759   3.318 -0.8094 -1.0616  1.4623
 1516SOL    HW216011   4.275   1.734   3.449 -0.6979 -0.4165  0.5841
 1517SOL     OW16012   0.026   1.898   7.697 -0.6489  0.1681  0.1488
 1517SOL    HW116013   0.030   1.837   7.771 -1.1593  0.3584  0.3315
 1517SOL    HW216014   0.109   1.943   7.713 -0.7008  0.2513  0.1771
 1518SOL     OW16015   2.598   0.027   1.436 -0.1466  0.1463 -0.5747
 1518SOL    HW116016   2.694   0.027   1.442 -0.1834  0.8352  0.0093
 1518SOL    HW216017   2.586   0.031   1.341  0.4710 -2.1181 -0.7592
 1519SOL     OW16018   3.747   2.498   7.967 -0.1291 -0.2805  0.4809
 1519SOL    HW116019   3.687   2.493   7.893  2.8017  2.9286 -2.0923
 1519SOL    HW216020   3.682   2.504   8.037  0.7632 -0.2491  1.3059
 1520SOL     OW16021   3.788   1.798   2.120 -0.5906  0.0046 -0.1443
 1520SOL    HW116022   3.877   1.773   2.099  0.1208  0.6644  2.0716
 1520SOL    HW216023   3.745   1.746   2.053  0.8072 -2.6746  1.0598
 1521SOL     OW16024   3.018   0.960   3.036  0.2614 -0.3822 -0.3386
 1521SOL    HW116025   2.968   0.885   3.068 -2.5287  1.8073  0.3951
 1521SOL    HW216026   2.958   1.016   2.987  1.4887  1.9023  0.7856
 1522SOL     OW16027   3.048   0.591   3.667  0.2469 -0.1797 -0.9606
 1522SOL    HW116028   3.112   0.614   3.734 -0.0027 -0.4000 -0.6438
 1522SOL    HW216029   3.051   0.496   3.680  0.0386 -0.1016 -0.3333
 1523SOL     OW16030   0.933   4.179   9.845  0.2355  0.3376 -0.4581
 1523SOL    HW116031   0.932   4.123   9.768 -1.0213  0.3785 -0.4784
 1523SOL    HW216032   1.020   4.218   9.851  0.9789 -1.4729  0.4518
 1524SOL     OW16033   2.479   1.037  10.766  0.1513 -0.3130 -0.1151
 1524SOL    HW116034   2.547   1.020  10.830 -0.0272 -0.9149 -0.0852
 1524SOL    HW216035   2.421   0.964  10.787 -0.6383  1.2531  3.0247
 1525SOL     OW16036   2.881   4.305  10.097 -0.2492  0.0104  0.2030
 1525SOL    HW116037   2.800   4.261  10.072  0.3121 -0.4005 -0.8890
 1525SOL    HW216038   2.909   4.249  10.169 -0.6040  0.9817  1.0972
 1526SOL     OW16039   4.127   0.438   2.500 -0.1982 -0.4301  0.1596
 1526SOL    HW116040   4.203   0.422   2.556  1.3218  0.1267 -1.7378
 1526SOL    HW216041   4.173   0.430   2.416  0.4299  0.4454  0.4118
 1527SOL     OW16042   3.271   0.800  11.512  0.1006  0.1276  0.7759
 1527SOL    HW116043   3.308   0.889  11.516  0.0548  0.1675  0.2172
 1527SOL    HW216044   3.181   0.816  11.487  0.4210  0.0566 -0.4031
 1528SOL     OW16045   3.691   4.490   5.670  0.0079 -0.3571 -0.8142
 1528SOL    HW116046   3.717   4.451   5.753  0.8249 -1.2714 -1.5042
 1528SOL    HW216047   3.758   4.559   5.670 -1.3069  0.9364  0.8936
 1529SOL     OW16048   4.182   3.447  11.749  0.0974  0.6800  0.1970
 1529SOL    HW116049   4.094   3.483  11.759  0.2918  1.4394 -0.8557
 1529SOL    HW216050   4.152   3.366  11.708 -0.3849  1.1389 -0.3622
 1530SOL     OW16051   1.088   4.530  11.374  0.0626 -0.5468  0.2959
 1530SOL    HW116052   1.031   4.593  11.418  0.0214  1.4658 -2.5868
 1530SOL    HW216053   1.168   4.540  11.426  0.0415  1.4802 -0.0543
 1531SOL     OW16054   0.633   3.661   3.127  0.3686 -0.3044  0.0887
 1531SOL    HW116055   0.658   3.577   3.165  0.5694 -0.3669 -0.1791
 1531SOL    HW216056   0.667   3.722   3.193 -0.5168 -0.5690  0.7801
 1532SOL     OW16057   1.312   4.517  16.673  0.3003  0.4829  0.1877
 1532SOL    HW116058   1.224   4.533  16.707 -0.3524 -0.0323 -1.2353
 1532SOL    HW216059   1.350   4.461  16.742 -2.5027 -0.0894  1.2463
 1533SOL     OW16060   2.188   1.811   9.157 -0.2191  0.2668 -0.0235
 1533SOL    HW116061   2.171   1.899   9.124 -2.1628 -0.2907 -0.5042
 1533SOL    HW216062   2.282   1.799   9.142 -0.5895  1.3236 -3.0708
 1534SOL     OW16063   0.873   0.970   8.753 -0.3358  0.1568  0.5632
 1534SOL    HW116064   0.848   0.888   8.796 -0.6143  0.6035  1.2540
 1534SOL    HW216065   0.858   0.945   8.662 -2.2404 -0.4196  1.0363
 1535SOL     OW16066   3.835   2.231   5.974  0.1409  0.1147  0.4720
 1535SOL    HW116067   3.750   2.196   5.999  0.0976  1.3184  2.0269
 1535SOL    HW216068   3.891   2.191   6.041  2.2793  0.7132 -0.9356
 1536SOL     OW16069   0.702   4.580   3.274  0.6046  0.4735 -0.2323
 1536SOL    HW116070   0.772   4.637   3.306  1.2993 -0.0628 -0.7930
 1536SOL    HW216071   0.622   4.631   3.290  1.3941  1.4655  0.5640
 1537SOL     OW16072   1.079   2.441   8.925  0.4555 -0.9200  0.0970
 1537SOL    HW116073   1.151   2.408   8.872  0.4896  0.6293 -0.8162
 1537SOL    HW216074   1.033   2.359   8.943 -1.5936  0.4647  1.2077
 1538SOL     OW16075   2.975   2.634   1.498 -0.3900 -0.3061  0.3007
 1538SOL    HW116076   3.033   2.598   1.566  1.0677 -0.0483 -0.8239
 1538SOL    HW216077   2.890   2.621   1.540 -0.9688 -2.2687 -1.4526
 1539SOL     OW16078   1.508   1.681   8.527  0.3200  0.1264 -0.4563
 1539SOL    HW116079   1.540   1.607   8.579  0.3689  0.1644 -0.4333
 1539SOL    HW216080   1.546   1.752   8.579 -1.5602  2.6303 -2.5434
 1540SOL     OW16081   1.866   0.196   3.807 -0.3149 -0.4503 -0.7200
 1540SOL    HW116082   1.854   0.118   3.860 -1.6552 -1.1286 -2.0020
 1540SOL    HW216083   1.952   0.226   3.833 -0.7834 -0.3013  0.6328
 1541SOL     OW16084   1.857   0.122  17.166 -0.0591  0.4692  0.0443
 1541SOL    HW116085   1.890   0.182  17.099 -1.1878  0.0405 -0.8947
 1541SOL    HW216086   1.817   0.054  17.112 -1.3516 -1.1255  2.9948
 1542SOL     OW16087   3.119   3.654  13.153  0.0253 -0.5823  0.6642
 1542SOL    HW116088   3.040   3.614  13.117  0.0572  1.0590 -1.2560
 1542SOL    HW216089   3.151   3.574  13.193 -1.9885 -0.5633  2.2957
 1543SOL     OW16090   0.026   2.214  10.892 -0.0860  0.0720 -0.1011
 1543SOL    HW116091   0.089   2.142  10.902 -0.3758 -0.2172 -0.3507
 1543SOL    HW216092   0.027   2.256  10.978 -0.3250 -1.4194  0.6296
 1544SOL     OW16093   1.568   2.241  15.003 -0.5077 -0.7673  0.1909
 1544SOL    HW116094   1.642   2.228  15.063  0.0078  2.8928  0.3587
 1544SOL    HW216095   1.544   2.150  14.985  0.4816 -0.9743 -0.1047
 1545SOL     OW16096   3.005   4.061   2.174 -0.5584  0.2972 -0.8070
 1545SOL    HW116097   3.094   4.095   2.169  0.4459 -2.0781  0.9082
 1545SOL    HW216098   2.975   4.056   2.084 -0.5759 -0.3344 -0.7665
 1546SOL     OW16099   2.366   4.258   0.907  0.1397  0.4850 -0.1811
 1546SOL    HW116100   2.300   4.190   0.892  0.1806 -0.1374  2.4876
 1546SOL    HW216101   2.449   4.214   0.886  0.0667 -0.0587  0.6835
 1547SOL     OW16102   3.945   2.461   9.639 -0.3639 -0.3022 -0.6679
 1547SOL    HW116103   4.001   2.439   9.713  0.6725  2.6824 -0.5449
 1547SOL    HW216104   3.996   2.422   9.568 -2.1084 -0.6799 -1.7057
 1548SOL     OW16105   0.278   2.731   4.320  0.2263 -0.0434  0.1492
 1548SOL    HW116106   0.318   2.723   4.407 -0.2805  2.3589  0.5997
 1548SOL    HW216107   0.338   2.676   4.270 -1.9714 -1.8461 -0.5183
 1549SOL     OW16108   4.363   3.207   5.898  0.0732  0.0881 -0.1847
 1549SOL    HW116109   4.316   3.283   5.863  0.5416  0.3228 -0.2909
 1549SOL    HW216110   4.436   3.255   5.935  3.1723 -4.3132 -0.6211
 1550SOL     OW16111   2.547   1.071   5.935 -0.9430 -0.0003  0.2686
 1550SOL    HW116112   2.631   1.107   5.961  0.0851 -1.8041 -0.5688
 1550SOL    HW216113   2.578   1.037   5.851  0.9015  0.3302  0.8279
 1551SOL     OW16114   2.315   0.577   1.303 -0.5444 -0.0848  0.2882
 1551SOL    HW116115   2.277   0.531   1.378 -0.5691 -3.1953 -1.6276
 1551SOL    HW216116   2.406   0.576   1.332 -0.2734 -1.0710 -0.6321
 1552SOL     OW16117   4.020   1.526  16.328 -0.1556 -0.0806 -0.3111
 1552SOL    HW116118   4.000   1.448  16.380 -2.1277  2.0046  2.0811
 1552SOL    HW216119   4.115   1.524  16.334 -0.0953  0.6609 -1.0441
 1553SOL     OW16120   3.380   4.328   9.353 -0.0968 -0.7074 -0.3987
 1553SOL    HW116121   3.309   4.391   9.365 -0.1429 -0.8047 -0.1612
 1553SOL    HW216122   3.329   4.250   9.374 -2.0142  1.2076  2.0334
 1554SOL     OW16123   2.446   3.471   7.965  0.4400  0.0960 -0.2900
 1554SOL    HW116124   2.374   3.533   7.971 -1.2925 -1.8944 -0.7221
 1554SOL    HW216125   2.403   3.409   8.023  0.9439  0.8244  0.8709
 1555SOL     OW16126   4.070   2.568   6.034  0.0432  0.0243 -0.3057
 1555SOL    HW116127   3.983   2.536   6.011 -0.5120  1.0759  0.3410
 1555SOL    HW216128   4.065   2.646   5.979 -2.4233  0.5863  0.6909
 1556SOL     OW16129   1.194   0.495   2.198 -0.4673  0.8062 -0.2581
 1556SOL    HW116130   1.106   0.500   2.235 -0.1027 -0.3507  0.7438
 1556SOL    HW216131   1.243   0.549   2.259 -1.7590  1.0279  0.5876
 1557SOL     OW16132   3.212   4.270   8.860 -0.5346  0.0722 -0.0066
 1557SOL    HW116133   3.306   4.285   8.851 -0.6359  1.0545  0.6221
 1557SOL    HW216134   3.209   4.176   8.882  0.2097 -0.2274 -1.1803
 1558SOL     OW16135   1.702   0.539   7.095 -0.1034 -0.4221 -0.1014
 1558SOL    HW116136   1.770   0.605   7.080 -0.7815  0.1323 -0.7546
 1558SOL    HW216137   1.681   0.544   7.189 -3.2441 -0.5901 -0.7888
 1559SOL     OW16138   1.538   4.228   9.560 -0.1602  0.4486  0.0110
 1559SOL    HW116139   1.499   4.275   9.486 -0.7057  0.1358  0.0943
 1559SOL    HW216140   1.586   4.302   9.597 -0.5772  0.0096  1.4298
 1560SOL     OW16141   2.167   4.125   0.806 -0.5115 -0.1860  0.5515
 1560SOL    HW116142   2.180   4.067   0.731 -0.8397  3.0884 -2.0209
 1560SOL    HW216143   2.090   4.093   0.853 -2.1695  0.7057 -1.5677
 1561SOL     OW16144   0.597   3.855   3.679  0.0797  0.3211  0.1028
 1561SOL    HW116145   0.650   3.918   3.728 -1.1068  1.6044 -0.2775
 1561SOL    HW216146   0.524   3.913   3.659 -0.3524 -0.2111  0.1539
 1562SOL     OW16147   1.018   0.290   3.952  0.0640  0.0294 -0.0050
 1562SOL    HW116148   1.065   0.253   4.027 -0.0194 -0.2049 -0.0694
 1562SOL    HW216149   0.927   0.263   3.967 -0.4081  2.3627  1.2868
 1563SOL     OW16150   1.785   3.702   2.820 -0.4244  0.5671 -0.6243
 1563SOL    HW116151   1.783   3.661   2.733 -0.2526  0.0333 -0.3723
 1563SOL    HW216152   1.853   3.648   2.858  0.1498  3.4867  2.4992
 1564SOL     OW16153   1.891   3.872   8.915 -0.1144 -0.4697 -0.3478
 1564SOL    HW116154   1.825   3.887   8.983 -0.4354 -0.9656 -0.5464
 1564SOL    HW216155   1.970   3.860   8.968 -0.3919 -1.7359 -0.2123
 1565SOL     OW16156   2.899   4.633   2.905  0.1811 -0.0347 -0.1055
 1565SOL    HW116157   2.976   4.581   2.929  1.0916  0.8680 -1.0049
 1565SOL    HW216158   2.909   4.639   2.810 -0.9867 -1.7338 -0.3328
 1566SOL     OW16159   3.990   1.124   3.253 -0.0295 -0.5134  0.1143
 1566SOL    HW116160   3.967   1.198   3.310 -0.5245  0.7139 -1.6937
 1566SOL    HW216161   4.084   1.141   3.250 -0.2872  0.8007 -0.8109
 1567SOL     OW16162   3.228   4.333   3.292 -0.1509 -0.1739 -0.2176
 1567SOL    HW116163   3.183   4.387   3.358 -0.6558  0.2349 -0.8948
 1567SOL    HW216164   3.210   4.392   3.219  0.4436 -0.4868 -0.6112
 1568SOL     OW16165   0.631   1.431   6.279  0.7258 -0.0241 -0.5658
 1568SOL    HW116166   0.659   1.509   6.232  0.9889  0.5248  0.4937
 1568SOL    HW216167   0.619   1.460   6.370  2.9321 -0.7762 -0.0490
 1569SOL     OW16168   1.386   1.177  17.202 -0.1886  0.3435  0.2294
 1569SOL    HW116169   1.295   1.148  17.206 -0.4622  1.3040  1.0620
 1569SOL    HW216170   1.390   1.273  17.196  1.0727  0.3428  0.9721
 1570SOL     OW16171   2.052   3.865   6.645  0.2622 -0.2206  0.1591
 1570SOL    HW116172   2.090   3.779   6.627 -0.7553 -1.3219  3.2967
 1570SOL    HW216173   1.959   3.843   6.638  0.3342 -0.5716  0.3326
 1571SOL     OW16174   2.686   3.670   9.081  0.6930  0.2548 -0.2889
 1571SOL    HW116175   2.749   3.628   9.023  1.5665  1.9202 -0.5501
 1571SOL    HW216176   2.677   3.608   9.154 -0.1939 -1.3367 -1.7688
 1572SOL     OW16177   1.141   4.393  11.874 -0.2452 -0.3813  0.2771
 1572SOL    HW116178   1.096   4.478  11.873  0.2409 -0.1084  1.8775
 1572SOL    HW216179   1.144   4.388  11.970  3.9024 -0.6212  0.1238
 1573SOL     OW16180   3.180   4.115   5.996 -0.2386 -0.1469  0.3984
 1573SOL    HW116181   3.115   4.146   5.933 -0.4068  0.7337  1.0183
 1573SOL    HW216182   3.253   4.145   5.942  0.2209  2.6180  2.6049
 1574SOL     OW16183   4.442   2.603   7.431  0.0786 -0.6632 -0.5270
 1574SOL    HW116184   4.518   2.546   7.443  0.7543  0.8774  2.5835
 1574SOL    HW216185   4.429   2.622   7.524 -0.4170  0.0584 -0.7424
 1575SOL     OW16186   4.549   2.556  10.072  0.4748 -0.2826  0.1623
 1575SOL    HW116187   4.504   2.484  10.116 -0.9733 -1.0421 -2.5861
 1575SOL    HW216188   4.640   2.528  10.084  0.7245  0.3845 -0.1680
 1576SOL     OW16189   0.589   4.132  17.206  0.0301 -0.5088 -0.0718
 1576SOL    HW116190   0.680   4.158  17.215 -0.4414  1.5027 -1.1504
 1576SOL    HW216191   0.561   4.223  17.202  0.5316 -0.4044 -1.2583
 1577SOL     OW16192   4.387   1.358   0.391 -0.9370 -0.8682 -0.0377
 1577SOL    HW116193   4.370   1.420   0.320  0.0977  1.4618  1.7386
 1577SOL    HW216194   4.453   1.412   0.434 -0.3145 -0.4532 -1.4970
 1578SOL     OW16195   1.637   2.332   6.650 -0.2404  0.1719  0.5179
 1578SOL    HW116196   1.692   2.345   6.727  0.6171 -1.4893  0.2014
 1578SOL    HW216197   1.659   2.407   6.596 -0.5061  0.6433  1.0688
 1579SOL     OW16198   1.237   4.492   8.134 -0.1207 -0.2327 -0.0318
 1579SOL    HW116199   1.202   4.566   8.184  0.7903 -0.0394  0.3388
 1579SOL    HW216200   1.299   4.543   8.082 -1.1219 -0.3075 -1.2780
 1580SOL     OW16201   3.057   4.052   6.948 -0.1323  0.1236  0.3808
 1580SOL    HW116202   3.005   4.052   6.867  1.3605  1.7269 -0.5750
 1580SOL    HW216203   3.108   3.971   6.937 -3.3299 -1.5175 -2.3933
 1581SOL     OW16204   1.951   4.203  15.487  0.1035 -0.1486 -0.2534
 1581SOL    HW116205   1.861   4.183  15.460 -0.1667 -1.1584  1.3755
 1581SOL    HW216206   1.969   4.291  15.454  1.1735  1.2488  4.0852
 1582SOL     OW16207   3.285   3.078   8.029  0.1095  0.2725 -0.4250
 1582SOL    HW116208   3.351   3.130   7.984 -1.5311  0.0418 -3.1221
 1582SOL    HW216209   3.236   3.050   7.951  1.6221  0.7779 -1.5479
 1583SOL     OW16210   2.495   4.213  16.276  0.5489 -0.0128 -0.0117
 1583SOL    HW116211   2.448   4.181  16.353 -1.0566 -1.0405 -1.4211
 1583SOL    HW216212   2.427   4.226  16.210 -0.4325  0.6661  1.1280
 1584SOL     OW16213   2.996   2.357   4.403 -0.1814 -0.5402  0.0952
 1584SOL    HW116214   2.969   2.266   4.415  0.7665 -0.5096  2.4541
 1584SOL    HW216215   3.035   2.376   4.489 -1.2654  0.9932  0.2393
 1585SOL     OW16216   4.466   0.922   2.572 -0.0195 -0.6619  0.4291
 1585SOL    HW116217   4.502   0.872   2.646  1.4157  0.7672  0.7056
 1585SOL    HW216218   4.527   0.921   2.499 -0.5605 -0.9609 -0.0193
 1586SOL     OW16219   0.618   0.593   5.060  0.6741 -0.1889 -0.5844
 1586SOL    HW116220   0.666   0.512   5.077  0.5523 -0.4878 -1.6507
 1586SOL    HW216221   0.539   0.556   5.019  0.2600  1.0773 -0.9206
 1587SOL     OW16222   3.363   2.690   4.819  0.1129 -0.2629 -0.2976
 1587SOL    HW116223   3.357   2.785   4.834 -1.1693 -0.4528  0.3243
 1587SOL    HW216224   3.456   2.688   4.797 -0.3198 -1.1013 -2.0237
 1588SOL     OW16225   1.697   4.253   2.856  0.6443  0.0576  0.1127
 1588SOL    HW116226   1.734   4.168   2.832  1.6461  0.5776 -0.2006
 1588SOL    HW216227   1.761   4.304   2.806 -0.2540 -0.5901 -1.6939
 1589SOL     OW16228   3.937   2.088   7.444  0.2394 -0.4773  0.2261
 1589SOL    HW116229   4.010   2.059   7.389  0.2356  0.1335 -0.0985
 1589SOL    HW216230   3.861   2.040   7.412  0.9544 -0.2968 -1.7469
 1590SOL     OW16231   0.194   4.436   7.950  0.0549 -0.3752 -0.4032
 1590SOL    HW116232   0.107   4.440   7.912 -0.2249 -2.6099 -0.0480
 1590SOL    HW216233   0.237   4.487   7.881  1.0877 -0.4725  0.1587
 1591SOL     OW16234   3.130   1.383   0.811 -0.1745  0.2682 -0.4447
 1591SOL    HW116235   3.085   1.315   0.760  2.4941 -1.4260 -0.5274
 1591SOL    HW216236   3.049   1.428   0.835 -1.0032 -1.8582  0.7445
 1592SOL     OW16237   2.977   1.198  14.384 -0.4544 -0.3148 -0.2367
 1592SOL    HW116238   2.891   1.159  14.370  0.2907 -2.2866  0.6162
 1592SOL    HW216239   3.008   1.128  14.442  2.0114  0.3942 -0.6822
 1593SOL     OW16240   1.444   0.274   8.922 -0.0064  0.4159  0.1070
 1593SOL    HW116241   1.454   0.299   8.831  0.8937  0.4390  0.2112
 1593SOL    HW216242   1.451   0.360   8.964 -1.7977  0.5268  0.1816
 1594SOL     OW16243   3.874   2.069   2.072 -0.1467 -0.3006  0.2449
 1594SOL    HW116244   3.828   1.987   2.088  0.3099 -0.9088 -1.5822
 1594SOL    HW216245   3.831   2.127   2.135 -2.6083 -0.7420 -1.0693
 1595SOL     OW16246   0.190   0.592  16.301  0.0757  0.2135 -0.1208
 1595SOL    HW116247   0.217   0.539  16.226 -0.7537  1.1218 -1.0633
 1595SOL    HW216248   0.113   0.631  16.260  0.0434 -0.0838 -0.3447
 1596SOL     OW16249   1.004   0.957   5.570  0.1463  0.7452  0.5905
 1596SOL    HW116250   1.024   0.989   5.658  0.0666 -0.3210  0.9893
 1596SOL    HW216251   0.965   0.870   5.574 -3.0460  2.1559  0.4171
 1597SOL     OW16252   0.748   0.723   4.555  0.0763 -0.1346  0.2141
 1597SOL    HW116253   0.740   0.818   4.543  0.6183 -0.2981 -1.5663
 1597SOL    HW216254   0.683   0.709   4.623  1.2906 -0.5224  1.3098
 1598SOL     OW16255   4.258   3.195  17.028 -0.1475 -0.0180  0.3348
 1598SOL    HW116256   4.280   3.283  17.060  1.0120  0.8487 -2.8215
 1598SOL    HW216257   4.204   3.166  17.101  2.2837 -2.6730  1.0943
 1599SOL     OW16258   0.115   0.646   4.619 -0.1173  0.3326 -0.2777
 1599SOL    HW116259   0.046   0.650   4.553 -1.4157  2.8486  1.2337
 1599SOL    HW216260   0.066   0.618   4.697  0.4514 -1.1101 -0.4310
 1600SOL     OW16261   1.038   2.927   6.962  0.1067 -0.2744 -0.6612
 1600SOL    HW116262   0.999   3.007   6.926  2.4127  1.2851  0.2872
 1600SOL    HW216263   0.956   2.887   6.990 -0.6379  1.2252 -0.6878
 1601SOL     OW16264   3.737   3.061  12.943  0.5794  0.2022 -0.6074
 1601SOL    HW116265   3.798   3.033  12.874  1.8340 -0.7452  0.8740
 1601SOL    HW216266   3.792   3.133  12.973 -0.1362  0.2371  0.5959
 1602SOL     OW16267   0.667   2.221   8.865  0.0832  0.0644 -0.3768
 1602SOL    HW116268   0.736   2.263   8.813  0.2104  0.6734  0.2858
 1602SOL    HW216269   0.612   2.297   8.883  0.5174  0.1625  0.5167
 1603SOL     OW16270   2.515   1.738   4.913 -0.3866 -0.0794 -0.3324
 1603SOL    HW116271   2.482   1.820   4.951  1.2737  0.5563 -0.2585
 1603SOL    HW216272   2.432   1.701   4.884 -1.0053  0.0343  1.3187
 1604SOL     OW16273   0.920   2.087   4.182  0.7462 -0.0628 -0.5539
 1604SOL    HW116274   0.959   2.032   4.250  0.0637  0.9935  0.6881
 1604SOL    HW216275   0.872   2.016   4.140 -0.0861 -0.9359  1.8921
 1605SOL     OW16276   0.667   1.646  13.810 -0.1328  0.5798  0.1020
 1605SOL    HW116277   0.613   1.677  13.737  0.3050  1.1615  0.0238
 1605SOL    HW216278   0.720   1.582  13.762  0.9225  1.3919  0.1825
 1606SOL     OW16279   1.023   2.857   7.585 -0.2956  0.0046  0.2887
 1606SOL    HW116280   0.968   2.837   7.509  1.0322  0.9908 -0.9434
 1606SOL    HW216281   0.981   2.811   7.657  2.0244  0.1555  1.7502
 1607SOL     OW16282   2.917   0.081   6.727  0.1054  0.2410 -0.0371
 1607SOL    HW116283   2.901   0.170   6.759  0.5962 -0.7698  3.0328
 1607SOL    HW216284   2.834   0.034   6.737 -0.6521  1.0644 -2.3559
 1608SOL     OW16285   3.573   3.122   8.417  0.8668 -0.4078  0.2852
 1608SOL    HW116286   3.559   3.148   8.508  1.2626  0.6878  0.0343
 1608SOL    HW216287   3.650   3.177   8.402  0.0705  0.1587 -1.7112
 1609SOL     OW16288   1.974   3.161   4.743 -0.1728 -0.1431 -0.2073
 1609SOL    HW116289   2.020   3.235   4.783  0.4102 -0.7313  0.2167
 1609SOL    HW216290   1.910   3.219   4.702 -0.4775  0.3729  0.9843
 1610SOL     OW16291   4.353   3.610  13.778 -0.3390 -0.1903  0.0852
 1610SOL    HW116292   4.311   3.672  13.720  0.2636 -0.8824 -1.0939
 1610SOL    HW216293   4.285   3.611  13.846 -0.9157  2.2985 -0.5432
 1611SOL     OW16294   2.331   1.043   2.502 -0.8203  0.4325 -0.7165
 1611SOL    HW116295   2.406   1.002   2.459  0.4669  0.6254  1.3189
 1611SOL    HW216296   2.343   1.033   2.597 -2.2434 -0.4200 -0.6108
 1612SOL     OW16297   0.515   1.254   8.364  0.0802 -0.2941 -0.3287
 1612SOL    HW116298   0.496   1.247   8.270 -0.9595  1.8599 -0.2775
 1612SOL    HW216299   0.600   1.299   8.363  0.1273 -0.4155 -1.5830
 1613SOL     OW16300   3.964   4.629   4.564  0.0434 -0.1988 -0.2460
 1613SOL    HW116301   3.898   4.609   4.631  0.4770 -3.5902 -0.8177
 1613SOL    HW216302   4.026   4.690   4.604  0.5736 -1.3082  0.6317
 1614SOL     OW16303   3.740   2.702   3.224  0.3326  0.2382 -0.3379
 1614SOL    HW116304   3.675   2.676   3.159  0.0294  0.9727 -0.3307
 1614SOL    HW216305   3.676   2.730   3.289 -0.2351  0.3632 -0.9456
 1615SOL     OW16306   3.753   4.372  12.137 -0.1349 -0.6884 -0.4872
 1615SOL    HW116307   3.800   4.321  12.070 -1.2050  0.6603 -2.2742
 1615SOL    HW216308   3.721   4.300  12.191  1.8704 -1.3537 -0.1779
 1616SOL     OW16309   1.952   3.781   7.485  0.0845  0.4665 -0.0235
 1616SOL    HW116310   2.022   3.744   7.431  0.0171  2.5419 -1.4901
 1616SOL    HW216311   1.983   3.869   7.506  1.6780 -0.4520  1.4730
 1617SOL     OW16312   4.100   4.436   2.702 -0.2737 -0.5080 -0.0495
 1617SOL    HW116313   4.092   4.514   2.647  0.2915 -1.2796 -1.2394
 1617SOL    HW216314   4.166   4.461   2.767 -0.5858  1.6817 -0.5654
 1618SOL     OW16315   4.261   1.677   6.335 -0.3513 -0.5196 -0.5226
 1618SOL    HW116316   4.353   1.679   6.308  0.0316  1.5166  0.9855
 1618SOL    HW216317   4.241   1.762   6.373 -2.2998 -0.7918 -0.9266
 1619SOL     OW16318   2.745   4.363   3.160 -0.2649  0.1571  0.2408
 1619SOL    HW116319   2.694   4.443   3.148 -1.2900 -0.8517 -2.0499
 1619SOL    HW216320   2.719   4.308   3.087 -0.6268 -2.7801  2.5986
 1620SOL     OW16321   0.587   3.865  10.537 -0.0102 -0.1776  0.2561
 1620SOL    HW116322   0.562   3.781  10.574 -1.7973  0.2860  0.0701
 1620SOL    HW216323   0.626   3.840  10.453  1.5638  0.8913  0.6586
 1621SOL     OW16324   3.906   1.045   4.860  0.3706 -0.7960 -0.1654
 1621SOL    HW116325   3.986   1.090   4.887 -0.6510  1.8711 -1.6632
 1621SOL    HW216326   3.938   0.956   4.873  1.4574 -0.0104  2.5365
 1622SOL     OW16327   2.664   0.874   4.776  0.2811 -0.1761  0.0086
 1622SOL    HW116328   2.600   0.837   4.715  2.7830 -1.9761 -1.5022
 1622SOL    HW216329   2.597   0.879   4.844 -2.8680 -0.5838 -3.0299
 1623SOL     OW16330   0.628   2.178  11.819 -0.3294  0.1176 -0.1025
 1623SOL    HW116331   0.660   2.104  11.767  1.5597  0.1109  1.0918
 1623SOL    HW216332   0.610   2.146  11.907 -0.9379 -1.1325 -0.6924
 1624SOL     OW16333   2.882   3.206  13.462 -0.5964 -0.2854  0.0556
 1624SOL    HW116334   2.946   3.277  13.451 -0.5619 -0.3320 -0.0495
 1624SOL    HW216335   2.871   3.175  13.372 -1.3930 -0.0915  0.0836
 1625SOL     OW16336   1.227   2.085   5.440  0.4726 -0.9193 -0.1519
 1625SOL    HW116337   1.202   2.026   5.369  0.5703 -0.8809 -0.2186
 1625SOL    HW216338   1.318   2.056   5.453  0.2346 -1.8493 -0.5271
 1626SOL     OW16339   4.055   1.337   2.973 -0.6792 -0.2232 -0.0999
 1626SOL    HW116340   3.972   1.318   2.929 -0.0813 -0.0150 -1.3043
 1626SOL    HW216341   4.046   1.432   2.984  1.2082  0.0945 -1.3533
 1627SOL     OW16342   3.797   1.797  16.699  0.2762 -0.1135 -0.3071
 1627SOL    HW116343   3.745   1.877  16.699  2.2519  1.1483 -0.5838
 1627SOL    HW216344   3.841   1.797  16.615  1.9749 -1.1957  0.5866
 1628SOL     OW16345   4.059   0.867  16.192  0.0917 -0.3099 -0.6083
 1628SOL    HW116346   4.134   0.909  16.234 -1.2130  0.2681  1.1272
 1628SOL    HW216347   4.082   0.774  16.187  0.9797 -0.0897 -0.5801
 1629SOL     OW16348   2.244   4.279  16.123 -0.4272  0.0153 -0.1212
 1629SOL    HW116349   2.164   4.285  16.071 -0.7434 -0.1257  0.3495
 1629SOL    HW216350   2.208   4.311  16.205 -0.2669  1.2872 -0.5449
 1630SOL     OW16351   3.659   2.249   5.079 -0.3297 -0.0707 -0.0297
 1630SOL    HW116352   3.614   2.173   5.115  2.3682 -1.3402  0.6308
 1630SOL    HW216353   3.609   2.319   5.121 -1.3755  0.1446 -1.6093
 1631SOL     OW16354   1.895   3.415   7.758  0.0731  0.3224  0.3178
 1631SOL    HW116355   1.959   3.474   7.798 -0.1032  0.3447  0.5665
 1631SOL    HW216356   1.884   3.447   7.668 -1.4767  0.2066  0.4660
 1632SOL     OW16357   2.336   1.061   5.193 -0.0853 -0.0558  0.3219
 1632SOL    HW116358   2.414   1.109   5.221 -0.3365 -0.1051  1.1046
 1632SOL    HW216359   2.273   1.131   5.177  0.7128  0.4079 -0.8047
 1633SOL     OW16360   3.447   3.068   2.741 -0.2913  0.6171  0.0932
 1633SOL    HW116361   3.505   3.142   2.754  1.0955 -0.6301  0.9444
 1633SOL    HW216362   3.499   2.992   2.767  0.0540  0.8494  0.0683
 1634SOL     OW16363   2.175   3.277   2.447  0.1033  0.1952  0.2907
 1634SOL    HW116364   2.182   3.358   2.496 -0.5693 -0.0952  0.8649
 1634SOL    HW216365   2.174   3.316   2.359  0.7755 -0.0032  0.1910
 1635SOL     OW16366   1.140   2.890   0.381 -0.8505  0.2976 -0.3438
 1635SOL    HW116367   1.145   2.957   0.448  1.4808 -0.1640 -0.0657
 1635SOL    HW216368   1.166   2.931   0.298 -0.3582  0.1463 -0.2656
 1636SOL     OW16369   2.937   4.297   2.289  0.2539  0.1472  0.0656
 1636SOL    HW116370   2.843   4.296   2.302  0.6026  2.8927  2.9281
 1636SOL    HW216371   2.964   4.213   2.251 -0.3386 -0.2378  0.4990
 1637SOL     OW16372   4.029   2.419  13.512 -0.1249  0.4227 -0.1258
 1637SOL    HW116373   4.101   2.399  13.572 -0.7389  2.6272  1.3504
 1637SOL    HW216374   4.081   2.456  13.441  1.5005 -1.3537  0.1281
 1638SOL     OW16375   3.806   3.324   8.466 -0.0065  0.1131  0.3447
 1638SOL    HW116376   3.894   3.293   8.488 -0.4128  0.0629  1.8512
 1638SOL    HW216377   3.792   3.405   8.516  0.2144  0.6224 -0.4157
 1639SOL     OW16378   1.024   0.870   3.346 -0.2393 -0.6786  0.4406
 1639SOL    HW116379   1.046   0.959   3.320 -1.8051 -1.1200 -2.4494
 1639SOL    HW216380   0.929   0.876   3.351 -0.1188  2.4835 -0.8409
 1640SOL     OW16381   3.169   2.698   7.360 -0.2621  0.0546  0.3477
 1640SOL    HW116382   3.087   2.668   7.322 -0.1114  0.1638 -0.0661
 1640SOL    HW216383   3.180   2.771   7.298  1.7021  0.3646  1.0746
 1641SOL     OW16384   3.332   3.344  10.368 -0.0534 -0.0063 -0.1432
 1641SOL    HW116385   3.426   3.337  10.383 -0.3956 -1.2271  1.5000
 1641SOL    HW216386   3.329   3.352  10.273  1.0185 -1.2537 -0.2713
 1642SOL     OW16387   3.869   1.945   1.136 -0.2835  0.2901  0.3522
 1642SOL    HW116388   3.850   2.039   1.145  1.3036  0.6325  0.0519
 1642SOL    HW216389   3.795   1.912   1.086 -0.2290 -3.2266  2.5785
 1643SOL     OW16390   0.918   2.723   3.855  0.0826 -0.5893  0.4306
 1643SOL    HW116391   0.956   2.697   3.771  0.8253  1.5055  0.1320
 1643SOL    HW216392   0.829   2.731   3.821 -0.0441 -0.5277  0.7763
 1644SOL     OW16393   4.138   1.217   6.774  0.1863  0.2078 -0.0726
 1644SOL    HW116394   4.121   1.244   6.864 -0.1031  2.0445 -0.6552
 1644SOL    HW216395   4.054   1.196   6.732 -0.0643 -1.3782  1.2256
 1645SOL     OW16396   1.572   1.121   7.642 -0.1103  0.4054  0.3709
 1645SOL    HW116397   1.505   1.060   7.612 -0.0527  0.3235  0.4097
 1645SOL    HW216398   1.624   1.127   7.562  0.1905  1.0136  0.6091
 1646SOL     OW16399   1.679   1.070  13.013 -0.2827  0.3352 -0.0536
 1646SOL    HW116400   1.694   0.985  12.971  2.1973  0.3525  0.8344
 1646SOL    HW216401   1.642   1.041  13.096 -0.7797 -2.6657 -1.3298
 1647SOL     OW16402   0.555   4.027   4.732 -0.3831  0.1349  0.2557
 1647SOL    HW116403   0.504   4.001   4.655 -1.6675  0.0383  1.1401
 1647SOL    HW216404   0.483   4.049   4.791 -1.3177 -0.1372 -0.7850
 1648SOL     OW16405   0.309   1.113   2.579  0.1996 -0.4351  0.1588
 1648SOL    HW116406   0.395   1.093   2.617  1.4891 -1.6168 -3.4507
 1648SOL    HW216407   0.250   1.049   2.619 -0.4832 -0.1849 -0.4518
 1649SOL     OW16408   2.925   2.113   5.311  0.0651 -0.1713  0.3194
 1649SOL    HW116409   2.900   2.179   5.376 -0.2975  1.3228 -1.3413
 1649SOL    HW216410   2.916   2.031   5.361 -1.5695  0.0389  0.3654
 1650SOL     OW16411   4.294   4.111   7.472  0.0372 -0.5654  0.4088
 1650SOL    HW116412   4.344   4.154   7.403  0.1006 -1.7388 -0.2836
 1650SOL    HW216413   4.217   4.167   7.480 -1.5217 -2.4621 -1.3073
 1651SOL     OW16414   2.243   1.498   8.377 -0.1002  0.4613  0.2349
 1651SOL    HW116415   2.221   1.405   8.367 -0.3770  0.3121  2.1961
 1651SOL    HW216416   2.219   1.517   8.467 -0.5920 -0.3474  0.2821
 1652SOL     OW16417   2.431   3.054  16.264 -0.4516 -0.2137 -0.3310
 1652SOL    HW116418   2.448   3.095  16.179 -0.7069  0.1608 -0.1993
 1652SOL    HW216419   2.461   2.966  16.241 -1.5000 -0.1850 -1.8113
 1653SOL     OW16420   3.140   1.798   7.842  0.3329 -0.3498  0.1254
 1653SOL    HW116421   3.050   1.765   7.850  0.9545 -1.8018  1.1998
 1653SOL    HW216422   3.167   1.754   7.762  0.4520  2.1796 -1.2227
 1654SOL     OW16423   2.514   1.706   7.957 -0.3252  0.4689 -0.1552
 1654SOL    HW116424   2.516   1.614   7.928  0.0685 -0.1915  1.9398
 1654SOL    HW216425   2.607   1.717   7.977 -0.4804  2.1897 -0.4138
 1655SOL     OW16426   2.163   1.904   7.226  0.2605 -0.1405 -0.3934
 1655SOL    HW116427   2.203   1.974   7.278  0.3291 -0.5198  0.0698
 1655SOL    HW216428   2.214   1.890   7.146  2.4094  1.7792  0.6440
 1656SOL     OW16429   3.793   2.570   6.649  0.5052  0.6885 -0.2835
 1656SOL    HW116430   3.722   2.619   6.689  0.2629  0.2777 -0.2043
 1656SOL    HW216431   3.769   2.598   6.560 -1.5266  2.7960  0.9486
 1657SOL     OW16432   1.927   1.730   6.299 -0.8141  0.3987 -0.2180
 1657SOL    HW116433   1.963   1.721   6.211 -3.0403  0.2129 -1.1221
 1657SOL    HW216434   1.897   1.821   6.307  0.8204  0.7635  1.8038
 1658SOL     OW16435   0.644   4.260   6.520  0.1995 -0.4419  0.3687
 1658SOL    HW116436   0.738   4.257   6.501 -0.0175  0.3132 -0.7909
 1658SOL    HW216437   0.625   4.167   6.519 -3.1075  0.2337  1.2041
 1659SOL     OW16438   3.816   3.929  16.791  0.0159 -0.4749  0.1651
 1659SOL    HW116439   3.866   3.855  16.825 -1.2626 -1.8286 -0.9150
 1659SOL    HW216440   3.879   3.983  16.744  0.0346 -0.0524  0.6674
 1660SOL     OW16441   2.963   1.088   1.702 -0.7895 -0.9302  0.2344
 1660SOL    HW116442   3.013   1.033   1.763  0.2526 -0.1350  0.1035
 1660SOL    HW216443   3.039   1.136   1.668  0.0380 -1.8982  0.7127
 1661SOL     OW16444   2.629   4.674   5.182 -0.1717  0.6214  0.5090
 1661SOL    HW116445   2.597   4.643   5.097  3.1096 -2.6389  0.4247
 1661SOL    HW216446   2.543   4.679   5.224 -0.2546 -0.9924  0.5464
 1662SOL     OW16447   2.385   1.159   6.710 -0.0296  0.0215  0.1172
 1662SOL    HW116448   2.442   1.141   6.784 -0.5328  0.1128  0.5330
 1662SOL    HW216449   2.359   1.244   6.747 -2.1478 -0.5828  0.0550
 1663SOL     OW16450   0.058   4.693   7.605 -0.1654 -0.0308 -0.0704
 1663SOL    HW116451   0.052   0.001   7.514  2.1557  0.0094 -0.2091
 1663SOL    HW216452   0.142   4.651   7.587  0.5963  1.6020 -0.3716
 1664SOL     OW16453   1.919   3.882  17.623  0.1269 -0.1697 -0.0115
 1664SOL    HW116454   1.898   3.826   0.010  2.4224 -3.0659 -1.5557
 1664SOL    HW216455   2.001   3.917  17.658  0.1930 -1.5678  1.2315
 1665SOL     OW16456   3.360   4.469   6.822 -0.8440 -0.1671  0.4010
 1665SOL    HW116457   3.395   4.461   6.911 -2.4607  0.6804  1.1280
 1665SOL    HW216458   3.314   4.553   6.829 -2.5143 -1.1052  0.6300
 1666SOL     OW16459   3.832   4.180   5.668 -0.0142 -0.1218  0.5967
 1666SOL    HW116460   3.778   4.259   5.656  0.4707 -0.0116 -0.7998
 1666SOL    HW216461   3.773   4.108   5.648 -2.4350  1.3449  2.4566
 1667SOL     OW16462   4.117   3.114   5.671  0.5132 -0.0619  0.3393
 1667SOL    HW116463   4.038   3.124   5.618  0.4902 -2.3468 -0.0468
 1667SOL    HW216464   4.080   3.139   5.755 -0.5242 -1.0623  0.1828
 1668SOL     OW16465   4.520   3.169   7.699 -0.0998 -0.7278 -0.0711
 1668SOL    HW116466   4.576   3.117   7.756  0.3505  0.9573  0.9936
 1668SOL    HW216467   4.564   3.253   7.693  0.8983 -1.2488  0.0356
 1669SOL     OW16468   1.658   2.266  12.327  0.2471  0.1179  0.8164
 1669SOL    HW116469   1.694   2.278  12.239 -2.4192 -1.1096 -0.4336
 1669SOL    HW216470   1.736   2.237  12.374  1.6096 -0.3194 -1.7255
 1670SOL     OW16471   0.243   2.351   4.174  0.1457  0.4343  0.0877
 1670SOL    HW116472   0.326   2.364   4.221  0.4079  0.0129 -0.2568
 1670SOL    HW216473   0.246   2.413   4.101 -0.5454  0.6593  0.2517
 1671SOL     OW16474   4.639   0.104   7.949 -0.1303  0.0444 -0.5760
 1671SOL    HW116475   4.573   0.171   7.965 -1.0043 -0.9993  0.2393
 1671SOL    HW216476   4.655   0.073   8.039 -1.7124 -1.3281 -0.7647
 1672SOL     OW16477   3.552   1.976  17.531  0.5264  0.2966 -0.0015
 1672SOL    HW116478   3.584   2.051  17.580 -1.0494  1.5541 -0.9255
 1672SOL    HW216479   3.581   1.906  17.591  0.3180  0.9905  0.9052
 1673SOL     OW16480   2.045   3.373   7.014 -0.3593 -0.4332  0.0305
 1673SOL    HW116481   2.134   3.389   7.047 -0.7179  1.8780 -0.1021
 1673SOL    HW216482   2.060   3.435   6.942 -2.7885 -0.4438 -0.4760
 1674SOL     OW16483   0.061   2.803   7.034 -0.3200 -0.3109  0.1185
 1674SOL    HW116484   0.027   2.714   7.022  1.1457 -1.2009  2.5536
 1674SOL    HW216485   0.148   2.784   6.998 -0.7810 -2.8199  0.3321
 1675SOL     OW16486   3.489   4.020   5.411 -0.5204  0.4896  0.0836
 1675SOL    HW116487   3.415   4.072   5.444 -1.1738 -0.9665  0.9089
 1675SOL    HW216488   3.473   3.928   5.432  0.9871  0.0933 -0.5082
 1676SOL     OW16489   1.246   0.841   4.168  0.6078 -0.3252  0.3884
 1676SOL    HW116490   1.189   0.793   4.228  1.6114 -3.1723 -0.9558
 1676SOL    HW216491   1.228   0.926   4.207  2.2192 -1.5560  3.8221
 1677SOL     OW16492   2.808   0.720   5.035  0.3029 -0.1252  0.0057
 1677SOL    HW116493   2.810   0.648   5.097  0.6262 -0.1713 -0.0585
 1677SOL    HW216494   2.745   0.687   4.971  0.0076  3.5874 -1.6089
 1678SOL     OW16495   1.260   2.066   1.182  0.4478  0.0028  0.1848
 1678SOL    HW116496   1.225   2.114   1.107  1.4309  0.1282 -0.1971
 1678SOL    HW216497   1.202   1.991   1.192 -0.0006  0.5438  1.6068
 1679SOL     OW16498   1.850   0.969  14.434  0.0182 -0.3391  0.1472
 1679SOL    HW116499   1.834   0.926  14.518 -0.5428  2.8023  1.6240
 1679SOL    HW216500   1.782   0.917  14.390  0.3883  0.6091 -1.5180
 1680SOL     OW16501   3.219   0.759   4.459 -0.5639  0.2180  0.2619
 1680SOL    HW116502   3.167   0.679   4.464 -0.0611 -0.1143  0.1705
 1680SOL    HW216503   3.273   0.756   4.538  1.0943 -0.2830 -0.8943
 1681SOL     OW16504   1.420   0.500   4.794 -0.4960  0.2489  0.0968
 1681SOL    HW116505   1.418   0.544   4.708  2.1887 -0.9802 -0.6054
 1681SOL    HW216506   1.336   0.530   4.828 -2.1917 -2.2182 -1.9594
 1682SOL     OW16507   0.183   2.836   5.154 -0.2645 -0.0085 -0.4723
 1682SOL    HW116508   0.150   2.782   5.227 -1.0782 -0.7660 -1.4022
 1682SOL    HW216509   0.246   2.775   5.116  0.7484  0.7165  0.0758
 1683SOL     OW16510   0.147   4.594   8.780  0.4733  0.3861 -0.0927
 1683SOL    HW116511   0.157   4.688   8.762  1.9822  0.2070 -0.1893
 1683SOL    HW216512   0.190   4.588   8.865 -0.3145 -2.6335  0.0801
 1684SOL     OW16513   4.551   4.179   7.824 -0.8087 -0.1899 -0.2286
 1684SOL    HW116514   4.512   4.103   7.780 -1.5454 -1.7111  3.0533
 1684SOL    HW216515   4.480   4.240   7.809  0.5110  1.0504 -1.4220
 1685SOL     OW16516   4.604   4.534   1.098 -0.3804  0.4017 -0.0623
 1685SOL    HW116517   4.579   4.557   1.188  0.1522 -0.0799  0.2086
 1685SOL    HW216518   4.579   4.442   1.104  5.3926 -1.3393 -2.7449
 1686SOL     OW16519   4.478   1.820   5.903  0.0258 -0.2315 -0.5406
 1686SOL    HW116520   4.490   1.852   5.993 -0.4002 -1.4952 -0.0323
 1686SOL    HW216521   4.550   1.757   5.898  1.5410  1.4818 -0.3119
 1687SOL     OW16522   4.390   2.410   3.558  0.2734  0.0251 -0.8458
 1687SOL    HW116523   4.419   2.493   3.521 -2.2852  0.2356 -2.3482
 1687SOL    HW216524   4.390   2.429   3.652 -0.4811 -0.4366 -0.7518
 1688SOL     OW16525   0.929   1.520   3.812 -0.5284 -0.8832  0.1928
 1688SOL    HW116526   0.968   1.484   3.892 -2.8860  0.2290  1.8324
 1688SOL    HW216527   1.001   1.515   3.748  0.2676 -0.7091  1.0748
 1689SOL     OW16528   0.836   3.380   4.045 -0.0014 -0.0457  0.2879
 1689SOL    HW116529   0.828   3.438   4.120 -0.4578 -0.1423  0.3123
 1689SOL    HW216530   0.892   3.436   3.991  1.2010 -2.5000 -1.0336
 1690SOL     OW16531   0.147   3.284   5.824  0.9565 -0.2171 -0.4256
 1690SOL    HW116532   0.139   3.247   5.736  0.1630  2.3475 -1.4246
 1690SOL    HW216533   0.216   3.229   5.861  1.4411 -0.6532 -1.9633
 1691SOL     OW16534   2.819   0.280   2.774 -0.1194  0.1530  0.4511
 1691SOL    HW116535   2.776   0.196   2.757  0.7546 -0.0135 -0.9849
 1691SOL    HW216536   2.796   0.320   2.690  0.7808  2.5624  1.3389
 1692SOL     OW16537   2.416   0.570  12.014  0.3700 -0.2674  0.1624
 1692SOL    HW116538   2.509   0.578  11.992 -0.3119 -1.4474 -3.2187
 1692SOL    HW216539   2.378   0.625  11.946 -0.1086  0.3375  0.9179
 1693SOL     OW16540   4.392   0.953  13.916 -0.1923  0.0152 -0.3877
 1693SOL    HW116541   4.303   0.922  13.929 -0.5517  1.4388  0.5866
 1693SOL    HW216542   4.395   1.030  13.860  2.3488  0.0062 -0.3006
 1694SOL     OW16543   2.436   2.228   0.587 -0.3119 -0.2419  0.2307
 1694SOL    HW116544   2.461   2.298   0.526 -2.7144  1.5871  1.3071
 1694SOL    HW216545   2.358   2.266   0.628  0.8995  0.7051  1.6190
 1695SOL     OW16546   3.872   1.608   6.042 -0.0220 -0.4653  0.3683
 1695SOL    HW116547   3.932   1.671   6.081  0.9456 -0.4427 -1.1763
 1695SOL    HW216548   3.796   1.643   6.089 -0.3065 -0.1459 -0.3233
 1696SOL     OW16549   1.267   3.081   6.449 -0.3757 -0.2051 -0.1691
 1696SOL    HW116550   1.223   3.054   6.530  0.5645 -0.4802  0.2508
 1696SOL    HW216551   1.247   3.175   6.451 -2.3778 -0.6202 -0.6892
 1697SOL     OW16552   3.710   3.411  11.916 -0.1656  0.6505 -0.8426
 1697SOL    HW116553   3.615   3.398  11.918 -0.0857 -0.2443 -4.0111
 1697SOL    HW216554   3.710   3.476  11.986  0.3085  0.6411 -0.8331
 1698SOL     OW16555   3.436   3.826   1.358 -0.3936 -0.2013 -0.0385
 1698SOL    HW116556   3.493   3.900   1.337 -1.1354  0.4410  0.1629
 1698SOL    HW216557   3.422   3.826   1.453 -1.3665 -1.3104 -0.1779
 1699SOL     OW16558   3.079   2.482   6.711  0.1036  0.2515 -0.5141
 1699SOL    HW116559   3.100   2.392   6.737 -0.8582  0.0979 -0.2848
 1699SOL    HW216560   3.087   2.479   6.616  0.6497  2.8399 -0.5374
 1700SOL     OW16561   0.946   2.169   1.284  0.4547  0.1331  0.1504
 1700SOL    HW116562   0.966   2.248   1.334 -0.6813 -0.2188  1.1722
 1700SOL    HW216563   0.895   2.218   1.218 -1.1817 -0.1765  1.1835
 1701SOL     OW16564   4.353   1.029  15.606 -0.1969 -0.1170  0.3834
 1701SOL    HW116565   4.390   1.027  15.518 -2.9525  1.6888 -0.8463
 1701SOL    HW216566   4.300   0.949  15.600 -0.1967 -0.2427  2.2039
 1702SOL     OW16567   0.664   0.287   3.190 -0.1964  0.1440 -0.3513
 1702SOL    HW116568   0.604   0.213   3.180 -0.0823  0.1486 -1.1140
 1702SOL    HW216569   0.742   0.254   3.145  0.9573 -1.3389  2.7865
 1703SOL     OW16570   3.557   2.191   4.594 -0.4188  0.0263  0.0759
 1703SOL    HW116571   3.557   2.131   4.668  2.4624  1.8855  1.5838
 1703SOL    HW216572   3.488   2.253   4.618 -0.3069 -0.2261  1.0557
 1704SOL     OW16573   4.581   2.908   0.124  0.5393 -0.0781  0.1606
 1704SOL    HW116574   4.592   2.960   0.045  0.9999  1.5687  1.2955
 1704SOL    HW216575   4.609   2.823   0.093  0.2842 -0.4349  0.9027
 1705SOL     OW16576   2.103   3.835   8.387  0.0670 -0.6181 -0.3864
 1705SOL    HW116577   2.140   3.911   8.432  0.2558 -0.7944 -0.2441
 1705SOL    HW216578   2.172   3.797   8.331  1.5384  0.2328  0.8528
 1706SOL     OW16579   0.597   0.438   0.746 -0.3148 -0.4250 -0.3777
 1706SOL    HW116580   0.519   0.388   0.721 -0.2421 -0.3821 -0.6962
 1706SOL    HW216581   0.570   0.464   0.834  0.7814 -1.8414  0.3894
 1707SOL     OW16582   2.063   3.963   2.670  0.4372 -0.3071 -0.6249
 1707SOL    HW116583   2.115   3.900   2.619  0.9085  0.4624 -1.0924
 1707SOL    HW216584   2.079   4.050   2.634 -2.3678  0.5248  0.1492
 1708SOL     OW16585   2.416   1.969  11.473 -0.0669 -0.0157 -0.0176
 1708SOL    HW116586   2.336   2.018  11.491 -1.8571 -2.2342 -1.9891
 1708SOL    HW216587   2.415   1.937  11.383  0.6674  0.4106 -0.1781
 1709SOL     OW16588   2.239   0.176   3.732  0.0096 -0.2206  0.3977
 1709SOL    HW116589   2.228   0.223   3.650 -3.3075  0.8222  1.4444
 1709SOL    HW216590   2.335   0.169   3.734  0.2357  2.5765 -0.2954
 1710SOL     OW16591   1.912   0.394   0.775 -0.4254 -0.4884 -0.0965
 1710SOL    HW116592   1.959   0.461   0.825  1.5399 -0.7018 -1.6645
 1710SOL    HW216593   1.907   0.328   0.844 -0.8825  0.1704  0.5038
 1711SOL     OW16594   3.921   4.005   7.548 -0.1001 -0.4792 -0.1952
 1711SOL    HW116595   3.924   4.018   7.643  4.0326  0.2982 -0.4441
 1711SOL    HW216596   3.837   4.043   7.522  1.5657  0.7496 -3.7542
 1712SOL     OW16597   1.903   0.536   7.327 -0.6934 -0.2681  0.0552
 1712SOL    HW116598   1.988   0.537   7.370 -0.9154 -1.3310  0.5278
 1712SOL    HW216599   1.872   0.624   7.347  1.6708  0.0279  2.3078
 1713SOL     OW16600   0.407   4.185  12.775 -0.5044 -0.3791 -0.7845
 1713SOL    HW116601   0.444   4.101  12.748 -3.8440 -2.2800  0.6738
 1713SOL    HW216602   0.468   4.216  12.843 -3.4564 -1.0079  2.1178
 1714SOL     OW16603   0.238   4.027   5.559  0.8725 -1.0722  0.0444
 1714SOL    HW116604   0.315   3.991   5.516  0.1355 -1.6046 -0.8342
 1714SOL    HW216605   0.194   4.074   5.488  1.5901 -0.0934  0.2470
 1715SOL     OW16606   0.184   3.085   1.024  0.1653 -0.1902  0.3668
 1715SOL    HW116607   0.150   3.032   1.096 -2.8448  1.0243 -0.1395
 1715SOL    HW216608   0.259   3.126   1.067  0.8963  0.7481 -1.7623
 1716SOL     OW16609   1.624   2.474   2.614  0.1342 -0.0007  0.2449
 1716SOL    HW116610   1.560   2.503   2.549 -0.9150 -0.1057  1.2331
 1716SOL    HW216611   1.694   2.537   2.600  0.1129 -0.4903 -2.0602
 1717SOL     OW16612   0.520   4.119  10.250 -0.5416  0.0985 -0.2506
 1717SOL    HW116613   0.493   4.208  10.228 -0.6475  0.6550  2.1425
 1717SOL    HW216614   0.460   4.060  10.204 -0.2125 -0.0944 -0.4302
 1718SOL     OW16615   3.396   1.899   3.152 -0.4405 -0.2809  0.3675
 1718SOL    HW116616   3.308   1.897   3.115 -0.3831 -0.7876  0.2555
 1718SOL    HW216617   3.396   1.839   3.226  3.3729 -1.3084 -0.4204
 1719SOL     OW16618   1.370   0.610   6.260 -0.0095 -0.0225  0.0296
 1719SOL    HW116619   1.374   0.540   6.194  0.9479  0.0480  0.0179
 1719SOL    HW216620   1.294   0.571   6.303 -0.8040  1.3274 -0.1520
 1720SOL     OW16621   1.856   0.642  16.526  0.5380  0.2410  0.5020
 1720SOL    HW116622   1.800   0.719  16.537 -1.0203 -1.0360  1.5823
 1720SOL    HW216623   1.894   0.666  16.441  1.2386  0.0616  0.7663
 1721SOL     OW16624   3.756   1.467  14.034 -0.2309 -0.2226  0.1756
 1721SOL    HW116625   3.820   1.472  13.963 -1.2388  0.0789 -0.6994
 1721SOL    HW216626   3.675   1.498  13.993  1.1252  3.5268  0.3479
 1722SOL     OW16627   0.586   0.109  10.646  0.2159 -0.3699  0.3084
 1722SOL    HW116628   0.535   0.048  10.699  1.0221  0.3042  1.8352
 1722SOL    HW216629   0.531   0.187  10.637 -0.2696 -0.5356  1.9883
 1723SOL     OW16630   4.351   0.957   5.605  0.0370 -0.2413 -0.1961
 1723SOL    HW116631   4.256   0.951   5.619 -0.1998  2.0250 -0.7936
 1723SOL    HW216632   4.378   0.869   5.628 -0.0748  0.1448  1.3883
 1724SOL     OW16633   4.641   4.582   4.597 -0.1380 -0.4725  0.1507
 1724SOL    HW116634   4.701   4.510   4.579 -0.6051 -0.6747 -0.5701
 1724SOL    HW216635   4.561   4.529   4.597 -1.5202  1.6283 -0.5988
 1725SOL     OW16636   4.481   4.610   7.307  0.1669 -0.1802  0.3480
 1725SOL    HW116637   4.480   4.539   7.370 -1.6437 -1.6592 -1.3208
 1725SOL    HW216638   4.566   4.653   7.317 -0.0916  0.5699 -0.6189
 1726SOL     OW16639   4.267   3.692   7.971  0.1864 -0.1602  0.8414
 1726SOL    HW116640   4.318   3.770   7.994  0.5544 -0.8396  2.2729
 1726SOL    HW216641   4.315   3.629   8.024  0.5429 -2.0126 -1.7101
 1727SOL     OW16642   1.009   4.599   5.674 -0.1231  0.1139  0.5037
 1727SOL    HW116643   0.992   4.505   5.666  1.5118 -0.1681  0.1943
 1727SOL    HW216644   1.091   4.603   5.624 -0.4472 -1.5511 -0.1602
 1728SOL     OW16645   4.096   4.658   8.510  0.2382  0.4408  0.0086
 1728SOL    HW116646   4.046   4.583   8.477  4.3198 -1.0646 -2.7635
 1728SOL    HW216647   4.039   0.011   8.492 -1.6688 -0.6999  1.2912
 1729SOL     OW16648   2.571   1.277   8.888 -0.2218 -0.0392  0.0371
 1729SOL    HW116649   2.643   1.340   8.887 -0.9869  0.8202 -0.9798
 1729SOL    HW216650   2.593   1.217   8.817 -1.1926 -0.6774  0.2772
 1730SOL     OW16651   0.062   1.210   4.485 -0.7055  0.3685  0.1035
 1730SOL    HW116652   0.019   1.295   4.483  1.7371  1.6134  1.1911
 1730SOL    HW216653   0.127   1.227   4.417  0.8431 -1.0320  1.2152
 1731SOL     OW16654   3.423   4.663   8.417  0.1835 -0.1376  0.6274
 1731SOL    HW116655   3.417   4.578   8.461 -0.7510 -2.0333 -3.1590
 1731SOL    HW216656   3.515   4.663   8.390  0.3172  1.4525  1.0684
 1732SOL     OW16657   4.608   1.115   4.769  0.1066 -0.0103  0.5076
 1732SOL    HW116658   4.574   1.202   4.751  0.9028  0.8318  3.0275
 1732SOL    HW216659   4.587   1.074   4.685 -1.5918  2.9247 -0.4872
 1733SOL     OW16660   1.461   2.529   0.228  0.3932 -0.0229  0.1459
 1733SOL    HW116661   1.473   2.473   0.304 -1.3124  0.9100  1.0865
 1733SOL    HW216662   1.382   2.492   0.189 -0.6846 -0.1638  2.5013
 1734SOL     OW16663   2.204   4.683   4.382  0.6465  0.0542  0.1152
 1734SOL    HW116664   2.246   4.647   4.460  0.8593  0.9902  0.4267
 1734SOL    HW216665   2.116   4.709   4.407  1.7382  1.7652  2.1071
 1735SOL     OW16666   1.059   1.906  13.655 -0.1101  0.1446  0.0898
 1735SOL    HW116667   1.121   1.955  13.708  0.8655 -1.0781  0.0637
 1735SOL    HW216668   1.052   1.957  13.574  0.6289  0.9373  0.5307
 1736SOL     OW16669   2.171   3.819   3.586 -0.6277 -0.3540 -0.5068
 1736SOL    HW116670   2.186   3.729   3.615  0.0488  0.5602  1.9893
 1736SOL    HW216671   2.098   3.849   3.639  1.0689  2.3799  0.2693
 1737SOL     OW16672   3.859   4.631  11.705 -0.3703 -0.8673  0.0014
 1737SOL    HW116673   3.770   4.667  11.706 -0.0159  0.0034 -0.0307
 1737SOL    HW216674   3.831   4.540  11.701 -0.7930 -0.7522  0.3714
 1738SOL     OW16675   3.089   3.954  14.555  0.1437 -0.1966  0.0651
 1738SOL    HW116676   3.092   4.050  14.553  2.2953 -0.2986 -1.5651
 1738SOL    HW216677   3.158   3.956  14.621  0.9497  0.0568 -0.7735
 1739SOL     OW16678   3.056   0.975   4.590  0.3465  0.0001 -0.4511
 1739SOL    HW116679   3.114   1.042   4.625  1.0904 -0.3378 -1.0328
 1739SOL    HW216680   3.119   0.915   4.550 -0.3956 -0.6541 -0.6463
 1740SOL     OW16681   0.150   3.324   3.885 -0.5083  0.1956  0.1527
 1740SOL    HW116682   0.061   3.339   3.853 -0.4577  1.1673  0.4735
 1740SOL    HW216683   0.174   3.255   3.822 -0.0061 -1.1411  1.7981
 1741SOL     OW16684   1.844   4.609   3.226 -0.1826 -0.7087  0.3358
 1741SOL    HW116685   1.793   4.542   3.270 -0.4231 -0.8633 -0.1731
 1741SOL    HW216686   1.814   4.589   3.137  1.9921 -0.6265 -0.4260
 1742SOL     OW16687   4.601   0.982   3.701 -0.8079  0.2785  0.3257
 1742SOL    HW116688   4.612   0.945   3.614 -1.7652  0.9761 -0.0895
 1742SOL    HW216689   4.669   1.049   3.695 -0.9030  0.2568 -0.8364
 1743SOL     OW16690   0.929   1.317   7.338  0.0303  0.4391 -0.1052
 1743SOL    HW116691   0.968   1.389   7.388 -1.0703  0.4200  0.8020
 1743SOL    HW216692   0.837   1.324   7.362  0.1710 -2.9558  1.4323
 1744SOL     OW16693   0.268   2.779   2.642 -0.4678  0.6764  0.5923
 1744SOL    HW116694   0.206   2.710   2.620 -0.8625  1.5490 -1.0134
 1744SOL    HW216695   0.292   2.811   2.556 -0.0839  2.5040  1.3773
 1745SOL     OW16696   0.735   1.362   3.010 -1.0475  0.6359 -0.3718
 1745SOL    HW116697   0.657   1.411   3.034 -0.0870  1.0311  1.9222
 1745SOL    HW216698   0.765   1.428   2.947  0.7524 -2.1786 -2.4635
 1746SOL     OW16699   4.482   0.320   9.133  0.4796 -0.2501  0.0561
 1746SOL    HW116700   4.430   0.325   9.052 -0.5830 -1.5487  0.6450
 1746SOL    HW216701   4.546   0.390   9.119 -0.2029  1.2083  4.1185
 1747SOL     OW16702   1.205   3.722  14.115  0.1934  0.1725  0.2800
 1747SOL    HW116703   1.230   3.648  14.060 -1.4976  0.9959 -1.5891
 1747SOL    HW216704   1.170   3.674  14.190 -0.1739  1.5670  1.0131
 1748SOL     OW16705   0.149   4.544   2.531  0.1602  0.1703 -0.4078
 1748SOL    HW116706   0.229   4.490   2.526 -1.2207 -1.6046 -3.1497
 1748SOL    HW216707   0.116   4.527   2.443  0.0437 -2.2464  0.0750
 1749SOL     OW16708   2.776   4.170   1.580  0.6258 -0.2309  0.0939
 1749SOL    HW116709   2.734   4.255   1.567 -0.2882 -0.9091 -1.3714
 1749SOL    HW216710   2.788   4.170   1.675  1.0512 -0.2956  0.0398
 1750SOL     OW16711   2.009   0.073  15.088  0.1376 -0.0795  0.7521
 1750SOL    HW116712   1.926   0.075  15.136  0.6866  1.2412  1.6415
 1750SOL    HW216713   2.062   0.039  15.159  1.7204  2.2652  0.6975
 1751SOL     OW16714   4.084   0.388   8.800  0.0710 -0.2396 -0.0583
 1751SOL    HW116715   4.099   0.297   8.826  0.0477 -0.3053 -0.2752
 1751SOL    HW216716   4.046   0.368   8.714  1.3685 -0.5756 -0.5421
 1752SOL     OW16717   2.462   1.650  11.532  0.2167  0.2543 -0.3121
 1752SOL    HW116718   2.381   1.663  11.582  0.2526 -0.8382  0.0360
 1752SOL    HW216719   2.454   1.721  11.468 -0.1586 -0.7113 -1.3503
 1753SOL     OW16720   1.431   3.093   2.677 -0.1406  0.1140  0.1526
 1753SOL    HW116721   1.413   3.125   2.589 -1.8119  1.3283  0.9160
 1753SOL    HW216722   1.523   3.117   2.679 -0.1160  0.0987 -1.0585
 1754SOL     OW16723   2.224   4.349  11.127 -0.2577  0.0269  0.0408
 1754SOL    HW116724   2.162   4.406  11.080  0.3585 -1.0161 -2.0643
 1754SOL    HW216725   2.246   4.294  11.052 -0.7023  1.6243 -1.2726
 1755SOL     OW16726   1.637   0.329   3.865  0.0530 -0.0635 -1.0189
 1755SOL    HW116727   1.635   0.422   3.887 -0.9913 -0.0313 -1.2412
 1755SOL    HW216728   1.730   0.307   3.868  0.1878  0.9101  1.5493
 1756SOL     OW16729   1.142   1.325   8.146  0.3736  0.2292  0.4966
 1756SOL    HW116730   1.212   1.363   8.093  1.3623  0.4134  1.9480
 1756SOL    HW216731   1.140   1.368   8.232 -0.7621  1.6982 -0.2589
 1757SOL     OW16732   4.336   2.188  15.121 -0.2588 -0.2821  0.6092
 1757SOL    HW116733   4.379   2.156  15.041  1.2935 -0.4051  1.4976
 1757SOL    HW216734   4.384   2.131  15.181  0.4895 -0.6830 -0.3528
 1758SOL     OW16735   4.431   3.262   4.368  0.0539  0.0609  0.2329
 1758SOL    HW116736   4.479   3.180   4.369  0.8147  0.4311 -3.5018
 1758SOL    HW216737   4.479   3.302   4.296 -0.4551  0.8514  0.3299
 1759SOL     OW16738   4.666   2.559   6.314 -0.2634 -0.3882 -0.1904
 1759SOL    HW116739   4.661   2.644   6.357  1.2419 -0.5962  0.4063
 1759SOL    HW216740   4.607   2.573   6.240 -0.1042 -1.3878 -0.5053
 1760SOL     OW16741   0.878   2.012   2.903  0.5550 -0.6205 -0.4945
 1760SOL    HW116742   0.892   2.055   2.988 -0.2072 -2.3302  0.4890
 1760SOL    HW216743   0.929   1.935   2.928  0.3848 -0.5109  0.2155
 1761SOL     OW16744   0.301   1.128   7.479 -0.1453 -0.5388 -0.1327
 1761SOL    HW116745   0.301   1.224   7.469  1.3676 -0.6627 -1.3954
 1761SOL    HW216746   0.382   1.111   7.528  1.5939  0.0284 -2.8125
 1762SOL     OW16747   2.126   3.885  14.116 -0.0457 -0.6528 -0.1346
 1762SOL    HW116748   2.217   3.910  14.131  0.0685 -2.4349  2.1018
 1762SOL    HW216749   2.083   3.970  14.126  0.2945 -0.3522 -1.1904
 1763SOL     OW16750   2.030   3.873   7.181 -0.6053  0.3385  0.1162
 1763SOL    HW116751   2.060   3.856   7.092  0.6005  0.4550  0.4872
 1763SOL    HW216752   2.059   3.802   7.239 -1.0868  0.2040  0.1862
 1764SOL     OW16753   3.035   2.229   3.574  0.4255 -0.1201  0.7556
 1764SOL    HW116754   3.050   2.139   3.547  0.6584  0.7270 -1.9728
 1764SOL    HW216755   3.102   2.274   3.521 -0.9418  2.1909  0.9805
 1765SOL     OW16756   0.752   3.189   9.095 -0.2953 -0.0149 -0.2872
 1765SOL    HW116757   0.817   3.120   9.109 -0.2180  0.1842  0.3108
 1765SOL    HW216758   0.799   3.255   9.043  0.4232  0.0362  0.4340
 1766SOL     OW16759   0.852   4.044   9.181  0.3882  0.1714  0.3914
 1766SOL    HW116760   0.760   4.064   9.163  0.7131 -1.3821 -2.9125
 1766SOL    HW216761   0.875   4.056   9.088 -1.8170 -0.7980 -0.2783
 1767SOL     OW16762   1.717   3.673  10.788  0.2339  0.3306  0.0421
 1767SOL    HW116763   1.673   3.716  10.715  0.3929  0.5956  0.1045
 1767SOL    HW216764   1.806   3.685  10.753  0.4235 -0.7374  0.1525
 1768SOL     OW16765   0.206   0.269  13.045  0.9825  0.1742 -0.0007
 1768SOL    HW116766   0.210   0.308  13.133  3.9351 -0.4068  0.1150
 1768SOL    HW216767   0.118   0.233  13.046  0.4986  1.4463  3.0515
 1769SOL     OW16768   1.464   4.315   1.498 -0.0200  0.5060 -0.0579
 1769SOL    HW116769   1.436   4.240   1.446 -1.2089  0.5807  0.4792
 1769SOL    HW216770   1.508   4.363   1.427 -0.2537  0.3387 -0.3190
 1770SOL     OW16771   3.968   4.058  10.776  0.2185  0.2916  0.8326
 1770SOL    HW116772   4.039   4.100  10.728  0.9306 -1.0328  0.7207
 1770SOL    HW216773   3.994   4.069  10.868 -3.8870 -1.1486  2.1375
 1771SOL     OW16774   0.684   1.122   5.836  0.1148  0.1580  0.5891
 1771SOL    HW116775   0.652   1.177   5.765  1.5032  0.1447 -0.0333
 1771SOL    HW216776   0.767   1.165   5.856 -0.8593  1.8987  0.9036
 1772SOL     OW16777   4.163   0.198  17.252  0.1993 -0.0157 -0.1145
 1772SOL    HW116778   4.219   0.256  17.201  2.0476 -0.1030  1.8012
 1772SOL    HW216779   4.165   0.241  17.338 -0.3386  1.2274 -0.7223
 1773SOL     OW16780   4.359   0.602  16.480 -0.5738  0.4522 -0.4272
 1773SOL    HW116781   4.394   0.519  16.511 -0.6876  1.6383  2.9039
 1773SOL    HW216782   4.289   0.613  16.545  2.1923 -1.2402  2.8168
 1774SOL     OW16783   1.109   3.935  15.779  0.0083  0.3277 -0.5839
 1774SOL    HW116784   1.026   3.944  15.732 -0.8703 -3.0611  0.3106
 1774SOL    HW216785   1.166   3.897  15.712 -0.8410 -0.1509 -1.0337
 1775SOL     OW16786   1.589   0.863   1.847 -0.1694 -0.0607  0.2918
 1775SOL    HW116787   1.602   0.872   1.753 -2.2732 -4.2912 -0.4085
 1775SOL    HW216788   1.577   0.770   1.864  0.3705  0.1143  1.6969
 1776SOL     OW16789   1.285   3.771   4.972 -0.2948 -0.1230  0.5287
 1776SOL    HW116790   1.192   3.750   4.979 -0.0616 -1.3583 -0.0039
 1776SOL    HW216791   1.289   3.860   5.007 -0.9302  0.0641  0.1290
 1777SOL     OW16792   2.896   0.835   5.326 -0.5683 -0.2480 -0.8022
 1777SOL    HW116793   2.834   0.764   5.308  0.1418 -1.1342  0.2894
 1777SOL    HW216794   2.973   0.779   5.317  0.2104  0.4886  1.2303
 1778SOL     OW16795   1.731   2.056  15.859 -0.2685 -0.2992 -0.1733
 1778SOL    HW116796   1.636   2.061  15.860 -0.3113 -0.9948 -1.0291
 1778SOL    HW216797   1.753   2.142  15.824 -0.5694 -1.1919 -2.5486
 1779SOL     OW16798   3.261   0.743   2.829  0.4736  0.0957 -0.3291
 1779SOL    HW116799   3.240   0.717   2.919  0.2887 -1.1679 -0.7451
 1779SOL    HW216800   3.278   0.836   2.841 -0.5301  0.1414  0.7150
 1780SOL     OW16801   2.863   1.682   3.933 -0.8676  0.1147 -0.5080
 1780SOL    HW116802   2.773   1.677   3.965 -0.1526 -4.0941  0.8067
 1780SOL    HW216803   2.905   1.616   3.988 -0.4254  2.8667  2.4505
 1781SOL     OW16804   4.629   1.260   5.581 -0.1071  0.2554 -0.6211
 1781SOL    HW116805   4.545   1.238   5.620 -0.4860  2.1234 -0.3819
 1781SOL    HW216806   4.658   1.321   5.649  0.6483 -0.8938  0.0774
 1782SOL     OW16807   0.896   1.906   6.568  0.0934  0.2174 -0.0426
 1782SOL    HW116808   0.882   1.986   6.619  1.2949  0.3092  0.1487
 1782SOL    HW216809   0.972   1.934   6.517 -0.0096 -1.1519 -0.9296
 1783SOL     OW16810   1.420   2.536   4.078  0.0033  0.0058  0.3798
 1783SOL    HW116811   1.345   2.549   4.020 -1.4833  0.6298  2.4438
 1783SOL    HW216812   1.415   2.442   4.097 -0.5715 -0.1861 -0.7120
 1784SOL     OW16813   4.284   2.530   1.723 -0.0835 -0.5520 -0.1056
 1784SOL    HW116814   4.374   2.529   1.691 -0.7097  0.8301 -1.9300
 1784SOL    HW216815   4.302   2.530   1.817  0.9957  3.0915 -0.3293
 1785SOL     OW16816   1.935   2.212   8.497 -0.9130  0.0918  0.6045
 1785SOL    HW116817   1.899   2.124   8.484 -0.9789  0.2750 -0.4503
 1785SOL    HW216818   1.859   2.238   8.548 -0.7886 -0.0990  0.8847
 1786SOL     OW16819   0.055   1.111  11.577 -0.2638 -0.0364  0.0117
 1786SOL    HW116820   0.060   1.117  11.481  1.1225  1.2420  0.1640
 1786SOL    HW216821   0.133   1.063  11.605 -1.7579 -2.3657  0.1793
 1787SOL     OW16822   4.343   2.298   3.879  0.6315 -0.1340  0.5932
 1787SOL    HW116823   4.271   2.327   3.823  1.0110 -0.6368 -0.1606
 1787SOL    HW216824   4.305   2.274   3.963  2.3428  1.0158  1.7034
 1788SOL     OW16825   2.865   1.084   4.092  0.0335 -0.2306 -0.0318
 1788SOL    HW116826   2.930   1.050   4.154 -0.7756  1.7949  1.9401
 1788SOL    HW216827   2.914   1.060   4.013  0.2625  0.4402 -0.0968
 1789SOL     OW16828   3.208   2.359  11.679  0.3024 -0.4197 -0.1304
 1789SOL    HW116829   3.160   2.379  11.599  0.5772 -2.1299 -0.7145
 1789SOL    HW216830   3.132   2.350  11.737  0.8417 -2.3364  0.2819
 1790SOL     OW16831   4.403   4.690   6.579 -0.3836 -0.7321  0.4613
 1790SOL    HW116832   4.449   4.608   6.559 -1.1239 -0.8917 -0.5749
 1790SOL    HW216833   4.324   4.661   6.626 -1.6408  1.1415 -0.4933
 1791SOL     OW16834   2.392   3.831   7.463 -0.3111  0.0783 -0.1113
 1791SOL    HW116835   2.307   3.864   7.491  0.9110  3.2723 -0.1716
 1791SOL    HW216836   2.379   3.789   7.378  0.3653  0.5724 -0.4585
 1792SOL     OW16837   4.055   0.453   5.929 -0.3127 -0.2399 -0.5461
 1792SOL    HW116838   4.072   0.397   6.004  2.5101  2.1285  0.5893
 1792SOL    HW216839   4.098   0.398   5.863 -0.8193 -1.9165  0.5489
 1793SOL     OW16840   0.379   0.637   3.803 -0.6598  0.2932 -0.0616
 1793SOL    HW116841   0.399   0.582   3.879  2.5419 -0.0944 -1.1791
 1793SOL    HW216842   0.470   0.667   3.792 -0.3725 -1.2996 -1.9778
 1794SOL     OW16843   0.706   2.172   2.739  0.2283 -0.3196 -0.2450
 1794SOL    HW116844   0.776   2.194   2.677  0.4604  0.8536  0.4315
 1794SOL    HW216845   0.760   2.128   2.805  1.3438  0.4665 -0.6261
 1795SOL     OW16846   2.781   1.172   6.045 -0.0197 -0.5025 -0.1139
 1795SOL    HW116847   2.835   1.097   6.072  1.0387  0.1036 -0.5645
 1795SOL    HW216848   2.739   1.189   6.129  0.6562  0.5845 -0.0049
 1796SOL     OW16849   3.212   2.939  14.146  0.3357 -0.4714  0.2328
 1796SOL    HW116850   3.212   3.035  14.142 -1.5669 -0.5561 -1.7492
 1796SOL    HW216851   3.165   2.914  14.067 -0.3676  2.6360 -0.3529
 1797SOL     OW16852   4.616   2.083  16.920 -0.3586  0.1446 -0.1039
 1797SOL    HW116853   4.566   2.163  16.934 -0.3370 -0.0422  1.0320
 1797SOL    HW216854   4.683   2.084  16.989 -0.7455 -0.2971  0.2789
 1798SOL     OW16855   3.916   2.905   3.618 -0.6184 -0.3842  0.5646
 1798SOL    HW116856   3.896   2.820   3.579 -0.8090  1.0788 -2.5182
 1798SOL    HW216857   3.827   2.939   3.625 -1.6604 -2.5588 -1.9112
 1799SOL     OW16858   0.110   1.623   9.753  0.5618 -0.1637  1.0460
 1799SOL    HW116859   0.120   1.716   9.772 -0.2162  0.3850 -1.2195
 1799SOL    HW216860   0.015   1.627   9.742  0.9270  0.7197 -1.8458
 1800SOL     OW16861   4.322   4.555   7.964  0.0440  0.7520  0.2103
 1800SOL    HW116862   4.266   4.544   8.041  1.8307 -0.2735  1.3546
 1800SOL    HW216863   4.306   4.647   7.946 -0.9897 -0.0058 -2.7147
 1801SOL     OW16864   1.195   1.226  16.711  0.6225  0.2146 -0.0617
 1801SOL    HW116865   1.132   1.294  16.687  0.2651 -0.6371 -1.5918
 1801SOL    HW216866   1.136   1.177  16.767  0.0250 -0.8284 -1.5929
 1802SOL     OW16867   3.757   4.165   1.158 -0.2993  0.3031 -0.2880
 1802SOL    HW116868   3.708   4.247   1.158 -0.0441  0.4561 -0.8111
 1802SOL    HW216869   3.760   4.140   1.251  1.1350  0.2391 -0.3545
 1803SOL     OW16870   3.653   4.419   3.952  0.3636  0.6600  0.0035
 1803SOL    HW116871   3.592   4.475   3.903 -1.9394 -0.7276  1.3025
 1803SOL    HW216872   3.701   4.481   4.007  0.7462 -0.1542  0.5866
 1804SOL     OW16873   0.864   3.960   3.067 -0.4994  0.0428 -0.1459
 1804SOL    HW116874   0.895   4.035   3.119 -0.2500 -1.1577  1.4420
 1804SOL    HW216875   0.927   3.968   2.995  1.2553 -0.8734  1.2712
 1805SOL     OW16876   0.440   3.031   7.311 -0.8726 -0.1227  0.1715
 1805SOL    HW116877   0.352   3.056   7.338 -0.3935  1.4757  0.2828
 1805SOL    HW216878   0.415   2.957   7.256 -2.3298  1.4921 -1.3511
 1806SOL     OW16879   2.317   2.296   8.090 -0.6806  0.0170  0.7716
 1806SOL    HW116880   2.289   2.307   7.999  1.6696 -1.4859 -0.1537
 1806SOL    HW216881   2.409   2.278   8.072 -1.4040  0.9069 -3.9983
 1807SOL     OW16882   4.111   1.188   6.264  0.3816 -0.2376  0.4226
 1807SOL    HW116883   4.086   1.230   6.182  2.8354 -0.8045 -0.6083
 1807SOL    HW216884   4.051   1.114   6.253  0.3343 -0.2552  0.7873
 1808SOL     OW16885   0.098   1.417   8.088  0.0306  0.5329 -0.5069
 1808SOL    HW116886   0.178   1.465   8.110  0.2441 -0.5132  1.0311
 1808SOL    HW216887   0.027   1.466   8.130  1.3869  0.0927  2.2906
 1809SOL     OW16888   3.788   3.558   1.273 -0.0547 -0.4754 -0.3255
 1809SOL    HW116889   3.833   3.620   1.217 -0.3948  0.8829  0.8914
 1809SOL    HW216890   3.843   3.572   1.350 -2.2924  0.8178  1.0600
 1810SOL     OW16891   2.258   2.704  12.290 -0.0122 -0.0701 -0.2214
 1810SOL    HW116892   2.215   2.787  12.307  0.0282  0.3346 -2.1374
 1810SOL    HW216893   2.180   2.651  12.274  0.9607 -0.6839 -2.8646
 1811SOL     OW16894   3.082   2.483   3.323  0.1585 -0.2063  0.2244
 1811SOL    HW116895   3.072   2.417   3.254  0.9558 -1.2269  1.0813
 1811SOL    HW216896   3.150   2.434   3.369 -1.7762 -3.2007 -0.1166
 1812SOL     OW16897   1.507   2.788   1.128 -0.1620 -0.1276 -0.1230
 1812SOL    HW116898   1.544   2.718   1.074  0.8230 -0.1464  0.5654
 1812SOL    HW216899   1.466   2.845   1.063 -2.5565 -0.2472  1.2777
 1813SOL     OW16900   4.352   1.601   3.553 -0.1198  0.4973  0.3111
 1813SOL    HW116901   4.390   1.516   3.533  1.0395  1.1753 -0.3753
 1813SOL    HW216902   4.407   1.634   3.625  1.4849 -0.2651 -0.5663
 1814SOL     OW16903   3.187   3.239   5.114  0.3785  0.2804 -0.0628
 1814SOL    HW116904   3.143   3.296   5.177  0.3986  1.1304 -0.8362
 1814SOL    HW216905   3.265   3.291   5.098  0.9879  0.1401  2.4279
 1815SOL     OW16906   4.262   0.261  16.588  0.6422 -0.7694 -0.1591
 1815SOL    HW116907   4.353   0.275  16.563  0.1793  0.7023 -1.0205
 1815SOL    HW216908   4.231   0.203  16.518  1.8670 -2.3947  0.6548
 1816SOL     OW16909   3.896   0.235  17.166 -0.3211  0.2406 -0.4415
 1816SOL    HW116910   3.990   0.222  17.182 -0.1336  1.0117 -0.9255
 1816SOL    HW216911   3.905   0.306  17.102 -1.0420  0.2337 -0.5439
 1817SOL     OW16912   1.156   1.664   6.728  0.1068  0.6819  0.1428
 1817SOL    HW116913   1.242   1.638   6.694 -0.5411 -1.7517  0.3743
 1817SOL    HW216914   1.109   1.669   6.645 -0.0804  1.6788  0.3016
 1818SOL     OW16915   4.281   4.561   3.949 -0.1778 -0.3283  0.7835
 1818SOL    HW116916   4.218   4.492   3.928 -1.6650  1.0094  0.8276
 1818SOL    HW216917   4.279   4.565   4.045  0.4348  0.6795  0.7495
 1819SOL     OW16918   2.168   2.135   1.318  0.6911 -0.2574 -0.4426
 1819SOL    HW116919   2.097   2.193   1.347  0.6480  0.7169 -2.5183
 1819SOL    HW216920   2.126   2.083   1.249 -1.5704 -1.2877  1.6960
 1820SOL     OW16921   0.109   1.794   6.890  0.4711  0.3202 -0.1580
 1820SOL    HW116922   0.182   1.784   6.828 -0.4110 -0.6441 -1.0547
 1820SOL    HW216923   0.046   1.733   6.852  1.0992 -1.1116  1.1272
 1821SOL     OW16924   0.438   4.136   1.162 -0.3890  0.5632  0.2042
 1821SOL    HW116925   0.448   4.231   1.165 -0.5949  0.5844  0.1641
 1821SOL    HW216926   0.489   4.115   1.240 -1.2022  0.3516  0.6776
 1822SOL     OW16927   4.392   3.896   3.433  0.3773  0.1983  0.3019
 1822SOL    HW116928   4.346   3.950   3.368  1.0491  0.6400  0.1941
 1822SOL    HW216929   4.359   3.810   3.408  0.9163 -0.5618  2.2096
 1823SOL     OW16930   2.340   2.246   3.855 -0.1517  0.5042 -0.1979
 1823SOL    HW116931   2.425   2.206   3.836 -2.2802 -2.7651 -2.9540
 1823SOL    HW216932   2.296   2.168   3.887  1.3035  0.0704  0.7522
 1824SOL     OW16933   1.821   3.340   9.748 -0.8130 -0.3796  0.0354
 1824SOL    HW116934   1.868   3.271   9.700 -0.8945 -0.1833 -0.3260
 1824SOL    HW216935   1.729   3.315   9.737 -1.3892  2.1316 -0.8436
 1825SOL     OW16936   4.550   1.521   3.215  0.4907 -0.7957  0.3601
 1825SOL    HW116937   4.467   1.501   3.172  0.6126 -1.2889  0.3618
 1825SOL    HW216938   4.607   1.469   3.158 -0.0386 -1.8887  0.8479
 1826SOL     OW16939   2.801   2.391   4.159 -0.4040 -0.0201  0.4186
 1826SOL    HW116940   2.738   2.319   4.151  1.9157 -1.9979 -0.0989
 1826SOL    HW216941   2.751   2.465   4.193  0.3209  1.4612 -1.7320
 1827SOL     OW16942   2.340   0.261  10.483  0.0839  0.3310 -0.2863
 1827SOL    HW116943   2.374   0.172  10.475 -0.3921  0.2446 -1.2827
 1827SOL    HW216944   2.326   0.287  10.392  3.8184 -0.3159 -1.0815
 1828SOL     OW16945   2.851   0.500  15.646  0.0639 -0.6668  0.4433
 1828SOL    HW116946   2.846   0.480  15.739 -0.5152  2.8972  1.2007
 1828SOL    HW216947   2.760   0.487  15.620  0.9220  1.2935 -3.6693
 1829SOL     OW16948   3.145   3.542   8.726 -0.2446  0.1785 -0.0895
 1829SOL    HW116949   3.069   3.571   8.677 -0.6064  0.8805  0.8924
 1829SOL    HW216950   3.128   3.448   8.736  0.1197  0.2639  1.4281
 1830SOL     OW16951   2.582   4.502   9.465  0.7939 -0.0644  0.0661
 1830SOL    HW116952   2.624   4.456   9.393  1.2717 -0.7179  0.7608
 1830SOL    HW216953   2.639   4.478   9.539  0.7944 -0.1090  0.0510
 1831SOL     OW16954   1.721   0.452  13.712 -0.1829  0.7057  0.6716
 1831SOL    HW116955   1.810   0.419  13.702 -0.5679  0.4714 -2.0250
 1831SOL    HW216956   1.678   0.367  13.718 -0.5343  0.6362 -2.8344
 1832SOL     OW16957   1.138   1.567   0.868 -0.2290  0.1612 -1.0947
 1832SOL    HW116958   1.146   1.658   0.839 -2.2932  0.5228 -0.4696
 1832SOL    HW216959   1.125   1.527   0.783 -0.3619 -3.0850  0.4677
 1833SOL     OW16960   3.949   4.285   8.044  0.1258 -0.2708  0.3188
 1833SOL    HW116961   4.005   4.213   8.073 -2.4048 -3.1316 -1.8768
 1833SOL    HW216962   3.883   4.299   8.112 -0.4719  0.1308 -0.3351
 1834SOL     OW16963   2.041   4.707   6.673 -0.6674 -0.2693 -0.3526
 1834SOL    HW116964   2.066   0.000   6.765 -1.9639  1.6734 -0.2985
 1834SOL    HW216965   2.066   0.067   6.629  1.7794 -0.6452  0.3069
 1835SOL     OW16966   0.836   2.937   4.643  0.0493  0.3991  0.0345
 1835SOL    HW116967   0.756   2.908   4.598 -0.3143 -1.6333  1.9602
 1835SOL    HW216968   0.902   2.942   4.574 -0.5844  0.9131 -0.5354
 1836SOL     OW16969   4.573   2.982   7.076  0.5674  0.0579  0.0898
 1836SOL    HW116970   4.636   2.924   7.033  0.8733  0.6341 -0.2451
 1836SOL    HW216971   4.504   2.977   7.010 -0.0750  1.7876  0.6327
 1837SOL     OW16972   3.719   2.661  11.123 -0.8937  0.1851 -0.6925
 1837SOL    HW116973   3.774   2.723  11.075 -1.8232  3.6467  2.8350
 1837SOL    HW216974   3.762   2.658  11.208  0.0474  0.4591 -1.1548
 1838SOL     OW16975   0.859   1.661   3.460 -0.0337  0.1849 -0.4946
 1838SOL    HW116976   0.840   1.678   3.368  2.8376 -0.7120 -1.2750
 1838SOL    HW216977   0.886   1.748   3.488 -0.5095  0.1538  0.0541
 1839SOL     OW16978   1.072   3.221   3.734 -0.1128  0.2258 -0.2459
 1839SOL    HW116979   1.058   3.313   3.713  0.9470  0.2150 -1.0286
 1839SOL    HW216980   0.986   3.210   3.774  0.3525 -1.4622  0.2887
 1840SOL     OW16981   1.572   3.780   2.970  0.6592 -0.4493  0.0370
 1840SOL    HW116982   1.507   3.739   2.915  1.1611  0.4377 -1.2267
 1840SOL    HW216983   1.649   3.733   2.939  0.7471 -0.0207 -0.4011
 1841SOL     OW16984   1.796   2.716   2.571 -0.6004  0.1301 -0.4106
 1841SOL    HW116985   1.775   2.756   2.487 -3.3675  1.1081  0.7547
 1841SOL    HW216986   1.718   2.743   2.620 -1.3709 -1.5843 -0.6833
 1842SOL     OW16987   3.081   1.306   8.842  0.4096  0.3154  0.7423
 1842SOL    HW116988   3.151   1.283   8.902  0.3863 -3.0424 -0.4695
 1842SOL    HW216989   3.122   1.339   8.762 -0.6592  0.5264  0.2788
 1843SOL     OW16990   0.339   4.082  13.523 -0.1245 -0.1696  0.3820
 1843SOL    HW116991   0.326   3.988  13.504  1.2097 -0.1367 -0.6510
 1843SOL    HW216992   0.381   4.077  13.609  1.8088 -2.9828 -0.6993
 1844SOL     OW16993   2.456   0.742   4.633  0.1874  0.3625 -0.2219
 1844SOL    HW116994   2.372   0.784   4.652 -0.1220 -1.0046  1.4215
 1844SOL    HW216995   2.445   0.686   4.556  4.5166  1.3403 -1.5435
 1845SOL     OW16996   4.140   0.555   4.973 -0.8233 -0.2240 -0.0207
 1845SOL    HW116997   4.121   0.511   4.891 -0.0249  0.4650 -0.5805
 1845SOL    HW216998   4.126   0.488   5.040 -0.1407  0.4826  0.8426
 1846SOL     OW16999   1.961   4.425   7.529  0.1789  0.3841  0.1730
 1846SOL    HW117000   1.999   4.473   7.602 -0.3950  0.3465  0.5007
 1846SOL    HW217001   1.899   4.491   7.497  0.0370  0.6395  0.9868
 1847SOL     OW17002   4.063   0.300   7.285 -0.2250  0.3456  0.6054
 1847SOL    HW117003   4.007   0.337   7.354 -0.6776  1.2584 -0.2517
 1847SOL    HW217004   4.106   0.235   7.340 -0.1546 -0.9632 -1.0081
 1848SOL     OW17005   2.422   0.279  12.934  0.0575  0.2776  0.3272
 1848SOL    HW117006   2.425   0.207  12.997 -4.2787 -0.1987 -0.0322
 1848SOL    HW217007   2.335   0.266  12.898  0.1096 -0.6812  0.5484
 1849SOL     OW17008   4.072   3.286   3.442  0.1278  0.3570 -0.0886
 1849SOL    HW117009   4.025   3.244   3.370  0.6672 -1.1227  0.4341
 1849SOL    HW217010   4.089   3.209   3.496  0.1732 -1.1428 -2.2440
 1850SOL     OW17011   4.242   0.954   8.434 -0.1174  0.4258  0.0591
 1850SOL    HW117012   4.248   0.950   8.338 -0.0909 -0.3219  0.0920
 1850SOL    HW217013   4.282   0.868   8.449  0.3924  0.3366 -1.7814
 1851SOL     OW17014   0.444   3.971   7.886  0.1211  0.0415 -0.8350
 1851SOL    HW117015   0.535   3.965   7.914  0.5415 -0.7161 -2.3736
 1851SOL    HW217016   0.400   3.980   7.971  1.3716  3.2389 -0.5528
 1852SOL     OW17017   2.231   1.285   7.618  0.0373 -0.0228  0.2203
 1852SOL    HW117018   2.184   1.305   7.538 -2.1357 -0.8492  1.3119
 1852SOL    HW217019   2.224   1.367   7.668  1.1132  0.5752 -0.5930
 1853SOL     OW17020   1.705   3.197   1.180  0.0543 -0.2070  0.2359
 1853SOL    HW117021   1.610   3.189   1.192 -0.0600  0.1645 -0.4274
 1853SOL    HW217022   1.719   3.122   1.123  2.3667  1.3261 -1.2146
 1854SOL     OW17023   1.702   1.712   3.162 -0.2065 -0.0152  0.1172
 1854SOL    HW117024   1.634   1.776   3.182  1.0295  0.5898  2.3340
 1854SOL    HW217025   1.741   1.761   3.089 -0.5265  1.4141  0.9235
 1855SOL     OW17026   1.535   2.011   1.223 -0.2280  0.0304 -0.7697
 1855SOL    HW117027   1.445   2.033   1.198 -0.8507 -1.2043  0.4289
 1855SOL    HW217028   1.584   2.020   1.141 -0.6700  1.6224 -0.8696
 1856SOL     OW17029   2.070   0.862   1.570  0.6612  0.3895  0.1814
 1856SOL    HW117030   2.008   0.931   1.593  0.3317  0.3332 -0.5378
 1856SOL    HW217031   2.013   0.798   1.527 -1.5361  2.5019 -0.0383
 1857SOL     OW17032   0.764   2.477   9.994  0.6252 -0.2040 -0.2802
 1857SOL    HW117033   0.816   2.435  10.062 -0.8268  1.1754  1.7019
 1857SOL    HW217034   0.747   2.557  10.044 -0.6132 -0.7766  0.2202
 1858SOL     OW17035   0.522   3.463  14.295 -0.3274 -0.0175  0.2617
 1858SOL    HW117036   0.538   3.507  14.212 -1.1573  0.5943  0.4352
 1858SOL    HW217037   0.427   3.456  14.307 -0.2127 -0.8357  0.7089
 1859SOL     OW17038   3.402   0.006   7.796 -0.3864  0.4918  0.4038
 1859SOL    HW117039   3.323   4.704   7.846 -0.8043  0.3226 -0.3374
 1859SOL    HW217040   3.407   0.101   7.802  1.9048  0.4397 -0.7423
 1860SOL     OW17041   2.706   2.121   4.610  0.1198  0.3695 -0.1110
 1860SOL    HW117042   2.773   2.187   4.629  0.1513  0.8753 -2.0317
 1860SOL    HW217043   2.741   2.078   4.532 -1.3944  0.6988 -0.9553
 1861SOL     OW17044   4.219   1.357  10.659  0.4141 -0.0984  0.1062
 1861SOL    HW117045   4.176   1.431  10.702  1.7779  0.5545  0.3123
 1861SOL    HW217046   4.176   1.280  10.699  2.2535 -0.8506  0.6104
 1862SOL     OW17047   4.462   1.574   5.574  0.5496  0.2006 -0.1297
 1862SOL    HW117048   4.386   1.516   5.582  1.5650 -1.1813 -0.4720
 1862SOL    HW217049   4.416   1.654   5.598 -1.4670 -1.0601  0.1698
 1863SOL     OW17050   0.855   2.022   7.801 -0.8048 -0.1447 -0.3047
 1863SOL    HW117051   0.862   2.117   7.797 -1.9315 -0.1050 -1.1598
 1863SOL    HW217052   0.762   2.007   7.785 -0.8169 -1.4956  1.0165
 1864SOL     OW17053   2.864   4.690  13.189  0.1080  0.3202  0.1533
 1864SOL    HW117054   2.820   4.660  13.268  1.1659  1.2931  1.1043
 1864SOL    HW217055   2.852   0.063  13.190 -0.0666  0.2814  1.9658
 1865SOL     OW17056   2.444   1.528   2.999  0.5641  0.3288  0.4816
 1865SOL    HW117057   2.353   1.508   3.018  0.2450 -0.6252 -2.1388
 1865SOL    HW217058   2.428   1.597   2.935  0.9740 -0.5472 -0.5601
 1866SOL     OW17059   3.984   1.107   4.568 -0.2077 -0.5689 -0.3466
 1866SOL    HW117060   3.985   1.201   4.551  1.9972 -0.4553  0.3276
 1866SOL    HW217061   3.952   1.102   4.658  0.4997 -0.6512 -0.0999
 1867SOL     OW17062   3.246   4.590   8.845  0.4563  0.3500 -0.2967
 1867SOL    HW117063   3.156   4.623   8.852  0.4438  0.0730  0.8647
 1867SOL    HW217064   3.286   4.641   8.916  1.7171  1.1446 -1.5897
 1868SOL     OW17065   3.418   4.694   2.640  0.0699 -0.0571 -0.4117
 1868SOL    HW117066   3.433   4.601   2.659  0.1233  0.1026  0.2963
 1868SOL    HW217067   3.399   0.008   2.727  0.3587  0.1944 -0.4501
 1869SOL     OW17068   1.839   2.970   4.857  0.2308  0.2051  0.2652
 1869SOL    HW117069   1.794   2.925   4.785  0.2760 -1.7496  1.4479
 1869SOL    HW217070   1.890   3.030   4.803 -0.5588 -0.5149 -1.2964
 1870SOL     OW17071   0.158   4.403   4.590 -0.5367  0.4676  0.0398
 1870SOL    HW117072   0.195   4.479   4.635  1.0168 -0.3968  0.2061
 1870SOL    HW217073   0.161   4.438   4.501 -0.8180 -1.4342 -0.7243
 1871SOL     OW17074   3.400   2.276   4.038 -0.2308  0.1465  0.0320
 1871SOL    HW117075   3.366   2.256   3.951  1.6407 -0.0307 -0.6602
 1871SOL    HW217076   3.345   2.353   4.052 -1.7355 -0.5008 -2.4211
 1872SOL     OW17077   4.706   3.865   5.246  0.6767  0.2730  0.1594
 1872SOL    HW117078   4.715   3.889   5.339 -1.3479 -0.0598  0.4353
 1872SOL    HW217079   0.016   3.774   5.251  0.6477  0.3277  1.4675
 1873SOL     OW17080   3.473   1.211  14.917  0.3843 -0.2141  0.2667
 1873SOL    HW117081   3.403   1.210  14.852 -0.9935 -0.0494  1.7706
 1873SOL    HW217082   3.463   1.119  14.943  2.3244  0.2317  2.6682
 1874SOL     OW17083   4.000   0.626   0.599 -0.4543 -0.3955 -0.3657
 1874SOL    HW117084   4.033   0.570   0.529  0.0286  0.7030 -1.0274
 1874SOL    HW217085   4.071   0.690   0.609 -1.6106  0.9008 -0.5119
 1875SOL     OW17086   0.965   4.717   6.650  0.1386 -0.4136 -0.3151
 1875SOL    HW117087   1.025   0.070   6.661 -0.2436 -0.5348  2.7494
 1875SOL    HW217088   0.967   4.680   6.739 -1.1249  1.9752  0.6968
 1876SOL     OW17089   4.285   3.179   6.294  0.7752  0.6142 -0.2152
 1876SOL    HW117090   4.240   3.142   6.218  0.7744 -0.2019  0.1743
 1876SOL    HW217091   4.297   3.267   6.258  1.6947  0.7510  0.4198
 1877SOL     OW17092   4.270   1.904  17.412 -0.1609  0.1523  0.5707
 1877SOL    HW117093   4.234   1.969  17.352  0.7618  1.0906  1.0389
 1877SOL    HW217094   4.364   1.909  17.396 -0.5257  0.4642 -1.5447
 1878SOL     OW17095   1.078   2.561   8.529 -0.3194 -0.1887 -0.3907
 1878SOL    HW117096   1.164   2.598   8.509 -0.5329  0.4282 -0.1625
 1878SOL    HW217097   1.105   2.470   8.544  1.1122  0.1403 -0.9435
 1879SOL     OW17098   3.897   3.216   7.308 -0.1921 -0.1793 -0.1045
 1879SOL    HW117099   3.963   3.185   7.369  0.5568  0.5328 -0.5448
 1879SOL    HW217100   3.945   3.270   7.245 -0.4925 -0.6452 -0.7265
 1880SOL     OW17101   3.933   0.018  16.909  0.1355 -0.4505 -0.4580
 1880SOL    HW117102   3.880   4.705  16.981  0.9840 -2.3351 -0.7275
 1880SOL    HW217103   3.879   0.084  16.868 -0.2470 -1.6444 -1.8808
 1881SOL     OW17104   4.171   3.951   7.074 -0.6949 -0.4362  0.4478
 1881SOL    HW117105   4.101   3.892   7.101 -1.6620  0.5323  0.0696
 1881SOL    HW217106   4.145   4.036   7.111  0.1057  0.0977 -0.2179
 1882SOL     OW17107   1.725   3.274  14.391  0.3553  0.2202  0.2136
 1882SOL    HW117108   1.722   3.210  14.320 -0.3589 -1.7797  2.0254
 1882SOL    HW217109   1.789   3.334  14.352 -2.4039  3.0731  0.1131
 1883SOL     OW17110   1.946   3.076  13.840  0.1077  0.1724 -0.4108
 1883SOL    HW117111   1.867   3.026  13.858 -1.2259  2.2364 -0.5730
 1883SOL    HW217112   1.912   3.160  13.809 -0.2016 -0.0852 -0.7703
 1884SOL     OW17113   0.130   0.186  16.094 -0.1520  0.4582 -0.3227
 1884SOL    HW117114   0.079   0.252  16.141  3.5403  2.9418  0.2084
 1884SOL    HW217115   0.220   0.199  16.125 -0.4448  1.2401  0.2143
 1885SOL     OW17116   0.703   2.249   4.955  0.1817 -0.3119 -0.6485
 1885SOL    HW117117   0.648   2.184   4.999  1.3042 -0.4978  0.4716
 1885SOL    HW217118   0.782   2.199   4.935  0.6147  0.0882  0.0515
 1886SOL     OW17119   1.678   1.341  13.656 -0.2648 -0.4887  0.1599
 1886SOL    HW117120   1.663   1.275  13.723 -2.9530  0.2009  0.2312
 1886SOL    HW217121   1.632   1.413  13.699  0.7317  0.5472 -0.4846
 1887SOL     OW17122   1.643   2.305   0.596  0.4052 -0.1564 -0.8010
 1887SOL    HW117123   1.690   2.238   0.546  0.0572 -1.5722  0.7268
 1887SOL    HW217124   1.566   2.308   0.539 -0.6772 -0.4127  0.6241
 1888SOL     OW17125   3.712   2.581  10.323 -0.4318  0.0595  0.3805
 1888SOL    HW117126   3.644   2.629  10.371  0.3194  0.1004  1.4136
 1888SOL    HW217127   3.735   2.642  10.253 -0.8944 -1.2019 -0.8659
 1889SOL     OW17128   3.123   1.669   9.867 -0.0349  0.0739  0.0794
 1889SOL    HW117129   3.085   1.658   9.954 -0.2529 -0.0241 -0.0306
 1889SOL    HW217130   3.045   1.679   9.813  1.2256  0.1798 -1.7238
 1890SOL     OW17131   1.253   3.718   1.759  0.3944  0.1099  0.1653
 1890SOL    HW117132   1.239   3.761   1.843 -1.0806  3.1235 -1.6374
 1890SOL    HW217133   1.192   3.644   1.752 -1.3061  1.5033  0.2163
 1891SOL     OW17134   3.127   3.029   6.942  0.1729  0.4753  0.8257
 1891SOL    HW117135   3.068   3.048   6.869  0.0494  2.0899  1.3425
 1891SOL    HW217136   3.128   3.115   6.984 -0.2666  1.7950 -1.8436
 1892SOL     OW17137   4.505   4.271   4.246 -0.4753 -0.6958  0.1070
 1892SOL    HW117138   4.547   4.196   4.205  0.9121 -0.7276  1.5819
 1892SOL    HW217139   4.479   4.233   4.330 -1.2898 -0.7311 -0.1616
 1893SOL     OW17140   1.212   1.969   6.669  0.6204  0.6939 -0.2224
 1893SOL    HW117141   1.210   1.980   6.574  0.6371  1.1525 -0.1686
 1893SOL    HW217142   1.248   1.881   6.682  0.4597  0.7278  0.4440
 1894SOL     OW17143   2.518   1.177   4.754 -0.5973  0.1255 -0.4641
 1894SOL    HW117144   2.594   1.120   4.766 -2.5196 -1.9361  1.8222
 1894SOL    HW217145   2.542   1.244   4.690  1.5955  1.9648  2.3393
 1895SOL     OW17146   3.908   4.083   4.559 -0.3099  0.0344 -0.0040
 1895SOL    HW117147   3.864   4.052   4.479 -2.5973  2.6687  0.1999
 1895SOL    HW217148   3.893   4.177   4.553  0.8939  0.3434  1.8333
 1896SOL     OW17149   0.438   1.246  12.278  0.0533 -0.4139  0.1204
 1896SOL    HW117150   0.488   1.247  12.360 -0.3604  0.6546  0.3554
 1896SOL    HW217151   0.510   1.237  12.215 -0.0318 -1.9050  0.2378
 1897SOL     OW17152   1.170   3.576  14.580  0.0361  0.3986 -0.3615
 1897SOL    HW117153   1.264   3.572  14.562  0.2796  2.0065  0.5343
 1897SOL    HW217154   1.164   3.489  14.621  0.6055  0.0370 -1.0337
 1898SOL     OW17155   3.923   0.142  12.202 -0.7746 -0.2685 -0.7223
 1898SOL    HW117156   3.958   0.115  12.117 -1.0772 -0.5922 -0.7440
 1898SOL    HW217157   3.840   0.095  12.205 -2.0678  2.0258  0.0123
 1899SOL     OW17158   3.380   3.267  13.097  0.0030 -0.5580  0.1098
 1899SOL    HW117159   3.368   3.328  13.170  0.8105  2.2628 -2.1313
 1899SOL    HW217160   3.446   3.208  13.133  1.2114  0.2830 -0.7284
 1900SOL     OW17161   0.239   0.136   8.781 -0.3515  0.1362 -1.0350
 1900SOL    HW117162   0.183   0.187   8.838 -0.7587 -2.0003  0.4567
 1900SOL    HW217163   0.323   0.167   8.815 -2.0109  1.4196  1.8952
 1901SOL     OW17164   0.909   2.396  10.609  0.2646  0.3997 -0.5014
 1901SOL    HW117165   0.854   2.318  10.620 -2.6446  2.1319 -2.7603
 1901SOL    HW217166   0.914   2.425  10.700  3.6927  1.9938 -1.2180
 1902SOL     OW17167   1.556   3.482  14.890  0.3726 -0.4790 -0.1256
 1902SOL    HW117168   1.601   3.404  14.858  0.0927 -0.6152 -0.1869
 1902SOL    HW217169   1.599   3.498  14.974 -1.6644  0.7093  0.7129
 1903SOL     OW17170   3.681   2.467   1.284 -0.3532 -0.2656 -0.1707
 1903SOL    HW117171   3.730   2.455   1.365  0.3983  2.6723 -0.1931
 1903SOL    HW217172   3.656   2.559   1.294  2.8626  0.6719 -0.8765
 1904SOL     OW17173   1.816   2.960   1.036  0.4161  0.2594  0.1769
 1904SOL    HW117174   1.902   2.947   0.995  0.1109  0.9059 -0.6481
 1904SOL    HW217175   1.818   2.905   1.115  1.4848 -2.2045 -1.5663
 1905SOL     OW17176   0.877   1.820  11.221  0.2779 -0.0486 -0.3261
 1905SOL    HW117177   0.922   1.865  11.292 -2.0533  1.4335  0.2205
 1905SOL    HW217178   0.790   1.819  11.261  0.5921  1.5755  0.3948
 1906SOL     OW17179   3.194   4.170   2.816 -0.1205 -0.4232 -0.5415
 1906SOL    HW117180   3.159   4.100   2.871 -0.0679 -0.7782 -0.9536
 1906SOL    HW217181   3.282   4.137   2.798 -1.1922 -2.1756 -2.5758
 1907SOL     OW17182   2.043   2.122   8.166 -0.2963 -0.6194 -0.2865
 1907SOL    HW117183   2.110   2.142   8.231 -0.9174  0.4871  0.0256
 1907SOL    HW217184   2.081   2.152   8.084 -0.0688 -2.7742 -0.9718
 1908SOL     OW17185   4.471   0.498   3.509  0.2009 -0.2388  0.0382
 1908SOL    HW117186   4.508   0.516   3.596  0.3525 -0.6665  0.0634
 1908SOL    HW217187   4.502   0.565   3.448  0.2018 -0.7578 -0.5354
 1909SOL     OW17188   2.905   2.539   7.319  0.2381  0.3349 -0.3577
 1909SOL    HW117189   2.833   2.551   7.258 -1.1213  0.5828  1.2894
 1909SOL    HW217190   2.868   2.528   7.407 -0.9308 -1.8625 -1.1317
 1910SOL     OW17191   0.325   1.135   6.798  0.0894 -0.1031  0.5947
 1910SOL    HW117192   0.235   1.168   6.792  0.1665 -0.2374 -1.4957
 1910SOL    HW217193   0.308   1.044   6.775 -1.5884  0.0770  1.1008
 1911SOL     OW17194   2.522   1.411  13.344 -0.7994  0.1416  0.2912
 1911SOL    HW117195   2.548   1.442  13.431  0.7703  2.7243 -1.1120
 1911SOL    HW217196   2.430   1.389  13.357 -1.0964  1.4463  0.4259
 1912SOL     OW17197   3.461   0.163   3.104  0.3108  0.0941 -0.1140
 1912SOL    HW117198   3.490   0.123   3.187 -0.1847  1.5035  0.7368
 1912SOL    HW217199   3.396   0.230   3.122 -1.9218 -1.9839 -0.4887
 1913SOL     OW17200   3.172   1.779  12.361 -0.3398  0.0997  0.3068
 1913SOL    HW117201   3.191   1.731  12.441 -0.4521 -0.6337 -0.1069
 1913SOL    HW217202   3.207   1.720  12.294  3.4605  0.4905  1.9565
 1914SOL     OW17203   4.649   0.907   2.992 -0.1885 -0.0747  0.2217
 1914SOL    HW117204   0.017   0.923   3.024 -0.7777  3.5440  0.0305
 1914SOL    HW217205   4.625   0.828   3.041 -1.9707  1.4345  1.7372
 1915SOL     OW17206   3.657   4.174  13.687  0.4803  0.8266  0.2690
 1915SOL    HW117207   3.721   4.122  13.638  1.8201  4.4275 -1.7627
 1915SOL    HW217208   3.587   4.182  13.622  2.3929  2.3735 -1.5762
 1916SOL     OW17209   1.568   4.700   7.660 -0.1180 -0.3994  0.2661
 1916SOL    HW117210   1.625   0.017   7.727  1.3131  0.2142 -1.2926
 1916SOL    HW217211   1.534   4.620   7.701  1.3283 -1.7469 -1.2220
 1917SOL     OW17212   2.328   4.131   8.195  0.0173 -0.1684  0.0912
 1917SOL    HW117213   2.266   4.193   8.233 -0.3282  0.0010 -0.7498
 1917SOL    HW217214   2.408   4.179   8.215 -0.7341  2.0559 -2.2337
 1918SOL     OW17215   0.361   2.056   1.303 -0.5558 -0.4012 -0.8683
 1918SOL    HW117216   0.347   2.151   1.314  0.4892 -0.4378  0.8599
 1918SOL    HW217217   0.328   2.034   1.390  0.1708 -1.9677 -0.9983
 1919SOL     OW17218   1.864   4.441   7.843 -0.2357 -0.5061 -0.5808
 1919SOL    HW117219   1.870   4.499   7.919 -0.9255 -2.2072  0.7664
 1919SOL    HW217220   1.954   4.448   7.810  0.8581  0.2342  2.5564
 1920SOL     OW17221   0.735   0.824  12.233 -0.3467  0.3915 -0.4076
 1920SOL    HW117222   0.782   0.837  12.150  0.6269  0.7778  0.2162
 1920SOL    HW217223   0.813   0.805  12.284 -0.3869  2.1326  0.2905
 1921SOL     OW17224   0.418   4.233  11.571  0.0303 -0.0834 -0.3726
 1921SOL    HW117225   0.503   4.220  11.612  1.0512  0.2567 -2.4084
 1921SOL    HW217226   0.400   4.304  11.633  0.0225 -0.4072 -0.0042
 1922SOL     OW17227   1.217   4.192   7.133 -0.4753 -0.2959  0.4317
 1922SOL    HW117228   1.160   4.115   7.140 -2.8689  1.4194 -0.5856
 1922SOL    HW217229   1.258   4.175   7.048  1.9833 -2.8791  2.0998
 1923SOL     OW17230   3.135   0.399  10.906 -0.8803 -0.3373  0.1171
 1923SOL    HW117231   3.082   0.467  10.947 -0.6318 -0.6663  0.9826
 1923SOL    HW217232   3.218   0.444  10.917 -1.1529  0.2922 -0.4158
 1924SOL     OW17233   1.472   0.805  17.479  0.3855  0.0281 -0.5494
 1924SOL    HW117234   1.534   0.778  17.547  0.1229 -1.3921 -0.8860
 1924SOL    HW217235   1.528   0.823  17.403 -0.4929  1.8314 -0.7638
 1925SOL     OW17236   0.596   2.838   4.560 -0.4562 -0.4918  0.2922
 1925SOL    HW117237   0.512   2.818   4.601 -1.2063 -0.6325 -1.3157
 1925SOL    HW217238   0.617   2.747   4.539 -0.2574  0.1773 -2.4902
 1926SOL     OW17239   1.778   1.778   5.816 -0.2650 -0.4842 -0.0492
 1926SOL    HW117240   1.800   1.829   5.739 -1.4049 -2.1299 -1.4575
 1926SOL    HW217241   1.751   1.853   5.869  0.4071 -1.6002  1.9119
 1927SOL     OW17242   0.018   3.517  17.292 -0.6223  0.2752  0.1147
 1927SOL    HW117243   0.009   3.531  17.386  0.2420 -2.8368  0.6653
 1927SOL    HW217244   0.063   3.599  17.269 -0.3780  0.3306  0.7962
 1928SOL     OW17245   1.509   1.887   7.477 -0.3512  0.3098  0.0385
 1928SOL    HW117246   1.445   1.882   7.548  0.0672 -0.7988  0.3310
 1928SOL    HW217247   1.528   1.793   7.470 -0.4388  0.3343 -0.5604
 1929SOL     OW17248   1.651   4.286  14.378  0.1495 -0.2296  1.1071
 1929SOL    HW117249   1.592   4.250  14.311 -0.5280  1.6763  0.6839
 1929SOL    HW217250   1.686   4.202  14.407  0.8678 -0.4154 -0.3043
 1930SOL     OW17251   2.101   3.180  17.448 -0.6144  0.7618  0.1675
 1930SOL    HW117252   2.046   3.112  17.487 -1.4234  0.7208 -1.0477
 1930SOL    HW217253   2.034   3.227  17.399 -2.5951 -0.7613  1.4021
 1931SOL     OW17254   4.173   2.237  14.543  0.2021  0.6904  0.2574
 1931SOL    HW117255   4.225   2.316  14.529  2.4891 -1.1902 -1.9933
 1931SOL    HW217256   4.111   2.257  14.473  0.1230 -0.3193  0.0292
 1932SOL     OW17257   2.029   0.167   7.524  0.1098  0.3152 -0.5509
 1932SOL    HW117258   2.088   0.233   7.487  0.9510 -0.8523 -1.3106
 1932SOL    HW217259   1.961   0.168   7.456  1.6659  2.5255 -2.0683
 1933SOL     OW17260   0.398   1.716   2.534  0.0713 -0.0367  0.0026
 1933SOL    HW117261   0.435   1.804   2.543 -0.1514  0.1927 -1.3275
 1933SOL    HW217262   0.415   1.704   2.440  1.5918 -1.5651  0.4664
 1934SOL     OW17263   2.836   3.558   4.765 -0.7500  0.2349  0.0917
 1934SOL    HW117264   2.901   3.520   4.706 -1.6286  0.8098 -1.2565
 1934SOL    HW217265   2.775   3.484   4.757 -0.9365  0.5949 -1.9117
 1935SOL     OW17266   4.566   1.955   6.440  0.0889  0.0812 -0.3709
 1935SOL    HW117267   4.547   1.957   6.533  0.3219 -0.2864 -0.3166
 1935SOL    HW217268   4.590   2.046   6.421  1.1657 -0.2616 -0.6696
 1936SOL     OW17269   4.068   3.722   2.231  0.3655  0.4009 -0.2633
 1936SOL    HW117270   4.045   3.787   2.165 -0.8017 -0.1442 -0.3942
 1936SOL    HW217271   3.979   3.691   2.245  0.5358 -0.7545 -1.7036
 1937SOL     OW17272   0.320   4.418   6.625 -0.3145  0.0795  0.1368
 1937SOL    HW117273   0.408   4.457   6.629 -0.3402 -0.2545  3.4674
 1937SOL    HW217274   0.325   4.336   6.675 -2.1576  0.5224  1.0186
 1938SOL     OW17275   0.798   0.550   4.025 -0.2190  0.2795  0.3148
 1938SOL    HW117276   0.782   0.530   4.117  0.5461 -1.1958  0.1424
 1938SOL    HW217277   0.754   0.633   4.011 -4.0544 -1.7538  0.4194
 1939SOL     OW17278   1.066   1.496   6.508  0.2505  0.1266 -0.3613
 1939SOL    HW117279   0.971   1.502   6.495  0.0514  0.0369  1.1252
 1939SOL    HW217280   1.078   1.563   6.440  0.3848  1.1841  0.7134
 1940SOL     OW17281   0.942   2.270   8.233  0.4900 -0.0207  0.2217
 1940SOL    HW117282   1.035   2.249   8.226  0.5121  0.1012  0.1526
 1940SOL    HW217283   0.942   2.358   8.272 -1.5849 -0.0903  0.3690
 1941SOL     OW17284   0.813   0.649   7.943  0.4624 -0.7536 -0.6784
 1941SOL    HW117285   0.883   0.712   7.932 -0.7199  0.5216 -0.9190
 1941SOL    HW217286   0.819   0.585   7.872  0.0270 -0.9794 -0.5173
 1942SOL     OW17287   0.795   3.273   1.645 -0.4891  0.2060 -0.5589
 1942SOL    HW117288   0.891   3.270   1.640 -0.4514  0.2128  0.2918
 1942SOL    HW217289   0.780   3.190   1.690  2.5594 -0.7024 -1.1837
 1943SOL     OW17290   3.105   4.581   4.320 -0.5168  0.0302  0.0220
 1943SOL    HW117291   3.157   4.505   4.293 -1.0812 -0.4226  0.2238
 1943SOL    HW217292   3.019   4.574   4.281 -1.2847 -0.7889  1.8480
 1944SOL     OW17293   0.655   4.424  10.208 -0.0216  0.6910 -0.1609
 1944SOL    HW117294   0.698   4.339  10.197  1.0244  1.5153 -2.3904
 1944SOL    HW217295   0.615   4.405  10.293 -1.0528  3.0529 -0.1253
 1945SOL     OW17296   4.605   2.931   6.494  0.3103 -0.3379 -0.1976
 1945SOL    HW117297   4.653   2.918   6.575 -0.6449  0.5875  0.5034
 1945SOL    HW217298   4.631   3.022   6.479  0.0245 -0.1968  0.1605
 1946SOL     OW17299   0.005   2.025  15.615  0.6735  0.1327  0.2706
 1946SOL    HW117300   4.669   2.065  15.680 -0.9982 -1.1270 -0.4138
 1946SOL    HW217301   0.054   2.101  15.582 -1.5157 -0.7552 -5.0124
 1947SOL     OW17302   2.818   4.036  15.785 -0.2786 -0.1082 -0.0243
 1947SOL    HW117303   2.910   4.061  15.792  0.2331 -2.2252  0.9407
 1947SOL    HW217304   2.818   3.989  15.701 -1.7563  0.9422 -0.6189
 1948SOL     OW17305   2.021   0.936  12.786  0.0454 -0.2956  0.8706
 1948SOL    HW117306   2.042   0.892  12.868  1.0193 -2.2821 -0.4446
 1948SOL    HW217307   2.055   1.024  12.804 -1.9286  0.4233  1.0453
 1949SOL     OW17308   2.874   3.415  13.156  0.5073 -0.4859 -0.0645
 1949SOL    HW117309   2.792   3.440  13.198  1.3887  0.7954  0.8935
 1949SOL    HW217310   2.864   3.321  13.139 -0.9219 -0.2423 -0.4839
 1950SOL     OW17311   4.438   3.551   4.817  0.1194  0.3520  0.1401
 1950SOL    HW117312   4.392   3.481   4.770  0.4503  1.4277 -1.7657
 1950SOL    HW217313   4.503   3.506   4.871 -2.0102 -0.0994  2.3125
 1951SOL     OW17314   1.547   4.150   3.313 -0.4416  0.0596 -0.2525
 1951SOL    HW117315   1.585   4.074   3.358 -1.5717 -0.8472 -0.8418
 1951SOL    HW217316   1.595   4.139   3.231 -0.9014 -0.8706 -0.4055
 1952SOL     OW17317   1.873   3.605   9.691  0.1590  0.2556  0.0361
 1952SOL    HW117318   1.871   3.517   9.728 -0.5644  0.2625  0.0047
 1952SOL    HW217319   1.924   3.584   9.612 -1.3921  4.7342 -2.1728
 1953SOL     OW17320   1.434   2.274   6.869 -0.5917  0.2715 -0.1432
 1953SOL    HW117321   1.391   2.358   6.861 -0.3399  0.5416  1.2744
 1953SOL    HW217322   1.481   2.273   6.785 -0.8696  0.6596 -0.2990
 1954SOL     OW17323   0.014   2.379  14.560  0.1849  0.3629 -0.0422
 1954SOL    HW117324   4.656   2.346  14.516 -0.2594  0.0345  1.0138
 1954SOL    HW217325   0.001   2.474  14.558 -0.3946  0.2939  0.3055
 1955SOL     OW17326   2.631   3.684  10.534  0.3964 -0.3989 -0.3696
 1955SOL    HW117327   2.559   3.732  10.492 -1.6383 -2.3090  0.9189
 1955SOL    HW217328   2.580   3.624  10.588  0.1387 -2.0448 -2.4524
 1956SOL     OW17329   1.231   3.112   0.841 -0.2338  0.6565  0.4654
 1956SOL    HW117330   1.229   3.056   0.763  1.5048  0.8565  0.2863
 1956SOL    HW217331   1.155   3.169   0.829 -1.8965 -1.4685  0.7529
 1957SOL     OW17332   0.375   0.776   2.483 -0.5174  0.3936 -0.2318
 1957SOL    HW117333   0.462   0.780   2.522 -0.3821 -1.9033 -0.3030
 1957SOL    HW217334   0.360   0.683   2.499  1.5730 -0.1974 -1.6912
 1958SOL     OW17335   4.694   2.720   2.981  0.4942  0.0839 -0.3765
 1958SOL    HW117336   4.661   2.696   3.068 -1.2703  1.0530 -0.7785
 1958SOL    HW217337   4.609   2.737   2.940 -0.0337  0.1242  0.7325
 1959SOL     OW17338   2.896   2.363   0.480  0.0526 -0.5217 -0.5224
 1959SOL    HW117339   2.992   2.357   0.478  0.0640 -0.3496 -0.5288
 1959SOL    HW217340   2.869   2.358   0.389 -0.7405 -1.5781 -0.2280
 1960SOL     OW17341   2.604   1.586  10.744  0.4902 -0.0490 -0.2218
 1960SOL    HW117342   2.588   1.542  10.660 -1.3266  1.0858 -0.4682
 1960SOL    HW217343   2.511   1.592  10.766  0.8755  0.3363  1.3094
 1961SOL     OW17344   1.748   4.590   7.475 -0.6678 -0.2987  0.3332
 1961SOL    HW117345   1.690   4.528   7.520 -1.4080 -0.9203 -1.4682
 1961SOL    HW217346   1.698   4.667   7.502  0.5467  0.1121  1.4242
 1962SOL     OW17347   0.479   3.920   5.414  0.2938 -0.4179 -0.4548
 1962SOL    HW117348   0.482   3.838   5.462 -0.2788 -0.2175 -0.0702
 1962SOL    HW217349   0.562   3.968   5.419 -0.6184  1.2933 -1.5991
 1963SOL     OW17350   1.120   4.250   6.338  0.4390  0.1990 -0.4263
 1963SOL    HW117351   1.211   4.272   6.361  0.2271 -1.6360  2.0492
 1963SOL    HW217352   1.123   4.241   6.242  1.7254 -0.7645 -0.2931
 1964SOL     OW17353   3.489   3.744   8.215  0.3592  0.3540  0.7469
 1964SOL    HW117354   3.565   3.726   8.159 -1.1510 -0.9813 -0.8795
 1964SOL    HW217355   3.508   3.837   8.227 -1.0670  0.4380  2.2826
 1965SOL     OW17356   3.690   2.431   6.322 -0.0912 -0.3598 -0.1423
 1965SOL    HW117357   3.615   2.379   6.351 -0.5004  1.3459  1.8732
 1965SOL    HW217358   3.743   2.414   6.400 -0.4264 -1.3717 -0.1272
 1966SOL     OW17359   4.340   4.089   6.218 -0.2004  0.2001 -0.5069
 1966SOL    HW117360   4.368   4.174   6.251  1.1676 -0.5367  0.1805
 1966SOL    HW217361   4.267   4.067   6.276  0.9494  0.9754  1.1994
 1967SOL     OW17362   4.188   4.720  17.023 -1.0956  0.1906 -0.2277
 1967SOL    HW117363   4.095   4.719  17.005 -1.0063  3.2083 -0.8739
 1967SOL    HW217364   4.196   0.080  17.074 -2.3941 -0.1600  0.5246
 1968SOL     OW17365   1.839   2.325  12.101  0.9753 -0.6916  0.1234
 1968SOL    HW117366   1.894   2.274  12.042  1.7098  0.7217 -0.4073
 1968SOL    HW217367   1.886   2.407  12.086  0.5437 -0.2937  0.9612
 1969SOL     OW17368   4.427   2.349  10.182  0.5311  0.3346  0.1328
 1969SOL    HW117369   4.404   2.314  10.096  0.7671  1.8810 -0.5666
 1969SOL    HW217370   4.423   2.278  10.246 -0.3826  2.3157  2.2974
 1970SOL     OW17371   4.068   3.561   4.248 -0.3099 -0.9603 -0.5472
 1970SOL    HW117372   4.091   3.540   4.158 -1.1231 -1.8214 -0.5598
 1970SOL    HW217373   4.029   3.477   4.272  0.9250 -1.3698 -0.0004
 1971SOL     OW17374   3.038   0.210   2.465 -0.2277 -0.0934  0.6180
 1971SOL    HW117375   3.104   0.248   2.523  0.6913  1.5031 -1.4827
 1971SOL    HW217376   3.027   0.268   2.390  0.9773  0.1121  0.6019
 1972SOL     OW17377   4.201   3.275   3.083  0.1255  0.2889 -0.1750
 1972SOL    HW117378   4.121   3.326   3.073 -1.4427 -2.0260  0.5969
 1972SOL    HW217379   4.173   3.185   3.064 -1.1931  0.6118  0.2472
 1973SOL     OW17380   3.243   3.719  10.171 -0.0816 -0.3181 -0.0804
 1973SOL    HW117381   3.197   3.635  10.172  0.3144 -0.5449 -0.5470
 1973SOL    HW217382   3.291   3.709  10.253 -0.1822  0.2693  0.0461
 1974SOL     OW17383   0.314   0.403   9.070  0.0234 -0.2228  0.2312
 1974SOL    HW117384   0.316   0.320   9.023 -0.0425 -0.2074  0.2016
 1974SOL    HW217385   0.324   0.471   9.003  1.8959  0.4232  1.1547
 1975SOL     OW17386   3.884   1.543  16.101 -0.1620  0.0988 -0.4234
 1975SOL    HW117387   3.857   1.451  16.100  0.6180 -0.1136 -2.2113
 1975SOL    HW217388   3.930   1.548  16.185  0.1558  2.1369 -0.7109
 1976SOL     OW17389   1.327   1.398   0.568 -0.2363 -0.4910 -0.2680
 1976SOL    HW117390   1.343   1.469   0.506 -0.3287  0.0518  0.3312
 1976SOL    HW217391   1.234   1.403   0.588 -0.1498  3.0713 -0.8257
 1977SOL     OW17392   2.913   1.882   5.785 -0.2908 -1.2894 -0.1319
 1977SOL    HW117393   3.005   1.857   5.783 -0.0311 -0.4472  1.4833
 1977SOL    HW217394   2.872   1.814   5.732 -1.2673 -0.4709 -0.4251
 1978SOL     OW17395   3.083   0.546   4.555 -0.5255 -0.2113 -0.0992
 1978SOL    HW117396   3.153   0.487   4.583 -0.6174 -0.2394  0.0710
 1978SOL    HW217397   3.043   0.492   4.487 -0.1711 -0.5520 -0.0412
 1979SOL     OW17398   1.928   0.796   6.150 -0.7761 -0.2755 -0.6186
 1979SOL    HW117399   1.905   0.883   6.119 -1.0034  0.6224  2.0791
 1979SOL    HW217400   1.927   0.829   6.240 -0.0684  1.6769 -1.3302
 1980SOL     OW17401   1.634   4.449   3.334  0.8348 -0.1055 -0.1562
 1980SOL    HW117402   1.605   4.396   3.260 -2.2953  0.3979  0.7159
 1980SOL    HW217403   1.628   4.380   3.400  0.2715 -0.8404 -0.9856
 1981SOL     OW17404   4.683   1.592   7.647 -0.1568 -0.0424 -0.0219
 1981SOL    HW117405   0.054   1.587   7.620 -0.3379  0.4343 -0.7287
 1981SOL    HW217406   4.691   1.622   7.738  0.7823  0.4580 -0.2711
 1982SOL     OW17407   4.030   4.599   7.750 -0.2228  0.2112  0.6992
 1982SOL    HW117408   4.013   4.538   7.822 -1.6376 -1.6561 -1.2316
 1982SOL    HW217409   3.988   4.680   7.778 -0.1725  1.1850 -2.0265
 1983SOL     OW17410   2.745   1.330  12.652  0.1689 -0.9577 -0.2455
 1983SOL    HW117411   2.803   1.352  12.725 -1.3254 -1.2807  1.0241
 1983SOL    HW217412   2.762   1.411  12.603  0.3919 -0.0313  1.3634
 1984SOL     OW17413   3.622   4.338  15.074 -0.1487 -0.0453 -0.3742
 1984SOL    HW117414   3.651   4.358  15.163 -0.6700 -1.1328  0.0402
 1984SOL    HW217415   3.698   4.353  15.018 -0.3100  0.7112 -0.3886
 1985SOL     OW17416   3.182   0.174   9.521  0.4253  0.0524  0.0519
 1985SOL    HW117417   3.257   0.155   9.578  0.5189 -1.7310 -0.6834
 1985SOL    HW217418   3.171   0.269   9.531 -1.3352 -0.3393  1.7175
 1986SOL     OW17419   3.044   0.408  15.467 -0.0792  0.1258 -0.6123
 1986SOL    HW117420   3.053   0.484  15.410  3.8970  1.6287  1.9957
 1986SOL    HW217421   2.960   0.406  15.512 -0.0908  1.4565 -0.5814
 1987SOL     OW17422   0.277   1.628  13.756  0.1410  0.3685 -0.0664
 1987SOL    HW117423   0.289   1.717  13.723  0.3795  0.5044  0.3843
 1987SOL    HW217424   0.184   1.623  13.776  0.5736 -2.1245  1.3022
 1988SOL     OW17425   1.964   2.023   6.913 -0.1921  0.3938 -0.1358
 1988SOL    HW117426   1.978   2.107   6.869 -1.6424  0.5301 -0.3629
 1988SOL    HW217427   1.944   2.051   7.002  1.9291 -1.7655  1.0113
 1989SOL     OW17428   2.510   1.458   6.375 -0.2894  0.4943  0.3226
 1989SOL    HW117429   2.431   1.405   6.372  0.3491 -0.3127 -2.4202
 1989SOL    HW217430   2.516   1.490   6.465 -0.5480  1.5114 -0.0226
 1990SOL     OW17431   3.537   4.510   3.084  0.3876  0.0304  0.5561
 1990SOL    HW117432   3.576   4.579   3.031 -0.5679  0.9412  1.0394
 1990SOL    HW217433   3.545   4.426   3.039  1.0577 -0.6242  1.8908
 1991SOL     OW17434   3.089   0.312   5.990  0.7218 -0.4852  0.6338
 1991SOL    HW117435   3.145   0.237   5.968  0.3833 -0.3485 -0.7159
 1991SOL    HW217436   3.044   0.269   6.063 -1.3185 -0.8822 -0.8544
 1992SOL     OW17437   0.962   3.036   8.414  0.0165 -0.1743 -0.3178
 1992SOL    HW117438   0.909   3.052   8.492  0.2636 -0.7885 -0.0193
 1992SOL    HW217439   1.046   3.009   8.453  0.0848  0.7711  0.1927
 1993SOL     OW17440   4.024   2.621  11.263  0.0915  0.7998  0.4859
 1993SOL    HW117441   4.080   2.555  11.303  0.7667  3.0010  3.1862
 1993SOL    HW217442   4.033   2.585  11.174 -0.9399  0.1563  0.6474
 1994SOL     OW17443   0.380   3.500   7.847 -0.1821 -0.0536 -0.1339
 1994SOL    HW117444   0.292   3.524   7.817 -0.2630 -0.8759 -0.5595
 1994SOL    HW217445   0.389   3.412   7.810  1.3208 -0.9259  2.2687
 1995SOL     OW17446   1.443   2.720  15.480 -0.3274 -0.4804  0.2648
 1995SOL    HW117447   1.380   2.696  15.548 -1.1582 -0.1721 -0.3960
 1995SOL    HW217448   1.418   2.812  15.476  1.4297  0.1614  4.7076
 1996SOL     OW17449   0.684   3.827   6.091 -0.2688 -0.4522  0.2234
 1996SOL    HW117450   0.716   3.917   6.082  0.7014 -0.8267 -0.1343
 1996SOL    HW217451   0.753   3.799   6.151 -1.5829 -2.4388  0.7814
 1997SOL     OW17452   3.550   4.301  16.354 -0.1187  0.1411  0.0392
 1997SOL    HW117453   3.510   4.219  16.325 -1.8261  1.6085 -1.7511
 1997SOL    HW217454   3.577   4.278  16.443  0.6473  2.1497  0.3088
 1998SOL     OW17455   1.345   4.400   8.995 -0.4437 -0.1608  0.7355
 1998SOL    HW117456   1.372   4.426   8.907  2.4136  1.3237  2.0446
 1998SOL    HW217457   1.431   4.401   9.037 -0.1170 -0.4176  0.0700
 1999SOL     OW17458   0.720   2.804   5.293  0.0753  0.1689 -0.4604
 1999SOL    HW117459   0.767   2.793   5.375 -0.2355  0.9609 -0.1711
 1999SOL    HW217460   0.739   2.724   5.244 -3.4736 -0.1922 -1.2666
 2000SOL     OW17461   3.373   3.988   7.250 -0.0121 -0.0149 -0.2550
 2000SOL    HW117462   3.368   3.951   7.338 -2.0845  1.0686  0.0976
 2000SOL    HW217463   3.349   4.078   7.273 -0.3050  0.0777 -0.9349
 2001SOL     OW17464   1.879   2.697   4.228  0.0862 -0.3928  0.1042
 2001SOL    HW117465   1.866   2.723   4.136  3.2747  0.7554 -0.0153
 2001SOL    HW217466   1.956   2.751   4.246  0.3595 -2.1883  4.1808
 2002SOL     OW17467   1.781   2.992   4.214 -0.0527  0.2793  0.1676
 2002SOL    HW117468   1.690   3.021   4.215  0.5495  2.0277  3.7156
 2002SOL    HW217469   1.820   3.043   4.286 -1.6938  0.6360  0.8049
 2003SOL     OW17470   2.260   1.385   3.363  0.1063 -0.4838 -0.1927
 2003SOL    HW117471   2.353   1.390   3.344  0.1406 -0.2431  0.0318
 2003SOL    HW217472   2.223   1.421   3.282 -0.6446  2.2904  1.3819
 2004SOL     OW17473   1.983   4.576   5.642 -0.2216 -0.1324  0.6097
 2004SOL    HW117474   2.073   4.574   5.675 -0.3543 -0.3454  0.9514
 2004SOL    HW217475   1.932   4.526   5.706  3.0781 -1.0032  2.5189
 2005SOL     OW17476   4.526   1.203   7.617  0.7674  0.2572  0.0025
 2005SOL    HW117477   4.438   1.202   7.656  0.5632 -0.2046 -0.4688
 2005SOL    HW217478   4.526   1.123   7.564  1.8504 -0.4618  1.0809
 2006SOL     OW17479   1.590   1.732   6.127 -0.1081  0.1535 -0.1083
 2006SOL    HW117480   1.667   1.675   6.130 -0.3109 -0.1159  0.1011
 2006SOL    HW217481   1.555   1.710   6.214  1.9920 -0.5848  0.5410
 2007SOL     OW17482   2.579   1.306   2.876 -0.3324 -0.7310 -0.0188
 2007SOL    HW117483   2.524   1.382   2.897  2.6744  1.7709 -1.1437
 2007SOL    HW217484   2.665   1.335   2.906 -1.1972  0.2909  1.4604
 2008SOL     OW17485   3.977   0.536  14.380  0.1741  0.7596 -0.2124
 2008SOL    HW117486   3.955   0.445  14.361 -0.5946  1.4051 -2.4512
 2008SOL    HW217487   4.060   0.552  14.333  0.1766  1.1847 -0.0712
 2009SOL     OW17488   1.648   4.065   3.071  0.7572 -0.0884 -0.2741
 2009SOL    HW117489   1.700   4.107   3.003  1.9602 -0.0634  0.6712
 2009SOL    HW217490   1.644   3.976   3.035  0.1584  0.4273 -1.4781
 2010SOL     OW17491   1.945   1.927   3.097  1.1242  0.4254  0.1449
 2010SOL    HW117492   2.023   1.966   3.057  1.3283 -1.9437 -1.7128
 2010SOL    HW217493   1.897   2.001   3.135 -0.5873 -0.0438 -1.1028
 2011SOL     OW17494   3.310   4.448   9.094 -0.5190  0.1643  0.1372
 2011SOL    HW117495   3.242   4.390   9.129 -1.5963 -0.3293 -2.7518
 2011SOL    HW217496   3.283   4.454   9.002 -0.2737 -0.9385 -0.0087
 2012SOL     OW17497   3.474   1.141  16.393  0.4600 -0.3417 -0.7506
 2012SOL    HW117498   3.393   1.123  16.442 -0.0363  0.3322 -1.3230
 2012SOL    HW217499   3.536   1.129  16.465  0.8564 -1.0397 -1.2086
 2013SOL     OW17500   3.263   0.997   1.531  0.2162 -0.3308  0.2678
 2013SOL    HW117501   3.229   1.086   1.541  0.6822 -0.1241 -0.0145
 2013SOL    HW217502   3.224   0.975   1.446  1.1182 -0.2583 -0.1622
 2014SOL     OW17503   1.593   1.591   7.501 -0.0467 -0.1271 -0.3858
 2014SOL    HW117504   1.586   1.538   7.422 -0.4166  0.2463 -0.6007
 2014SOL    HW217505   1.559   1.527   7.564  0.2917  0.4921  0.4250
 2015SOL     OW17506   0.174   4.467   5.588  0.3966  0.3742  0.1850
 2015SOL    HW117507   0.172   4.547   5.536  1.0031  0.3310  0.0937
 2015SOL    HW217508   0.155   4.489   5.679  1.9887  1.5244  0.2397
 2016SOL     OW17509   0.191   3.986   7.340 -0.3456  0.2193  0.6174
 2016SOL    HW117510   0.236   4.061   7.379  1.2133  0.7527 -2.1704
 2016SOL    HW217511   0.257   3.919   7.324 -0.5752  0.1889 -0.2499
 2017SOL     OW17512   1.574   0.516   8.165 -0.2198 -0.4954  0.5673
 2017SOL    HW117513   1.538   0.527   8.253 -1.9043 -1.6694  0.0217
 2017SOL    HW217514   1.502   0.494   8.106 -0.0311 -2.3524  1.0336
 2018SOL     OW17515   3.464   2.694   9.480 -0.2347  0.9594 -0.0113
 2018SOL    HW117516   3.376   2.701   9.518 -1.1860 -0.9670 -1.8380
 2018SOL    HW217517   3.520   2.676   9.555 -1.1159  2.6564  1.0715
 2019SOL     OW17518   2.386   3.930   8.855 -0.4626 -0.2427 -0.2779
 2019SOL    HW117519   2.429   4.008   8.890  4.0760 -2.0062 -1.9663
 2019SOL    HW217520   2.293   3.949   8.841  0.1475  2.3984 -0.7871
 2020SOL     OW17521   4.453   4.105   6.621 -0.4194 -0.1939 -0.2269
 2020SOL    HW117522   4.373   4.156   6.621  0.8344  1.7580  0.3053
 2020SOL    HW217523   4.508   4.176   6.587 -3.1152  1.5962 -0.8157
 2021SOL     OW17524   4.558   3.423  13.326 -0.3232  0.2334  0.0246
 2021SOL    HW117525   4.606   3.347  13.359  1.0246  1.9080  1.9197
 2021SOL    HW217526   4.505   3.449  13.402  0.9836 -0.0939  1.0395
 2022SOL     OW17527   2.483   2.015   8.567 -0.4599  0.4017 -0.1185
 2022SOL    HW117528   2.573   1.984   8.570  0.4333  2.9963  0.0274
 2022SOL    HW217529   2.431   1.947   8.523  2.0474 -0.3820 -1.8759
 2023SOL     OW17530   4.060   3.892   2.011 -0.0571  0.3257 -0.6602
 2023SOL    HW117531   4.076   3.978   1.971 -0.2869  0.3622 -0.6739
 2023SOL    HW217532   4.065   3.829   1.939 -0.3078 -0.0830 -0.3232
 2024SOL     OW17533   0.522   2.237  12.284 -0.0341 -0.1450 -0.1670
 2024SOL    HW117534   0.538   2.327  12.254  1.8646  0.5896  3.0174
 2024SOL    HW217535   0.520   2.245  12.379  1.3381 -0.4986 -0.1016
 2025SOL     OW17536   3.116   4.297   9.958  0.2367  0.2380  0.2385
 2025SOL    HW117537   3.039   4.301  10.015  0.7372  2.4204  0.7782
 2025SOL    HW217538   3.102   4.213   9.915 -1.3228  1.1998 -1.1324
 2026SOL     OW17539   1.485   0.262  11.274 -0.0280  0.3551 -0.4296
 2026SOL    HW117540   1.439   0.345  11.263  1.1366  0.4681 -4.5037
 2026SOL    HW217541   1.570   0.280  11.315 -0.1038  0.0221 -0.1202
 2027SOL     OW17542   4.045   2.795   3.926  0.1145 -0.4411  0.0954
 2027SOL    HW117543   4.084   2.881   3.944  0.2644 -1.1021  2.9476
 2027SOL    HW217544   4.037   2.797   3.831 -1.6026 -1.3544  0.2196
 2028SOL     OW17545   2.314   0.311  16.606  0.5857 -0.0156  0.3190
 2028SOL    HW117546   2.359   0.396  16.601  0.8123 -0.2022 -0.7905
 2028SOL    HW217547   2.337   0.282  16.518 -0.8744 -1.8276  0.5385
 2029SOL     OW17548   3.037   1.658  15.532  0.7227  0.3702 -0.2635
 2029SOL    HW117549   3.005   1.590  15.591  1.7875  0.1751  0.0875
 2029SOL    HW217550   2.980   1.645  15.456  1.4876  2.4896 -1.2107
 2030SOL     OW17551   1.689   0.121   2.633  0.4374  0.0759 -0.8469
 2030SOL    HW117552   1.712   0.055   2.698 -0.5305  1.9433  1.3890
 2030SOL    HW217553   1.698   0.203   2.682  0.2249 -1.9857  2.6350
 2031SOL     OW17554   4.462   1.032   6.188 -0.3592 -0.5933  0.1403
 2031SOL    HW117555   4.418   0.947   6.189 -0.6471 -0.4557 -1.7851
 2031SOL    HW217556   4.409   1.067   6.117 -0.7906 -0.7254  0.3964
 2032SOL     OW17557   1.735   1.149   6.534  0.1402  0.4219 -0.3523
 2032SOL    HW117558   1.746   1.177   6.443  1.6281 -2.0877 -0.9341
 2032SOL    HW217559   1.806   1.088   6.551 -1.1399 -1.2730 -1.1129
 2033SOL     OW17560   3.635   1.374   6.327 -0.2898 -0.0464  0.2821
 2033SOL    HW117561   3.627   1.305   6.262 -0.9561  0.4577 -0.1728
 2033SOL    HW217562   3.676   1.320   6.395  1.3973 -2.2720 -2.4954
 2034SOL     OW17563   0.222   2.981   6.831  0.5853 -0.0942 -0.1630
 2034SOL    HW117564   0.289   3.043   6.858  0.6881  0.9031 -2.7823
 2034SOL    HW217565   0.259   2.897   6.858  1.1907  0.2892  0.1903
 2035SOL     OW17566   3.207   4.302   9.604 -0.8645 -0.0961 -0.0679
 2035SOL    HW117567   3.244   4.218   9.630  0.2210  0.7267  1.0070
 2035SOL    HW217568   3.172   4.277   9.518  1.3548 -0.7003 -0.7994
 2036SOL     OW17569   1.690   1.195   6.280  0.4623 -0.4229  0.4270
 2036SOL    HW117570   1.772   1.187   6.232 -1.2487  0.6973 -2.6858
 2036SOL    HW217571   1.626   1.223   6.214  2.3796  1.5770 -0.5863
 2037SOL     OW17572   4.344   1.119   7.043 -0.1575  0.0110 -0.1732
 2037SOL    HW117573   4.274   1.055   7.036  0.6070 -0.7065 -1.1316
 2037SOL    HW217574   4.308   1.186   7.101  0.0534 -0.5637  0.6229
 2038SOL     OW17575   2.180   3.867  10.594 -0.0479 -0.1041  0.2014
 2038SOL    HW117576   2.147   3.941  10.644 -0.2068  2.1912 -3.2609
 2038SOL    HW217577   2.135   3.875  10.510  0.7528  0.5144 -0.1731
 2039SOL     OW17578   1.415   0.637   4.533  0.4046  0.1234 -0.2869
 2039SOL    HW117579   1.344   0.700   4.536  1.0701  0.7538  2.0942
 2039SOL    HW217580   1.431   0.626   4.439  0.0086  1.0056 -0.4580
 2040SOL     OW17581   3.958   4.234  15.168 -0.6035  0.6858  0.1272
 2040SOL    HW117582   3.907   4.300  15.120 -2.5960 -1.9209 -1.3560
 2040SOL    HW217583   3.888   4.181  15.204  0.6851 -0.2502  1.2361
 2041SOL     OW17584   2.530   3.789   5.260  0.0635  0.0787  0.1901
 2041SOL    HW117585   2.613   3.818   5.297  0.9779  2.8668 -4.0570
 2041SOL    HW217586   2.503   3.718   5.319  0.9665  0.8058  1.4556
 2042SOL     OW17587   1.981   2.060   3.685  0.0203 -0.0678 -0.3854
 2042SOL    HW117588   1.904   2.034   3.735 -0.1763  2.1356  0.4765
 2042SOL    HW217589   2.012   2.134   3.737  0.0248 -1.5369  1.6926
 2043SOL     OW17590   3.339   2.972   4.824  0.0316 -0.3833  0.5606
 2043SOL    HW117591   3.314   2.963   4.916 -0.1815 -0.1125  0.5276
 2043SOL    HW217592   3.415   3.030   4.834 -0.0954 -0.4221  1.6669
 2044SOL     OW17593   0.655   1.686   7.424  0.1553  0.7890  0.3728
 2044SOL    HW117594   0.706   1.696   7.504 -1.1745  1.1602  1.1629
 2044SOL    HW217595   0.575   1.734   7.445 -1.2979 -1.0707 -0.9285
 2045SOL     OW17596   0.090   2.652   3.417 -0.0802 -0.1683 -0.1944
 2045SOL    HW117597   0.014   2.609   3.457 -0.5695 -0.9142 -1.9557
 2045SOL    HW217598   0.164   2.604   3.455  0.3079  0.0339 -0.7064
 2046SOL     OW17599   2.097   3.338   9.852  0.4789  0.0369 -0.2333
 2046SOL    HW117600   2.123   3.255   9.891 -0.6066 -0.0603  0.2829
 2046SOL    HW217601   2.022   3.365   9.905  0.2811  2.2382 -1.6441
 2047SOL     OW17602   3.400   1.358  11.347 -0.0766 -0.4195 -0.8107
 2047SOL    HW117603   3.410   1.452  11.334 -0.1577 -0.5119 -1.5589
 2047SOL    HW217604   3.485   1.329  11.313  0.6232 -1.4131  1.8051
 2048SOL     OW17605   0.678   0.504   9.403 -0.3913 -0.4090  0.1100
 2048SOL    HW117606   0.588   0.529   9.421 -0.3318 -0.5188  0.5680
 2048SOL    HW217607   0.685   0.430   9.464  0.7430 -0.7826 -0.4666
 2049SOL     OW17608   1.303   2.360   2.548  0.6862 -0.3837 -0.8012
 2049SOL    HW117609   1.301   2.449   2.512 -1.2418  0.6866  2.0134
 2049SOL    HW217610   1.390   2.329   2.524  0.1286 -1.8472 -0.9778
 2050SOL     OW17611   0.107   3.472  13.261  0.0066 -0.2491 -0.0670
 2050SOL    HW117612   0.076   3.389  13.296 -0.4570  0.0189  0.1594
 2050SOL    HW217613   0.029   3.523  13.283  0.0894  1.0334 -2.7266
 2051SOL     OW17614   0.739   2.497   7.104 -0.1178 -0.3009  0.3244
 2051SOL    HW117615   0.713   2.406   7.116 -1.9596  0.1968  0.1458
 2051SOL    HW217616   0.772   2.498   7.015 -0.7119  0.4503  0.1081
 2052SOL     OW17617   2.801   3.511  16.952 -0.2655 -0.0263  0.4844
 2052SOL    HW117618   2.709   3.520  16.929  0.9156  0.6139 -4.0363
 2052SOL    HW217619   2.829   3.602  16.944 -1.8438  0.4171  0.0864
 2053SOL     OW17620   4.632   1.439   9.418  0.2585 -0.0447  0.7216
 2053SOL    HW117621   4.715   1.453   9.463  1.4707  2.6000 -2.3934
 2053SOL    HW217622   4.568   1.470   9.483  0.0828  0.8549  0.1045
 2054SOL     OW17623   3.273   4.145   5.543  0.0519  0.2860  0.3311
 2054SOL    HW117624   3.283   4.155   5.637  0.6059 -1.8953  0.5138
 2054SOL    HW217625   3.182   4.114   5.537 -0.0473  0.4161  1.2266
 2055SOL     OW17626   2.068   3.448   1.281  0.0303 -0.6386 -0.2598
 2055SOL    HW117627   2.071   3.383   1.211  1.2472  0.9281 -1.6558
 2055SOL    HW217628   2.149   3.494   1.259  1.6480 -3.6415 -0.6459
 2056SOL     OW17629   2.827   3.620   1.974 -0.4492 -0.4250 -0.3251
 2056SOL    HW117630   2.855   3.661   1.892 -4.4838  0.2236 -1.3961
 2056SOL    HW217631   2.868   3.535   1.958 -1.3352 -0.4474 -2.6058
 2057SOL     OW17632   4.140   4.221   2.365  0.4477  0.4731  0.1092
 2057SOL    HW117633   4.047   4.243   2.360  0.1205 -1.1698 -0.8908
 2057SOL    HW217634   4.137   4.142   2.418 -0.5371  1.7297  1.9505
 2058SOL     OW17635   3.589   1.148   2.851 -0.0223  0.1224 -0.0598
 2058SOL    HW117636   3.552   1.135   2.938 -0.7307  0.1506 -0.3574
 2058SOL    HW217637   3.622   1.060   2.834  1.8150  0.9973 -1.0502
 2059SOL     OW17638   4.121   3.786  16.388 -0.6163 -0.3149 -0.3897
 2059SOL    HW117639   4.117   3.749  16.300  0.3106 -1.3558  0.0029
 2059SOL    HW217640   4.214   3.779  16.408 -0.5053  3.9426  0.6212
 2060SOL     OW17641   1.138   0.494   6.349  0.1208  0.1983 -0.3475
 2060SOL    HW117642   1.101   0.480   6.437 -2.3677 -0.4292 -1.4993
 2060SOL    HW217643   1.070   0.450   6.299 -1.7868  0.2149  2.1996
 2061SOL     OW17644   2.308   0.106   8.558 -0.0981 -0.1422  0.1298
 2061SOL    HW117645   2.376   0.107   8.626 -0.1729  0.2413  0.2021
 2061SOL    HW217646   2.250   0.172   8.596  0.3125  1.4296 -1.9567
 2062SOL     OW17647   3.650   3.935  16.476  0.2622 -0.2967  0.1200
 2062SOL    HW117648   3.739   3.905  16.493  0.2265 -1.7952 -2.2737
 2062SOL    HW217649   3.628   3.872  16.407 -2.4733  2.0046 -1.1277
 2063SOL     OW17650   1.841   3.262   2.218  0.0022  0.4139  0.0701
 2063SOL    HW117651   1.932   3.236   2.224 -0.1777 -0.1150  0.4759
 2063SOL    HW217652   1.805   3.232   2.134  1.2372  2.2207 -1.1088
 2064SOL     OW17653   4.698   0.078  11.800 -0.2923 -0.1807  0.7687
 2064SOL    HW117654   4.719   0.069  11.893  0.3658  0.9711  0.7248
 2064SOL    HW217655   0.060   0.093  11.755 -0.6198 -0.6917 -0.0089
 2065SOL     OW17656   0.999   2.820   2.674 -0.9948  0.6775 -0.7888
 2065SOL    HW117657   1.063   2.890   2.661 -0.4064  0.3338  0.2259
 2065SOL    HW217658   0.986   2.802   2.767  0.3540  3.4443 -0.0940
 2066SOL     OW17659   3.509   1.569   7.568 -0.1396  0.5267 -0.2273
 2066SOL    HW117660   3.577   1.557   7.634 -0.7193 -1.4840 -0.0069
 2066SOL    HW217661   3.545   1.634   7.508  1.7090 -1.4364 -1.2673
 2067SOL     OW17662   3.838   0.559   4.014  0.8666  0.1512 -0.7861
 2067SOL    HW117663   3.817   0.626   4.079 -0.7918 -0.9367 -0.2005
 2067SOL    HW217664   3.764   0.565   3.954  1.2726  1.7007 -1.1250
 2068SOL     OW17665   2.876   4.515  12.983  0.5020 -0.4580 -0.0474
 2068SOL    HW117666   2.917   4.442  13.030 -2.7855 -0.8705  2.1627
 2068SOL    HW217667   2.860   4.578  13.052 -0.1426 -2.2312  1.4372
 2069SOL     OW17668   2.284   3.713   5.413  0.0952 -0.4763  0.2989
 2069SOL    HW117669   2.286   3.689   5.505  1.0688 -1.4121  0.0310
 2069SOL    HW217670   2.318   3.802   5.418  0.0381 -0.2505 -3.2029
 2070SOL     OW17671   0.167   2.644  17.086 -0.2575  0.0974 -0.0274
 2070SOL    HW117672   0.115   2.598  17.020  0.2406  2.0836 -1.8064
 2070SOL    HW217673   0.179   2.571  17.146  1.0292 -0.8837 -1.5016
 2071SOL     OW17674   1.888   3.827   1.507 -0.1402  0.0815  0.0377
 2071SOL    HW117675   1.960   3.877   1.544  1.8652 -0.7004 -2.7714
 2071SOL    HW217676   1.924   3.742   1.481 -0.0447 -0.0214  0.5204
 2072SOL     OW17677   0.611   3.060   4.450 -0.2242 -0.2554  0.1651
 2072SOL    HW117678   0.595   2.978   4.496 -1.7889  1.3353  2.4511
 2072SOL    HW217679   0.586   3.122   4.519 -1.8608 -0.7937  0.0723
 2073SOL     OW17680   2.855   1.080  17.051 -0.1932 -0.7867 -0.1218
 2073SOL    HW117681   2.933   1.136  17.051 -2.5988  2.6065  0.9538
 2073SOL    HW217682   2.842   1.055  17.143 -1.0628  0.9875  0.2420
 2074SOL     OW17683   2.218   2.074   8.903 -0.5298 -0.0882  0.0278
 2074SOL    HW117684   2.313   2.061   8.907 -1.0092 -2.8496  1.9644
 2074SOL    HW217685   2.182   2.014   8.838  2.8574 -2.7379  0.6405
 2075SOL     OW17686   1.632   3.889   3.854  0.1592  0.3501  0.1231
 2075SOL    HW117687   1.662   3.970   3.895  1.8850 -0.0254 -0.4067
 2075SOL    HW217688   1.556   3.927   3.811  0.9501  1.4524 -0.2798
 2076SOL     OW17689   4.533   0.446   3.136 -1.2113  0.4372  0.0295
 2076SOL    HW117690   4.563   0.377   3.195  1.2308  1.2721 -0.1973
 2076SOL    HW217691   4.606   0.449   3.073 -0.0766  0.6966  1.3569
 2077SOL     OW17692   3.743   0.586  14.194 -0.2288 -0.4069  0.5471
 2077SOL    HW117693   3.805   0.563  14.263  0.9101  2.6200  0.5621
 2077SOL    HW217694   3.662   0.549  14.229 -1.6544  2.3584  0.1947
 2078SOL     OW17695   2.876   4.558   5.257 -0.1189 -0.4658  0.1226
 2078SOL    HW117696   2.794   4.605   5.241  1.5295  1.3960 -2.8327
 2078SOL    HW217697   2.924   4.586   5.179  0.8562  0.8665  1.1787
 2079SOL     OW17698   1.636   0.283   1.883  0.2567 -0.3233 -0.2694
 2079SOL    HW117699   1.635   0.188   1.872 -0.7656 -0.3449  0.0241
 2079SOL    HW217700   1.579   0.290   1.960 -0.2330  1.4489 -0.7904
 2080SOL     OW17701   0.786   4.707  16.249  0.1868 -0.4059 -0.6852
 2080SOL    HW117702   0.770   4.614  16.234 -1.2006 -0.1851 -0.4801
 2080SOL    HW217703   0.697   0.004  16.276  0.5132  0.9698 -0.5342
 2081SOL     OW17704   4.361   0.240   3.545 -0.4407 -0.0449  0.5520
 2081SOL    HW117705   4.370   0.223   3.639  1.4349 -0.6330  0.2672
 2081SOL    HW217706   4.384   0.333   3.547 -0.5371 -0.0035 -0.3227
 2082SOL     OW17707   1.934   4.101  10.548  0.4307 -0.4870 -0.5995
 2082SOL    HW117708   1.943   4.023  10.493 -0.6395 -2.1528  1.5700
 2082SOL    HW217709   1.913   4.160  10.476 -1.7019  0.1659  0.5545
 2083SOL     OW17710   3.278   2.845   8.152 -0.4112 -0.6921 -0.0315
 2083SOL    HW117711   3.333   2.867   8.227 -1.1838  0.9396  0.0518
 2083SOL    HW217712   3.291   2.923   8.099 -0.0511 -1.5270 -1.1723
 2084SOL     OW17713   4.377   2.342  17.308  0.6051 -0.0711  0.4224
 2084SOL    HW117714   4.328   2.407  17.259  1.2966 -0.2723 -0.5357
 2084SOL    HW217715   4.467   2.346  17.275  1.4715  2.0326  2.9332
 2085SOL     OW17716   3.207   3.290  10.853  0.7285  0.1251  0.0211
 2085SOL    HW117717   3.155   3.363  10.888  1.5095  1.8405 -2.4577
 2085SOL    HW217718   3.286   3.340  10.834  0.7190  0.2901  0.4009
 2086SOL     OW17719   1.051   2.273   6.313  0.2535  0.2973 -0.0249
 2086SOL    HW117720   1.085   2.348   6.265 -1.4820  1.4247  0.5040
 2086SOL    HW217721   1.010   2.305   6.393  1.6864 -0.8661  1.1734
 2087SOL     OW17722   0.871   1.136   2.562 -0.0199  0.3802 -0.1179
 2087SOL    HW117723   0.915   1.167   2.483  0.5998 -1.0977 -0.3538
 2087SOL    HW217724   0.849   1.046   2.538  0.4114  0.7489 -1.8304
 2088SOL     OW17725   0.660   3.322  13.681  0.1535  0.4254  0.4121
 2088SOL    HW117726   0.573   3.360  13.686  0.8415  2.2066 -1.3325
 2088SOL    HW217727   0.685   3.320  13.774 -2.0090 -0.6721  0.9600
 2089SOL     OW17728   1.994   3.328  16.379 -0.1967  0.1556  0.0777
 2089SOL    HW117729   2.077   3.304  16.337  0.6585 -0.3593  2.0285
 2089SOL    HW217730   1.989   3.260  16.446  0.0112 -0.5997 -0.6698
 2090SOL     OW17731   4.644   1.978   0.270  0.4582  0.2750  0.3358
 2090SOL    HW117732   0.009   1.980   0.227 -0.4221 -0.3751 -1.4469
 2090SOL    HW217733   4.678   1.942   0.352 -0.5617  0.3519  0.7943
 2091SOL     OW17734   4.037   0.010   9.450 -0.1864 -0.5238 -0.3266
 2091SOL    HW117735   4.044   4.648   9.497  2.5969 -0.0727  0.0649
 2091SOL    HW217736   3.947   4.721   9.421 -0.3313  0.4562 -0.2509
 2092SOL     OW17737   1.866   3.695   0.140 -0.1697 -0.6732 -0.0638
 2092SOL    HW117738   1.797   3.671   0.201 -0.5059 -1.0666 -0.6074
 2092SOL    HW217739   1.942   3.664   0.190  0.7294  2.4263  0.4986
 2093SOL     OW17740   1.416   3.399   0.501  0.2624 -0.8524  0.2448
 2093SOL    HW117741   1.372   3.464   0.556 -0.0634 -1.2926  0.5030
 2093SOL    HW217742   1.422   3.330   0.567 -3.1019 -0.3678  1.0512
 2094SOL     OW17743   1.854   0.736  13.729 -0.1913  0.8207 -0.0254
 2094SOL    HW117744   1.933   0.741  13.674  0.0430  2.2251  0.4542
 2094SOL    HW217745   1.823   0.645  13.722 -0.2171  0.8528 -0.3285
 2095SOL     OW17746   0.180   0.680   7.178 -0.0335 -0.4096  0.4732
 2095SOL    HW117747   0.199   0.764   7.220  3.1270 -0.7214 -0.3256
 2095SOL    HW217748   0.208   0.704   7.090 -1.3961  1.9436  0.6853
 2096SOL     OW17749   1.980   1.960  16.367 -0.3082 -0.3927  0.0129
 2096SOL    HW117750   1.916   1.943  16.436 -1.7062  0.7260 -0.9956
 2096SOL    HW217751   2.002   1.872  16.336  1.4765  0.7036 -1.8493
 2097SOL     OW17752   2.266   1.692   6.410  0.1451  0.2716  0.4881
 2097SOL    HW117753   2.254   1.769   6.353 -0.2337 -1.2538 -1.5008
 2097SOL    HW217754   2.331   1.660   6.347  1.8465  0.3938  2.1751
 2098SOL     OW17755   2.801   0.142   8.935  0.0934 -0.2489 -0.6164
 2098SOL    HW117756   2.882   0.192   8.939 -0.6435  0.9667 -1.0247
 2098SOL    HW217757   2.733   0.209   8.923  1.2279  1.2951  1.5787
 2099SOL     OW17758   3.831   3.718  12.116 -0.2533 -0.4601 -0.3252
 2099SOL    HW117759   3.806   3.810  12.111 -0.8853 -0.6130 -0.0145
 2099SOL    HW217760   3.747   3.673  12.123 -0.8231  0.8750  1.3840
 2100SOL     OW17761   4.240   0.836   5.025  0.0586 -0.4305  0.4482
 2100SOL    HW117762   4.302   0.805   5.092  1.2202 -0.5815 -0.6960
 2100SOL    HW217763   4.224   0.764   4.963 -0.6640  1.3292 -1.3999
 2101SOL     OW17764   2.690   1.687   4.305  0.2953  0.1276 -0.7355
 2101SOL    HW117765   2.779   1.711   4.279 -0.4870  0.9335 -2.6565
 2101SOL    HW217766   2.702   1.689   4.400 -2.5296  0.3121 -0.3886
 2102SOL     OW17767   2.746   1.435  16.160 -0.0367  0.4503  0.1481
 2102SOL    HW117768   2.806   1.496  16.117  0.8114  0.4821  1.3780
 2102SOL    HW217769   2.670   1.441  16.101 -0.8369  1.3605  1.2464
 2103SOL     OW17770   0.909   0.944   4.925 -0.0025  0.1980 -0.3694
 2103SOL    HW117771   0.946   0.883   4.988  0.1951  0.7263  0.0267
 2103SOL    HW217772   0.991   0.948   4.877  0.6260 -1.0355  0.6122
 2104SOL     OW17773   3.464   3.710  13.300  0.2298 -0.1750 -0.2508
 2104SOL    HW117774   3.391   3.654  13.325  0.5194  0.4972  2.0999
 2104SOL    HW217775   3.492   3.680  13.214  2.7703 -1.8636  1.1904
 2105SOL     OW17776   1.700   0.155   5.699  0.3309 -0.6666 -0.7045
 2105SOL    HW117777   1.628   0.211   5.669 -1.1376 -2.3022 -0.2173
 2105SOL    HW217778   1.675   0.169   5.791  2.4257 -0.1933 -0.2063
 2106SOL     OW17779   4.415   4.034  14.547 -0.1601 -0.1326 -0.2002
 2106SOL    HW117780   4.462   4.029  14.629  1.9154  0.2967 -1.3639
 2106SOL    HW217781   4.437   4.126  14.531 -1.8676  0.2209 -0.5261
 2107SOL     OW17782   3.622   4.205  13.939 -0.0552  0.4156  0.2612
 2107SOL    HW117783   3.660   4.194  13.852  1.0902 -0.8369  0.9264
 2107SOL    HW217784   3.577   4.289  13.931 -0.3358  0.3490  1.1784
 2108SOL     OW17785   3.164   2.076   0.405 -0.0234  0.3272  0.3951
 2108SOL    HW117786   3.169   2.052   0.498  1.4238  1.6815  0.6596
 2108SOL    HW217787   3.183   2.168   0.421 -1.7632  0.7194  0.1907
 2109SOL     OW17788   3.019   3.970   1.673  0.3818  0.5494 -0.0120
 2109SOL    HW117789   2.969   4.010   1.601 -0.4404  0.1243  0.3191
 2109SOL    HW217790   3.099   4.007   1.637  0.9848 -0.8673 -0.1429
 2110SOL     OW17791   3.119   0.653   5.260  0.3195 -0.7313  0.3601
 2110SOL    HW117792   3.069   0.580   5.224  1.6432 -2.2423  1.5776
 2110SOL    HW217793   3.113   0.617   5.348  1.9657 -1.4485  0.1658
 2111SOL     OW17794   0.140   2.292   8.548 -0.1121 -0.2130 -0.0408
 2111SOL    HW117795   0.235   2.277   8.556 -0.1813 -0.0362  1.0839
 2111SOL    HW217796   0.145   2.380   8.585  0.0659 -0.6379  0.9513
 2112SOL     OW17797   2.044   0.589  11.259 -0.0642  0.0637 -0.3941
 2112SOL    HW117798   2.008   0.675  11.237 -4.3228 -1.5603  0.2300
 2112SOL    HW217799   1.974   0.557  11.316 -0.4319 -2.9528 -2.5847
 2113SOL     OW17800   4.664   0.911   8.540  0.7328 -0.0601  0.2110
 2113SOL    HW117801   4.645   0.950   8.454  0.5965  1.2865  0.8400
 2113SOL    HW217802   4.597   0.960   8.588 -0.0295  0.9419 -1.8235
 2114SOL     OW17803   3.958   4.155   3.957 -0.1266 -0.1705 -0.2845
 2114SOL    HW117804   3.962   4.112   3.872 -0.6269  1.8605 -1.3332
 2114SOL    HW217805   3.968   4.085   4.022  0.5500  0.2270  0.0316
 2115SOL     OW17806   0.001   4.137   6.424 -0.3854 -0.6686 -0.2027
 2115SOL    HW117807   0.034   4.224   6.401 -4.0159  1.0185  1.0726
 2115SOL    HW217808   4.658   4.108   6.360 -0.1413 -0.0885 -0.7115
 2116SOL     OW17809   2.511   3.237   3.797 -0.1589 -0.2469 -0.3516
 2116SOL    HW117810   2.427   3.200   3.823  0.5925 -0.6906  1.4267
 2116SOL    HW217811   2.545   3.291   3.869 -1.3846  1.4276 -1.0386
 2117SOL     OW17812   1.564   2.701  15.982  0.6244 -0.0376 -0.4105
 2117SOL    HW117813   1.609   2.700  15.898  1.3219 -2.9169 -0.0018
 2117SOL    HW217814   1.557   2.607  15.993  3.3871 -0.2053 -0.2096
 2118SOL     OW17815   1.077   3.400  14.140 -0.0966  0.9202 -0.1921
 2118SOL    HW117816   1.155   3.366  14.183 -0.4308  0.0471 -0.2756
 2118SOL    HW217817   1.115   3.442  14.063 -0.7876  0.0713 -1.0084
 2119SOL     OW17818   1.773   0.379   3.070  0.0574 -0.2901  0.1598
 2119SOL    HW117819   1.793   0.443   3.138  0.3893  0.5141 -0.6913
 2119SOL    HW217820   1.696   0.421   3.032  0.6736 -1.1472 -2.0450
 2120SOL     OW17821   0.090   2.388  15.635  0.0258 -0.1092  0.3706
 2120SOL    HW117822   0.090   2.473  15.590 -1.5003 -0.7375 -0.8277
 2120SOL    HW217823   0.142   2.339  15.571  0.7816 -0.4049  1.2239
 2121SOL     OW17824   3.781   0.930  12.944 -0.1090 -0.7633 -0.0899
 2121SOL    HW117825   3.858   0.909  12.998  0.1988  0.4813 -0.0448
 2121SOL    HW217826   3.718   0.972  13.002  2.0022  0.5479  1.2750
 2122SOL     OW17827   4.420   1.746   0.050  0.4242  0.2680  0.4277
 2122SOL    HW117828   4.507   1.774   0.022  0.0153  0.5523 -0.5581
 2122SOL    HW217829   4.375   1.830   0.049  4.5653  2.5413  1.6180
 2123SOL     OW17830   0.854   3.308  10.453 -0.5085 -0.3296  0.2635
 2123SOL    HW117831   0.897   3.280  10.373  1.8669  2.5607  0.5178
 2123SOL    HW217832   0.925   3.369  10.474 -2.2816  2.7499 -2.6433
 2124SOL     OW17833   0.550   0.674   7.260 -0.1607 -0.5442  0.8067
 2124SOL    HW117834   0.548   0.768   7.244 -2.3349 -0.6223  0.5950
 2124SOL    HW217835   0.642   0.650   7.255  0.2021  0.6844  1.5778
 2125SOL     OW17836   0.837   2.662  11.347 -0.0838  0.5291 -0.3131
 2125SOL    HW117837   0.921   2.705  11.331  0.1665 -0.4123 -1.4961
 2125SOL    HW217838   0.792   2.731  11.395  1.7501  1.1201  0.5571
 2126SOL     OW17839   2.590   1.121  13.155  0.3525 -0.3797 -0.1523
 2126SOL    HW117840   2.500   1.091  13.155 -0.1083  0.9631  0.7402
 2126SOL    HW217841   2.644   1.042  13.153 -2.5111 -2.3124 -0.7422
 2127SOL     OW17842   4.636   4.394   2.707 -0.1507 -0.0007  0.3500
 2127SOL    HW117843   4.632   4.299   2.718 -0.5894 -0.0393 -0.1402
 2127SOL    HW217844   4.718   4.413   2.662  0.7511 -2.2029  1.0792
 2128SOL     OW17845   0.777   1.274  12.858 -0.2627 -0.2972 -0.2670
 2128SOL    HW117846   0.868   1.259  12.884  0.0084  0.0875 -0.9999
 2128SOL    HW217847   0.743   1.253  12.945  1.8618 -1.2039  0.3519
 2129SOL     OW17848   3.305   2.379   2.232 -0.2100  0.6582  0.4811
 2129SOL    HW117849   3.272   2.291   2.215  0.0585  0.4227  1.1633
 2129SOL    HW217850   3.261   2.423   2.160  1.1045  1.3734  0.1100
 2130SOL     OW17851   3.152   3.857   1.366 -0.1134 -0.3560  0.3585
 2130SOL    HW117852   3.067   3.893   1.340  0.0266 -0.2682  0.0155
 2130SOL    HW217853   3.195   3.855   1.280  1.7116  0.0434  1.2774
 2131SOL     OW17854   1.492   2.894   6.474 -0.5039  0.0233 -0.2408
 2131SOL    HW117855   1.440   2.974   6.484  0.3203  0.3089  1.7295
 2131SOL    HW217856   1.456   2.862   6.391 -1.0906 -2.1513  0.8342
 2132SOL     OW17857   2.054   3.146   2.827  0.0746 -0.0982 -0.0267
 2132SOL    HW117858   2.028   3.150   2.735  0.6398  2.2339 -0.0816
 2132SOL    HW217859   2.149   3.140   2.816  0.1076  0.3444  0.0123
 2133SOL     OW17860   0.929   4.225   8.679  0.2316 -0.2947 -0.2159
 2133SOL    HW117861   1.016   4.258   8.658  0.0511 -0.3472 -1.0446
 2133SOL    HW217862   0.889   4.195   8.597 -2.2067 -1.1135  1.2622
 2134SOL     OW17863   1.463   0.727  13.618  0.5251  0.3281 -0.2649
 2134SOL    HW117864   1.549   0.688  13.600  1.2502  1.1462  1.4218
 2134SOL    HW217865   1.471   0.785  13.694 -0.5571 -0.2890  0.3295
 2135SOL     OW17866   2.993   0.860  10.392 -0.0113  0.1240  0.3731
 2135SOL    HW117867   2.985   0.815  10.308  1.5276  1.1297 -0.3233
 2135SOL    HW217868   3.023   0.948  10.368 -0.7720  0.5368  0.9555
 2136SOL     OW17869   1.555   3.502   5.067 -0.2997  0.8834 -0.2047
 2136SOL    HW117870   1.468   3.522   5.102  0.1432  2.1673  0.1656
 2136SOL    HW217871   1.588   3.590   5.050 -3.3460  1.9017 -0.6873
 2137SOL     OW17872   3.306   1.098   2.216 -0.4266 -0.2853  0.6093
 2137SOL    HW117873   3.281   1.017   2.170  0.4881  0.7687 -1.7271
 2137SOL    HW217874   3.272   1.090   2.306 -3.3134  0.4741 -0.4024
 2138SOL     OW17875   1.358   3.440  14.184 -0.5685 -0.1740  0.5221
 2138SOL    HW117876   1.415   3.458  14.109 -1.4924  0.0266 -0.1407
 2138SOL    HW217877   1.395   3.489  14.258 -0.0782  0.3566 -0.0705
 2139SOL     OW17878   2.800   0.182   5.306  0.3163 -0.2493  0.0320
 2139SOL    HW117879   2.713   0.216   5.287  0.4262  0.8429  1.4584
 2139SOL    HW217880   2.827   0.223   5.388 -0.1249  1.3857 -0.6415
 2140SOL     OW17881   0.973   1.466  13.151  0.2333  0.0725 -0.0749
 2140SOL    HW117882   1.014   1.539  13.106  3.5582  0.3934  3.4199
 2140SOL    HW217883   0.994   1.396  13.088 -1.0322 -1.2361  0.9578
 2141SOL     OW17884   1.950   1.438   7.057 -0.3823  0.4609  0.3414
 2141SOL    HW117885   1.884   1.488   7.103 -0.6755 -1.5528  2.1050
 2141SOL    HW217886   2.008   1.513   7.044  1.3630 -0.7769  0.8405
 2142SOL     OW17887   0.957   3.121   5.944  0.1318  0.3806 -0.2608
 2142SOL    HW117888   0.907   3.058   5.892 -1.9310  0.2624  1.8888
 2142SOL    HW217889   1.040   3.123   5.896 -1.7982  0.9361 -3.4820
 2143SOL     OW17890   3.392   2.441   4.975 -0.3679  0.1243  0.0435
 2143SOL    HW117891   3.363   2.522   4.932 -3.7785 -0.7269  0.7481
 2143SOL    HW217892   3.450   2.474   5.043  0.5327 -2.2755  0.4290
 2144SOL     OW17893   0.565   2.484   0.109  0.1131  0.0650  0.2995
 2144SOL    HW117894   0.475   2.451   0.102  0.0561  0.7702 -2.3711
 2144SOL    HW217895   0.558   2.570   0.067  4.7436 -0.5903 -1.7508
 2145SOL     OW17896   1.358   0.501   1.978 -0.0184  0.6243  0.1241
 2145SOL    HW117897   1.432   0.558   1.999  0.7377  0.7365 -2.9401
 2145SOL    HW217898   1.306   0.510   2.058  0.0076 -2.6699  0.5109
 2146SOL     OW17899   0.590   0.818   6.589  0.2500  0.1126  0.6601
 2146SOL    HW117900   0.657   0.782   6.647  0.4096  2.3760  1.8994
 2146SOL    HW217901   0.603   0.907   6.623  2.8897  0.1872 -0.5600
 2147SOL     OW17902   1.984   2.820   8.307 -0.7159  0.8231 -0.4153
 2147SOL    HW117903   1.898   2.795   8.273 -0.2592 -1.4832  0.1272
 2147SOL    HW217904   2.013   2.741   8.352 -1.1528  2.1529  2.2322
 2148SOL     OW17905   4.200   0.597   7.359  0.2705  0.1657  0.2349
 2148SOL    HW117906   4.129   0.547   7.398 -0.4743  0.2023 -1.0791
 2148SOL    HW217907   4.176   0.594   7.267  0.7943 -0.0096  0.1070
 2149SOL     OW17908   1.263   2.991   8.254  0.3015  0.5722 -0.2757
 2149SOL    HW117909   1.279   3.060   8.191  2.2025 -1.0268 -1.5248
 2149SOL    HW217910   1.353   2.965   8.273  0.1552 -0.1923 -0.6092
 2150SOL     OW17911   4.183   1.089  14.824 -0.1868 -0.0877 -0.1023
 2150SOL    HW117912   4.135   1.049  14.751  0.0796 -0.1851 -0.2216
 2150SOL    HW217913   4.155   1.180  14.820  2.5702  0.7798  0.4769
 2151SOL     OW17914   4.388   0.501   6.622  0.6667  0.4863  0.4021
 2151SOL    HW117915   4.391   0.405   6.618 -2.1966  0.4048  0.5550
 2151SOL    HW217916   4.476   0.526   6.650  0.3275  2.0075  0.1261
 2152SOL     OW17917   3.935   2.540   7.207  0.3422 -0.0164 -0.0679
 2152SOL    HW117918   3.879   2.466   7.230 -0.5069  1.1637  1.6157
 2152SOL    HW217919   3.903   2.606   7.268 -1.1302 -0.7113 -0.0948
 2153SOL     OW17920   1.569   4.169  11.369  0.3067 -0.2538  0.6677
 2153SOL    HW117921   1.544   4.077  11.377  1.3080 -0.5132  0.8299
 2153SOL    HW217922   1.490   4.217  11.395 -0.0421 -0.3909 -0.1501
 2154SOL     OW17923   0.721   1.461  13.992 -0.4046  0.0815  0.3400
 2154SOL    HW117924   0.735   1.544  13.944  0.6549 -0.5837 -0.5068
 2154SOL    HW217925   0.717   1.483  14.085 -1.5147 -0.7441  0.4783
 2155SOL     OW17926   3.246   3.412  12.421 -0.4606 -0.1155  0.0604
 2155SOL    HW117927   3.201   3.403  12.505  1.0881  1.5543  1.0781
 2155SOL    HW217928   3.237   3.323  12.387 -0.0581 -0.6777  1.4153
 2156SOL     OW17929   1.650   1.222   8.764 -0.0202  0.3944 -0.5170
 2156SOL    HW117930   1.627   1.160   8.694 -0.1486 -0.7357  0.5418
 2156SOL    HW217931   1.735   1.185   8.788  0.8280 -0.2851 -4.5546
 2157SOL     OW17932   2.412   1.784   0.670 -0.5954 -0.4662  0.5496
 2157SOL    HW117933   2.451   1.852   0.615  1.4200 -2.9598 -1.1035
 2157SOL    HW217934   2.341   1.840   0.702 -1.3221 -0.0721 -1.7593
 2158SOL     OW17935   0.974   4.527   4.712  0.0593  0.5971 -0.2383
 2158SOL    HW117936   0.980   4.432   4.705  3.0340  0.7998 -0.2707
 2158SOL    HW217937   0.913   4.537   4.786 -1.5695  1.6497 -1.7165
 2159SOL     OW17938   3.568   4.264  12.343  0.2053 -0.3934 -0.0106
 2159SOL    HW117939   3.545   4.357  12.342  0.6472 -0.2769  0.4690
 2159SOL    HW217940   3.564   4.236  12.434 -0.3694 -1.1805 -0.2780
 2160SOL     OW17941   1.153   1.774   4.140  0.2385  0.2793  0.4640
 2160SOL    HW117942   1.206   1.824   4.078  0.8780 -1.5227 -0.4590
 2160SOL    HW217943   1.208   1.696   4.147 -0.3486 -0.0369  1.6341
 2161SOL     OW17944   2.865   1.653  10.826  0.7191 -0.4188  0.2310
 2161SOL    HW117945   2.897   1.740  10.802 -1.1171 -0.0899 -1.0353
 2161SOL    HW217946   2.774   1.664  10.797  0.9199 -0.7992 -0.5549
 2162SOL     OW17947   2.999   4.379   2.856 -0.0514 -0.0121 -0.2714
 2162SOL    HW117948   2.940   4.345   2.789 -1.1717  0.6118  0.3914
 2162SOL    HW217949   3.063   4.308   2.846  1.0924  1.0987 -0.7654
 2163SOL     OW17950   2.430   1.514  12.668 -1.0202  0.3434  0.0635
 2163SOL    HW117951   2.502   1.571  12.641  0.4578 -0.7635  1.6822
 2163SOL    HW217952   2.421   1.559  12.752 -0.6959  0.1415  0.2061
 2164SOL     OW17953   0.495   0.246  13.067  0.3851  0.9692 -0.3037
 2164SOL    HW117954   0.492   0.336  13.100  3.3208  1.0535 -0.2562
 2164SOL    HW217955   0.401   0.234  13.057  0.6191 -1.2455  0.1199
 2165SOL     OW17956   1.032   1.905  17.542 -0.1295  0.6898  0.2406
 2165SOL    HW117957   1.120   1.867  17.541 -1.1289 -1.6036  0.6588
 2165SOL    HW217958   1.050   1.989  17.584  0.4876 -1.4846  4.3249
 2166SOL     OW17959   3.028   4.416   7.676 -0.2145  0.4639 -0.1865
 2166SOL    HW117960   3.016   4.332   7.721  0.4041 -0.3773 -1.5654
 2166SOL    HW217961   2.937   4.442   7.663  0.8537  3.2859 -1.8495
 2167SOL     OW17962   1.038   3.988   6.300  0.1840 -0.3021  0.4889
 2167SOL    HW117963   1.120   3.960   6.342 -0.5545  1.7711  3.3306
 2167SOL    HW217964   1.046   4.082   6.315 -2.4140 -0.1333  0.7888
 2168SOL     OW17965   2.940   1.776   7.307 -0.1578 -0.3919  0.1720
 2168SOL    HW117966   2.948   1.804   7.398  0.3986 -1.4257  0.4283
 2168SOL    HW217967   3.030   1.792   7.280 -1.0250 -1.0228 -3.0626
 2169SOL     OW17968   1.430   2.343  16.671  0.2134  0.1259 -0.4476
 2169SOL    HW117969   1.371   2.368  16.742  0.4112  1.3363 -0.7084
 2169SOL    HW217970   1.420   2.248  16.673 -0.1956  0.2021  0.9953
 2170SOL     OW17971   2.476   2.410   5.672 -0.4728 -0.5904  0.4691
 2170SOL    HW117972   2.486   2.484   5.731  0.4048 -0.4363  0.1262
 2170SOL    HW217973   2.417   2.443   5.605  0.0563  0.8710  0.7313
 2171SOL     OW17974   0.158   3.408   1.121  0.7125 -0.0227 -0.6934
 2171SOL    HW117975   0.141   3.414   1.027  0.3012 -1.0359 -0.6824
 2171SOL    HW217976   0.067   3.386   1.142  0.7121  0.3029 -0.3644
 2172SOL     OW17977   3.829   4.595   8.124 -0.5506 -0.2609 -0.0925
 2172SOL    HW117978   3.779   4.596   8.042  0.4328 -0.4011 -0.6960
 2172SOL    HW217979   3.807   4.503   8.142  1.6660 -0.9363 -0.7736
 2173SOL     OW17980   4.473   3.226   3.031 -0.2208  0.0953 -0.4234
 2173SOL    HW117981   4.428   3.141   3.036  0.9262 -0.4988 -0.3529
 2173SOL    HW217982   4.402   3.284   3.060  1.1238  0.8400  1.3914
 2174SOL     OW17983   0.002   1.932  11.077 -0.1537 -0.3713  0.3274
 2174SOL    HW117984   4.668   1.861  11.041  1.1859 -0.8900 -0.7125
 2174SOL    HW217985   0.028   1.906  11.165 -0.1310 -0.8531  0.1840
 2175SOL     OW17986   2.892   3.708  10.086 -0.2166 -0.0229 -0.0321
 2175SOL    HW117987   2.954   3.774  10.116 -1.6716  1.7660 -1.0130
 2175SOL    HW217988   2.946   3.629  10.093  0.8965  0.8730  1.4705
 2176SOL     OW17989   3.740   2.852  12.341 -0.2017  0.7037 -0.3382
 2176SOL    HW117990   3.702   2.772  12.303 -1.1098  1.3378 -0.7637
 2176SOL    HW217991   3.676   2.845  12.412  0.8636  0.7608  0.6249
 2177SOL     OW17992   4.330   2.890   3.648 -0.2476 -0.1612  0.3034
 2177SOL    HW117993   4.422   2.912   3.629  0.1228 -0.7377  1.4031
 2177SOL    HW217994   4.336   2.818   3.711 -2.1221 -1.7168 -1.3351
 2178SOL     OW17995   3.547   2.123   1.345  0.5892  0.0686 -0.1564
 2178SOL    HW117996   3.560   2.216   1.328  1.4840 -0.4231 -2.1740
 2178SOL    HW217997   3.624   2.089   1.299  0.3022 -0.0962 -0.5110
 2179SOL     OW17998   2.853   3.407   8.438 -0.7305 -0.1730 -0.0482
 2179SOL    HW117999   2.945   3.399   8.410 -0.4236  0.3903  0.8102
 2179SOL    HW218000   2.863   3.470   8.509  0.1980  0.3436 -0.6179
 2180SOL     OW18001   3.227   0.265   6.738  0.3762  0.4052  0.8377
 2180SOL    HW118002   3.319   0.292   6.743 -0.1279  2.1285  0.6533
 2180SOL    HW218003   3.178   0.347   6.730  1.2471  1.0169  1.7660
 2181SOL     OW18004   0.926   2.184  11.349  0.2803 -0.2208  0.7944
 2181SOL    HW118005   0.948   2.101  11.391  2.2884  1.8580  3.8883
 2181SOL    HW218006   0.960   2.177  11.260 -0.6037  1.5954  0.3197
 2182SOL     OW18007   4.040   4.274   7.468 -0.3450  0.1245  0.0815
 2182SOL    HW118008   3.977   4.331   7.424  0.4963  1.1364  0.1960
 2182SOL    HW218009   3.985   4.217   7.522 -0.3044 -0.0585 -0.0698
 2183SOL     OW18010   2.406   1.667   6.175  0.1952  0.2548  0.3978
 2183SOL    HW118011   2.477   1.610   6.203 -0.6459 -0.6256  0.7202
 2183SOL    HW218012   2.452   1.718   6.108 -0.8682  1.3324  0.4893
 2184SOL     OW18013   4.637   4.126   7.379  0.4815 -0.4960  0.3246
 2184SOL    HW118014   4.608   4.071   7.306 -1.1119 -0.5950  1.0174
 2184SOL    HW218015   4.652   4.064   7.450 -1.7310 -1.4451 -0.0267
 2185SOL     OW18016   3.374   2.661   7.560  0.4122  0.2325 -0.7714
 2185SOL    HW118017   3.331   2.594   7.613  3.2480 -1.5114 -0.6605
 2185SOL    HW218018   3.310   2.679   7.491  0.4039  0.3353 -0.7371
 2186SOL     OW18019   3.147   1.910   3.015 -0.1327 -0.0122  0.0710
 2186SOL    HW118020   3.145   2.006   3.014  2.2906  0.0002 -3.0079
 2186SOL    HW218021   3.056   1.883   3.025 -0.9775  2.8037  0.0948
 2187SOL     OW18022   3.334   2.269  13.455 -0.0281  0.0764 -1.0783
 2187SOL    HW118023   3.429   2.260  13.447  0.2794  0.6444  1.7662
 2187SOL    HW218024   3.329   2.318  13.537  1.3448 -2.5139  0.5624
 2188SOL     OW18025   1.420   3.012  11.469 -0.3372 -0.1784  0.2254
 2188SOL    HW118026   1.398   3.077  11.402  1.2504 -1.0796 -1.1740
 2188SOL    HW218027   1.331   2.991  11.495 -0.6670 -0.0817 -0.7924
 2189SOL     OW18028   0.380   3.677   3.185  0.1837 -0.4193  0.6076
 2189SOL    HW118029   0.384   3.771   3.203 -1.3470 -0.2768  0.1759
 2189SOL    HW218030   0.469   3.661   3.152 -0.2536 -3.9863  1.1120
 2190SOL     OW18031   1.641   2.993  15.648 -0.3333  0.0994  0.9767
 2190SOL    HW118032   1.596   3.077  15.645  0.0101  0.1582 -2.6425
 2190SOL    HW218033   1.579   2.942  15.701 -1.8690 -0.2625 -1.1455
 2191SOL     OW18034   0.178   2.246   1.490  0.3210  0.3615 -0.3934
 2191SOL    HW118035   0.239   2.287   1.428 -2.2520  0.0815 -3.1264
 2191SOL    HW218036   0.102   2.294   1.456 -1.0466 -0.6615  1.2549
 2192SOL     OW18037   3.389   3.369   8.321 -0.5218 -0.3291  0.1010
 2192SOL    HW118038   3.427   3.380   8.408  0.0775  1.4382 -0.3907
 2192SOL    HW218039   3.463   3.388   8.263  0.0409  0.3245  1.0306
 2193SOL     OW18040   1.235   0.741  14.824 -0.4283  0.0386 -0.5871
 2193SOL    HW118041   1.170   0.720  14.758  2.4849 -2.2129 -2.7604
 2193SOL    HW218042   1.277   0.655  14.829 -2.5626 -0.9154  0.7448
 2194SOL     OW18043   1.007   3.271   4.339  0.3809 -0.3707  0.0097
 2194SOL    HW118044   1.099   3.267   4.312  0.2324 -1.5141 -0.3198
 2194SOL    HW218045   0.975   3.358   4.315  0.1026 -0.7390 -0.9500
 2195SOL     OW18046   0.765   3.332  10.018 -0.2850  0.4454 -1.0356
 2195SOL    HW118047   0.779   3.238  10.007  1.1110  0.4441  0.6812
 2195SOL    HW218048   0.748   3.355   9.926 -0.3275 -0.6675 -1.3091
 2196SOL     OW18049   4.658   0.275   6.008  0.0618 -0.1310  0.1201
 2196SOL    HW118050   4.639   0.278   6.102  1.0422  0.6284  0.2992
 2196SOL    HW218051   4.574   0.289   5.964  0.4481 -0.8725 -0.8421
 2197SOL     OW18052   3.602   1.630  15.929  0.1770  0.5303  0.3532
 2197SOL    HW118053   3.659   1.685  15.983  0.7554  1.2431 -0.9769
 2197SOL    HW218054   3.668   1.582  15.879  1.4273  2.3397  0.2570
 2198SOL     OW18055   1.913   1.272  12.622 -0.9996 -0.6654 -0.0789
 2198SOL    HW118056   1.992   1.296  12.671 -1.3869 -0.1651  0.3077
 2198SOL    HW218057   1.839   1.275  12.683 -0.6947 -0.7616  0.2978
 2199SOL     OW18058   1.961   4.049   5.643  0.2987 -0.1735 -0.1060
 2199SOL    HW118059   1.903   4.074   5.715  1.4339  1.8512  0.0832
 2199SOL    HW218060   1.965   4.131   5.593 -1.0625 -0.6806 -1.0708
 2200SOL     OW18061   0.972   0.792   6.969  0.6383 -0.1308  0.0559
 2200SOL    HW118062   0.937   0.881   6.969  2.0215  0.4152  1.9177
 2200SOL    HW218063   1.028   0.793   7.047 -0.0727 -0.2956  0.5655
 2201SOL     OW18064   3.471   0.008  13.158  0.4156  0.2716  0.5983
 2201SOL    HW118065   3.429   4.710  13.241  0.0734 -0.5722  0.2308
 2201SOL    HW218066   3.429   0.091  13.133  0.6703  0.8281  2.0428
 2202SOL     OW18067   1.864   1.868   6.703  0.4194  0.4809 -0.3967
 2202SOL    HW118068   1.845   1.956   6.671 -1.9739  0.1359  0.0804
 2202SOL    HW218069   1.904   1.894   6.786 -1.1781 -2.0471  1.1497
 2203SOL     OW18070   3.300   3.171   6.275  0.3568 -0.0523 -0.1768
 2203SOL    HW118071   3.333   3.254   6.311 -0.0884 -0.1960  0.5539
 2203SOL    HW218072   3.335   3.164   6.186 -2.1942  0.8233 -1.2429
 2204SOL     OW18073   4.111   0.302   7.624  0.4486 -0.6011  0.8981
 2204SOL    HW118074   4.122   0.347   7.708 -2.4078  1.4422  0.1651
 2204SOL    HW218075   4.173   0.232   7.647  0.4513 -0.7851  0.3150
 2205SOL     OW18076   0.333   2.914   3.911 -0.5334 -0.1159 -0.2613
 2205SOL    HW118077   0.336   2.959   3.826 -1.5140 -0.9250 -0.7199
 2205SOL    HW218078   0.241   2.924   3.935  0.1135  2.3015  1.2506
 2206SOL     OW18079   2.940   2.918   1.229 -0.2721 -0.2787 -0.1705
 2206SOL    HW118080   3.008   2.852   1.244 -0.9626 -0.4916  2.0433
 2206SOL    HW218081   2.910   2.941   1.317 -1.8463 -1.1801 -0.4683
 2207SOL     OW18082   3.479   2.824   5.390  0.2664 -0.4744 -0.0006
 2207SOL    HW118083   3.412   2.882   5.355 -1.9391 -2.4092  1.0948
 2207SOL    HW218084   3.506   2.875   5.467  2.2197  1.8171 -2.1551
 2208SOL     OW18085   2.152   0.875   8.872 -0.4951 -0.0706 -0.1581
 2208SOL    HW118086   2.126   0.841   8.786  0.9809  1.6915 -1.3045
 2208SOL    HW218087   2.082   0.836   8.925 -0.8548 -1.5233 -1.6947
 2209SOL     OW18088   4.197   0.977   4.257 -0.0581  0.1162  0.7960
 2209SOL    HW118089   4.225   0.943   4.172 -0.0821 -0.7471  1.1354
 2209SOL    HW218090   4.224   1.069   4.251  2.3669 -0.4963  2.2632
 2210SOL     OW18091   1.374   1.579   6.604 -0.3852  0.2110 -0.1009
 2210SOL    HW118092   1.411   1.535   6.527 -1.6531  0.2582 -0.7483
 2210SOL    HW218093   1.449   1.629   6.636 -0.6330  0.2412  0.4340
 2211SOL     OW18094   4.560   4.071   4.089  0.0871  0.5670  0.2464
 2211SOL    HW118095   4.556   3.986   4.134 -0.0124 -0.1609 -1.1183
 2211SOL    HW218096   4.605   4.052   4.006 -2.4177 -0.0855 -0.9638
 2212SOL     OW18097   4.090   2.362   9.387  0.1225 -0.1546 -0.0762
 2212SOL    HW118098   4.111   2.282   9.436  0.5797  0.7513  1.2034
 2212SOL    HW218099   4.036   2.329   9.314  2.4027  0.7610 -2.1706
 2213SOL     OW18100   3.202   4.598   9.418  0.2086 -0.2911  0.7953
 2213SOL    HW118101   3.125   4.639   9.378  1.0825 -0.9907 -1.6069
 2213SOL    HW218102   3.170   4.570   9.504 -0.9535  1.9247  1.0876
 2214SOL     OW18103   2.132   4.184   5.066 -0.7672  0.0151 -0.1123
 2214SOL    HW118104   2.126   4.279   5.072 -0.7058 -0.1573  2.5765
 2214SOL    HW218105   2.173   4.166   5.151  2.9898 -0.0142 -1.9280
 2215SOL     OW18106   2.179   1.166  12.781 -0.4409 -0.1970  0.1948
 2215SOL    HW118107   2.186   1.245  12.726  0.4036 -0.5409 -0.1997
 2215SOL    HW218108   2.192   1.207  12.866 -0.8373  0.1188  0.1004
 2216SOL     OW18109   1.880   3.312   6.243 -0.3854  0.1792  0.2346
 2216SOL    HW118110   1.852   3.292   6.154  1.1555 -1.9023  0.2149
 2216SOL    HW218111   1.974   3.317   6.222 -0.8487  1.1231 -1.5918
 2217SOL     OW18112   4.643   2.164   8.453 -0.5642 -0.5626  0.1922
 2217SOL    HW118113   0.006   2.180   8.497 -0.5336  1.3051 -0.5445
 2217SOL    HW218114   4.589   2.166   8.532 -0.6099  0.7399  0.1341
 2218SOL     OW18115   1.644   0.374  16.607 -1.3069 -0.2102  0.3454
 2218SOL    HW118116   1.644   0.312  16.534 -0.7347  0.6254 -0.3762
 2218SOL    HW218117   1.553   0.363  16.633 -1.0694  0.1904  1.3305
 2219SOL     OW18118   0.199   2.242  16.560 -0.3544  0.5204 -0.7288
 2219SOL    HW118119   0.128   2.186  16.589  0.4714 -0.1426  0.0312
 2219SOL    HW218120   0.169   2.333  16.559 -0.4477  0.4843 -1.7842
 2220SOL     OW18121   3.497   3.347   9.396  0.1989 -0.4764 -0.3294
 2220SOL    HW118122   3.556   3.379   9.329 -0.4093  0.3981 -0.4446
 2220SOL    HW218123   3.539   3.261   9.404 -0.7659 -0.9845 -0.7596
 2221SOL     OW18124   2.239   2.622   5.971  0.1172  0.1885  0.4562
 2221SOL    HW118125   2.198   2.668   6.044  1.1637  0.1050  1.0913
 2221SOL    HW218126   2.333   2.623   5.988  0.2593  1.3009 -0.3922
 2222SOL     OW18127   1.314   1.928   8.416 -0.8208 -0.0905 -0.4384
 2222SOL    HW118128   1.269   2.005   8.452  0.3612  0.9105 -1.0758
 2222SOL    HW218129   1.397   1.923   8.463  0.3249  0.6202 -2.3868
 2223SOL     OW18130   4.220   3.521  17.413 -0.4961 -0.5101  0.3020
 2223SOL    HW118131   4.167   3.502  17.335 -0.5864 -1.9012  0.7001
 2223SOL    HW218132   4.151   3.524  17.479 -2.1884 -0.1912 -1.4568
 2224SOL     OW18133   3.981   3.639   8.039  0.3222 -0.5707 -0.5176
 2224SOL    HW118134   4.047   3.658   7.973  1.5057 -2.6236  0.0598
 2224SOL    HW218135   4.032   3.646   8.120 -0.8288  1.5455  0.0368
 2225SOL     OW18136   1.436   1.621   5.550 -0.4322  0.0227 -0.1605
 2225SOL    HW118137   1.510   1.561   5.544  0.2941  0.8062  1.0859
 2225SOL    HW218138   1.379   1.577   5.613  1.0419 -0.5139  0.8013
 2226SOL     OW18139   2.706   4.174   1.201  0.5083  0.0895  0.0549
 2226SOL    HW118140   2.664   4.257   1.225 -1.2239 -0.6038 -0.5577
 2226SOL    HW218141   2.631   4.116   1.188 -0.4146  0.9852  1.3855
 2227SOL     OW18142   3.880   2.089  16.150  0.0802  0.2060  0.2183
 2227SOL    HW118143   3.859   2.020  16.214  0.2051 -0.1940 -0.1711
 2227SOL    HW218144   3.975   2.080  16.163  0.3189  2.1489 -0.2577
 2228SOL     OW18145   1.777   1.565   3.571  0.3325 -0.1368  0.5446
 2228SOL    HW118146   1.745   1.498   3.632  0.4198  0.3426  1.1253
 2228SOL    HW218147   1.862   1.585   3.610  1.0619 -1.7127 -0.2556
 2229SOL     OW18148   4.655   1.054  12.910  0.0259  0.6740  0.0084
 2229SOL    HW118149   4.651   1.135  12.859 -0.2711  1.0538  0.6372
 2229SOL    HW218150   4.571   1.010  12.901 -0.2240  0.8057  1.7367
 2230SOL     OW18151   0.402   0.537   9.289 -0.4929 -0.4421 -0.2003
 2230SOL    HW118152   0.392   0.460   9.234 -1.8036  0.4685 -1.2395
 2230SOL    HW218153   0.317   0.578   9.276 -1.2712 -1.6515  1.1684
 2231SOL     OW18154   4.374   3.423  14.118 -0.1345 -0.1157  0.2256
 2231SOL    HW118155   4.294   3.465  14.149 -1.0109 -0.1881 -1.9364
 2231SOL    HW218156   4.371   3.346  14.174 -0.2667  0.7289  1.3810
 2232SOL     OW18157   1.489   2.067  15.301  0.3130 -0.4279  0.4606
 2232SOL    HW118158   1.570   2.014  15.302 -0.6007 -1.7784  2.6480
 2232SOL    HW218159   1.469   2.078  15.209 -0.9935  2.7017  1.1271
 2233SOL     OW18160   2.249   0.495   4.176  0.3469  0.1214  0.2412
 2233SOL    HW118161   2.292   0.470   4.094 -1.2810  1.6860 -1.0870
 2233SOL    HW218162   2.287   0.580   4.199 -0.4826  1.3501 -2.9344
 2234SOL     OW18163   4.202   1.696  12.125 -0.6661 -0.3070 -0.5504
 2234SOL    HW118164   4.227   1.710  12.033 -0.1768 -1.0966 -0.5331
 2234SOL    HW218165   4.107   1.704  12.112 -0.7997 -0.7154  0.1806
 2235SOL     OW18166   3.395   2.434   0.170  0.3097  0.1113  0.3100
 2235SOL    HW118167   3.393   2.399   0.080  2.4677 -2.7884  1.3973
 2235SOL    HW218168   3.394   2.359   0.229 -1.1151 -0.2426 -0.1449
 2236SOL     OW18169   2.454   0.913   9.367 -0.1160 -0.1645  0.3712
 2236SOL    HW118170   2.423   0.848   9.304 -1.6953  0.7448  0.2251
 2236SOL    HW218171   2.542   0.880   9.388  0.3197  0.9517  0.2935
 2237SOL     OW18172   2.683   3.749   4.876 -0.2941  0.7247 -0.4070
 2237SOL    HW118173   2.678   3.806   4.800 -0.7852 -0.4994 -1.2907
 2237SOL    HW218174   2.742   3.682   4.841 -0.2476  0.9865 -0.8281
 2238SOL     OW18175   4.636   1.186  13.575 -0.4801 -0.0373 -0.2370
 2238SOL    HW118176   4.595   1.261  13.617 -1.3583 -0.7254  0.1286
 2238SOL    HW218177   4.564   1.158  13.519  0.1614 -1.6302 -0.2774
 2239SOL     OW18178   0.887   1.188  13.669 -0.2476  0.6277  0.2566
 2239SOL    HW118179   0.912   1.188  13.762  1.8717 -0.1318 -0.3201
 2239SOL    HW218180   0.879   1.280  13.645  0.7196  1.1447  1.9278
 2240SOL     OW18181   3.135   2.568   3.629  0.2368 -0.3017 -0.1532
 2240SOL    HW118182   3.106   2.503   3.692 -2.2764  0.4184 -0.5895
 2240SOL    HW218183   3.228   2.555   3.647  0.3851  0.4417 -0.3736
 2241SOL     OW18184   1.286   0.598   0.630  0.0177 -0.2091  0.2508
 2241SOL    HW118185   1.237   0.560   0.557 -1.5839  0.1007  1.1606
 2241SOL    HW218186   1.240   0.682   0.621  1.6319  0.5533 -0.8518
 2242SOL     OW18187   3.672   2.703   2.095 -0.4265 -0.4156  0.6786
 2242SOL    HW118188   3.698   2.662   2.013 -0.1567  1.3696 -0.1367
 2242SOL    HW218189   3.719   2.655   2.163  0.5803 -0.7504 -0.2555
 2243SOL     OW18190   0.402   0.979  12.056 -0.4981 -0.2383  0.0055
 2243SOL    HW118191   0.448   1.030  11.990 -0.6410 -0.6857 -0.4430
 2243SOL    HW218192   0.318   0.977  12.009 -1.2178 -1.3991  1.3280
 2244SOL     OW18193   3.410   2.302   6.801 -0.0607  0.2636 -0.8576
 2244SOL    HW118194   3.401   2.348   6.884  1.6069 -1.7769  0.4698
 2244SOL    HW218195   3.321   2.268   6.788 -0.3089  0.6418 -0.1075
 2245SOL     OW18196   3.562   3.994   8.222 -0.1034 -0.0450 -0.8369
 2245SOL    HW118197   3.604   4.054   8.284  2.9817 -2.5037 -0.5834
 2245SOL    HW218198   3.603   4.028   8.142  1.3570  0.0360 -0.0365
 2246SOL     OW18199   2.007   0.519   1.214 -0.2696 -0.1591 -0.4533
 2246SOL    HW118200   1.926   0.492   1.171  0.5787 -1.5846 -1.1540
 2246SOL    HW218201   2.011   0.465   1.293 -1.7666 -0.9313 -0.9102
 2247SOL     OW18202   0.313   0.281  16.799  0.1091 -0.0809  0.0687
 2247SOL    HW118203   0.347   0.365  16.767 -2.5254  0.3905 -1.4828
 2247SOL    HW218204   0.282   0.299  16.888 -0.5534  1.2698 -0.4322
 2248SOL     OW18205   3.090   3.700   5.673 -0.1721  0.1111  0.0419
 2248SOL    HW118206   3.158   3.730   5.733  0.2606 -0.7738 -0.0053
 2248SOL    HW218207   3.085   3.774   5.613  0.0522 -0.9188 -1.2407
 2249SOL     OW18208   2.637   1.476   0.482  0.1610  0.1031  0.3088
 2249SOL    HW118209   2.545   1.456   0.503 -0.3001  2.7791  0.7875
 2249SOL    HW218210   2.660   1.544   0.545  2.0364  0.2477 -0.5312
 2250SOL     OW18211   3.568   3.973  11.952 -0.3161  0.0261 -0.8715
 2250SOL    HW118212   3.640   3.945  12.008 -1.7007 -0.7651  0.5021
 2250SOL    HW218213   3.567   4.067  11.969  2.4770 -0.0318 -0.3462
 2251SOL     OW18214   1.650   2.197  15.577  0.2428  0.4395  0.2984
 2251SOL    HW118215   1.685   2.125  15.526  1.9052 -0.4352  2.6660
 2251SOL    HW218216   1.565   2.165  15.607 -0.6483  1.1126 -1.4982
 2252SOL     OW18217   0.598   1.949  17.151  0.0122  0.7335 -0.3045
 2252SOL    HW118218   0.659   1.953  17.224  1.0389 -0.5284 -1.0832
 2252SOL    HW218219   0.575   2.038  17.123  0.9986  0.1771 -2.9230
 2253SOL     OW18220   3.707   2.711   5.621  0.3132  0.4373  0.1829
 2253SOL    HW118221   3.765   2.784   5.643  0.0197  0.9028 -0.5895
 2253SOL    HW218222   3.757   2.677   5.547 -0.3282 -0.7782  0.2985
 2254SOL     OW18223   0.282   1.347   3.282  0.7539 -0.4369  0.1226
 2254SOL    HW118224   0.368   1.313   3.305  0.9662 -2.0225 -3.0130
 2254SOL    HW218225   0.259   1.312   3.196 -1.5745 -0.2053  0.6348
 2255SOL     OW18226   1.298   3.642   8.811 -0.1936 -0.5317  0.1477
 2255SOL    HW118227   1.229   3.659   8.875 -0.7177 -2.5735  0.1360
 2255SOL    HW218228   1.258   3.561   8.780 -2.6826  0.9947 -0.5741
 2256SOL     OW18229   0.906   2.848  16.472 -0.0653 -0.0484  0.0840
 2256SOL    HW118230   0.853   2.852  16.552  3.4010 -0.2698  2.3996
 2256SOL    HW218231   0.841   2.812  16.413 -0.9641  1.2558  0.2685
 2257SOL     OW18232   4.293   2.082   7.548 -0.2070 -0.6776  0.3179
 2257SOL    HW118233   4.375   2.062   7.504  0.9937  1.2162  1.6882
 2257SOL    HW218234   4.289   2.172   7.515 -0.1901 -0.8119 -0.0542
 2258SOL     OW18235   1.005   0.975   1.197 -0.2116 -0.5946 -0.0036
 2258SOL    HW118236   1.067   1.000   1.265 -2.0675  1.0857  1.0423
 2258SOL    HW218237   0.964   1.058   1.174  1.0519  0.0489  0.0726
 2259SOL     OW18238   0.205   2.919   6.455 -0.2377 -0.4414  0.2479
 2259SOL    HW118239   0.201   2.886   6.544 -1.5267  0.0419  0.3820
 2259SOL    HW218240   0.233   2.844   6.404 -0.2041  0.1148 -0.5561
 2260SOL     OW18241   3.710   1.022   3.492  0.1670  0.2020  0.3182
 2260SOL    HW118242   3.784   0.972   3.459 -0.1790 -1.0357  1.4157
 2260SOL    HW218243   3.640   0.961   3.469 -0.5060  1.8469 -2.0056
 2261SOL     OW18244   3.397   2.660   1.875 -0.3248 -0.0027 -0.2737
 2261SOL    HW118245   3.466   2.712   1.917 -1.7357 -0.1822  2.2612
 2261SOL    HW218246   3.342   2.641   1.951 -1.1391  0.3467 -0.7757
 2262SOL     OW18247   1.358   0.994   7.504  0.0692  0.6214 -0.1139
 2262SOL    HW118248   1.425   0.925   7.503 -0.6947 -0.1637  3.0648
 2262SOL    HW218249   1.367   1.020   7.412 -1.8884  1.8883  0.0754
 2263SOL     OW18250   3.479   0.232   0.639 -0.4637 -0.0685  0.2220
 2263SOL    HW118251   3.542   0.300   0.614 -2.6224  1.0890 -2.1629
 2263SOL    HW218252   3.534   0.155   0.620  2.2421  2.2420 -1.3557
 2264SOL     OW18253   0.219   1.826   3.500 -0.5467  0.2967  0.0307
 2264SOL    HW118254   0.135   1.864   3.527 -0.3918  1.6241 -1.3051
 2264SOL    HW218255   0.178   1.763   3.441  0.7226 -0.1594 -0.3717
 2265SOL     OW18256   3.673   1.435   7.756  0.4028  0.3899  0.3531
 2265SOL    HW118257   3.614   1.462   7.827 -1.3529  0.6402 -1.2068
 2265SOL    HW218258   3.753   1.415   7.805 -0.1111  1.5096  1.6833
 2266SOL     OW18259   3.495   4.345   8.123  0.4176 -0.1708  0.4437
 2266SOL    HW118260   3.421   4.321   8.179  1.1108  2.5332  2.4780
 2266SOL    HW218261   3.452   4.425   8.091 -0.1862 -0.4861  0.4659
 2267SOL     OW18262   0.868   4.057   6.874 -0.4124  0.7862 -0.0558
 2267SOL    HW118263   0.908   3.971   6.888 -0.7874  0.6296  0.0374
 2267SOL    HW218264   0.809   4.027   6.804 -2.1855  0.0345  1.7796
 2268SOL     OW18265   4.693   3.276   1.811  0.0766  0.3787 -0.3629
 2268SOL    HW118266   4.642   3.201   1.842  1.6531  0.9806  3.6642
 2268SOL    HW218267   0.006   3.239   1.729  0.0469  2.2012 -1.1892
 2269SOL     OW18268   0.556   4.521   7.868 -0.2882  0.0067 -0.0831
 2269SOL    HW118269   0.568   4.600   7.815 -1.1009  1.0493  1.2698
 2269SOL    HW218270   0.464   4.504   7.851 -0.4755  0.4082  0.5026
 2270SOL     OW18271   3.652   2.303   3.208 -0.5151 -0.1876  0.2701
 2270SOL    HW118272   3.709   2.303   3.131  0.5229  1.3322  1.0438
 2270SOL    HW218273   3.624   2.212   3.216  1.2437 -0.5447  2.3525
 2271SOL     OW18274   3.044   4.390   4.858  0.1698 -0.0997  0.5870
 2271SOL    HW118275   3.059   4.310   4.807 -1.2677 -0.4065  0.6328
 2271SOL    HW218276   3.038   4.347   4.943 -0.8229 -1.9026 -0.4007
 2272SOL     OW18277   2.181   0.896   4.629  0.3639  0.1984 -0.5832
 2272SOL    HW118278   2.117   0.904   4.699 -0.4716 -1.7366 -1.1094
 2272SOL    HW218279   2.205   0.987   4.609 -1.4681  1.0161  0.9112
 2273SOL     OW18280   1.749   1.921   3.734  0.1424 -0.6542  0.2894
 2273SOL    HW118281   1.796   1.847   3.696  1.0816  0.1439 -0.0869
 2273SOL    HW218282   1.692   1.935   3.658 -0.2713  1.4666  0.9852
 2274SOL     OW18283   1.583   0.834   7.489  0.0994  0.3189 -0.5595
 2274SOL    HW118284   1.673   0.822   7.459  0.3413 -0.3270  0.4669
 2274SOL    HW218285   1.586   0.760   7.549  0.6381  0.0615 -0.9001
 2275SOL     OW18286   2.701   4.260   8.765 -0.4856 -0.3185  0.3233
 2275SOL    HW118287   2.657   4.331   8.719  0.5343 -1.0081 -1.7313
 2275SOL    HW218288   2.624   4.227   8.811 -0.2913 -0.7677  0.3360
 2276SOL     OW18289   4.162   2.215   4.904  0.6540  0.2841 -0.9884
 2276SOL    HW118290   4.155   2.190   4.812 -0.1902 -1.4560 -0.4359
 2276SOL    HW218291   4.071   2.237   4.924  0.7452  1.4219 -1.8297
 2277SOL     OW18292   2.772   3.069  10.384  1.0563 -0.7290  0.4198
 2277SOL    HW118293   2.809   3.109  10.463 -0.0417 -0.8211  0.9848
 2277SOL    HW218294   2.687   3.043  10.420  1.4385 -0.9403  1.1852
 2278SOL     OW18295   2.069   2.515  16.938 -0.1534 -0.2101  0.1085
 2278SOL    HW118296   2.116   2.442  16.897  0.3639  0.2093 -0.0459
 2278SOL    HW218297   1.982   2.483  16.915 -0.7867  0.8090  1.0863
 2279SOL     OW18298   0.356   4.273   8.089 -0.1806 -0.1240 -0.4502
 2279SOL    HW118299   0.313   4.194   8.122 -1.2653  0.9466  0.7320
 2279SOL    HW218300   0.294   4.316   8.030  1.7242  1.9646 -0.9418
 2280SOL     OW18301   4.566   2.003   0.620  0.6609 -0.3396 -0.8035
 2280SOL    HW118302   4.527   1.960   0.696  1.3174 -0.0268 -0.2881
 2280SOL    HW218303   4.637   1.940   0.603 -0.2568 -1.8200  0.8466
 2281SOL     OW18304   3.261   1.000   2.928 -0.5301 -0.3766  0.2168
 2281SOL    HW118305   3.188   0.990   2.990 -0.0277  1.0707  1.0519
 2281SOL    HW218306   3.340   1.021   2.977  0.6572 -0.0069 -1.8556
 2282SOL     OW18307   1.644   2.376   7.179 -0.5174  0.2930  0.2727
 2282SOL    HW118308   1.559   2.418   7.169  0.1738  1.5084 -0.5182
 2282SOL    HW218309   1.702   2.436   7.226  0.1145 -0.8457  0.9477
 2283SOL     OW18310   4.565   4.109   2.669  0.1099  0.7218 -0.3104
 2283SOL    HW118311   4.496   4.169   2.641 -0.4866 -0.4130 -1.2569
 2283SOL    HW218312   4.541   4.025   2.629  0.7254  0.2446  0.3255
 2284SOL     OW18313   1.331   3.128   3.817  0.0080 -0.0849 -0.4319
 2284SOL    HW118314   1.266   3.191   3.785  0.1985 -0.6664 -1.9875
 2284SOL    HW218315   1.272   3.071   3.866 -2.3728  1.9843 -0.8931
 2285SOL     OW18316   1.001   2.399   0.559  0.2560 -0.0080 -0.6273
 2285SOL    HW118317   1.094   2.392   0.581 -0.3382 -1.8187  1.2877
 2285SOL    HW218318   1.004   2.493   0.540 -0.0219 -0.3540 -2.3595
 2286SOL     OW18319   0.439   1.102   5.193  0.1516 -0.1781  0.3878
 2286SOL    HW118320   0.470   1.020   5.231  0.3238 -1.0619 -1.6782
 2286SOL    HW218321   0.381   1.060   5.130  1.0089  0.4339 -0.8083
 2287SOL     OW18322   0.685   0.504   6.503  0.1120 -0.2152  0.0214
 2287SOL    HW118323   0.663   0.547   6.420  1.8734  0.4689 -0.0895
 2287SOL    HW218324   0.661   0.413   6.490 -0.5042  0.1109 -1.1284
 2288SOL     OW18325   0.834   2.121  14.066 -0.4726 -0.1992 -0.6777
 2288SOL    HW118326   0.806   2.207  14.035 -0.5614 -0.1791 -0.5416
 2288SOL    HW218327   0.856   2.074  13.985 -3.2209 -2.8599  0.1159
 2289SOL     OW18328   2.468   2.220   9.624  0.1068  0.3540 -0.2797
 2289SOL    HW118329   2.510   2.266   9.696 -3.8740  1.3735  1.3668
 2289SOL    HW218330   2.521   2.140   9.614 -0.0320  0.5425 -2.7033
 2290SOL     OW18331   3.546   4.700  13.847 -0.6395  0.2167  0.2827
 2290SOL    HW118332   3.599   0.029  13.910 -0.1616  0.9328 -0.6715
 2290SOL    HW218333   3.513   4.634  13.907  1.5015  0.5997  1.8931
 2291SOL     OW18334   1.345   2.041   5.752 -0.1041 -0.1045 -0.3338
 2291SOL    HW118335   1.365   1.948   5.758 -1.4817 -0.2167  3.0458
 2291SOL    HW218336   1.434   2.075   5.753  0.6510 -2.0743  0.1545
 2292SOL     OW18337   2.595   0.606   8.995  0.6409  0.2780 -0.3390
 2292SOL    HW118338   2.637   0.621   8.910  1.0159 -0.9372 -0.3664
 2292SOL    HW218339   2.663   0.623   9.060 -0.8435  2.5993  0.5808
 2293SOL     OW18340   0.855   3.074   6.820  0.0170  0.3517  0.6282
 2293SOL    HW118341   0.874   3.143   6.756 -2.7342  0.3297 -0.2041
 2293SOL    HW218342   0.769   3.041   6.794  0.0480 -0.6147  1.7473
 2294SOL     OW18343   4.675   1.006   9.073  0.0219 -0.0268  0.5476
 2294SOL    HW118344   4.649   1.025   9.163 -0.2852 -0.9569  0.6638
 2294SOL    HW218345   0.009   1.080   9.049  1.3530 -1.7950 -1.8669
 2295SOL     OW18346   2.417   4.032   4.953 -0.3775 -0.2013  0.2049
 2295SOL    HW118347   2.451   4.121   4.960 -0.0023 -0.1434 -2.3503
 2295SOL    HW218348   2.411   4.024   4.858  3.8035  0.8937 -0.1424
 2296SOL     OW18349   3.685   0.891  13.925  0.1122  0.0013 -0.2460
 2296SOL    HW118350   3.672   0.985  13.940 -0.6698  0.1752 -2.0043
 2296SOL    HW218351   3.592   0.870  13.941  0.0935  0.4878  0.3214
 2297SOL     OW18352   3.614   2.616   2.577 -0.7210 -0.1882 -0.1071
 2297SOL    HW118353   3.652   2.578   2.656 -1.2390  0.8052  0.6287
 2297SOL    HW218354   3.693   2.655   2.540 -0.0388 -0.0585  1.4623
 2298SOL     OW18355   1.684   1.502   5.468 -0.4167  0.4337  0.1373
 2298SOL    HW118356   1.725   1.469   5.388 -0.2218  0.0909  0.3808
 2298SOL    HW218357   1.700   1.596   5.459  1.2170  0.0763 -0.7131
 2299SOL     OW18358   1.076   4.241  10.576  0.5594 -0.0238 -0.8284
 2299SOL    HW118359   1.160   4.195  10.572  0.2073 -0.8248  0.7580
 2299SOL    HW218360   1.083   4.286  10.660  1.1764 -0.4832 -0.6277
 2300SOL     OW18361   3.453   1.043   9.131 -0.6664 -0.3780  0.2433
 2300SOL    HW118362   3.383   0.990   9.093 -0.9656 -0.2928  0.6862
 2300SOL    HW218363   3.460   1.000   9.216  1.2819  0.4946  0.5256
 2301SOL     OW18364   0.355   1.434   6.567  0.2384 -0.2216 -0.2895
 2301SOL    HW118365   0.366   1.345   6.536  0.8336 -1.1284  2.5707
 2301SOL    HW218366   0.312   1.470   6.489 -0.6665  0.0225  0.3234
 2302SOL     OW18367   3.214   3.682   8.446  0.2426  0.8872  0.6573
 2302SOL    HW118368   3.291   3.699   8.501  0.2501 -0.4442  1.0554
 2302SOL    HW218369   3.183   3.769   8.419  1.4580  0.8551 -0.8789
 2303SOL     OW18370   0.159   0.801   1.064  0.1677  0.5398  0.0840
 2303SOL    HW118371   0.120   0.805   1.151  1.5454 -0.0494  0.7239
 2303SOL    HW218372   0.214   0.723   1.068 -3.0627 -1.7539 -0.4983
 2304SOL     OW18373   3.586   3.707  15.566 -0.0320  0.2591 -0.4408
 2304SOL    HW118374   3.599   3.752  15.649 -1.2010 -0.8450  0.3373
 2304SOL    HW218375   3.493   3.686  15.576  0.2080 -0.3438  0.5379
 2305SOL     OW18376   1.997   1.308  13.990  0.4483  0.5951 -0.4550
 2305SOL    HW118377   1.986   1.213  13.989 -0.4724  0.7107 -1.0389
 2305SOL    HW218378   1.984   1.325  13.897  1.8117  0.2773 -0.7104
 2306SOL     OW18379   3.692   3.658   4.520 -0.0820  0.1413  0.1260
 2306SOL    HW118380   3.752   3.704   4.461  0.2849  0.2379  0.5697
 2306SOL    HW218381   3.678   3.736   4.575  2.0862  0.4976  0.1788
 2307SOL     OW18382   2.344   2.194   4.182 -0.2786 -0.2955 -0.3993
 2307SOL    HW118383   2.254   2.212   4.153 -0.1469  1.4546  0.2953
 2307SOL    HW218384   2.386   2.278   4.200 -0.6881 -0.2558  0.3683
 2308SOL     OW18385   0.661   1.773  12.046  0.1803 -0.6207  0.5582
 2308SOL    HW118386   0.646   1.868  12.049 -0.4447 -0.6758 -0.7406
 2308SOL    HW218387   0.591   1.738  12.101 -0.2925  0.3227  0.5556
 2309SOL     OW18388   2.529   0.578   4.853  0.5435  0.5414 -0.4983
 2309SOL    HW118389   2.512   0.634   4.777 -0.7241  1.3012  0.3436
 2309SOL    HW218390   2.518   0.491   4.816 -0.8900  1.7721 -2.9429
 2310SOL     OW18391   2.392   1.170   4.169 -0.3958 -0.2575 -0.2416
 2310SOL    HW118392   2.318   1.119   4.137 -2.1283  2.0381  0.1812
 2310SOL    HW218393   2.430   1.194   4.084 -0.4810 -0.0007 -0.2050
 2311SOL     OW18394   2.307   1.657  16.433  0.3452 -0.1710  0.2572
 2311SOL    HW118395   2.237   1.610  16.387  0.2846 -0.4081  0.5947
 2311SOL    HW218396   2.278   1.748  16.425 -2.8437 -1.2436 -0.2451
 2312SOL     OW18397   3.565   4.489   3.673 -1.1229  0.1262  0.1209
 2312SOL    HW118398   3.543   4.511   3.583 -1.6594 -0.3658  0.1286
 2312SOL    HW218399   3.615   4.407   3.669 -2.1125 -0.5316  1.1162
 2313SOL     OW18400   0.681   2.521  16.400 -0.0833 -0.5070 -0.3588
 2313SOL    HW118401   0.587   2.511  16.413  0.0285 -2.1728 -0.9266
 2313SOL    HW218402   0.699   2.611  16.429 -0.0831 -1.9491  3.9481
 2314SOL     OW18403   2.375   4.647   2.934 -0.4499 -0.1078 -0.0292
 2314SOL    HW118404   2.292   4.692   2.950 -2.1578 -3.0146 -0.7805
 2314SOL    HW218405   2.405   4.707   2.866  1.1208  1.9797  2.4610
 2315SOL     OW18406   0.152   2.705   5.425  0.7414  0.5514  0.4918
 2315SOL    HW118407   0.104   2.634   5.383  0.4220  0.1119  1.5927
 2315SOL    HW218408   0.243   2.692   5.400  1.1288  1.7475  1.2452
 2316SOL     OW18409   2.497   2.876   1.102 -0.5435 -0.4527 -0.2042
 2316SOL    HW118410   2.562   2.939   1.072 -1.7841 -0.4728 -3.0034
 2316SOL    HW218411   2.507   2.799   1.045 -3.7390 -0.4103 -0.8244
 2317SOL     OW18412   1.209   0.496   7.568  0.2299  0.5413 -0.4905
 2317SOL    HW118413   1.175   0.559   7.632  0.8131  0.1218  0.2263
 2317SOL    HW218414   1.289   0.468   7.611 -0.9733 -2.1098 -0.0024
 2318SOL     OW18415   1.492   3.896  12.998  0.6252 -0.3611 -0.0291
 2318SOL    HW118416   1.406   3.918  13.035  1.6239 -0.2644  2.2545
 2318SOL    HW218417   1.551   3.952  13.048 -0.9599 -1.0132  2.6147
 2319SOL     OW18418   3.567   0.690   8.950 -0.1813 -0.1153  0.1430
 2319SOL    HW118419   3.621   0.756   8.907 -0.7581  0.2191 -0.0740
 2319SOL    HW218420   3.482   0.712   8.911  0.1250 -0.1296 -0.5316
 2320SOL     OW18421   1.873   0.798   4.151 -0.0771 -0.3283 -0.5933
 2320SOL    HW118422   1.830   0.856   4.213 -0.4306 -0.0180 -1.1234
 2320SOL    HW218423   1.920   0.744   4.214  1.2367  0.9079 -0.5115
 2321SOL     OW18424   0.366   3.107   3.702 -0.4899 -0.0684  0.0842
 2321SOL    HW118425   0.431   3.147   3.760 -2.0575  0.0811  1.7165
 2321SOL    HW218426   0.330   3.170   3.640 -0.8399 -0.6744 -0.3275
 2322SOL     OW18427   0.071   3.282  17.431  0.3788 -0.4764 -0.0343
 2322SOL    HW118428   0.129   3.314  17.500 -1.0960 -0.4526  1.2015
 2322SOL    HW218429   0.055   3.359  17.377  0.9252 -0.1551  0.2648
 2323SOL     OW18430   2.308   1.433   0.455  0.2608 -0.0677 -0.7263
 2323SOL    HW118431   2.251   1.509   0.442 -0.0911  0.0292  1.3867
 2323SOL    HW218432   2.298   1.382   0.375  1.0948 -1.3554 -0.0034
 2324SOL     OW18433   2.128   3.965  10.193  0.3273  0.1974  0.7137
 2324SOL    HW118434   2.058   3.955  10.128  2.1453 -0.6623 -1.1113
 2324SOL    HW218435   2.138   4.059  10.182 -0.6590  0.0457 -1.6831
 2325SOL     OW18436   1.457   1.100   1.866 -0.2641  0.2679  0.6865
 2325SOL    HW118437   1.502   1.151   1.934 -0.1899  1.4628 -0.2658
 2325SOL    HW218438   1.500   1.014   1.874 -1.2479 -0.2355  0.5152
 2326SOL     OW18439   3.082   2.343   4.684  0.2681  0.4193  0.6529
 2326SOL    HW118440   3.012   2.314   4.742  1.2942 -0.4751  1.4245
 2326SOL    HW218441   3.111   2.415   4.740 -0.8606 -0.0311  1.8153
 2327SOL     OW18442   0.285   0.395   0.849 -0.9591  0.3327 -0.4136
 2327SOL    HW118443   0.323   0.480   0.828 -0.6882  0.6443  1.3257
 2327SOL    HW218444   0.316   0.349   0.771  1.5621  2.0134 -0.3834
 2328SOL     OW18445   2.185   1.530   4.631 -0.2946  0.2691 -0.1264
 2328SOL    HW118446   2.131   1.608   4.629 -1.2374 -0.3676  0.3865
 2328SOL    HW218447   2.271   1.572   4.619  0.2401 -0.7293  0.1923
 2329SOL     OW18448   3.387   2.437   2.813  0.5032  0.3718  0.4353
 2329SOL    HW118449   3.406   2.353   2.771 -2.8639  1.2307 -2.7911
 2329SOL    HW218450   3.348   2.407   2.895 -0.7786 -0.6285 -0.5419
 2330SOL     OW18451   2.252   1.054   4.856  0.6195 -0.0639  0.6724
 2330SOL    HW118452   2.346   1.035   4.863  1.1872  2.3388 -0.4507
 2330SOL    HW218453   2.238   1.077   4.765 -0.9667 -0.6971  0.7605
 2331SOL     OW18454   1.288   4.055   5.904  0.2406 -0.0215 -0.3997
 2331SOL    HW118455   1.352   4.127   5.898  1.0047 -0.6923 -0.3532
 2331SOL    HW218456   1.219   4.084   5.844  0.3375  0.0940 -0.4554
 2332SOL     OW18457   0.540   4.248  10.656  0.8610  0.6643  0.0447
 2332SOL    HW118458   0.504   4.191  10.588  1.6952 -0.3004  0.4185
 2332SOL    HW218459   0.461   4.256  10.709  0.7200 -2.2044  0.2413
 2333SOL     OW18460   4.270   3.798  14.304  0.3600  0.1062  0.0678
 2333SOL    HW118461   4.290   3.819  14.212  3.4082  0.0074  0.7131
 2333SOL    HW218462   4.209   3.725  14.296  0.4057  0.0669  0.0739
 2334SOL     OW18463   1.234   2.996   5.756 -0.0052 -0.2963 -0.3442
 2334SOL    HW118464   1.276   3.015   5.840 -0.8230 -1.9151  0.4394
 2334SOL    HW218465   1.305   2.948   5.713 -1.2005 -2.1302 -0.2632
 2335SOL     OW18466   1.216   3.072   1.716 -0.2574  0.0055  0.4390
 2335SOL    HW118467   1.251   3.078   1.805 -1.4288 -0.4377  0.9221
 2335SOL    HW218468   1.245   2.982   1.698 -1.6537 -0.2692 -0.4519
 2336SOL     OW18469   1.050   2.304   1.936 -0.0516  0.4765 -0.2927
 2336SOL    HW118470   0.963   2.314   1.975 -0.0638 -0.8032  0.0247
 2336SOL    HW218471   1.033   2.334   1.847  0.0942  1.2333 -0.0580
 2337SOL     OW18472   4.015   1.461   9.821  0.2244 -0.4564 -0.0607
 2337SOL    HW118473   3.970   1.532   9.775  1.9889 -0.6388 -2.0310
 2337SOL    HW218474   3.946   1.395   9.828  0.5121 -0.7068  0.3793
 2338SOL     OW18475   0.006   2.069   3.358  0.6613  0.0712  0.0969
 2338SOL    HW118476   0.045   2.055   3.272  2.1129  1.8301  0.4706
 2338SOL    HW218477   4.713   1.983   3.399 -0.4267  0.4833  0.5969
 2339SOL     OW18478   2.755   0.440   7.965 -0.1224 -0.4231  0.7048
 2339SOL    HW118479   2.775   0.376   8.032  3.5149 -0.0242 -0.0067
 2339SOL    HW218480   2.685   0.484   8.013  0.6942  2.5146 -0.8008
 2340SOL     OW18481   0.939   3.081  11.986 -0.0043  0.2352  0.4758
 2340SOL    HW118482   1.006   3.084  12.055 -0.0873 -0.7160  0.6070
 2340SOL    HW218483   0.955   2.993  11.953 -1.0883 -0.1125  0.8655
 2341SOL     OW18484   3.816   1.686   0.780  0.3824 -0.0708 -0.0233
 2341SOL    HW118485   3.896   1.636   0.794  0.1750 -0.5370 -0.5038
 2341SOL    HW218486   3.755   1.614   0.799  0.2794 -0.0803 -0.3859
 2342SOL     OW18487   4.353   1.217   6.007 -0.3790 -0.0327  0.1312
 2342SOL    HW118488   4.395   1.266   6.077 -2.7340  0.9119  0.8980
 2342SOL    HW218489   4.283   1.280   5.987  1.1281  0.9369 -1.9973
 2343SOL     OW18490   2.763   2.329   9.741  0.6757 -0.0744  0.2656
 2343SOL    HW118491   2.816   2.317   9.820 -0.4095 -3.2097  0.5082
 2343SOL    HW218492   2.822   2.308   9.668  0.8513 -2.7589  1.1550
 2344SOL     OW18493   3.099   0.539   5.504 -0.2789 -0.4334 -0.1913
 2344SOL    HW118494   3.057   0.565   5.586  0.0926  1.4009 -0.5788
 2344SOL    HW218495   3.192   0.560   5.515 -0.8163  1.6903  0.3213
 2345SOL     OW18496   0.558   0.220  15.456  0.4816  0.1960 -0.0272
 2345SOL    HW118497   0.606   0.296  15.487  0.0850  0.9215 -1.2041
 2345SOL    HW218498   0.612   0.199  15.381 -1.1211 -2.9195 -0.3217
 2346SOL     OW18499   0.216   3.742   1.941 -0.1189  1.3808 -0.1774
 2346SOL    HW118500   0.274   3.792   1.884  0.5748 -1.1248 -1.6800
 2346SOL    HW218501   0.167   3.688   1.878 -0.0903  2.1182 -0.8230
 2347SOL     OW18502   2.096   1.685   2.168  0.7583  0.4448 -0.1845
 2347SOL    HW118503   2.090   1.590   2.177 -1.6362  0.6119 -0.0863
 2347SOL    HW218504   2.183   1.698   2.203  0.4656 -1.5438  1.2607
 2348SOL     OW18505   1.711   0.448   1.665 -0.1876 -0.0471  0.1045
 2348SOL    HW118506   1.670   0.408   1.741  1.4661 -1.0031  0.4795
 2348SOL    HW218507   1.642   0.463   1.600  1.1476 -0.1617 -1.3341
 2349SOL     OW18508   3.840   1.022  16.288 -0.4522 -0.6100 -0.5380
 2349SOL    HW118509   3.827   1.084  16.215 -0.8462 -0.0736 -0.0124
 2349SOL    HW218510   3.898   0.961  16.243  1.6800  1.2732 -0.3459
 2350SOL     OW18511   1.287   4.232  13.003 -0.2205  0.3923 -0.3884
 2350SOL    HW118512   1.218   4.200  13.061 -1.6197  3.1902 -0.5175
 2350SOL    HW218513   1.322   4.155  12.958 -2.6427 -1.1573  0.3741
 2351SOL     OW18514   3.832   2.456   3.828  0.2173 -0.4311 -0.6540
 2351SOL    HW118515   3.926   2.456   3.810 -0.1302 -0.2221 -2.4698
 2351SOL    HW218516   3.798   2.366   3.829 -0.7196 -0.0455  0.7213
 2352SOL     OW18517   3.697   3.933   6.763  0.1001  0.6785 -0.3710
 2352SOL    HW118518   3.602   3.932   6.774  0.1277  0.6662 -0.1223
 2352SOL    HW218519   3.700   3.944   6.668  3.5266 -1.6104 -0.5338
 2353SOL     OW18520   3.697   2.594   9.616 -0.4666 -0.6192  0.1926
 2353SOL    HW118521   3.774   2.538   9.620  0.3442  0.5542  0.9628
 2353SOL    HW218522   3.691   2.621   9.708  1.9694  1.2447 -0.2054
 2354SOL     OW18523   1.272   1.778  16.011 -0.0607  0.1082  0.2666
 2354SOL    HW118524   1.301   1.798  16.100 -2.3778  3.2862  0.2938
 2354SOL    HW218525   1.288   1.861  15.965 -0.7707  0.2771  0.3329
 2355SOL     OW18526   0.573   4.492   2.219 -0.2476 -0.0703 -0.2697
 2355SOL    HW118527   0.608   4.456   2.138  1.6035  0.5353  0.2553
 2355SOL    HW218528   0.652   4.481   2.272 -0.4857  0.8105  0.2711
 2356SOL     OW18529   0.984   1.540  13.441  0.0628 -0.1347 -0.8142
 2356SOL    HW118530   1.069   1.546  13.484  0.2486  1.6564 -1.4230
 2356SOL    HW218531   0.998   1.570  13.351  0.4902 -2.1075 -1.3987
 2357SOL     OW18532   3.102   2.124   9.277  0.0162  0.0803  0.2165
 2357SOL    HW118533   3.010   2.126   9.249  0.2521  1.1485 -0.5141
 2357SOL    HW218534   3.143   2.176   9.208 -1.6168  0.6719 -0.3035
 2358SOL     OW18535   4.195   1.088   7.346  0.0773 -0.4023  0.1347
 2358SOL    HW118536   4.152   1.026   7.288  0.9527 -2.2612  1.4318
 2358SOL    HW218537   4.257   1.028   7.388  0.3639 -0.7945 -0.8402
 2359SOL     OW18538   4.171   3.681   8.686 -0.0593 -0.0650  0.3255
 2359SOL    HW118539   4.110   3.646   8.752 -0.6049 -1.8228 -1.0886
 2359SOL    HW218540   4.221   3.746   8.735 -1.2561  0.3553  1.0074
 2360SOL     OW18541   2.854   0.098   7.373 -0.1533 -0.3581 -0.4573
 2360SOL    HW118542   2.805   0.156   7.431  1.0427 -2.0468  2.2778
 2360SOL    HW218543   2.797   0.021   7.375 -0.2141 -0.3177 -0.7212
 2361SOL     OW18544   2.444   0.583   4.426 -0.4347 -0.2539  0.6505
 2361SOL    HW118545   2.515   0.602   4.364 -1.7667  0.3805 -0.6899
 2361SOL    HW218546   2.372   0.631   4.384  0.2604 -0.2526 -0.5403
 2362SOL     OW18547   3.348   2.940   0.754 -0.0542  0.3897  0.2112
 2362SOL    HW118548   3.300   3.023   0.755  0.1128  0.5041 -0.8500
 2362SOL    HW218549   3.299   2.906   0.679  2.0652  0.6975 -1.3119
 2363SOL     OW18550   3.506   2.124  16.263 -0.0575 -0.4316 -0.1133
 2363SOL    HW118551   3.448   2.051  16.284 -0.5174  0.4758  1.7498
 2363SOL    HW218552   3.569   2.094  16.197  0.2743  0.0645 -0.0219
 2364SOL     OW18553   2.476   4.338  14.720  0.1916  0.1513  0.7522
 2364SOL    HW118554   2.518   4.346  14.634  2.1434 -0.9899  1.5993
 2364SOL    HW218555   2.511   4.421  14.753 -2.7683  1.5893  0.2676
 2365SOL     OW18556   4.350   3.000   2.593  0.1644  0.0808 -0.0313
 2365SOL    HW118557   4.336   3.056   2.517 -0.2142  0.6255  0.4397
 2365SOL    HW218558   4.282   3.030   2.654 -1.0123 -1.5720 -0.5280
 2366SOL     OW18559   3.138   0.696   3.069 -0.0299 -0.5294 -0.1876
 2366SOL    HW118560   3.151   0.763   3.136 -3.1524  2.0066 -2.0783
 2366SOL    HW218561   3.142   0.618   3.125  0.5696 -0.8052 -0.6192
 2367SOL     OW18562   1.047   2.936  17.238  0.3084 -0.6159 -0.0511
 2367SOL    HW118563   1.044   3.004  17.172 -0.5708  0.0625  0.6860
 2367SOL    HW218564   1.058   2.993  17.314  2.5133 -3.3614  1.7094
 2368SOL     OW18565   4.218   3.570  12.466 -0.1964  0.2502  0.1874
 2368SOL    HW118566   4.307   3.605  12.471 -0.0444 -0.1331  0.2063
 2368SOL    HW218567   4.187   3.621  12.391  1.0139 -0.1510 -0.5908
 2369SOL     OW18568   3.792   3.018   2.426 -0.4793 -0.3986  0.3636
 2369SOL    HW118569   3.737   2.992   2.352 -2.0398  3.1997  0.2807
 2369SOL    HW218570   3.769   3.110   2.440  1.1379  0.0531  0.0926
 2370SOL     OW18571   4.212   4.249   4.244  0.3402 -0.2595 -0.2033
 2370SOL    HW118572   4.210   4.159   4.277  1.8240 -0.3179 -0.2698
 2370SOL    HW218573   4.294   4.292   4.267  0.3348 -1.3417  1.7804
 2371SOL     OW18574   2.035   0.897   3.725 -0.2818  0.2970  0.0361
 2371SOL    HW118575   2.001   0.923   3.639 -0.2448  0.4269  0.0622
 2371SOL    HW218576   1.984   0.820   3.753 -1.0377  0.6526 -0.3496
 2372SOL     OW18577   1.824   1.564   7.265 -0.6155 -0.3917 -0.1905
 2372SOL    HW118578   1.824   1.597   7.355  1.4007  1.6271 -0.8983
 2372SOL    HW218579   1.826   1.649   7.221 -0.0296 -0.2127  0.1742
 2373SOL     OW18580   2.441   4.050  10.775 -0.4694  0.2486  0.5126
 2373SOL    HW118581   2.513   4.041  10.713  1.5067  0.5792  2.7725
 2373SOL    HW218582   2.375   3.984  10.753 -1.6677  1.3647  0.7756
 2374SOL     OW18583   1.889   4.543   4.798  0.2306 -0.5221 -0.5726
 2374SOL    HW118584   1.816   4.595   4.766  1.6742  1.1487 -1.1539
 2374SOL    HW218585   1.884   4.459   4.752  0.9939 -0.4456 -0.7993
 2375SOL     OW18586   2.558   1.527   7.353  0.0548 -0.1601 -0.0426
 2375SOL    HW118587   2.621   1.455   7.352  0.0137 -0.1906 -1.3064
 2375SOL    HW218588   2.603   1.581   7.287 -1.0351  0.1210 -0.5526
 2376SOL     OW18589   0.386   3.253   1.122 -0.3637 -0.0346  0.2508
 2376SOL    HW118590   0.413   3.264   1.213  1.0976  0.0460 -0.1775
 2376SOL    HW218591   0.307   3.306   1.116 -2.3937 -3.0326  0.9081
 2377SOL     OW18592   3.154   1.883  16.071  0.3624 -0.1240  0.1538
 2377SOL    HW118593   3.221   1.828  16.032  0.7337  2.4010 -2.7660
 2377SOL    HW218594   3.072   1.856  16.031  0.8285 -0.2191 -0.7151
 2378SOL     OW18595   0.060   1.222   6.886  0.0749  0.3547 -0.1032
 2378SOL    HW118596   4.690   1.195   6.874 -0.4638  2.7204 -1.3616
 2378SOL    HW218597   0.048   1.316   6.900  0.6961  0.1515  1.8562
 2379SOL     OW18598   2.827   2.263   8.346  0.4595 -0.1672 -0.2639
 2379SOL    HW118599   2.740   2.242   8.311  0.0378 -1.2318  1.4160
 2379SOL    HW218600   2.816   2.224   8.433 -0.5860 -2.3038 -1.3534
 2380SOL     OW18601   2.054   3.461   8.844 -0.2544 -0.2363 -0.0920
 2380SOL    HW118602   2.141   3.453   8.882 -0.8023 -0.9205  1.0082
 2380SOL    HW218603   2.050   3.549   8.807  1.2610 -0.1115  0.0441
 2381SOL     OW18604   2.484   4.278  15.912 -0.0220  0.0528  0.0219
 2381SOL    HW118605   2.408   4.267  15.970  0.3620  1.1597  0.7347
 2381SOL    HW218606   2.443   4.284  15.826  1.0129  0.2737 -0.4551
 2382SOL     OW18607   4.156   3.329  13.215 -0.3510 -0.2710  0.3572
 2382SOL    HW118608   4.178   3.339  13.308 -0.3304 -3.3397  0.6830
 2382SOL    HW218609   4.147   3.235  13.199  1.3147 -0.4574  0.5044
 2383SOL     OW18610   3.756   3.543   2.477 -0.4586  0.4537 -0.1545
 2383SOL    HW118611   3.682   3.561   2.535 -0.6009  1.8606 -0.7781
 2383SOL    HW218612   3.830   3.588   2.517 -0.7372  2.5204 -1.9443
 2384SOL     OW18613   2.481   1.691  14.572 -0.0756 -0.7095  0.0217
 2384SOL    HW118614   2.541   1.616  14.581  0.2258 -0.3317  1.1780
 2384SOL    HW218615   2.493   1.713  14.479 -0.4285  1.1640  0.4291
 2385SOL     OW18616   4.703   0.465  14.042  0.4163 -0.1701 -0.0871
 2385SOL    HW118617   4.650   0.388  14.020  0.4974 -0.2989  0.1573
 2385SOL    HW218618   0.041   0.462  13.967  1.9394 -0.3354  1.1181
 2386SOL     OW18619   0.188   3.206   1.977 -0.2256 -0.4027 -0.0990
 2386SOL    HW118620   0.208   3.286   2.027  0.0950 -0.5923  0.0717
 2386SOL    HW218621   0.121   3.237   1.915  1.3657  2.6509 -0.3221
 2387SOL     OW18622   0.553   3.392   2.688  0.2329 -0.1809  0.0487
 2387SOL    HW118623   0.460   3.412   2.702 -0.2285 -2.8911  0.8818
 2387SOL    HW218624   0.588   3.399   2.777  0.4209 -0.6836  0.0161
 2388SOL     OW18625   2.657   2.841   4.263  0.0788 -0.5962  0.5917
 2388SOL    HW118626   2.695   2.808   4.181 -2.2353  0.3282 -0.8642
 2388SOL    HW218627   2.567   2.857   4.236  0.3127  0.3238  0.3739
 2389SOL     OW18628   2.352   1.327  13.572  0.5876 -0.1386 -0.0953
 2389SOL    HW118629   2.274   1.307  13.520  0.2583  3.6497 -1.1148
 2389SOL    HW218630   2.328   1.408  13.618 -1.0844 -2.7731  3.6672
 2390SOL     OW18631   0.170   0.033   5.546  0.3345 -0.5071  0.1489
 2390SOL    HW118632   0.198   0.101   5.608  2.2854  0.1223 -1.4086
 2390SOL    HW218633   0.078   0.024   5.570  0.4830  0.5426  1.1426
 2391SOL     OW18634   2.050   0.320   4.226 -0.1878  0.4786  0.2698
 2391SOL    HW118635   2.025   0.296   4.137 -0.2941 -0.6852  0.6183
 2391SOL    HW218636   2.116   0.389   4.217 -1.0348  1.3068  0.3704
 2392SOL     OW18637   3.201   2.874   4.620 -0.1191  0.5493 -0.4690
 2392SOL    HW118638   3.133   2.850   4.683  0.9872 -2.8650 -0.6196
 2392SOL    HW218639   3.262   2.917   4.680  0.4410  0.0418 -0.6889
 2393SOL     OW18640   3.374   1.040  15.976 -0.9273 -0.1652  0.0515
 2393SOL    HW118641   3.300   1.000  16.023 -1.6381 -1.4363 -2.1735
 2393SOL    HW218642   3.424   1.075  16.050 -1.1335  0.8752 -0.3140
 2394SOL     OW18643   4.407   4.417   4.607 -0.2955 -0.0392  0.7973
 2394SOL    HW118644   4.389   4.336   4.654 -1.3749  0.7559  1.7396
 2394SOL    HW218645   4.322   4.435   4.568  0.7253  1.3225 -0.8262
 2395SOL     OW18646   0.765   1.409   8.258 -0.1175  0.1611 -0.0196
 2395SOL    HW118647   0.845   1.406   8.310  0.9417  0.0413 -1.6816
 2395SOL    HW218648   0.782   1.331   8.206 -1.1909  0.8688 -1.4465
 2396SOL     OW18649   3.133   1.040   8.473 -0.1319 -0.1859  0.0794
 2396SOL    HW118650   3.062   1.095   8.439  0.8087 -0.5987 -2.6070
 2396SOL    HW218651   3.206   1.046   8.412  1.0578  1.7263  1.7111
 2397SOL     OW18652   0.027   1.601  10.208  1.1476  0.2992  0.2267
 2397SOL    HW118653   4.658   1.626  10.226  0.9196 -2.0854  2.3460
 2397SOL    HW218654   0.023   1.573  10.117 -0.2393 -0.7409  0.6092
 2398SOL     OW18655   4.102   1.977   3.595 -0.0504 -0.1943 -0.1031
 2398SOL    HW118656   4.176   2.038   3.589  0.7470 -1.0212  1.1590
 2398SOL    HW218657   4.144   1.908   3.544 -0.6141 -0.3312 -0.3720
 2399SOL     OW18658   0.743   0.031   4.568  0.1486  0.4755 -0.0824
 2399SOL    HW118659   0.684   4.691   4.524  0.9612  1.7719 -2.9604
 2399SOL    HW218660   0.827   4.707   4.570  0.6963  1.5035  0.2620
 2400SOL     OW18661   2.828   4.031   0.982  0.0656  0.2435 -0.3840
 2400SOL    HW118662   2.901   3.970   0.993  0.0728  0.1160 -1.1236
 2400SOL    HW218663   2.807   4.055   1.072  4.0019 -1.3952  0.9769
 2401SOL     OW18664   0.728   3.179   4.955 -0.2336  0.3717  0.1155
 2401SOL    HW118665   0.727   3.241   4.882 -0.9144 -0.9923 -1.0186
 2401SOL    HW218666   0.706   3.097   4.911 -0.7759 -0.6300  2.2733
 2402SOL     OW18667   3.319   4.535   8.079  0.2384 -0.0399  0.7193
 2402SOL    HW118668   3.227   4.509   8.083  0.2364  0.3503  3.1499
 2402SOL    HW218669   3.322   4.629   8.099  3.2947  0.0128 -0.0654
 2403SOL     OW18670   1.372   3.621   3.450  0.0719 -0.4088  0.0206
 2403SOL    HW118671   1.447   3.562   3.443  0.0197 -0.6473  1.5224
 2403SOL    HW218672   1.358   3.648   3.359 -1.3996  1.6793  0.8435
 2404SOL     OW18673   4.367   3.902   6.455  0.2371 -0.4438  0.3122
 2404SOL    HW118674   4.362   3.826   6.513 -1.0283  0.0383  0.8233
 2404SOL    HW218675   4.393   3.969   6.518  0.8788 -0.8036  0.4337
 2405SOL     OW18676   0.029   2.781   4.346 -0.5898  0.3836 -0.5919
 2405SOL    HW118677   0.120   2.772   4.318 -0.4607  1.1862 -0.4188
 2405SOL    HW218678   4.696   2.745   4.275 -1.8163  1.1258 -0.0442
 2406SOL     OW18679   0.214   1.173  13.045 -0.4376  0.0780 -0.4630
 2406SOL    HW118680   0.286   1.146  13.102 -0.0974  0.5373 -0.6761
 2406SOL    HW218681   0.241   1.264  13.038 -0.7441  0.0668 -1.7462
 2407SOL     OW18682   1.329   4.218   5.597  0.6886 -0.3403  0.6976
 2407SOL    HW118683   1.274   4.237   5.521  0.1061 -0.9027  0.9810
 2407SOL    HW218684   1.291   4.136   5.629  1.2969 -0.6898  0.5172
 2408SOL     OW18685   1.588   0.524   8.863 -0.2109 -1.0114  0.0346
 2408SOL    HW118686   1.554   0.524   8.952 -0.4713 -0.9241 -0.0675
 2408SOL    HW218687   1.633   0.607   8.879 -0.5221 -0.8059 -0.1649
 2409SOL     OW18688   0.477   3.047   5.361 -0.8682  0.1633  0.4515
 2409SOL    HW118689   0.565   3.037   5.398  0.9740  3.2218 -3.0230
 2409SOL    HW218690   0.446   2.958   5.351 -1.8881  0.1904  3.4459
 2410SOL     OW18691   1.461   0.019  10.140 -0.2462  0.3286  0.3158
 2410SOL    HW118692   1.424   4.663  10.182 -2.1668  0.3617 -1.3322
 2410SOL    HW218693   1.519   4.703  10.074 -0.3926  1.3252 -0.3827
 2411SOL     OW18694   3.804   0.557  15.529  0.4467  0.2680 -0.5028
 2411SOL    HW118695   3.787   0.640  15.484 -1.0665  0.3858  0.2648
 2411SOL    HW218696   3.719   0.516  15.514 -0.0258  0.7935  0.7376
 2412SOL     OW18697   1.228   3.893  11.580 -0.1949 -0.2876  0.1370
 2412SOL    HW118698   1.251   3.957  11.512 -0.5945 -0.2406  0.0497
 2412SOL    HW218699   1.134   3.879  11.574 -0.4959  1.1872  1.5536
 2413SOL     OW18700   1.721   3.048   9.443  0.0576 -0.6809 -0.0384
 2413SOL    HW118701   1.652   2.997   9.485  0.3446  0.4731  1.8300
 2413SOL    HW218702   1.703   3.023   9.353  1.6046  0.7713 -0.7512
 2414SOL     OW18703   2.742   4.119   9.855  0.4107  0.5423  0.3501
 2414SOL    HW118704   2.836   4.109   9.869  0.5750  0.3518 -0.8499
 2414SOL    HW218705   2.716   4.026   9.855 -0.9124  0.9041 -2.3344
 2415SOL     OW18706   1.090   1.957  10.742  0.0698  0.0141 -0.0955
 2415SOL    HW118707   1.137   1.992  10.667 -0.6124  0.8488 -0.1355
 2415SOL    HW218708   1.032   1.892  10.701  1.0034 -1.5199  0.9925
 2416SOL     OW18709   4.515   0.566   6.224  0.4770 -0.7764 -0.1090
 2416SOL    HW118710   4.493   0.484   6.180 -2.0866  0.0895 -0.4396
 2416SOL    HW218711   4.557   0.527   6.301 -0.9330 -0.6911  0.7116
 2417SOL     OW18712   0.543   1.689  10.988 -0.4215 -0.5943  0.9448
 2417SOL    HW118713   0.639   1.683  10.981 -0.6628 -0.2351 -2.7177
 2417SOL    HW218714   0.528   1.654  11.075  0.7584  0.4297  1.5723
 2418SOL     OW18715   3.076   1.843   4.615 -0.4957  0.2188  0.3778
 2418SOL    HW118716   3.131   1.831   4.693  0.5379  0.7948 -0.2641
 2418SOL    HW218717   3.096   1.936   4.605 -0.8594  0.1434 -0.9758
 2419SOL     OW18718   4.397   1.781  13.477 -0.2671 -0.7978 -0.1372
 2419SOL    HW118719   4.416   1.744  13.563 -0.2581  0.4062  0.3793
 2419SOL    HW218720   4.359   1.709  13.426  0.9020  0.3560 -2.6439
 2420SOL     OW18721   4.349   1.305  15.689  0.7798  0.2139  0.0239
 2420SOL    HW118722   4.344   1.221  15.643 -0.4533  0.4593 -0.2936
 2420SOL    HW218723   4.341   1.370  15.619  0.5614  1.2449  0.9992
 2421SOL     OW18724   4.345   3.570   6.868 -0.5518 -0.1052  0.2494
 2421SOL    HW118725   4.311   3.656   6.891  2.2596  1.2564 -0.7915
 2421SOL    HW218726   4.390   3.539   6.946 -0.2077  2.4709  1.0519
 2422SOL     OW18727   1.233   0.340   5.386  0.3964  0.2594  0.0123
 2422SOL    HW118728   1.254   0.429   5.413  0.7013 -0.2802  1.5416
 2422SOL    HW218729   1.137   0.338   5.385  0.4317 -1.5430  0.5964
 2423SOL     OW18730   3.826   1.304   4.764  0.1458 -0.0778  0.2966
 2423SOL    HW118731   3.835   1.367   4.834  1.3945  1.6398 -1.3987
 2423SOL    HW218732   3.794   1.229   4.813  0.2148  0.2976  0.9181
 2424SOL     OW18733   1.013   0.693   8.767  0.4004  0.1529 -0.2784
 2424SOL    HW118734   1.099   0.658   8.744  0.8581  0.9034  0.2837
 2424SOL    HW218735   1.019   0.726   8.857  0.9967 -0.3167 -0.1473
 2425SOL     OW18736   2.665   0.434   3.499 -0.2434  0.2164 -0.1367
 2425SOL    HW118737   2.722   0.424   3.422  1.5460  0.4061  1.1633
 2425SOL    HW218738   2.602   0.364   3.480  0.5649 -0.8896  1.2771
 2426SOL     OW18739   2.908   0.842   6.767 -0.7548 -0.2741 -0.4355
 2426SOL    HW118740   2.824   0.824   6.808  0.5631  0.8771  2.7861
 2426SOL    HW218741   2.972   0.819   6.835 -0.3378  0.1249 -0.6929
 2427SOL     OW18742   3.129   0.421   8.232  0.7517  0.2723  0.3976
 2427SOL    HW118743   3.201   0.441   8.292  1.2846  1.6142 -0.6830
 2427SOL    HW218744   3.084   0.345   8.270  0.9835 -0.4406 -0.7774
 2428SOL     OW18745   0.110   0.482   7.619 -0.5118  0.0828  0.0272
 2428SOL    HW118746   0.104   0.485   7.523  1.5667 -1.0644 -0.1349
 2428SOL    HW218747   0.020   0.454   7.635 -0.4624  0.6817  1.3111
 2429SOL     OW18748   2.488   4.497  12.551 -0.1624 -0.0556  0.1012
 2429SOL    HW118749   2.408   4.537  12.517  0.0276 -0.7482 -1.1739
 2429SOL    HW218750   2.458   4.451  12.629 -1.3237  0.1918 -0.1963
 2430SOL     OW18751   4.508   4.627  10.902 -0.4455 -0.2086  0.2284
 2430SOL    HW118752   4.544   4.554  10.852  0.1584  0.5843 -0.5009
 2430SOL    HW218753   4.523   4.588  10.988  2.5028  2.3198  0.8478
 2431SOL     OW18754   2.432   1.838   8.811 -0.1105  0.2249  0.0212
 2431SOL    HW118755   2.524   1.811   8.809 -0.8307 -2.0478 -2.2989
 2431SOL    HW218756   2.389   1.768   8.762 -1.3870  1.2913 -0.3788
 2432SOL     OW18757   0.972   0.485   8.174  0.7646  0.6432  0.2097
 2432SOL    HW118758   0.877   0.477   8.173  1.0484 -2.7341  0.7401
 2432SOL    HW218759   0.991   0.511   8.084 -2.6298  1.5133 -0.2432
 2433SOL     OW18760   4.493   0.777   5.983 -0.0693  0.4125  0.5685
 2433SOL    HW118761   4.576   0.799   6.027 -0.1648 -0.5794  1.2415
 2433SOL    HW218762   4.435   0.758   6.056  1.6836  1.2131  2.1864
 2434SOL     OW18763   1.085   2.788   8.923  0.6132 -0.1215  0.1786
 2434SOL    HW118764   1.176   2.763   8.904  0.3151  0.2105 -1.6819
 2434SOL    HW218765   1.057   2.810   8.834  1.0950  0.4417  0.1632
 2435SOL     OW18766   0.613   2.929   3.390 -0.3001  0.4540 -0.3869
 2435SOL    HW118767   0.654   2.873   3.456 -0.9168  1.8498  1.1798
 2435SOL    HW218768   0.527   2.911   3.429 -0.6952 -0.4451 -1.6821
 2436SOL     OW18769   0.116   4.260  13.357  0.5425  0.3790 -0.5018
 2436SOL    HW118770   0.118   4.340  13.410 -0.9487 -0.1118  0.2877
 2436SOL    HW218771   0.202   4.265  13.315  2.1524 -1.3911  2.5783
 2437SOL     OW18772   2.777   3.848   2.497 -0.0382 -0.1972 -0.1850
 2437SOL    HW118773   2.691   3.865   2.459 -0.3838 -0.5891  0.4182
 2437SOL    HW218774   2.754   3.787   2.567 -0.8928 -1.0588 -1.2248
 2438SOL     OW18775   0.750   3.170   5.646  0.0475  0.3607  0.4766
 2438SOL    HW118776   0.685   3.120   5.695 -0.7169  0.8423 -0.0637
 2438SOL    HW218777   0.828   3.126   5.682 -2.1700 -2.4728  1.8447
 2439SOL     OW18778   2.729   3.255  15.671  0.2094 -0.3246  0.3952
 2439SOL    HW118779   2.732   3.351  15.662 -3.6118 -0.2018  0.3777
 2439SOL    HW218780   2.821   3.231  15.679 -0.1622 -1.4109  1.4322
 2440SOL     OW18781   4.145   3.799  14.963 -0.8327  0.0106  0.1564
 2440SOL    HW118782   4.115   3.708  14.972  1.3173 -0.5546  1.5262
 2440SOL    HW218783   4.200   3.798  15.040 -0.5774 -0.2075 -0.0286
 2441SOL     OW18784   2.942   1.298   5.837 -0.5656 -0.5384 -0.0036
 2441SOL    HW118785   3.029   1.294   5.877 -1.0113  0.5433  1.0768
 2441SOL    HW218786   2.882   1.262   5.902  0.1526  0.5935  1.2851
 2442SOL     OW18787   1.416   2.188   6.489 -0.0997  0.1355 -0.2880
 2442SOL    HW118788   1.478   2.241   6.539 -1.1006  2.1718 -1.2387
 2442SOL    HW218789   1.344   2.251   6.486  0.7799  1.2016  0.8822
 2443SOL     OW18790   2.724   1.744   8.826 -0.3968  0.1108 -0.0064
 2443SOL    HW118791   2.777   1.808   8.874 -0.4964 -0.2133  0.5317
 2443SOL    HW218792   2.763   1.750   8.738  2.1025 -2.7671  0.8933
 2444SOL     OW18793   2.075   1.682  11.426 -0.4101 -0.3610  0.3497
 2444SOL    HW118794   2.133   1.691  11.351  1.2513 -3.4535  1.2570
 2444SOL    HW218795   1.995   1.663  11.378 -0.0460  0.8515 -0.7169
 2445SOL     OW18796   0.076   3.020  17.340  0.2336 -0.1751 -0.5487
 2445SOL    HW118797   0.122   3.104  17.344 -0.7238  0.4497 -2.5551
 2445SOL    HW218798   4.708   3.039  17.313  0.5405  0.0185 -1.4288
 2446SOL     OW18799   3.911   3.975  17.311  0.2047 -0.2525 -0.4946
 2446SOL    HW118800   3.996   3.940  17.283  0.0267  0.3782 -1.8110
 2446SOL    HW218801   3.848   3.914  17.272  2.0640 -2.6660  0.2771
 2447SOL     OW18802   0.503   3.603   4.008 -0.4505 -0.1883  0.1168
 2447SOL    HW118803   0.421   3.619   3.961 -0.1288  0.7822 -0.1160
 2447SOL    HW218804   0.491   3.662   4.082 -3.6360 -0.7212  0.0350
 2448SOL     OW18805   4.463   0.592   7.004  0.6990 -0.2667  0.0417
 2448SOL    HW118806   4.507   0.586   6.919 -0.9050  0.7191 -0.8575
 2448SOL    HW218807   4.494   0.510   7.044  2.2247  0.5750  0.5848
 2449SOL     OW18808   0.312   3.746   6.778  0.1507  0.2757  0.2801
 2449SOL    HW118809   0.243   3.758   6.713  1.1934 -0.4167 -0.9423
 2449SOL    HW218810   0.273   3.789   6.854  1.4042  0.6019  0.7459
 2450SOL     OW18811   4.300   2.157   2.171  0.0617  0.4998 -0.5403
 2450SOL    HW118812   4.318   2.073   2.213 -1.6047 -0.6211 -2.0269
 2450SOL    HW218813   4.281   2.119   2.085  3.6319  0.4192 -1.3052
 2451SOL     OW18814   1.016   1.043   6.476 -0.0230 -0.1202 -0.2930
 2451SOL    HW118815   1.045   1.038   6.385 -2.3890  0.0232 -1.0621
 2451SOL    HW218816   1.082   1.100   6.516  0.8593 -1.7561  0.5931
 2452SOL     OW18817   1.106   3.162   2.335 -0.3603 -0.5583 -0.0432
 2452SOL    HW118818   1.059   3.242   2.360 -0.5074 -0.1574 -1.5907
 2452SOL    HW218819   1.193   3.180   2.372 -0.6506 -0.3553  0.5411
 2453SOL     OW18820   3.971   3.365   8.139 -0.1987 -0.3200  0.2313
 2453SOL    HW118821   3.883   3.347   8.106  0.5838 -4.0917  0.2050
 2453SOL    HW218822   3.982   3.456   8.111  1.8064 -0.6014  0.1172
 2454SOL     OW18823   1.391   0.380   3.317  0.0986 -0.2476  0.1483
 2454SOL    HW118824   1.479   0.372   3.355  0.5132  1.4789 -0.4760
 2454SOL    HW218825   1.341   0.441   3.372  1.4003  0.5339  0.4771
 2455SOL     OW18826   3.743   3.535   3.427  0.1796 -0.2085  0.2675
 2455SOL    HW118827   3.707   3.597   3.491 -1.7866 -0.3086 -0.7460
 2455SOL    HW218828   3.742   3.455   3.479  1.9000  0.7876  1.8279
 2456SOL     OW18829   0.726   3.580  10.163  0.2060 -0.3884 -0.0922
 2456SOL    HW118830   0.730   3.504  10.105  1.0655 -0.9587  0.7054
 2456SOL    HW218831   0.813   3.569  10.202  0.0461 -0.2803  0.3003
 2457SOL     OW18832   3.775   0.402   7.407 -0.1593 -0.0011 -0.2150
 2457SOL    HW118833   3.781   0.498   7.404 -0.3196  0.0012 -0.4334
 2457SOL    HW218834   3.771   0.375   7.316  1.6910 -1.4596  0.1272
 2458SOL     OW18835   1.819   0.508   7.996 -0.2581 -0.3834 -0.2719
 2458SOL    HW118836   1.740   0.522   8.048 -0.6351  0.1814 -0.9927
 2458SOL    HW218837   1.849   0.599   7.992  1.2498 -0.8347  0.8761
 2459SOL     OW18838   2.278   1.710  13.139 -0.2188  0.2858 -0.1333
 2459SOL    HW118839   2.250   1.674  13.223 -0.8630 -1.5216 -1.1431
 2459SOL    HW218840   2.370   1.731  13.156 -0.3665  1.6696 -0.9984
 2460SOL     OW18841   1.965   4.078  13.105 -0.3580 -0.3017 -0.5180
 2460SOL    HW118842   1.970   4.111  13.015 -0.8663 -0.1765 -0.5028
 2460SOL    HW218843   2.056   4.064  13.132 -0.5900  0.7055  0.7724
 2461SOL     OW18844   0.502   3.101   0.933 -0.0600  0.1542  0.6927
 2461SOL    HW118845   0.477   3.158   1.006  0.7003  0.0756  1.0137
 2461SOL    HW218846   0.420   3.052   0.927 -0.0644  0.2307  0.1233
 2462SOL     OW18847   3.231   3.681   8.103  0.3050 -0.1033  0.1982
 2462SOL    HW118848   3.307   3.699   8.158  2.3712 -2.9996 -1.7015
 2462SOL    HW218849   3.233   3.758   8.047  2.5092 -0.8672 -0.7937
 2463SOL     OW18850   3.071   3.238   5.456 -0.1429  0.5856 -0.3550
 2463SOL    HW118851   3.113   3.315   5.417  0.5952 -0.3214 -1.3182
 2463SOL    HW218852   2.997   3.285   5.496 -0.6269 -1.0499  0.6682
 2464SOL     OW18853   0.250   4.704   9.616 -0.2857  0.3919  0.1967
 2464SOL    HW118854   0.339   4.681   9.644  0.7497  3.6604 -0.2957
 2464SOL    HW218855   0.250   0.072   9.652  0.0794 -0.4858  2.4009
 2465SOL     OW18856   3.961   4.630  14.802  0.4128 -0.0729  0.1262
 2465SOL    HW118857   3.913   4.575  14.740 -0.7013  0.4639  0.5106
 2465SOL    HW218858   4.019   4.678  14.743  0.7509  0.1039  0.5961
 2466SOL     OW18859   2.355   0.265   2.972  0.5188 -0.4260 -0.5890
 2466SOL    HW118860   2.283   0.319   2.939  0.7192  0.4022  0.3324
 2466SOL    HW218861   2.375   0.202   2.903 -2.2610 -1.2942 -0.5680
 2467SOL     OW18862   1.573   3.146  11.646 -0.4492  0.5253 -0.0327
 2467SOL    HW118863   1.508   3.107  11.587 -0.2446  1.6508 -0.9970
 2467SOL    HW218864   1.639   3.169  11.581  2.3487 -0.9918  2.2099
 2468SOL     OW18865   3.475   2.421   7.850  0.0233 -0.0752 -0.1831
 2468SOL    HW118866   3.414   2.436   7.777  0.4721  2.1668 -0.1161
 2468SOL    HW218867   3.475   2.508   7.891  0.3704  0.5889 -1.5643
 2469SOL     OW18868   4.239   1.501  12.736 -0.0551 -0.2925 -0.0141
 2469SOL    HW118869   4.277   1.479  12.651 -0.3625 -0.3172 -0.1442
 2469SOL    HW218870   4.178   1.429  12.753  1.2692 -1.3499  0.2865
 2470SOL     OW18871   1.781   1.945   9.301  0.2582 -0.4627  0.0243
 2470SOL    HW118872   1.838   1.874   9.331 -2.6424 -2.1532  1.5213
 2470SOL    HW218873   1.793   2.001   9.378 -0.8537  1.3918 -1.1689
 2471SOL     OW18874   1.020   1.879   9.538  0.2389 -0.4150 -0.0471
 2471SOL    HW118875   0.969   1.959   9.529 -0.0574 -0.5022  0.9198
 2471SOL    HW218876   0.982   1.827   9.466 -0.0219 -2.3037  1.4637
 2472SOL     OW18877   0.436   0.506   7.714  0.0628  0.0330 -0.3689
 2472SOL    HW118878   0.381   0.492   7.792  1.0660  0.0118  0.3445
 2472SOL    HW218879   0.425   0.420   7.673 -2.1811  0.0850  0.1420
 2473SOL     OW18880   3.477   1.467   7.198 -0.1177 -0.2348 -0.5734
 2473SOL    HW118881   3.498   1.464   7.105 -0.7140 -0.8749 -0.6836
 2473SOL    HW218882   3.491   1.379   7.233 -1.9988 -0.8401 -1.3353
 2474SOL     OW18883   1.129   3.087   4.909 -0.0401 -0.6196  0.7292
 2474SOL    HW118884   1.104   3.117   4.996  2.1203  0.8825  0.8329
 2474SOL    HW218885   1.217   3.124   4.900 -0.6248 -0.0121 -2.4592
 2475SOL     OW18886   3.160   4.440   7.419  0.5446 -0.0493  0.2855
 2475SOL    HW118887   3.132   4.389   7.495  1.6040 -2.1000 -0.7030
 2475SOL    HW218888   3.077   4.443   7.372 -0.2375 -1.4371  1.5853
 2476SOL     OW18889   2.723   1.050  14.325 -0.0542  0.7609  0.2050
 2476SOL    HW118890   2.639   1.038  14.281 -0.0236 -2.1139  0.9285
 2476SOL    HW218891   2.721   0.974  14.384 -0.9029  0.9465  0.4160
 2477SOL     OW18892   2.087   4.536   8.914  0.5759  0.7448 -0.1950
 2477SOL    HW118893   2.137   4.617   8.911  0.2554  1.0731  2.7490
 2477SOL    HW218894   2.142   4.498   8.983 -1.6792 -3.0846 -0.4574
 2478SOL     OW18895   1.404   2.621   2.514 -0.4835 -0.1937  0.2387
 2478SOL    HW118896   1.449   2.682   2.573 -0.2652  0.3397 -0.4732
 2478SOL    HW218897   1.383   2.672   2.436 -0.7444 -1.9746 -0.8350
 2479SOL     OW18898   4.047   2.382   2.393  0.9285  0.0752  0.0371
 2479SOL    HW118899   4.039   2.396   2.487  0.8068 -1.2153  0.2128
 2479SOL    HW218900   3.983   2.312   2.382  0.2549  1.1507 -3.0335
 2480SOL     OW18901   1.973   1.853   1.882  0.0018  0.0433 -0.4559
 2480SOL    HW118902   1.879   1.864   1.895  0.1550  1.5888 -0.5888
 2480SOL    HW218903   1.974   1.905   1.802 -0.1738  0.1532 -0.3861
 2481SOL     OW18904   0.879   1.884   6.142 -0.3568  0.1967 -0.3415
 2481SOL    HW118905   0.818   1.955   6.162 -2.8827 -1.3834 -2.4951
 2481SOL    HW218906   0.929   1.939   6.082 -0.6753 -0.6393 -1.3682
 2482SOL     OW18907   3.419   3.736   3.295  0.3972  0.3955  0.3173
 2482SOL    HW118908   3.336   3.778   3.313  0.7661  1.4200 -0.3807
 2482SOL    HW218909   3.399   3.642   3.295 -2.7269  1.0488  0.1310
 2483SOL     OW18910   4.111   3.558   5.172  0.3232 -0.2625 -0.2313
 2483SOL    HW118911   4.169   3.610   5.115 -0.1316 -0.2921 -0.7136
 2483SOL    HW218912   4.121   3.478   5.121 -0.5951 -0.5910  0.1165
 2484SOL     OW18913   4.625   4.656   9.262 -0.0670  0.2733 -0.1330
 2484SOL    HW118914   4.604   4.639   9.353 -1.0979  2.4326  0.0296
 2484SOL    HW218915   4.559   0.000   9.239 -1.8969 -1.6421 -0.3248
 2485SOL     OW18916   0.913   3.626   3.338  0.4561 -0.0136  0.4231
 2485SOL    HW118917   0.988   3.678   3.368  1.1877 -0.6600 -0.3051
 2485SOL    HW218918   0.853   3.700   3.329  0.1667  0.0038  2.4673
 2486SOL     OW18919   2.941   4.385   5.600  0.1106 -0.5962 -0.3009
 2486SOL    HW118920   3.005   4.432   5.547  1.1013 -0.8372  0.7031
 2486SOL    HW218921   2.860   4.395   5.550  0.4627  1.1488 -0.5049
 2487SOL     OW18922   1.333   3.006   4.598 -0.1631 -0.1961  0.3063
 2487SOL    HW118923   1.267   2.951   4.641 -2.4563  0.9205 -1.7724
 2487SOL    HW218924   1.346   2.959   4.515  1.0469  0.3661  0.1817
 2488SOL     OW18925   0.370   0.117   3.976 -0.1452  0.0952  0.1545
 2488SOL    HW118926   0.390   0.202   3.936  2.3009 -0.9273 -0.7393
 2488SOL    HW218927   0.331   0.065   3.906  1.4529 -0.2948 -0.4278
 2489SOL     OW18928   1.311   3.275  12.388  0.1544  0.1135  0.1177
 2489SOL    HW118929   1.300   3.286  12.482 -0.1668 -0.6459  0.1731
 2489SOL    HW218930   1.369   3.199  12.398  1.6253  1.1084 -0.7815
 2490SOL     OW18931   2.383   4.593   7.387 -0.2519 -0.0084 -0.4017
 2490SOL    HW118932   2.292   4.615   7.368  0.8825  2.0854 -3.4233
 2490SOL    HW218933   2.428   4.673   7.357  0.9221  0.2780  2.1513
 2491SOL     OW18934   2.428   3.522   5.956 -0.1302  0.1444  0.3378
 2491SOL    HW118935   2.333   3.514   5.963 -0.0072  0.5832  2.4817
 2491SOL    HW218936   2.449   3.433   5.984  0.6248  0.0184 -0.5938
 2492SOL     OW18937   2.647   1.120   6.817 -0.6986 -0.3742  0.3235
 2492SOL    HW118938   2.637   1.215   6.812 -1.9228 -0.4754  1.0657
 2492SOL    HW218939   2.677   1.112   6.908  0.2941 -1.2682 -0.0746
 2493SOL     OW18940   2.884   4.720   8.563  0.1740 -0.2396  0.0270
 2493SOL    HW118941   2.851   0.014   8.651  1.2878 -0.2355  0.4417
 2493SOL    HW218942   2.970   4.680   8.570  0.8501  0.9508 -1.4345
 2494SOL     OW18943   1.018   2.948   9.795 -0.1503  0.5356 -0.2341
 2494SOL    HW118944   1.050   2.904   9.716 -0.4665 -1.9460  1.0281
 2494SOL    HW218945   1.025   3.042   9.778  2.9214  0.3404 -0.0541
 2495SOL     OW18946   4.153   2.914   5.501 -0.9373 -0.3362  0.0267
 2495SOL    HW118947   4.187   2.969   5.572 -0.5423 -0.4899 -0.0423
 2495SOL    HW218948   4.218   2.936   5.435 -0.9382 -0.6629 -0.0829
 2496SOL     OW18949   2.460   0.640  13.646  0.6157  0.2105  0.1099
 2496SOL    HW118950   2.414   0.708  13.598  0.8284  0.1362 -0.2048
 2496SOL    HW218951   2.438   0.562  13.594  1.8330  0.3552 -0.6344
 2497SOL     OW18952   2.603   3.087   7.847  0.5175  0.0914  0.2643
 2497SOL    HW118953   2.563   3.021   7.904  2.0858  0.7933  2.2028
 2497SOL    HW218954   2.686   3.106   7.890  0.6017  0.5782 -0.1163
 2498SOL     OW18955   3.653   0.578   8.145 -0.1237 -0.3196 -0.6427
 2498SOL    HW118956   3.605   0.648   8.189 -2.2013 -1.6670 -0.7778
 2498SOL    HW218957   3.590   0.513   8.115 -1.3098  1.0430 -1.1132
 2499SOL     OW18958   3.758   3.372   5.753 -0.3519  0.7589 -0.0435
 2499SOL    HW118959   3.844   3.382   5.713 -0.0060  2.4080  1.1426
 2499SOL    HW218960   3.708   3.401   5.677  0.5190  3.4412  0.4397
 2500SOL     OW18961   2.212   1.426   2.722  0.5327 -0.1007  0.2299
 2500SOL    HW118962   2.239   1.480   2.648 -0.8239  1.6100  0.9712
 2500SOL    HW218963   2.285   1.435   2.783  0.9477 -2.6385  0.0987
 2501SOL     OW18964   1.376   2.330   1.304 -0.0287  0.2015 -0.1222
 2501SOL    HW118965   1.320   2.407   1.294 -0.1716  0.4145  2.3320
 2501SOL    HW218966   1.321   2.260   1.270 -0.4727  0.6336 -0.2906
 2502SOL     OW18967   1.573   2.240   2.745  0.3628 -0.4279  0.3573
 2502SOL    HW118968   1.528   2.284   2.672 -1.8651 -1.4077  1.1367
 2502SOL    HW218969   1.618   2.317   2.778 -0.0717  0.0928 -0.2494
 2503SOL     OW18970   4.008   3.374   4.916 -0.5830 -0.3247  0.1496
 2503SOL    HW118971   4.068   3.335   4.979  0.0740 -1.0839 -0.9458
 2503SOL    HW218972   4.002   3.305   4.849 -0.7444  1.4001 -1.6209
 2504SOL     OW18973   2.696   4.608  13.413  0.4188  0.3540 -0.4554
 2504SOL    HW118974   2.727   4.533  13.463 -0.5414 -0.9960 -1.8681
 2504SOL    HW218975   2.631   4.640  13.476  0.6931  1.0834 -0.5429
 2505SOL     OW18976   3.206   1.897  13.004 -1.0673 -0.2955  0.0893
 2505SOL    HW118977   3.158   1.975  12.976 -0.3836 -0.3738 -1.3480
 2505SOL    HW218978   3.234   1.910  13.094  2.6420 -0.1855 -1.0477
 2506SOL     OW18979   2.243   0.411   6.047  0.0614  0.2320 -0.1917
 2506SOL    HW118980   2.314   0.418   5.982  1.0046 -1.1071  0.6842
 2506SOL    HW218981   2.221   0.503   6.062  2.9992  0.8122  0.5498
 2507SOL     OW18982   3.612   3.530  12.158  0.1603  0.4477 -0.0943
 2507SOL    HW118983   3.626   3.484  12.241 -1.7506 -2.5281 -1.4186
 2507SOL    HW218984   3.518   3.515  12.163  0.3131 -0.6209 -0.4553
 2508SOL     OW18985   3.917   1.565   9.042  0.0094  0.3204 -0.3758
 2508SOL    HW118986   3.828   1.600   9.050  0.0198  0.6508 -1.6638
 2508SOL    HW218987   3.901   1.484   8.994 -0.0155  0.1552 -0.0870
 2509SOL     OW18988   4.439   0.518   8.626  0.0630  0.7489 -0.6658
 2509SOL    HW118989   4.512   0.510   8.564 -0.2016  1.1506 -1.0355
 2509SOL    HW218990   4.424   0.426   8.648  0.8029  0.9711  0.7324
 2510SOL     OW18991   3.036   0.424   9.538 -0.0397 -0.5741  0.1608
 2510SOL    HW118992   3.096   0.494   9.514 -0.0732 -0.7408 -0.4257
 2510SOL    HW218993   3.028   0.443   9.631 -0.7125  2.2937 -0.5075
 2511SOL     OW18994   2.168   4.516   6.857 -0.1196 -0.4660  0.2105
 2511SOL    HW118995   2.152   4.469   6.776  0.0655  0.0905 -0.1457
 2511SOL    HW218996   2.263   4.504   6.856 -0.0517 -0.1234  2.0148
 2512SOL     OW18997   2.264   4.294   1.809  0.5540  0.0115 -0.3253
 2512SOL    HW118998   2.250   4.379   1.852 -0.0221 -0.4438  0.3830
 2512SOL    HW218999   2.329   4.310   1.740  0.1961 -2.9665 -1.3412
 2513SOL     OW19000   2.587   2.716   0.889  0.4455  0.2879  0.1931
 2513SOL    HW119001   2.566   2.623   0.892  1.5101  0.1128  1.7523
 2513SOL    HW219002   2.519   2.750   0.830 -0.3082 -2.8247 -0.7552
 2514SOL     OW19003   0.237   2.904   2.258  0.3549  0.2473 -0.1892
 2514SOL    HW119004   0.199   2.816   2.255 -2.2402  1.3681 -0.9567
 2514SOL    HW219005   0.242   2.942   2.170 -1.6657 -1.5040 -1.0691
 2515SOL     OW19006   4.090   2.906  14.743  0.0112  0.2175 -0.7242
 2515SOL    HW119007   4.106   2.933  14.834  0.0169 -1.0024 -0.3553
 2515SOL    HW219008   3.995   2.896  14.745  0.2132 -1.6442 -0.2664
 2516SOL     OW19009   4.450   0.889  14.169 -0.3019 -0.3161 -0.1428
 2516SOL    HW119010   4.531   0.839  14.179  1.5410  2.9747  1.0941
 2516SOL    HW219011   4.449   0.919  14.078  1.0878  0.0007 -0.0619
 2517SOL     OW19012   4.337   0.455   5.603 -0.0317  0.3175  0.0375
 2517SOL    HW119013   4.334   0.402   5.683 -2.7836  0.8405  0.2906
 2517SOL    HW219014   4.422   0.444   5.560  0.0371 -1.8900  0.7475
 2518SOL     OW19015   0.876   2.974   3.938  0.1464  0.1444 -0.1581
 2518SOL    HW119016   0.849   2.921   4.013  2.0391  0.7132  0.9347
 2518SOL    HW219017   0.912   2.908   3.880 -0.3522 -1.4402  1.3308
 2519SOL     OW19018   3.504   3.940  13.559  0.0820 -0.7229 -0.3732
 2519SOL    HW119019   3.475   3.971  13.645 -0.2243  0.2360 -0.8213
 2519SOL    HW219020   3.544   3.856  13.583  0.5223 -1.1509 -2.5767
 2520SOL     OW19021   4.412   0.618  11.538 -0.2295 -0.3587 -0.2145
 2520SOL    HW119022   4.329   0.614  11.491 -1.9142  1.7451  2.5970
 2520SOL    HW219023   4.445   0.530  11.520 -0.4028 -0.6384  0.8442
 2521SOL     OW19024   1.102   4.243   6.065 -0.3720  0.1577 -0.3991
 2521SOL    HW119025   1.114   4.323   6.014 -0.1260 -1.3259 -2.6813
 2521SOL    HW219026   1.156   4.174   6.025  2.0454  0.2171  2.7604
 2522SOL     OW19027   4.488   3.863   2.603 -0.3346  0.0689  0.3668
 2522SOL    HW119028   4.405   3.840   2.562 -0.1871  0.9158 -0.4188
 2522SOL    HW219029   4.481   3.817   2.686 -0.9246 -0.4704  0.0161
 2523SOL     OW19030   3.075   0.827   6.366 -0.1316  0.1079  0.9186
 2523SOL    HW119031   3.043   0.889   6.431 -1.3162 -0.1037  0.5369
 2523SOL    HW219032   3.065   0.745   6.415  0.4045 -0.7268 -0.3684
 2524SOL     OW19033   1.519   1.426   3.881 -0.3281  0.0546 -0.2208
 2524SOL    HW119034   1.490   1.514   3.906  0.6073  0.3443 -0.1719
 2524SOL    HW219035   1.430   1.390   3.878 -0.4280  0.4381 -1.7990
 2525SOL     OW19036   1.759   2.945   0.584 -0.6350  0.3002 -0.3674
 2525SOL    HW119037   1.784   2.970   0.495  0.8195  0.3468  0.0560
 2525SOL    HW219038   1.694   2.880   0.558 -2.5036  1.7326  0.8077
 2526SOL     OW19039   3.656   1.230   6.580  0.3263 -0.3725  0.0287
 2526SOL    HW119040   3.651   1.142   6.617  1.0288 -0.0032  1.0190
 2526SOL    HW219041   3.748   1.251   6.601 -0.2590  1.6307  0.6599
 2527SOL     OW19042   2.446   0.934   8.138 -0.3744 -0.4168 -0.0278
 2527SOL    HW119043   2.528   0.945   8.090 -0.1319  0.5656  0.6087
 2527SOL    HW219044   2.454   1.011   8.195  0.0389 -0.6325  0.1981
 2528SOL     OW19045   2.806   3.852   3.301  0.6049  0.0041  0.0726
 2528SOL    HW119046   2.815   3.940   3.264  1.7307 -0.1988 -0.1461
 2528SOL    HW219047   2.799   3.878   3.393 -0.5498 -1.2188  0.3296
 2529SOL     OW19048   2.508   1.177   9.137 -0.0203  0.2770  0.1252
 2529SOL    HW119049   2.496   1.096   9.087 -0.1449  0.0596  0.5072
 2529SOL    HW219050   2.546   1.223   9.062  3.0080 -1.1258  0.7785
 2530SOL     OW19051   2.376   2.148  13.673  0.1552  0.1436 -0.6859
 2530SOL    HW119052   2.454   2.183  13.715 -1.0127 -0.7606  2.2507
 2530SOL    HW219053   2.404   2.151  13.581  0.4005  0.7409 -0.5881
 2531SOL     OW19054   3.739   3.443   4.868 -0.1305  0.4553  0.1652
 2531SOL    HW119055   3.678   3.498   4.917  0.5453  0.5763  0.8624
 2531SOL    HW219056   3.827   3.462   4.900  0.3535 -1.1682 -0.1860
 2532SOL     OW19057   0.943   1.941   3.367  0.4356 -0.7652 -0.1420
 2532SOL    HW119058   0.876   1.963   3.432  1.1722 -1.0666  0.7118
 2532SOL    HW219059   0.926   2.011   3.303  1.6043 -0.0516  0.3267
 2533SOL     OW19060   3.863   1.941   0.762 -0.4408  0.5638  0.1971
 2533SOL    HW119061   3.944   1.941   0.710 -0.2750 -3.1586  0.4500
 2533SOL    HW219062   3.856   1.846   0.773  0.6597  0.0535 -3.7058
 2534SOL     OW19063   3.847   0.436   5.724  0.3197 -0.6109  0.0250
 2534SOL    HW119064   3.914   0.497   5.756  0.1379 -0.7873  0.7328
 2534SOL    HW219065   3.810   0.486   5.651  1.2951  2.0524  1.3517
 2535SOL     OW19066   0.785   3.761  14.989  0.5815 -0.1251 -0.2728
 2535SOL    HW119067   0.778   3.690  14.925 -1.3193  1.0508 -1.3947
 2535SOL    HW219068   0.694   3.789  14.993  0.7450  0.5402 -1.1347
 2536SOL     OW19069   4.129   0.587   4.572  0.6075 -0.8584  0.4870
 2536SOL    HW119070   4.166   0.644   4.640 -1.8550  2.6699 -1.1383
 2536SOL    HW219071   4.189   0.604   4.500  2.4141 -4.8555  1.0446
 2537SOL     OW19072   1.877   4.033   9.552  0.3836  0.6092  0.5257
 2537SOL    HW119073   1.952   4.049   9.610  0.0755 -1.7712  1.5621
 2537SOL    HW219074   1.901   3.951   9.509 -0.6769 -0.5544  2.1693
 2538SOL     OW19075   2.872   2.587   5.329 -0.3132  0.0767 -0.6773
 2538SOL    HW119076   2.938   2.531   5.289 -1.8345 -3.5076  1.9006
 2538SOL    HW219077   2.927   2.661   5.357 -2.0776  1.9841 -2.2291
 2539SOL     OW19078   2.990   0.532   7.429  0.2428 -0.5693  0.2524
 2539SOL    HW119079   2.941   0.495   7.355  1.1453  1.0651 -1.1886
 2539SOL    HW219080   3.078   0.514   7.396  0.5713  0.5198  0.5236
 2540SOL     OW19081   4.564   4.278   6.799  0.5418  0.2228 -0.1318
 2540SOL    HW119082   4.568   4.279   6.895  0.8240 -0.3035 -0.1375
 2540SOL    HW219083   4.592   4.189   6.777  0.2375  0.3066 -0.8577
 2541SOL     OW19084   2.473   2.441   7.666  0.5695  0.1183  0.7493
 2541SOL    HW119085   2.433   2.456   7.580  2.1936  1.2795  0.1877
 2541SOL    HW219086   2.396   2.439   7.722  1.1246  0.3260  1.5202
 2542SOL     OW19087   1.469   4.396   9.359  0.2058  0.4890  1.0568
 2542SOL    HW119088   1.508   4.361   9.279  0.0315 -1.5351  1.8513
 2542SOL    HW219089   1.490   4.487   9.337 -1.5714  1.0840  1.8245
 2543SOL     OW19090   1.537   0.901   5.572 -0.3082 -0.2538  0.7350
 2543SOL    HW119091   1.548   0.880   5.479 -0.3206  1.4626  0.3487
 2543SOL    HW219092   1.562   0.824   5.623  0.5975  0.4518  1.3578
 2544SOL     OW19093   4.017   4.687   2.878 -0.4230 -0.1755  0.2764
 2544SOL    HW119094   3.932   4.718   2.907 -1.5904 -1.5100 -1.6688
 2544SOL    HW219095   4.083   0.001   2.937 -1.0226  1.5008 -0.0611
 2545SOL     OW19096   0.312   1.865  17.267  0.2007 -0.3332  0.3747
 2545SOL    HW119097   0.308   1.951  17.309 -2.3146 -0.4892  0.4480
 2545SOL    HW219098   0.401   1.873  17.233 -1.0317  1.9784 -2.3802
 2546SOL     OW19099   1.827   0.609  17.280  0.1643 -0.6396 -0.1069
 2546SOL    HW119100   1.864   0.545  17.341  2.6428 -0.8914 -1.8349
 2546SOL    HW219101   1.761   0.557  17.235 -3.1007  1.6646  2.0639
 2547SOL     OW19102   1.198   3.510  12.298 -0.1745 -0.5980 -0.4123
 2547SOL    HW119103   1.255   3.443  12.334 -0.8785 -1.5712 -1.1302
 2547SOL    HW219104   1.217   3.496  12.206 -0.2219  1.6374 -0.7821
 2548SOL     OW19105   1.756   3.214  13.245  0.1657  0.1810 -0.8823
 2548SOL    HW119106   1.799   3.136  13.208 -2.3963 -1.7171  0.1094
 2548SOL    HW219107   1.788   3.284  13.189 -0.3149  1.6334  0.6781
 2549SOL     OW19108   1.541   0.556  17.659  0.1137 -0.1585  0.3457
 2549SOL    HW119109   1.518   0.484   0.030 -1.4243 -0.8649 -1.1314
 2549SOL    HW219110   1.504   0.540  17.572 -2.2952  1.8967  0.9849
 2550SOL     OW19111   1.810   2.250   8.209 -0.1048 -0.1796 -0.6824
 2550SOL    HW119112   1.840   2.338   8.227  0.3046 -0.6542  0.9098
 2550SOL    HW219113   1.886   2.192   8.213  1.3371  1.5653 -2.7321
 2551SOL     OW19114   4.109   4.257   5.402  0.3751 -0.1158 -0.5001
 2551SOL    HW119115   4.121   4.351   5.384 -0.1501 -0.2162 -1.3870
 2551SOL    HW219116   4.014   4.256   5.389  0.2335 -1.9175  0.7494
 2552SOL     OW19117   3.321   0.971   3.712  0.2081 -0.1513  0.5612
 2552SOL    HW119118   3.361   0.892   3.747  1.1885  0.1781  0.1877
 2552SOL    HW219119   3.242   0.938   3.669  0.5321 -0.9945  0.6149
 2553SOL     OW19120   3.498   2.801  13.613 -0.0839 -0.0225  0.0448
 2553SOL    HW119121   3.524   2.732  13.674 -2.0144 -0.6073  0.2254
 2553SOL    HW219122   3.494   2.750  13.532  2.1844  0.0402 -0.1143
 2554SOL     OW19123   4.024   3.247   5.895  0.2801  0.4371  0.1404
 2554SOL    HW119124   3.960   3.228   5.964  1.1864 -0.7259  0.6741
 2554SOL    HW219125   4.088   3.304   5.939 -0.1190  0.2911  0.9099
 2555SOL     OW19126   1.694   1.209   3.632  0.4945  0.7778 -0.1461
 2555SOL    HW119127   1.730   1.293   3.663  1.1348  1.0146 -1.4812
 2555SOL    HW219128   1.731   1.193   3.545 -0.3880  0.3912 -0.4415
 2556SOL     OW19129   4.329   2.831   6.187  0.6195  0.2345  0.2152
 2556SOL    HW119130   4.310   2.863   6.275  2.0380 -0.2919  0.7196
 2556SOL    HW219131   4.281   2.895   6.135  1.1641  0.8723  0.4942
 2557SOL     OW19132   1.725   2.479  15.713 -0.0670 -0.3648 -0.7035
 2557SOL    HW119133   1.794   2.508  15.653  0.1116  0.2627 -0.2020
 2557SOL    HW219134   1.756   2.395  15.746 -1.5001 -0.0965  1.3171
 2558SOL     OW19135   1.349   0.975   0.459 -0.3239 -0.3046  0.5888
 2558SOL    HW119136   1.317   0.888   0.482  1.5369 -1.1199  0.0739
 2558SOL    HW219137   1.420   0.957   0.398 -0.1102  1.7588  0.2307
 2559SOL     OW19138   2.432   4.088  14.862  0.3076  0.0005 -0.1203
 2559SOL    HW119139   2.518   4.066  14.899  1.4245  1.8892 -1.6124
 2559SOL    HW219140   2.458   4.178  14.843 -1.3626  0.5172  0.0445
 2560SOL     OW19141   3.446   1.523  14.326  0.0911 -0.4235  0.2275
 2560SOL    HW119142   3.433   1.567  14.410  0.9371  0.5608 -0.1599
 2560SOL    HW219143   3.399   1.589  14.276  1.4732 -0.3888 -1.0067
 2561SOL     OW19144   4.240   2.899  12.663  0.5017  0.2197  0.0006
 2561SOL    HW119145   4.188   2.945  12.597 -0.4880  0.3890  0.8960
 2561SOL    HW219146   4.325   2.909  12.621 -0.7980 -3.7020 -3.5957
 2562SOL     OW19147   3.063   1.976   2.019  0.0915 -0.2439 -0.2439
 2562SOL    HW119148   3.016   1.942   2.095  3.6804 -3.3622  0.5316
 2562SOL    HW219149   2.986   1.992   1.964  0.2354 -1.4829 -0.7982
 2563SOL     OW19150   2.831   4.397   5.855  0.2404  0.1303 -0.4849
 2563SOL    HW119151   2.742   4.380   5.823  0.4714 -0.5651 -0.7473
 2563SOL    HW219152   2.891   4.378   5.783 -0.2798 -2.0496 -0.3446
 2564SOL     OW19153   2.081   4.394   2.562 -0.5276 -0.4445 -0.2829
 2564SOL    HW119154   2.022   4.381   2.636 -0.3316 -0.0702 -0.0606
 2564SOL    HW219155   2.083   4.490   2.551 -0.0977 -0.4341 -0.1102
 2565SOL     OW19156   0.715   1.990   3.538  0.1674  0.9259  0.4345
 2565SOL    HW119157   0.620   1.992   3.529  0.4167  0.3201 -2.2902
 2565SOL    HW219158   0.732   1.932   3.613 -0.7291 -0.7125 -0.6425
 2566SOL     OW19159   0.247   2.649   6.633 -0.0911  0.1079  0.2007
 2566SOL    HW119160   0.215   2.574   6.585 -0.2917  0.8009 -0.7463
 2566SOL    HW219161   0.325   2.663   6.579  0.1972 -0.5699  0.4473
 2567SOL     OW19162   3.602   2.174   0.047  0.0469  0.5343 -0.3504
 2567SOL    HW119163   3.689   2.212   0.059  0.5133 -0.7226  0.2415
 2567SOL    HW219164   3.560   2.200   0.129 -0.3493  0.4981 -0.5464
 2568SOL     OW19165   2.004   0.876   4.846  0.3995  0.0393  0.3861
 2568SOL    HW119166   1.943   0.949   4.855 -0.2852 -0.2478 -1.9294
 2568SOL    HW219167   2.068   0.898   4.915  0.7847  0.8316 -0.2104
 2569SOL     OW19168   3.061   3.487   1.745  0.6203  0.1017 -0.0890
 2569SOL    HW119169   2.999   3.557   1.761  0.9628  0.2366  0.6585
 2569SOL    HW219170   3.128   3.536   1.698  1.8640 -0.9492  0.5751
 2570SOL     OW19171   1.227   3.834   8.248 -0.3080  0.6018 -0.2078
 2570SOL    HW119172   1.199   3.780   8.321 -3.4769  1.2095 -0.9816
 2570SOL    HW219173   1.280   3.774   8.195 -0.1740  0.7196 -0.2068
 2571SOL     OW19174   3.202   4.414   1.437 -0.3560  0.1063 -0.3984
 2571SOL    HW119175   3.296   4.433   1.442 -0.3036  0.1017 -1.4553
 2571SOL    HW219176   3.193   4.362   1.358  0.4259 -1.1842  0.3502
 2572SOL     OW19177   2.195   4.674   2.395 -0.0894 -0.1573 -0.5930
 2572SOL    HW119178   2.141   4.695   2.472 -3.0843  1.2304 -3.0799
 2572SOL    HW219179   2.123   4.639   2.341  0.4790  0.0963 -1.5034
 2573SOL     OW19180   4.247   0.429  16.820 -0.1498 -0.7897 -0.0555
 2573SOL    HW119181   4.228   0.361  16.755  0.3694  0.0622 -1.0852
 2573SOL    HW219182   4.295   0.383  16.889  1.5258  2.3808  0.8558
 2574SOL     OW19183   1.018   4.529   3.309 -0.0354  0.6072  0.1388
 2574SOL    HW119184   1.027   4.609   3.361  0.1953  0.7027 -0.0478
 2574SOL    HW219185   0.965   4.569   3.240 -0.1793  0.2914  0.0691
 2575SOL     OW19186   2.666   3.157   5.045 -0.7039  0.0627 -0.2701
 2575SOL    HW119187   2.671   3.249   5.068 -0.9951  0.0281 -0.0718
 2575SOL    HW219188   2.674   3.112   5.129  2.0355 -0.3998 -0.7475
 2576SOL     OW19189   1.229   2.580   1.232 -0.0181 -0.3218 -0.3953
 2576SOL    HW119190   1.134   2.582   1.227 -0.0895 -0.0561  1.0803
 2576SOL    HW219191   1.249   2.654   1.174  1.1851 -0.6399 -0.4020
 2577SOL     OW19192   1.000   2.912   7.269 -0.2526  0.2521 -0.4083
 2577SOL    HW119193   0.928   2.862   7.229 -0.5113 -1.1012  1.7900
 2577SOL    HW219194   1.073   2.858   7.240 -0.8610  1.1328 -3.5888
 2578SOL     OW19195   2.494   1.940   4.670 -0.4048  0.2997  0.3063
 2578SOL    HW119196   2.561   1.872   4.673  0.3677  1.1508  2.7453
 2578SOL    HW219197   2.549   2.018   4.681 -1.9397  1.5645 -0.9507
 2579SOL     OW19198   2.545   3.349  15.872 -0.0232  0.5136  0.4951
 2579SOL    HW119199   2.499   3.396  15.802  1.5332  0.0539 -0.8370
 2579SOL    HW219200   2.610   3.300  15.822  0.6451  1.3696  0.5219
 2580SOL     OW19201   0.096   4.164   4.753 -0.6816  0.3981 -0.2105
 2580SOL    HW119202   0.127   4.245   4.712 -0.4696  1.1189  1.4013
 2580SOL    HW219203   0.005   4.189   4.770 -1.4281 -1.8935 -0.7297
 2581SOL     OW19204   2.755   0.315   4.543 -0.1500 -0.5600  0.5431
 2581SOL    HW119205   2.678   0.372   4.545 -0.2476 -0.6197 -1.5259
 2581SOL    HW219206   2.736   0.241   4.600 -1.9199  1.3486  2.4637
 2582SOL     OW19207   2.889   1.131   5.046 -0.0724  0.1440 -0.4905
 2582SOL    HW119208   2.915   1.217   5.013  1.0557 -1.4778 -3.8410
 2582SOL    HW219209   2.924   1.131   5.135 -0.7521  0.3705 -0.2218
 2583SOL     OW19210   3.445   2.988  14.278  0.0586  0.1280 -0.3395
 2583SOL    HW119211   3.420   3.080  14.286  0.5299  0.2737 -0.5612
 2583SOL    HW219212   3.362   2.955  14.243  0.1919 -0.3249 -0.2297
 2584SOL     OW19213   1.829   4.167   3.389 -0.8660  0.1452 -0.1424
 2584SOL    HW119214   1.834   4.113   3.310  3.1550  0.0466  0.1744
 2584SOL    HW219215   1.851   4.110   3.462  0.2282 -2.7619 -2.7058
 2585SOL     OW19216   1.804   2.160   3.206  0.3467  0.1294  0.0255
 2585SOL    HW119217   1.709   2.156   3.214  0.3227 -0.2530 -0.4096
 2585SOL    HW219218   1.821   2.138   3.297 -0.1513  0.7662  0.2721
 2586SOL     OW19219   3.442   3.282   7.031 -0.0187  0.2169 -1.1482
 2586SOL    HW119220   3.497   3.206   7.051 -0.4495  1.3184  4.2208
 2586SOL    HW219221   3.426   3.274   6.937  0.6746 -0.2615 -1.2227
 2587SOL     OW19222   1.927   4.520   6.257  0.1599 -0.3454 -0.1425
 2587SOL    HW119223   1.963   4.517   6.346 -0.9034  0.6071  0.3007
 2587SOL    HW219224   1.837   4.534   6.283  0.8273  0.7492  1.5655
 2588SOL     OW19225   4.244   1.351   7.138  0.2644  0.3453  0.4406
 2588SOL    HW119226   4.237   1.333   7.231  1.1898  0.2059  0.4848
 2588SOL    HW219227   4.158   1.337   7.098 -0.1067  0.6823  1.1143
 2589SOL     OW19228   1.064   2.834  14.999  1.1348 -0.4123  0.0689
 2589SOL    HW119229   1.105   2.838  15.086 -0.2722 -0.3098  0.7269
 2589SOL    HW219230   1.036   2.923  14.982 -1.6736 -1.0181  1.6417
 2590SOL     OW19231   0.846   1.110  17.120  0.2139 -0.1392 -0.6424
 2590SOL    HW119232   0.831   1.193  17.166  1.4140 -1.4461  2.1525
 2590SOL    HW219233   0.776   1.056  17.157 -0.3337  1.5395  0.7554
 2591SOL     OW19234   4.456   0.972  15.358  0.3641  0.4235 -0.2541
 2591SOL    HW119235   4.535   0.921  15.377  0.6349 -0.1850 -3.1246
 2591SOL    HW219236   4.423   0.922  15.284 -0.0180 -0.6231  0.6079
 2592SOL     OW19237   3.542   0.425   2.710  0.6049  0.2369 -0.0989
 2592SOL    HW119238   3.618   0.429   2.768 -0.7628  0.9391  1.6484
 2592SOL    HW219239   3.577   0.453   2.625  1.7690 -0.9187  0.0134
 2593SOL     OW19240   4.184   1.509  11.125 -0.3564 -0.0050 -0.2387
 2593SOL    HW119241   4.233   1.435  11.162 -1.0974 -1.0926 -1.4247
 2593SOL    HW219242   4.154   1.549  11.206  0.1047 -2.0625  0.9596
 2594SOL     OW19243   3.345   2.525   6.995 -0.1198  0.5268  0.0038
 2594SOL    HW119244   3.257   2.534   7.030 -0.3429  1.0042 -0.6895
 2594SOL    HW219245   3.325   2.584   6.922 -0.6694 -1.2753 -1.3096
 2595SOL     OW19246   2.750   0.577   9.767 -0.1368  0.0896 -0.0202
 2595SOL    HW119247   2.768   0.616   9.852  1.4942  2.4004 -1.4153
 2595SOL    HW219248   2.777   0.485   9.775  0.5808  0.3838  0.8887
 2596SOL     OW19249   3.658   2.732   9.853  0.0993  0.1831 -0.1476
 2596SOL    HW119250   3.575   2.770   9.823 -0.4169  1.2179  2.5342
 2596SOL    HW219251   3.637   2.710   9.944 -0.4478  0.7902 -0.1199
 2597SOL     OW19252   4.395   1.955   9.499  0.3434 -0.0971  0.9851
 2597SOL    HW119253   4.341   1.893   9.451 -1.1847  1.1558  1.0944
 2597SOL    HW219254   4.476   1.939   9.451 -0.0042  1.4452 -0.1323
 2598SOL     OW19255   2.145   1.260  13.421 -0.5857 -0.2447  1.1441
 2598SOL    HW119256   2.122   1.311  13.344 -1.7072 -2.0004  0.3271
 2598SOL    HW219257   2.089   1.185  13.404  0.9019 -1.0886  0.0095
 2599SOL     OW19258   2.553   2.769  10.806  0.3439  0.0180 -0.2748
 2599SOL    HW119259   2.540   2.674  10.811  1.9740 -0.2822 -1.5862
 2599SOL    HW219260   2.635   2.766  10.756  0.1482  3.2761 -0.8068
 2600SOL     OW19261   3.250   1.410   4.502  0.3251  0.5655  0.0398
 2600SOL    HW119262   3.249   1.423   4.596 -1.8586  0.5173  0.0189
 2600SOL    HW219263   3.326   1.464   4.480  0.8171  0.4300  1.4432
 2601SOL     OW19264   1.839   2.215   5.309  0.6534 -0.8009 -0.1087
 2601SOL    HW119265   1.840   2.204   5.214 -0.6543 -0.9534 -0.1110
 2601SOL    HW219266   1.888   2.135   5.327  2.0541  0.4153  1.4172
 2602SOL     OW19267   2.114   4.007   9.736 -0.1314 -0.1282 -0.3052
 2602SOL    HW119268   2.175   4.061   9.786  0.9665  0.7230 -2.5590
 2602SOL    HW219269   2.084   3.955   9.810  0.1743 -0.3057 -0.3053
 2603SOL     OW19270   4.576   4.126  16.532  0.0518  0.2101 -0.0603
 2603SOL    HW119271   4.629   4.132  16.612 -0.2874  0.7912  0.1300
 2603SOL    HW219272   4.617   4.195  16.480 -1.9908  3.1934  2.2591
 2604SOL     OW19273   4.412   2.116   5.313 -0.1441 -0.1539 -0.3297
 2604SOL    HW119274   4.366   2.051   5.367 -3.2805  1.3216 -1.2187
 2604SOL    HW219275   4.349   2.150   5.249 -0.6695  1.4113  1.0273
 2605SOL     OW19276   0.534   0.440   5.948  0.1609  0.4668 -0.1472
 2605SOL    HW119277   0.463   0.395   5.994 -0.1071  0.6519 -0.3815
 2605SOL    HW219278   0.612   0.409   5.995  0.2294  1.4203  0.3647
 2606SOL     OW19279   2.176   3.645   5.015 -0.2553 -0.2393  0.1460
 2606SOL    HW119280   2.260   3.604   4.993 -0.4020  1.7207 -4.1604
 2606SOL    HW219281   2.194   3.726   4.967 -3.9892 -0.1167 -1.0252
 2607SOL     OW19282   2.932   4.141   6.324  0.2717 -0.0663  0.6106
 2607SOL    HW119283   2.984   4.215   6.355  3.4658 -1.9603 -0.2065
 2607SOL    HW219284   2.895   4.168   6.240  1.3224 -1.3328 -0.2532
 2608SOL     OW19285   3.661   0.524   4.279 -0.0187 -0.2021  0.4777
 2608SOL    HW119286   3.693   0.602   4.234  0.6391 -0.4224  0.5632
 2608SOL    HW219287   3.647   0.462   4.207  2.1621 -1.5728  1.2283
 2609SOL     OW19288   1.462   2.108  15.871 -0.3334 -0.1391  0.2882
 2609SOL    HW119289   1.376   2.097  15.912  0.8882  1.5694  3.3275
 2609SOL    HW219290   1.440   2.087  15.780 -1.7526  1.2382  0.3057
 2610SOL     OW19291   4.720   4.038   3.856 -0.3250  0.3339  0.2770
 2610SOL    HW119292   4.685   3.967   3.803  2.5692 -1.5906  0.9556
 2610SOL    HW219293   0.046   4.096   3.797  1.5269 -0.0646  1.3653
 2611SOL     OW19294   4.650   0.848   0.044 -0.1994 -0.4187 -0.2645
 2611SOL    HW119295   4.641   0.821  17.640 -1.4518 -0.8067 -0.0207
 2611SOL    HW219296   4.655   0.762   0.085 -0.4264 -1.1480 -1.7748
 2612SOL     OW19297   3.583   3.955   1.580  0.4668  0.0476  0.3427
 2612SOL    HW119298   3.620   3.993   1.660 -2.2254  2.9541  0.1808
 2612SOL    HW219299   3.624   4.012   1.516  0.0413  0.9384  0.8748
 2613SOL     OW19300   2.943   0.042   5.040  0.7364  0.0431  0.7880
 2613SOL    HW119301   2.908   0.101   5.108 -1.6427 -0.7252  0.2216
 2613SOL    HW219302   2.955   0.105   4.969 -2.9104  0.8822  0.9344
 2614SOL     OW19303   0.288   2.091   8.317  0.0195  0.3660 -0.1156
 2614SOL    HW119304   0.341   2.033   8.372 -0.0089  1.3227  0.9295
 2614SOL    HW219305   0.358   2.108   8.254  1.6277 -1.8813  1.0433
 2615SOL     OW19306   2.711   1.750  15.621  0.3053  0.0688 -0.4272
 2615SOL    HW119307   2.641   1.789  15.674 -1.5129 -3.2164 -0.4393
 2615SOL    HW219308   2.763   1.830  15.615  0.2029  0.2374  0.9687
 2616SOL     OW19309   4.224   1.909  13.755 -0.6407 -0.2229 -0.5088
 2616SOL    HW119310   4.318   1.914  13.742 -0.4736  0.5445  1.0872
 2616SOL    HW219311   4.228   1.876  13.845 -0.8516  1.0558 -0.0340
 2617SOL     OW19312   3.688   3.053  17.551  0.2767  0.6260  0.0133
 2617SOL    HW119313   3.602   3.062  17.591 -0.5965  0.6243 -1.8442
 2617SOL    HW219314   3.688   2.962  17.523 -0.1463  0.8511 -0.7259
 2618SOL     OW19315   3.209   2.344  13.035 -0.0594  0.0223  0.1091
 2618SOL    HW119316   3.261   2.424  13.037 -0.5665  0.3525  0.2342
 2618SOL    HW219317   3.127   2.382  13.068 -0.6886 -0.7431 -0.5486
 2619SOL     OW19318   4.515   4.693   2.051  0.0804 -0.1284  0.1801
 2619SOL    HW119319   4.435   4.686   1.998 -1.3578 -2.6919  2.6607
 2619SOL    HW219320   4.519   0.067   2.056  0.9466 -0.2526  1.5501
 2620SOL     OW19321   0.071   1.094   5.019  0.0249  0.2415 -0.4629
 2620SOL    HW119322   4.704   1.103   4.983  2.2521  0.6656 -5.9079
 2620SOL    HW219323   0.081   1.174   5.071  1.1116  1.6091 -2.7603
 2621SOL     OW19324   1.981   3.602  16.379 -0.6631 -0.6113 -0.0840
 2621SOL    HW119325   2.015   3.625  16.466  1.6654 -1.0485 -0.8691
 2621SOL    HW219326   1.997   3.507  16.378  1.1711 -0.2484 -4.3474
 2622SOL     OW19327   1.546   1.583   7.944  0.2504  0.2341  0.7412
 2622SOL    HW119328   1.620   1.638   7.919  0.5637 -0.9145 -0.8910
 2622SOL    HW219329   1.604   1.516   7.980  0.5894  0.6009  0.8758
 2623SOL     OW19330   1.427   2.372  11.970 -0.3479  0.0858  0.1477
 2623SOL    HW119331   1.418   2.432  12.044 -0.7635  2.0609 -1.5088
 2623SOL    HW219332   1.339   2.376  11.934 -0.3607 -1.6875 -0.0067
 2624SOL     OW19333   2.691   2.597   7.128 -0.1208  0.2387 -0.1081
 2624SOL    HW119334   2.702   2.691   7.112 -3.0250  0.4095 -0.9924
 2624SOL    HW219335   2.753   2.562   7.064  0.7457  0.5808  0.5421
 2625SOL     OW19336   0.821   3.699   0.532 -0.0907  0.2650  0.2913
 2625SOL    HW119337   0.740   3.662   0.498 -0.0241 -1.2437  1.7854
 2625SOL    HW219338   0.813   3.788   0.498  4.1474  0.4944 -0.1781
 2626SOL     OW19339   2.503   0.017   1.173 -0.9466 -0.5366  0.0258
 2626SOL    HW119340   2.433   0.074   1.206 -0.4120  0.2762 -0.2367
 2626SOL    HW219341   2.503   0.042   1.081  1.1460  0.3860  0.2673
 2627SOL     OW19342   3.008   2.109   6.605 -0.5250  0.0039 -0.4013
 2627SOL    HW119343   3.076   2.087   6.541 -1.4745  0.1377 -1.4578
 2627SOL    HW219344   2.934   2.058   6.572  0.3869 -0.9256 -1.0262
 2628SOL     OW19345   0.695   0.960  15.985 -0.5457 -0.1889 -0.3864
 2628SOL    HW119346   0.698   0.864  15.979  0.9512 -0.2581  1.4193
 2628SOL    HW219347   0.669   0.987  15.897 -0.2814 -0.5902 -0.5882
 2629SOL     OW19348   3.668   2.457  12.488 -0.0838 -0.5459 -0.1681
 2629SOL    HW119349   3.667   2.385  12.551 -0.1392 -1.6724 -1.4621
 2629SOL    HW219350   3.709   2.520  12.548 -0.7284  0.3613 -0.6945
 2630SOL     OW19351   2.298   1.200   5.989 -0.0759 -0.1143 -0.0211
 2630SOL    HW119352   2.393   1.190   5.979 -0.1117 -0.1685 -0.3250
 2630SOL    HW219353   2.264   1.235   5.907  1.9470  1.6255 -0.1149
 2631SOL     OW19354   4.626   1.607   8.676  0.1019  0.0028  0.6924
 2631SOL    HW119355   4.673   1.525   8.688  1.0548  0.0891 -2.6259
 2631SOL    HW219356   4.689   1.678   8.688  1.4524 -1.0845 -0.0552
 2632SOL     OW19357   2.151   2.389   7.070  0.5419 -0.0212 -0.4745
 2632SOL    HW119358   2.139   2.473   7.114 -0.4938  0.0497 -0.8883
 2632SOL    HW219359   2.063   2.353   7.059  0.7598 -1.1105  1.2083
 2633SOL     OW19360   2.282   1.290   2.344  0.3615 -0.0776  0.4613
 2633SOL    HW119361   2.365   1.273   2.300 -0.7393  0.3841 -1.7800
 2633SOL    HW219362   2.289   1.214   2.402  1.5867 -0.8656 -0.7153
 2634SOL     OW19363   3.112   4.493  11.318  0.5813  0.4777  0.1386
 2634SOL    HW119364   3.081   4.416  11.271  0.1477 -0.3004  1.6945
 2634SOL    HW219365   3.024   4.528  11.329 -0.1399 -1.6349  1.0958
 2635SOL     OW19366   1.590   3.993   4.743 -0.4323  0.5183  0.3272
 2635SOL    HW119367   1.657   4.040   4.693 -1.5992 -0.3150 -2.0320
 2635SOL    HW219368   1.553   3.948   4.668 -2.9349  0.6150  1.4921
 2636SOL     OW19369   0.291   3.110   5.092 -0.2081  0.3668 -0.4453
 2636SOL    HW119370   0.260   3.023   5.115  0.7713  0.2071  0.2802
 2636SOL    HW219371   0.327   3.094   5.005  0.8812  1.8393 -0.2712
 2637SOL     OW19372   3.239   2.686   9.664 -0.3285  0.1282  0.3001
 2637SOL    HW119373   3.269   2.596   9.651 -0.6898  0.0666 -0.0859
 2637SOL    HW219374   3.178   2.677   9.738 -0.0620  0.3446  0.5464
 2638SOL     OW19375   2.282   1.401   3.925  0.0401 -0.2615 -0.0024
 2638SOL    HW119376   2.271   1.441   3.839 -0.2525  2.3940  1.2598
 2638SOL    HW219377   2.193   1.370   3.942 -0.6778  2.0629  0.4426
 2639SOL     OW19378   0.148   2.759   6.193  0.5640  0.1950 -0.2172
 2639SOL    HW119379   0.057   2.752   6.222  0.7819  0.8108  0.6256
 2639SOL    HW219380   0.138   2.817   6.117  0.6168 -1.7463 -1.6959
 2640SOL     OW19381   0.267   0.031   1.856  0.7417  0.1818 -0.0757
 2640SOL    HW119382   0.309   4.713   1.932 -1.4133 -2.5945 -0.2669
 2640SOL    HW219383   0.302   0.119   1.864  1.1024  0.0886 -0.6152
 2641SOL     OW19384   1.662   1.155   2.046 -0.4631  0.9863 -0.0127
 2641SOL    HW119385   1.672   1.060   2.051  1.0102  1.1005 -0.6381
 2641SOL    HW219386   1.729   1.178   1.981  0.9951  0.0387  1.1364
 2642SOL     OW19387   3.048   3.319  13.929  0.1892 -0.5824  0.0412
 2642SOL    HW119388   3.008   3.258  13.866  1.6490  0.5020 -1.9448
 2642SOL    HW219389   3.122   3.268  13.964  0.2100 -1.5139 -1.3402
 2643SOL     OW19390   0.714   0.172   3.629 -0.5420 -0.3388  0.0202
 2643SOL    HW119391   0.676   0.224   3.700  0.4837 -0.2499  0.4983
 2643SOL    HW219392   0.724   0.090   3.678 -0.5629  0.9404  2.1567
 2644SOL     OW19393   0.734   3.904  11.697 -0.0486 -0.0528 -0.6406
 2644SOL    HW119394   0.725   3.999  11.710 -0.2750 -0.1590 -0.0562
 2644SOL    HW219395   0.651   3.869  11.729  0.5758 -0.7596  0.2020
 2645SOL     OW19396   4.427   4.486  17.325 -0.0667 -0.0973  0.7109
 2645SOL    HW119397   4.353   4.545  17.341 -0.6440 -0.3741 -0.8361
 2645SOL    HW219398   4.378   4.404  17.327 -1.3494  0.6612  0.6350
 2646SOL     OW19399   3.872   4.160  14.723  0.0925  0.4111  0.2241
 2646SOL    HW119400   3.832   4.115  14.798 -1.7213 -1.8012 -2.0939
 2646SOL    HW219401   3.820   4.241  14.720 -2.1021 -0.9893  0.3210
 2647SOL     OW19402   2.548   1.385  12.976 -0.2974 -0.3814  0.7635
 2647SOL    HW119403   2.455   1.377  12.998 -0.8911 -2.3612 -2.3462
 2647SOL    HW219404   2.554   1.471  12.934 -0.9837  0.2862  2.0420
 2648SOL     OW19405   2.228   0.792   3.402  0.3226 -0.5001  0.4855
 2648SOL    HW119406   2.225   0.816   3.310 -2.5035  0.3709  0.8183
 2648SOL    HW219407   2.248   0.878   3.440  1.7346 -1.5104  2.0431
 2649SOL     OW19408   1.725   3.465  17.027  0.8289 -0.2511  0.3201
 2649SOL    HW119409   1.768   3.382  17.006 -0.2022 -0.1947 -2.0354
 2649SOL    HW219410   1.800   3.516  17.059  0.8641 -0.4596  0.5680
 2650SOL     OW19411   0.040   2.621   1.204 -0.0750  0.1515 -0.2592
 2650SOL    HW119412   0.083   2.536   1.206  0.5125  0.4551 -0.1441
 2650SOL    HW219413   4.669   2.595   1.209 -0.3755  1.1989 -0.3750
 2651SOL     OW19414   3.307   2.902   1.434 -0.4795  0.1084  0.7472
 2651SOL    HW119415   3.234   2.953   1.400 -0.3847 -0.6220 -0.5400
 2651SOL    HW219416   3.287   2.893   1.527 -0.1651 -2.1420  0.5999
 2652SOL     OW19417   4.602   3.793   3.084 -0.7029 -0.3088 -0.7543
 2652SOL    HW119418   4.636   3.881   3.098 -1.7783 -0.1956  1.0912
 2652SOL    HW219419   4.605   3.750   3.170 -2.2232  0.9672 -0.0706
 2653SOL     OW19420   2.601   2.445   9.503 -0.2590 -0.7145  0.3170
 2653SOL    HW119421   2.524   2.388   9.499 -1.1971  0.6403 -1.0609
 2653SOL    HW219422   2.650   2.396   9.568  2.1763  0.8686 -0.3087
 2654SOL     OW19423   2.292   0.588  16.949 -0.4554  0.1457 -0.2203
 2654SOL    HW119424   2.238   0.588  17.028  0.4798 -0.4542  0.4312
 2654SOL    HW219425   2.242   0.642  16.889 -0.6759  1.2415  0.9541
 2655SOL     OW19426   1.636   2.637   6.879  0.4846 -0.6232  0.3084
 2655SOL    HW119427   1.640   2.729   6.905 -0.3695  0.0420 -1.9013
 2655SOL    HW219428   1.616   2.653   6.787 -1.5413 -0.8282  0.7051
 2656SOL     OW19429   3.614   3.163   0.798 -0.2432  0.3385 -0.8640
 2656SOL    HW119430   3.677   3.126   0.736 -0.6376  1.8128 -2.1228
 2656SOL    HW219431   3.543   3.199   0.744 -0.7499 -2.3770 -1.9916
 2657SOL     OW19432   0.374   3.711   4.470  0.0621  0.3804  0.0147
 2657SOL    HW119433   0.440   3.730   4.537  1.5060 -0.6709 -1.1085
 2657SOL    HW219434   0.391   3.618   4.452  0.3369  0.2242  1.0994
 2658SOL     OW19435   1.503   0.870   9.587  0.1604 -0.1582  0.2046
 2658SOL    HW119436   1.506   0.800   9.653 -1.2960  0.2693  0.7227
 2658SOL    HW219437   1.426   0.919   9.617 -0.0380  1.1244 -2.4610
 2659SOL     OW19438   3.533   2.613   5.925  0.3993 -0.1650 -0.0931
 2659SOL    HW119439   3.593   2.543   5.900 -0.4406 -0.7158 -0.5785
 2659SOL    HW219440   3.594   2.659   5.983 -0.7731  0.6608  0.4777
 2660SOL     OW19441   1.567   3.147   4.602 -0.4729 -0.0268 -0.1796
 2660SOL    HW119442   1.621   3.074   4.633  1.7475  1.6269 -0.1137
 2660SOL    HW219443   1.482   3.104   4.600  1.0709 -3.0573  0.2325
 2661SOL     OW19444   1.392   4.289   6.371 -0.2005 -0.1110 -0.1401
 2661SOL    HW119445   1.465   4.236   6.339  0.2901  1.0172 -0.8766
 2661SOL    HW219446   1.395   4.351   6.298 -0.7916 -0.9009 -0.8397
 2662SOL     OW19447   4.351   3.134   7.299 -0.5245 -0.2893  0.4129
 2662SOL    HW119448   4.350   3.169   7.210  1.6049 -0.2775  0.3792
 2662SOL    HW219449   4.292   3.202   7.332  1.5714  2.0721 -0.6890
 2663SOL     OW19450   3.178   3.579   7.725  0.2472  0.2570  0.0136
 2663SOL    HW119451   3.247   3.524   7.762 -0.2560 -0.3996 -0.0259
 2663SOL    HW219452   3.237   3.647   7.695 -0.6173  0.6604 -0.7551
 2664SOL     OW19453   4.104   1.727  17.522 -0.4968  0.2832  0.0474
 2664SOL    HW119454   4.163   1.794  17.487  0.2831 -0.1012  0.6222
 2664SOL    HW219455   4.169   1.657  17.535 -1.3413 -0.0936  2.2760
 2665SOL     OW19456   2.775   3.391   5.189  0.1479 -0.9103 -0.2480
 2665SOL    HW119457   2.832   3.462   5.160 -3.5425  1.3914 -1.9263
 2665SOL    HW219458   2.726   3.443   5.252 -2.1270 -0.2823 -2.5349
 2666SOL     OW19459   1.857   3.137   5.388  0.2487  0.0654 -0.0759
 2666SOL    HW119460   1.874   3.062   5.444  1.4779  1.4947  1.4625
 2666SOL    HW219461   1.838   3.215   5.439  0.9507 -0.0031  0.2821
 2667SOL     OW19462   2.577   4.588   3.119  0.4912  0.5888 -0.5939
 2667SOL    HW119463   2.512   4.603   3.050 -0.4632  0.5210  0.3008
 2667SOL    HW219464   2.517   4.562   3.188  0.0765  1.1421 -0.7485
 2668SOL     OW19465   3.729   0.351   7.140 -0.1351  0.0274 -0.7838
 2668SOL    HW119466   3.797   0.292   7.107 -0.1989  0.3787 -1.5406
 2668SOL    HW219467   3.651   0.302   7.112 -1.1913  0.6412  1.0893
 2669SOL     OW19468   4.393   1.556   5.970 -0.3556  0.5069  0.8726
 2669SOL    HW119469   4.386   1.647   5.999 -0.5875  1.1790 -1.2954
 2669SOL    HW219470   4.305   1.533   5.998 -1.1271  2.1563 -0.2440
 2670SOL     OW19471   2.719   2.509   2.638 -0.6620 -0.0138 -0.2493
 2670SOL    HW119472   2.799   2.526   2.588  0.1409 -0.3839  0.9007
 2670SOL    HW219473   2.755   2.489   2.725 -2.3679  0.3133  0.5181
 2671SOL     OW19474   1.743   2.246   5.977  0.4594  0.2310  0.3326
 2671SOL    HW119475   1.788   2.286   6.052 -0.2405  3.0192 -0.7522
 2671SOL    HW219476   1.815   2.212   5.923  1.0542  2.9842 -0.5964
 2672SOL     OW19477   3.162   2.227   6.793  0.0719 -0.3776 -0.4877
 2672SOL    HW119478   3.104   2.222   6.869 -0.8228  3.4303 -0.9388
 2672SOL    HW219479   3.117   2.176   6.726 -1.8333 -2.1383  2.1163
 2673SOL     OW19480   3.797   2.406   1.529  0.0231  0.5837 -0.4201
 2673SOL    HW119481   3.884   2.380   1.558  0.3679  0.7677 -1.3016
 2673SOL    HW219482   3.740   2.386   1.603  1.1098 -0.3606  0.1614
 2674SOL     OW19483   3.414   3.782   5.535  0.1254  0.1091  0.5046
 2674SOL    HW119484   3.443   3.708   5.588 -0.4915 -1.5274 -1.4250
 2674SOL    HW219485   3.336   3.825   5.568  0.2850 -0.6605  1.8633
 2675SOL     OW19486   4.257   2.505   6.230 -0.1248 -0.4160 -0.2000
 2675SOL    HW119487   4.338   2.549   6.204  0.2014 -1.8612 -1.6194
 2675SOL    HW219488   4.194   2.549   6.171 -0.2429  0.2192  0.3963
 2676SOL     OW19489   1.564   2.139  16.138 -0.0844 -0.0002  0.0906
 2676SOL    HW119490   1.642   2.177  16.098 -2.7353  1.8993 -3.2219
 2676SOL    HW219491   1.518   2.112  16.059 -0.0222 -0.5250  0.2353
 2677SOL     OW19492   4.060   4.288   6.402  0.1106 -0.5351  0.0100
 2677SOL    HW119493   4.059   4.384   6.404 -2.8647 -0.5995  1.7032
 2677SOL    HW219494   4.118   4.287   6.326  1.1403 -1.9341  0.8026
 2678SOL     OW19495   1.935   4.314   4.674  0.2038 -0.2492  0.1181
 2678SOL    HW119496   2.024   4.293   4.702  0.3969  1.3049  0.6368
 2678SOL    HW219497   1.882   4.278   4.745  0.0807  0.5459  0.4207
 2679SOL     OW19498   4.533   4.215   8.930  0.2722 -0.0896 -0.4223
 2679SOL    HW119499   4.532   4.307   8.957  2.3150 -0.5895  1.3738
 2679SOL    HW219500   4.444   4.188   8.953  1.1434 -0.0839  2.8853
 2680SOL     OW19501   0.255   1.177   7.948  0.1382 -0.1360  0.0892
 2680SOL    HW119502   0.291   1.106   7.895 -0.2982 -0.5226  0.3181
 2680SOL    HW219503   0.336   1.199   7.995 -0.2487 -1.3729  1.3199
 2681SOL     OW19504   4.283   3.941   4.037  0.1976 -0.2860  0.8773
 2681SOL    HW119505   4.331   3.954   4.119 -0.3998 -0.4705  1.2512
 2681SOL    HW219506   4.301   4.027   3.998  1.9363 -1.1747 -0.2721
 2682SOL     OW19507   3.701   3.412   3.895  0.4485 -0.6737  0.2208
 2682SOL    HW119508   3.738   3.499   3.914  0.0355 -0.2818 -0.8038
 2682SOL    HW219509   3.663   3.393   3.981  1.1800  1.6443  1.0745
 2683SOL     OW19510   3.645   2.705   6.832 -0.5799 -0.1516 -0.1125
 2683SOL    HW119511   3.716   2.769   6.841 -0.4391 -0.3540  0.1896
 2683SOL    HW219512   3.608   2.696   6.920 -0.1244 -0.2167  0.0701
 2684SOL     OW19513   3.558   2.072   4.843 -0.1614  0.1896  0.3560
 2684SOL    HW119514   3.493   2.134   4.876 -0.2619 -0.4505  1.3784
 2684SOL    HW219515   3.573   2.017   4.920  1.9528  0.4669  0.1376
 2685SOL     OW19516   0.838   0.271   5.727 -0.0267 -0.0496 -0.2794
 2685SOL    HW119517   0.872   0.245   5.642 -0.1498 -0.6300 -0.1512
 2685SOL    HW219518   0.831   0.185   5.768 -1.3673  1.8184  3.3944
 2686SOL     OW19519   0.448   2.541   7.103  0.0676 -0.1493  0.3954
 2686SOL    HW119520   0.419   2.450   7.096  0.0305 -0.1385  0.4066
 2686SOL    HW219521   0.543   2.531   7.111  0.0219 -2.0328 -1.3738
 2687SOL     OW19522   3.275   0.253  15.416  0.1679 -0.1104  0.6688
 2687SOL    HW119523   3.211   0.321  15.401  1.2356  0.6684 -0.3877
 2687SOL    HW219524   3.313   0.282  15.499 -1.2333  0.7354  1.0002
 2688SOL     OW19525   1.060   0.323  14.748  0.4852 -0.5854 -0.4020
 2688SOL    HW119526   1.073   0.251  14.687 -0.2734 -1.4492  0.4497
 2688SOL    HW219527   0.971   0.344  14.719 -0.2075 -2.4721  0.3306
 2689SOL     OW19528   0.701   0.038  13.203 -0.7805 -0.0068 -0.3716
 2689SOL    HW119529   0.611   0.068  13.213 -0.4038  0.1632  2.4814
 2689SOL    HW219530   0.741   0.124  13.213 -2.6815  1.0241 -1.5929
 2690SOL     OW19531   2.638   2.960   3.818  0.0207 -0.0045  0.4549
 2690SOL    HW119532   2.583   3.037   3.803 -0.3991 -0.2032  0.9465
 2690SOL    HW219533   2.722   2.998   3.843  0.3546 -0.2116 -0.3384
 2691SOL     OW19534   4.047   4.045   4.782  0.3044 -0.3612  0.3705
 2691SOL    HW119535   4.004   4.119   4.824  2.5041 -0.4672  2.7726
 2691SOL    HW219536   4.021   4.059   4.691 -1.4078 -0.8778  0.7696
 2692SOL     OW19537   4.667   0.474  15.003 -0.5310  0.1378 -0.2908
 2692SOL    HW119538   4.653   0.465  14.909 -1.2160  1.1896 -0.2882
 2692SOL    HW219539   0.033   0.512  15.007 -1.1357  1.2700  2.6394
 2693SOL     OW19540   1.507   0.820  15.307  0.1376  0.5917 -0.0156
 2693SOL    HW119541   1.502   0.830  15.212 -1.4663  0.6381  0.0647
 2693SOL    HW219542   1.568   0.890  15.328  2.0582 -1.3131  0.6730
 2694SOL     OW19543   0.412   0.532  16.452  0.0285 -0.3639 -0.1683
 2694SOL    HW119544   0.465   0.574  16.385 -1.9831  0.6545 -1.1369
 2694SOL    HW219545   0.325   0.528  16.410 -0.1299 -0.6341  0.1848
 2695SOL     OW19546   2.846   0.455   3.297 -0.4207 -0.0681  0.8342
 2695SOL    HW119547   2.879   0.544   3.309  0.0629 -0.4767  2.4774
 2695SOL    HW219548   2.852   0.435   3.203 -0.4369  1.5376  0.4899
 2696SOL     OW19549   3.950   3.142   2.067  0.3922  0.1930 -0.4156
 2696SOL    HW119550   4.032   3.100   2.042  0.2768  0.2721 -0.9218
 2696SOL    HW219551   3.993   3.195   2.135 -1.4604 -0.1611  1.0340
 2697SOL     OW19552   2.833   1.709   5.607 -0.0120  0.9061 -0.1184
 2697SOL    HW119553   2.755   1.654   5.611 -0.1893  1.1509 -0.1622
 2697SOL    HW219554   2.896   1.655   5.654  0.2168  0.9290 -0.3940
 2698SOL     OW19555   2.746   2.860   7.075 -0.8268 -0.1772  0.9550
 2698SOL    HW119556   2.791   2.855   7.159  0.5376  1.0561  0.2828
 2698SOL    HW219557   2.736   2.954   7.060  0.8122  0.0642  1.3638
 2699SOL     OW19558   4.273   4.116  17.253 -0.3148 -0.4090 -0.1131
 2699SOL    HW119559   4.243   4.025  17.250  1.8696 -1.0397 -2.5089
 2699SOL    HW219560   4.295   4.128  17.161  0.5404 -0.1945  0.1230
 2700SOL     OW19561   0.424   4.709  12.238 -0.2562  0.3374 -0.7241
 2700SOL    HW119562   0.487   4.644  12.269 -1.1980 -0.0123  0.4466
 2700SOL    HW219563   0.385   4.660  12.165 -0.6128  0.6733 -0.7608
 2701SOL     OW19564   0.424   2.574  16.478 -0.1771 -0.2139  0.1172
 2701SOL    HW119565   0.415   2.625  16.559 -0.5942  0.6075 -0.4480
 2701SOL    HW219566   0.350   2.595  16.422  0.8637 -0.0527 -1.1864
 2702SOL     OW19567   4.470   3.096  14.756 -0.0911  0.2351 -0.0190
 2702SOL    HW119568   4.404   3.101  14.825  0.2563  1.6899  0.1981
 2702SOL    HW219569   4.534   3.157  14.793  0.7697  0.4644 -1.8694
 2703SOL     OW19570   4.112   1.603   4.337 -0.0885  0.4401 -0.1990
 2703SOL    HW119571   4.140   1.564   4.420  0.3302 -3.0753 -1.9638
 2703SOL    HW219572   4.147   1.692   4.341 -0.3862  0.5740 -0.5490
 2704SOL     OW19573   3.509   1.958   0.297  0.1292 -0.3207  0.7546
 2704SOL    HW119574   3.570   1.933   0.227 -0.2737 -0.3395  0.4146
 2704SOL    HW219575   3.541   1.922   0.380 -0.4439  0.9383  1.5213
 2705SOL     OW19576   3.351   4.528   6.531 -0.3708 -0.2130  0.0728
 2705SOL    HW119577   3.397   4.510   6.613 -1.0107 -2.2165  0.0065
 2705SOL    HW219578   3.286   4.593   6.556 -2.1970 -2.1066  0.2343
 2706SOL     OW19579   0.219   3.272   3.544  0.8921  0.3005  0.4244
 2706SOL    HW119580   0.154   3.265   3.474 -0.5469  2.2794  1.5432
 2706SOL    HW219581   0.257   3.359   3.531 -0.1891  0.3380 -2.4531
 2707SOL     OW19582   2.178   3.040   4.900  0.5535  0.3045 -0.1873
 2707SOL    HW119583   2.145   2.986   4.972 -0.0567  0.4398 -0.3658
 2707SOL    HW219584   2.101   3.072   4.852 -0.0719  0.0582  0.6568
 2708SOL     OW19585   0.369   1.731   7.491  0.1701 -0.6848 -0.1954
 2708SOL    HW119586   0.317   1.731   7.411 -1.1645  1.2994  0.6371
 2708SOL    HW219587   0.314   1.679   7.550  1.4970  0.3557  1.9855
 2709SOL     OW19588   1.807   3.100  11.476  0.1369 -0.1354  0.1615
 2709SOL    HW119589   1.798   3.192  11.449 -1.5633 -0.2483  0.3735
 2709SOL    HW219590   1.822   3.057  11.392  2.2596  1.4476 -0.2811
 2710SOL     OW19591   0.181   3.096  16.163  0.3945  0.3565 -0.5360
 2710SOL    HW119592   0.163   3.125  16.252  0.2739 -0.9138 -0.1355
 2710SOL    HW219593   0.273   3.070  16.168  0.0063 -0.7743  0.9237
 2711SOL     OW19594   0.235   4.212   2.718 -0.4813 -0.0734 -0.2083
 2711SOL    HW119595   0.218   4.245   2.630 -0.2140  1.3036  0.2540
 2711SOL    HW219596   0.276   4.128   2.701 -0.5751  0.0570 -1.0864
 2712SOL     OW19597   2.968   3.067   8.137 -0.2842 -0.4576  0.4464
 2712SOL    HW119598   3.019   3.143   8.110 -0.0865 -0.3868  1.0143
 2712SOL    HW219599   3.011   3.039   8.217 -1.9358 -1.4289  0.9952
 2713SOL     OW19600   3.528   0.793   3.428  0.8713 -0.2160  0.0394
 2713SOL    HW119601   3.536   0.772   3.335  0.8647  1.0832 -0.2478
 2713SOL    HW219602   3.438   0.763   3.442  1.3041 -1.7115 -0.3762
 2714SOL     OW19603   1.179   0.902   9.849 -0.0180 -0.4995 -0.0022
 2714SOL    HW119604   1.252   0.890   9.909  2.2106  0.1973 -2.5576
 2714SOL    HW219605   1.111   0.842   9.880  0.4108 -1.7956 -1.5476
 2715SOL     OW19606   0.507   1.679   7.875 -0.2349  0.6230 -0.2340
 2715SOL    HW119607   0.448   1.605   7.858 -0.5034  0.7240  0.2318
 2715SOL    HW219608   0.586   1.636   7.909 -0.4838 -0.4823 -1.0330
 2716SOL     OW19609   4.056   2.038   8.029  0.2087 -0.3035  0.1920
 2716SOL    HW119610   4.065   2.019   8.123  0.8362 -0.3005  0.1314
 2716SOL    HW219611   4.036   2.132   8.027 -1.3125 -0.5882  1.3131
 2717SOL     OW19612   3.159   3.363   6.974  0.0711  1.2409 -0.1469
 2717SOL    HW119613   3.144   3.416   6.896  0.5637  0.0443 -1.0539
 2717SOL    HW219614   3.252   3.355   6.997 -0.6299 -1.1386  1.9339
 2718SOL     OW19615   0.404   0.293   0.623 -0.4373  0.2175  0.2295
 2718SOL    HW119616   0.356   0.216   0.591 -2.3336  2.5286 -2.5832
 2718SOL    HW219617   0.456   0.306   0.543  1.5117 -1.5432  1.2388
 2719SOL     OW19618   2.316   2.736   9.043 -0.2138  0.2616 -0.6217
 2719SOL    HW119619   2.323   2.782   8.959 -0.5443  0.9877 -0.2483
 2719SOL    HW219620   2.312   2.648   9.004  1.1315 -0.0452 -0.0615
 2720SOL     OW19621   4.558   0.543   4.019  0.2008  0.0752 -0.7755
 2720SOL    HW119622   4.610   0.603   4.072 -0.9987  1.2207 -0.8862
 2720SOL    HW219623   4.469   0.547   4.054  0.5527 -1.5165  0.3012
 2721SOL     OW19624   0.270   4.356  13.096 -0.1760 -0.3076  0.0597
 2721SOL    HW119625   0.217   4.283  13.064 -0.4937 -0.4693  0.9673
 2721SOL    HW219626   0.231   4.434  13.056  1.6853  0.4263 -0.3449
 2722SOL     OW19627   0.829   2.875   7.823 -0.0573 -0.5555  0.1556
 2722SOL    HW119628   0.887   2.944   7.855 -0.3400 -1.3843  2.4474
 2722SOL    HW219629   0.797   2.841   7.907 -0.8411  1.4784  0.6977
 2723SOL     OW19630   3.537   3.261  15.396  0.1597 -0.5814 -0.5952
 2723SOL    HW119631   3.493   3.297  15.473 -1.0760 -2.0120 -0.6482
 2723SOL    HW219632   3.617   3.314  15.389 -0.0585  0.1299  1.9994
 2724SOL     OW19633   3.133   3.063   2.912 -0.6339 -0.1780 -0.3065
 2724SOL    HW119634   3.100   3.009   2.839  1.9423 -0.4194 -1.2772
 2724SOL    HW219635   3.050   3.079   2.957 -0.0548  0.1121  0.6345
 2725SOL     OW19636   2.718   4.187   3.367  0.4390  0.6446 -0.0000
 2725SOL    HW119637   2.623   4.191   3.360  0.3237 -1.4571  0.1856
 2725SOL    HW219638   2.731   4.264   3.312  0.2802 -1.0164 -2.3536
 2726SOL     OW19639   2.680   0.445   5.034  0.4165 -0.6936 -0.0528
 2726SOL    HW119640   2.606   0.487   4.990  0.9569 -0.3466 -0.6173
 2726SOL    HW219641   2.661   0.351   5.030 -1.2642 -0.4551  1.9620
 2727SOL     OW19642   2.600   2.639   7.787 -0.4504  0.4293 -0.7448
 2727SOL    HW119643   2.577   2.553   7.752 -1.7456  0.6886 -0.5298
 2727SOL    HW219644   2.535   2.650   7.856 -1.9651 -0.1452 -2.0772
 2728SOL     OW19645   2.512   1.714  13.331  0.1614 -0.0370  0.3566
 2728SOL    HW119646   2.582   1.664  13.290 -0.9835  0.5631 -2.3610
 2728SOL    HW219647   2.526   1.685  13.421  0.5375  2.1337  1.0009
 2729SOL     OW19648   4.148   0.888  13.307  0.2038  0.2578 -0.4710
 2729SOL    HW119649   4.157   0.793  13.314  1.5802  0.3908 -0.3973
 2729SOL    HW219650   4.177   0.904  13.397  0.9051 -1.8662 -0.3268
 2730SOL     OW19651   4.424   1.811   4.695  0.1532 -0.3069 -0.1033
 2730SOL    HW119652   4.333   1.781   4.701  0.0289 -0.1699 -1.4713
 2730SOL    HW219653   4.472   1.772   4.768 -0.2259  1.9563  1.3345
 2731SOL     OW19654   0.298   3.146   6.014  0.3632  0.6418  0.4911
 2731SOL    HW119655   0.387   3.170   5.988  0.3953  0.8038  0.7522
 2731SOL    HW219656   0.309   3.180   6.103  0.3586 -1.5551  1.3534
 2732SOL     OW19657   0.890   1.021   6.188 -0.3461 -0.1097  0.1191
 2732SOL    HW119658   0.879   1.116   6.175  1.6502  0.0077 -0.7588
 2732SOL    HW219659   0.836   0.999   6.264  0.2187  0.0044  0.5521
 2733SOL     OW19660   3.645   1.734   4.257  0.5032 -0.1542  0.4340
 2733SOL    HW119661   3.623   1.827   4.250  0.3386 -0.2631 -0.4918
 2733SOL    HW219662   3.657   1.703   4.167 -1.2974 -0.7989  0.4281
 2734SOL     OW19663   4.224   0.968   4.594 -0.0802  0.1653 -0.2181
 2734SOL    HW119664   4.157   1.024   4.555  0.0641 -1.0120 -2.1185
 2734SOL    HW219665   4.309   1.010   4.576 -0.5727  0.5516 -1.6519
 2735SOL     OW19666   0.927   2.761   2.957  0.0613  0.3771  0.0617
 2735SOL    HW119667   0.837   2.760   2.991 -0.0087  1.2816 -0.1066
 2735SOL    HW219668   0.979   2.741   3.035  0.1106 -0.2661 -0.1362
 2736SOL     OW19669   0.796   0.640  13.605  0.1826  0.6366 -0.3829
 2736SOL    HW119670   0.809   0.730  13.634  0.4097  0.3750  0.3322
 2736SOL    HW219671   0.863   0.586  13.648  0.5538  1.6891  0.3659
 2737SOL     OW19672   3.941   2.024   2.452 -0.2991  0.4026 -0.3554
 2737SOL    HW119673   3.916   2.090   2.517 -2.6552  1.2713 -2.1731
 2737SOL    HW219674   3.909   1.945   2.496  0.2097 -0.8971 -2.3569
 2738SOL     OW19675   1.835   1.493   5.004 -0.3955 -0.4859 -0.1331
 2738SOL    HW119676   1.908   1.545   4.970  0.2050 -1.0901  0.2383
 2738SOL    HW219677   1.883   1.450   5.074 -0.5164  0.7130  0.6903
 2739SOL     OW19678   4.297   0.782   6.170  0.3077  0.1731  0.0444
 2739SOL    HW119679   4.305   0.701   6.220  1.7680 -0.0880 -0.5963
 2739SOL    HW219680   4.203   0.796   6.173  0.6813  2.8153 -0.8529
 2740SOL     OW19681   3.849   1.489  15.841 -0.1928  0.3219 -0.5993
 2740SOL    HW119682   3.866   1.530  15.926  1.1807 -2.2260  0.3462
 2740SOL    HW219683   3.827   1.400  15.869 -0.4679 -0.0439 -1.9805
 2741SOL     OW19684   0.750   3.553  14.827  0.3262  0.0130 -0.1954
 2741SOL    HW119685   0.812   3.482  14.811 -0.4915 -1.0242  1.2771
 2741SOL    HW219686   0.679   3.521  14.770  1.0158 -1.1101 -0.4272
 2742SOL     OW19687   3.328   3.004   8.917 -0.1817  0.0386 -0.5030
 2742SOL    HW119688   3.312   3.092   8.951  2.2821 -0.1688  1.2158
 2742SOL    HW219689   3.333   3.022   8.823  0.5201 -0.9347 -0.6486
 2743SOL     OW19690   3.143   2.047   8.136  0.1021 -0.2888  0.0432
 2743SOL    HW119691   3.213   2.053   8.200  1.2655  1.0778 -1.3416
 2743SOL    HW219692   3.156   2.113   8.067  2.3809  0.2377  0.9844
 2744SOL     OW19693   3.189   3.870   3.677  0.1198 -0.0948  0.0998
 2744SOL    HW119694   3.266   3.832   3.633  0.7427  0.5400  0.6437
 2744SOL    HW219695   3.224   3.950   3.715 -1.7676  1.5966 -1.7814
 2745SOL     OW19696   0.715   2.788   3.125  0.3656  0.0654  0.6181
 2745SOL    HW119697   0.650   2.731   3.085 -0.2546  1.6741 -0.6357
 2745SOL    HW219698   0.700   2.776   3.219 -1.0754 -0.3827  0.3355
 2746SOL     OW19699   2.625   3.310   6.029 -0.2684 -0.8007 -0.3310
 2746SOL    HW119700   2.642   3.253   5.955  3.4178  0.0936 -0.1838
 2746SOL    HW219701   2.689   3.381   6.017 -1.0909 -0.3179 -1.8198
 2747SOL     OW19702   3.508   4.085   1.285 -0.3404 -0.0983  0.0122
 2747SOL    HW119703   3.565   4.162   1.287 -1.6021  0.7318  2.7434
 2747SOL    HW219704   3.441   4.102   1.219 -1.7102 -1.4125  1.0906
 2748SOL     OW19705   0.376   2.473  13.187  0.4270  0.0970  0.0305
 2748SOL    HW119706   0.455   2.509  13.228 -1.1362  0.5032  2.6530
 2748SOL    HW219707   0.346   2.543  13.128 -0.1042  0.0825  0.2868
 2749SOL     OW19708   0.356   2.181  10.593 -0.3120  0.1107  0.3843
 2749SOL    HW119709   0.313   2.253  10.547  0.6317  0.0510 -0.5813
 2749SOL    HW219710   0.309   2.173  10.676 -0.0280  2.4320  0.7499
 2750SOL     OW19711   3.424   0.987   6.651  0.2660 -0.5089 -0.0814
 2750SOL    HW119712   3.515   0.959   6.657  0.0142 -1.4751 -0.7860
 2750SOL    HW219713   3.408   0.968   6.559  0.3633 -0.2020 -0.1627
 2751SOL     OW19714   3.715   1.429   2.543  0.2693  0.3675  0.1255
 2751SOL    HW119715   3.624   1.456   2.546 -0.3594 -1.7914  0.0543
 2751SOL    HW219716   3.753   1.486   2.475 -2.7174 -0.7485 -2.4391
 2752SOL     OW19717   4.353   3.310  10.375 -0.2701 -0.1581 -0.2832
 2752SOL    HW119718   4.392   3.385  10.330  0.2252 -0.6713 -0.7067
 2752SOL    HW219719   4.275   3.303  10.320  0.1419 -2.1981 -0.5936
 2753SOL     OW19720   2.744   1.080   2.681  0.2937  0.0066 -0.4700
 2753SOL    HW119721   2.667   1.134   2.667  1.4640  1.9877  0.7251
 2753SOL    HW219722   2.714   1.014   2.744  1.4827 -2.1228 -2.1453
 2754SOL     OW19723   2.286   2.530   3.846 -0.0819  0.1534 -0.5308
 2754SOL    HW119724   2.324   2.567   3.766  1.7285 -1.4806 -0.4432
 2754SOL    HW219725   2.332   2.446   3.849  0.9382  0.6703 -1.6899
 2755SOL     OW19726   4.059   3.385   6.132 -0.5504  0.2670  0.0282
 2755SOL    HW119727   4.044   3.414   6.222  0.5141  2.4927 -0.5162
 2755SOL    HW219728   4.154   3.393   6.126 -0.4917 -0.1230  0.3807
 2756SOL     OW19729   0.473   1.340  13.936  0.5757  0.1442 -0.2689
 2756SOL    HW119730   0.538   1.403  13.968 -0.5806  0.2561  1.8895
 2756SOL    HW219731   0.452   1.366  13.847 -0.5657  1.9426  0.5254
 2757SOL     OW19732   1.574   4.586   4.894 -0.0785 -0.0068  0.3771
 2757SOL    HW119733   1.506   4.563   4.831 -0.8581  2.0325  0.4789
 2757SOL    HW219734   1.607   4.665   4.851 -1.0518  0.6065  0.7684
 2758SOL     OW19735   1.514   4.210  10.327  0.5962 -0.0925  0.7351
 2758SOL    HW119736   1.471   4.238  10.408 -0.4333 -1.2494  0.5916
 2758SOL    HW219737   1.434   4.207  10.275  2.4125  0.2357 -2.0737
 2759SOL     OW19738   3.690   1.466   0.869 -0.1332 -0.5942  0.3373
 2759SOL    HW119739   3.596   1.481   0.876  0.2649  1.1760  1.8200
 2759SOL    HW219740   3.700   1.397   0.803  1.1421  0.8615 -0.9905
 2760SOL     OW19741   3.193   2.430   5.736 -0.4313 -0.0956  0.3291
 2760SOL    HW119742   3.189   2.408   5.829 -2.3170 -0.4151  0.1669
 2760SOL    HW219743   3.256   2.362   5.710  0.2224  1.3301 -1.8137
 2761SOL     OW19744   3.063   3.213   4.830  0.6170 -0.1802 -0.0642
 2761SOL    HW119745   3.012   3.133   4.838 -0.2105  0.5323  1.8442
 2761SOL    HW219746   3.082   3.228   4.923  1.9330 -0.8417 -0.2228
 2762SOL     OW19747   0.284   3.917   1.319 -0.5203 -0.2123 -0.1621
 2762SOL    HW119748   0.252   3.994   1.270 -2.7327 -1.1362 -0.1781
 2762SOL    HW219749   0.206   3.881   1.362  0.4095  0.8722  2.4225
 2763SOL     OW19750   3.936   2.978   0.330  0.3112 -0.1473  0.1932
 2763SOL    HW119751   3.907   3.031   0.256 -1.0437 -1.0340  0.0926
 2763SOL    HW219752   3.887   2.897   0.312 -0.1700 -0.0190  0.9387
 2764SOL     OW19753   3.651   4.183  16.595 -0.4282  0.5062  0.3387
 2764SOL    HW119754   3.644   4.102  16.544  1.0789  2.1587 -2.4896
 2764SOL    HW219755   3.594   4.156  16.667 -0.8592 -0.6570 -0.4412
 2765SOL     OW19756   3.652   0.642   6.265 -0.3164  0.0435  0.6499
 2765SOL    HW119757   3.673   0.585   6.191 -0.3030  1.8744 -0.7788
 2765SOL    HW219758   3.597   0.584   6.317  1.1652 -1.4085  0.5945
 2766SOL     OW19759   0.172   2.285   8.873 -0.4711 -0.1422  0.6717
 2766SOL    HW119760   0.213   2.348   8.814 -1.9849 -0.2940 -0.5470
 2766SOL    HW219761   0.196   2.330   8.954 -1.5157  1.6063  0.0263
 2767SOL     OW19762   2.512   2.182   6.795  0.5735 -0.1819 -0.4670
 2767SOL    HW119763   2.428   2.149   6.762  1.8178 -2.9822 -0.8868
 2767SOL    HW219764   2.569   2.109   6.770  1.0518  0.5291 -1.4610
 2768SOL     OW19765   2.642   4.330   4.775  0.2824 -0.2996 -0.0889
 2768SOL    HW119766   2.614   4.282   4.697 -1.6406  1.1927 -0.3281
 2768SOL    HW219767   2.724   4.294   4.807  0.9623  2.1412  0.9389
 2769SOL     OW19768   0.014   0.400   2.968 -0.6018 -0.4038 -0.2215
 2769SOL    HW119769   0.103   0.403   3.004 -0.1067 -0.4992 -1.4290
 2769SOL    HW219770   0.019   0.308   2.943 -0.9018 -0.3283 -0.5478
 2770SOL     OW19771   2.260   3.251   4.482 -0.1624  0.5453  0.0049
 2770SOL    HW119772   2.278   3.190   4.554  0.3894  0.6907 -0.0056
 2770SOL    HW219773   2.205   3.204   4.420 -1.2807 -0.5931  1.8493
 2771SOL     OW19774   4.077   1.911   4.904 -0.3209  0.3632  0.0833
 2771SOL    HW119775   4.019   1.949   4.969 -1.7501 -0.7500 -0.5398
 2771SOL    HW219776   4.031   1.910   4.819 -0.0384 -0.1555 -0.0679
 2772SOL     OW19777   4.342   0.431   4.682  0.0319 -0.7421  0.1362
 2772SOL    HW119778   4.401   0.481   4.739 -0.0864  0.3366 -0.7123
 2772SOL    HW219779   4.257   0.470   4.702 -0.5398 -0.8365 -2.2053
 2773SOL     OW19780   3.415   2.068   7.851  0.0757  0.1766 -0.2920
 2773SOL    HW119781   3.379   1.999   7.905 -0.8267 -1.4785 -3.0075
 2773SOL    HW219782   3.363   2.143   7.880  0.6720  0.2451  0.6178
 2774SOL     OW19783   2.517   2.262   5.938 -0.1183  0.0047 -0.2279
 2774SOL    HW119784   2.425   2.262   5.964  0.3932 -1.9302  1.6355
 2774SOL    HW219785   2.519   2.302   5.852  0.1814  0.2428 -0.1098
 2775SOL     OW19786   3.190   0.780   7.258 -0.2672  0.0984  0.1187
 2775SOL    HW119787   3.157   0.690   7.258 -2.1815  0.7945 -1.9119
 2775SOL    HW219788   3.184   0.800   7.351  1.0322 -0.0115  0.2181
 2776SOL     OW19789   1.962   3.185   2.572  0.1182 -0.6186 -0.5945
 2776SOL    HW119790   1.965   3.096   2.536 -0.3625 -0.8993  0.0727
 2776SOL    HW219791   2.033   3.223   2.519 -1.0763  1.5551 -0.6210
 2777SOL     OW19792   3.161   3.246   1.831 -0.1351  0.2130 -0.1813
 2777SOL    HW119793   3.067   3.235   1.847  0.4401 -2.6233  1.2138
 2777SOL    HW219794   3.161   3.332   1.790 -1.4339 -0.7168 -2.1229
 2778SOL     OW19795   1.582   3.169  12.202  0.5315  0.2230  0.0910
 2778SOL    HW119796   1.571   3.131  12.290 -1.5494 -0.6002 -0.5077
 2778SOL    HW219797   1.512   3.127  12.151  0.0918  0.9952  0.0556
 2779SOL     OW19798   1.978   2.213   7.481 -0.0996 -0.2013  0.5531
 2779SOL    HW119799   1.899   2.264   7.494  0.2152  0.3968  0.1416
 2779SOL    HW219800   1.944   2.136   7.435  0.3082  0.1260 -0.3022
 2780SOL     OW19801   2.652   4.018   3.742 -0.1730 -0.0917  0.0549
 2780SOL    HW119802   2.613   4.023   3.829  2.1008  3.6001  0.8696
 2780SOL    HW219803   2.584   3.964   3.702 -0.3912 -0.7016  1.2482
 2781SOL     OW19804   3.027   4.621   6.126  0.1400  0.1552 -0.1616
 2781SOL    HW119805   2.987   4.661   6.049  1.1360  0.7212 -0.3976
 2781SOL    HW219806   3.097   4.568   6.087  0.4331  2.6453 -3.0386
 2782SOL     OW19807   4.718   2.180   2.045 -0.8953 -0.7241 -0.4610
 2782SOL    HW119808   0.068   2.123   2.017  0.9024  0.5000  1.5343
 2782SOL    HW219809   4.699   2.150   2.134 -0.1801  2.3583  0.7560
 2783SOL     OW19810   4.386   0.033   1.489  0.1282  0.4839  0.0160
 2783SOL    HW119811   4.452   0.101   1.477  0.6825  0.1991  1.5165
 2783SOL    HW219812   4.380   0.010   1.396  0.3973  0.6319 -0.0386
 2784SOL     OW19813   1.151   2.360   3.902  0.0378  0.0149  0.3324
 2784SOL    HW119814   1.101   2.295   3.950 -1.6509 -0.1123 -1.6067
 2784SOL    HW219815   1.090   2.430   3.878  0.1198  0.2082  0.6881
 2785SOL     OW19816   2.546   1.972   5.785 -0.0544 -0.4170  0.3698
 2785SOL    HW119817   2.539   2.037   5.715  0.4535  0.3952  1.0778
 2785SOL    HW219818   2.639   1.951   5.779 -0.7358 -3.1178 -1.0103
 2786SOL     OW19819   1.530   3.499   9.784 -0.3334  0.0472  0.0832
 2786SOL    HW119820   1.444   3.519   9.748 -0.4487 -2.7197 -1.2023
 2786SOL    HW219821   1.558   3.436   9.717  0.2267  1.7015 -1.2246
 2787SOL     OW19822   4.083   0.294   6.648 -0.6220 -0.4308  0.1693
 2787SOL    HW119823   4.106   0.252   6.565 -1.5898  0.7408 -0.6912
 2787SOL    HW219824   4.162   0.272   6.697 -0.9527  0.2113  0.9747
 2788SOL     OW19825   0.243   3.538   9.862  0.2322  0.9206  0.0267
 2788SOL    HW119826   0.154   3.564   9.837  0.8065  1.2771 -1.6198
 2788SOL    HW219827   0.234   3.445   9.841 -0.9423  0.7947  1.0848
 2789SOL     OW19828   4.701   0.398  16.172  0.5293  0.3182  0.4723
 2789SOL    HW119829   4.644   0.371  16.100 -1.1316  1.6918  1.2724
 2789SOL    HW219830   0.038   0.463  16.133 -1.3922  2.4741  1.2131
 2790SOL     OW19831   3.974   0.689   0.866 -0.6038 -0.9614  0.3285
 2790SOL    HW119832   3.944   0.767   0.819  3.1706 -0.7405 -1.8167
 2790SOL    HW219833   4.067   0.705   0.881 -0.8856  1.7372 -0.8350
 2791SOL     OW19834   4.127   4.278  16.728 -0.0221 -0.5194  0.1239
 2791SOL    HW119835   4.068   4.353  16.738 -0.1649 -0.8482  1.7795
 2791SOL    HW219836   4.209   4.322  16.752 -0.3564 -0.9430  2.0765
 2792SOL     OW19837   4.504   0.994   5.147  0.3434  0.4257 -0.2482
 2792SOL    HW119838   4.554   1.024   5.223 -0.3815  1.7608 -0.3116
 2792SOL    HW219839   4.482   0.904   5.173 -0.0833 -0.4466 -3.6338
 2793SOL     OW19840   0.883   3.891   7.630  0.5304 -0.4535  0.5659
 2793SOL    HW119841   0.932   3.973   7.629 -0.4890  0.1491  0.2814
 2793SOL    HW219842   0.956   3.832   7.648  0.0716 -0.5728  2.0761
 2794SOL     OW19843   4.227   1.066  10.194 -0.2165 -0.2670  0.6324
 2794SOL    HW119844   4.216   1.096  10.104 -0.1730 -0.0691  0.6923
 2794SOL    HW219845   4.216   1.147  10.245  2.9775  0.0241  0.9216
 2795SOL     OW19846   4.523   1.245   8.021 -0.2328  0.3914 -0.0708
 2795SOL    HW119847   4.429   1.234   8.006  0.2247  1.8580 -3.9099
 2795SOL    HW219848   4.518   1.304   8.096  1.8395  0.7496 -0.2218
 2796SOL     OW19849   2.506   3.411  17.455 -0.3186 -0.3596 -0.7917
 2796SOL    HW119850   2.415   3.429  17.430  0.2903  2.9170 -0.6137
 2796SOL    HW219851   2.541   3.433  17.369 -0.5510  0.0391 -0.7851
 2797SOL     OW19852   3.666   3.455  17.527 -0.2007  0.4418  0.0445
 2797SOL    HW119853   3.684   3.547  17.510  0.1668  0.6228  1.4331
 2797SOL    HW219854   3.618   3.458  17.610 -0.1318 -0.4176  0.1121
 2798SOL     OW19855   0.943   3.845  10.432 -0.2976  0.0279 -0.2278
 2798SOL    HW119856   0.917   3.856  10.524  0.0025  0.8020 -0.2352
 2798SOL    HW219857   0.864   3.815  10.386 -0.1663 -0.0410 -0.4055
 2799SOL     OW19858   1.980   0.938   0.096  0.1124  0.1363 -0.1082
 2799SOL    HW119859   1.906   0.881   0.118  1.5288 -0.8627  2.0829
 2799SOL    HW219860   2.024   0.931   0.181  0.9384  0.6067 -0.4901
 2800SOL     OW19861   2.225   1.522   7.766 -0.4599 -0.5537  0.1274
 2800SOL    HW119862   2.317   1.543   7.748 -1.4139 -0.6935 -4.9720
 2800SOL    HW219863   2.211   1.577   7.843  0.0993  0.3892 -0.4438
 2801SOL     OW19864   3.139   1.232   0.493  0.1391  0.1264  0.1855
 2801SOL    HW119865   3.223   1.229   0.538 -1.4740 -0.2078  3.2371
 2801SOL    HW219866   3.132   1.327   0.479  1.8273  0.5914  2.4621
 2802SOL     OW19867   1.456   1.452  10.751 -0.6042  0.2482  0.1511
 2802SOL    HW119868   1.493   1.515  10.688  0.0840 -1.0680 -0.7485
 2802SOL    HW219869   1.393   1.399  10.702  1.0699 -1.2350 -0.4099
 2803SOL     OW19870   4.405   4.609  13.474 -0.0816 -0.4302 -0.7908
 2803SOL    HW119871   4.376   4.583  13.386 -2.7583 -0.7306  0.1781
 2803SOL    HW219872   4.496   4.579  13.470  0.1446  0.2494 -0.6398
 2804SOL     OW19873   3.329   0.360  14.214  0.2523 -0.5946 -0.0017
 2804SOL    HW119874   3.239   0.365  14.182  0.3780 -0.9777 -0.4206
 2804SOL    HW219875   3.321   0.334  14.305  0.0892  2.0122  0.7233
 2805SOL     OW19876   0.786   4.073   6.041  0.2327  0.2790  0.0365
 2805SOL    HW119877   0.715   4.137   6.052 -0.5466 -0.1109 -2.6586
 2805SOL    HW219878   0.849   4.105   5.977 -1.3335 -0.5480 -1.9295
 2806SOL     OW19879   2.828   3.044   3.001  0.5070 -0.0914  0.1665
 2806SOL    HW119880   2.787   3.045   2.914 -0.3866  0.8179  0.5945
 2806SOL    HW219881   2.778   2.977   3.046  0.5620  0.6930  1.3912
 2807SOL     OW19882   4.459   2.700   7.708 -0.2187  0.2643 -0.1114
 2807SOL    HW119883   4.428   2.788   7.690 -1.4019  0.0511  0.8843
 2807SOL    HW219884   4.396   2.680   7.778 -0.3793 -0.6699 -0.5281
 2808SOL     OW19885   0.979   3.197   4.699 -0.6516 -0.6739  0.0384
 2808SOL    HW119886   0.956   3.109   4.671 -3.2418  0.0305 -0.0180
 2808SOL    HW219887   1.033   3.173   4.775  0.2941  1.2623 -0.0150
 2809SOL     OW19888   2.604   1.962  17.394  0.1659 -0.5107  0.8639
 2809SOL    HW119889   2.624   2.056  17.402  0.4331 -0.2770 -2.5866
 2809SOL    HW219890   2.677   1.931  17.341  0.1518  0.0237  0.5218
 2810SOL     OW19891   2.321   0.368   6.900 -0.2042  0.1766  0.2962
 2810SOL    HW119892   2.239   0.320   6.910 -0.0330 -0.3867 -1.0616
 2810SOL    HW219893   2.301   0.439   6.839  1.9554  1.4911  1.1432
 2811SOL     OW19894   3.416   2.840  14.530 -0.4291  0.6212 -0.2858
 2811SOL    HW119895   3.367   2.869  14.453 -1.6542  0.7750  0.5538
 2811SOL    HW219896   3.461   2.921  14.555 -2.0399  1.7231 -0.9193
 2812SOL     OW19897   0.760   2.677   9.569 -0.1890  0.0249  0.4018
 2812SOL    HW119898   0.785   2.700   9.658  0.4611 -0.7243  0.4080
 2812SOL    HW219899   0.829   2.700   9.508 -0.3883 -0.9418 -0.1884
 2813SOL     OW19900   0.782   2.552  11.094  0.6985  0.0358 -0.3187
 2813SOL    HW119901   0.861   2.525  11.047 -0.7717 -2.6676 -1.2309
 2813SOL    HW219902   0.814   2.566  11.183  0.1627  0.2052 -0.1507
 2814SOL     OW19903   3.570   2.390  13.135 -0.1815 -0.1090  0.5991
 2814SOL    HW119904   3.525   2.306  13.132  0.6093 -0.5809  1.9353
 2814SOL    HW219905   3.647   2.373  13.081  1.7462  2.0642  2.6424
 2815SOL     OW19906   2.424   3.174   5.432  0.3674 -1.0404  0.4986
 2815SOL    HW119907   2.504   3.154   5.480  0.0989 -2.7257  0.2368
 2815SOL    HW219908   2.413   3.102   5.370 -1.3042 -0.6335  0.3295
 2816SOL     OW19909   3.292   4.659  11.434  0.0285 -0.8713  0.1395
 2816SOL    HW119910   3.224   4.619  11.380 -0.0409  2.3230 -2.1290
 2816SOL    HW219911   3.292   4.599  11.510  0.4105  0.4097  1.1523
 2817SOL     OW19912   4.490   1.334   4.612 -0.3287 -0.4289 -0.3653
 2817SOL    HW119913   4.512   1.329   4.519  1.5076  0.6093  0.0115
 2817SOL    HW219914   4.546   1.404   4.645 -0.5298  0.1336 -1.2034
 2818SOL     OW19915   0.555   2.930   1.151 -0.5215  0.7974  0.0694
 2818SOL    HW119916   0.564   2.946   1.057 -0.9710 -1.3447 -0.3526
 2818SOL    HW219917   0.496   2.855   1.157 -0.4516  0.8144  0.9038
 2819SOL     OW19918   3.764   3.722   5.738  0.4925 -0.1386 -0.1692
 2819SOL    HW119919   3.813   3.683   5.810 -0.2272  1.5459  1.2495
 2819SOL    HW219920   3.676   3.712   5.774  1.3858  0.0769  2.0899
 2820SOL     OW19921   3.658   0.072   2.933  0.2128  0.1329 -0.0931
 2820SOL    HW119922   3.609   0.108   3.007  1.5146  1.1659  0.2741
 2820SOL    HW219923   3.597   0.089   2.862 -0.2362  1.1527  0.5388
 2821SOL     OW19924   1.221   2.386   6.560  0.3549 -0.0427  0.0279
 2821SOL    HW119925   1.242   2.416   6.649 -0.9925 -1.9474  0.9800
 2821SOL    HW219926   1.210   2.467   6.509  1.7211  0.4654  0.5391
 2822SOL     OW19927   3.583   1.682   7.335  0.2726  0.0316 -0.1832
 2822SOL    HW119928   3.517   1.620   7.304 -0.6662  0.7500  0.3708
 2822SOL    HW219929   3.665   1.652   7.296 -0.2975 -0.6055 -0.8826
 2823SOL     OW19930   2.298   4.156   9.868 -0.0455 -0.0738 -0.7652
 2823SOL    HW119931   2.366   4.223   9.870 -0.1899  0.0042  1.0889
 2823SOL    HW219932   2.361   4.087   9.889  0.2731  0.8223  1.1832
 2824SOL     OW19933   1.988   2.078   0.864 -0.4616 -1.3383 -0.3549
 2824SOL    HW119934   1.914   2.109   0.810 -0.4738  0.6564  0.7910
 2824SOL    HW219935   1.999   2.154   0.922 -3.1116 -1.3232  0.1360
 2825SOL     OW19936   2.337   2.537   5.269 -0.0249  0.0681  0.2289
 2825SOL    HW119937   2.404   2.592   5.227 -0.4385 -0.2118 -0.8039
 2825SOL    HW219938   2.314   2.489   5.190 -0.3583 -0.5381  0.6942
 2826SOL     OW19939   3.984   1.352   6.036  0.2039  0.5442  0.2762
 2826SOL    HW119940   3.928   1.429   6.039 -1.3675 -0.5463 -1.2079
 2826SOL    HW219941   4.069   1.393   6.049 -0.4194  1.8290  0.2277
 2827SOL     OW19942   2.811   0.605   9.156  0.2797  0.2171  0.1087
 2827SOL    HW119943   2.902   0.631   9.166 -0.1682  2.1292 -0.8122
 2827SOL    HW219944   2.816   0.536   9.223 -0.4979  0.3026  0.2560
 2828SOL     OW19945   0.647   3.442  13.301  0.3096 -0.0764 -0.6283
 2828SOL    HW119946   0.659   3.490  13.219  1.8321  0.6686  0.0286
 2828SOL    HW219947   0.552   3.431  13.306  0.4074 -1.4386 -1.6617
 2829SOL     OW19948   2.902   0.726   4.217 -0.5537  0.1713 -0.7487
 2829SOL    HW119949   2.985   0.679   4.220 -1.3898 -1.2182  0.6256
 2829SOL    HW219950   2.891   0.755   4.126  0.5138 -1.6614 -1.4680
 2830SOL     OW19951   3.884   3.923  14.616  0.4344  0.3562  0.2511
 2830SOL    HW119952   3.959   3.874  14.581  1.8021  1.1213  2.1281
 2830SOL    HW219953   3.930   4.008  14.617 -1.4594  1.3778 -0.2715
 2831SOL     OW19954   4.046   4.524   5.306 -0.2138 -1.0658  0.3925
 2831SOL    HW119955   3.971   4.466   5.292 -0.5773 -0.1087 -1.6766
 2831SOL    HW219956   4.044   4.589   5.236  1.0748 -1.9373 -0.4526
 2832SOL     OW19957   2.133   3.951   1.613 -0.1563 -0.0302 -0.0522
 2832SOL    HW119958   2.216   3.932   1.569  0.1011  3.4233 -1.0365
 2832SOL    HW219959   2.144   3.865   1.654  0.4346 -0.8877 -1.9938
 2833SOL     OW19960   1.737   0.198  13.822 -0.1330  0.3259 -0.0834
 2833SOL    HW119961   1.677   0.196  13.897 -1.1433  1.3924 -0.8608
 2833SOL    HW219962   1.815   0.152  13.853 -0.8051 -0.9615 -0.3255
 2834SOL     OW19963   4.058   2.480  11.488  0.1621  0.2096  0.0954
 2834SOL    HW119964   4.145   2.461  11.454 -0.4713 -2.2380 -0.1666
 2834SOL    HW219965   4.067   2.463  11.581  0.9802  0.2934  0.0281
 2835SOL     OW19966   2.817   3.611   5.724 -0.2905  0.1716  0.0859
 2835SOL    HW119967   2.904   3.643   5.702 -0.2604 -0.1446 -0.2582
 2835SOL    HW219968   2.782   3.687   5.770 -0.0612  0.5202 -0.3238
 2836SOL     OW19969   4.108   3.266  14.964 -0.6120 -0.3455  0.4667
 2836SOL    HW119970   4.123   3.288  14.872 -1.0390  0.4653  0.5825
 2836SOL    HW219971   4.180   3.204  14.972 -0.9725 -0.9997 -1.4472
 2837SOL     OW19972   2.795   0.427   7.014 -0.2005 -1.0215 -0.6500
 2837SOL    HW119973   2.731   0.361   7.042 -0.8589  1.0262  2.7086
 2837SOL    HW219974   2.868   0.396   7.067  0.2784  0.7129 -0.2856
 2838SOL     OW19975   3.085   3.169  12.332  0.1594 -0.1504  0.0685
 2838SOL    HW119976   3.056   3.156  12.241 -1.6358 -0.3615  0.6665
 2838SOL    HW219977   3.008   3.221  12.355  0.2665 -0.5081  1.2278
 2839SOL     OW19978   0.098   3.740   9.995 -0.1296  0.5957  0.0506
 2839SOL    HW119979   0.008   3.725  10.025 -0.3427  2.3781  0.3337
 2839SOL    HW219980   0.149   3.691  10.059  1.4608 -1.3033 -2.6797
 2840SOL     OW19981   0.686   2.587   2.025 -0.6090  0.6398  0.4349
 2840SOL    HW119982   0.631   2.536   2.085  0.2939 -1.9122 -0.9046
 2840SOL    HW219983   0.717   2.647   2.092  0.5539 -2.0019  2.2297
 2841SOL     OW19984   2.750   3.015   1.726  0.1562 -0.4875  0.0528
 2841SOL    HW119985   2.834   2.999   1.682  0.2804 -2.1552  0.9082
 2841SOL    HW219986   2.768   3.100   1.764 -0.3684 -1.2296  1.9314
 2842SOL     OW19987   2.759   2.884   5.154 -0.1451  0.2630  0.0835
 2842SOL    HW119988   2.776   2.960   5.209 -0.7957  1.2767 -1.1180
 2842SOL    HW219989   2.850   2.862   5.133  0.0349  1.3526 -0.2684
 2843SOL     OW19990   2.714   4.418  12.744  0.1068 -0.3725 -0.7694
 2843SOL    HW119991   2.773   4.485  12.778 -0.6861 -0.7116  1.2851
 2843SOL    HW219992   2.649   4.418  12.815  0.2603 -1.0630 -0.6292
 2844SOL     OW19993   0.187   1.613   1.047 -0.1671  0.5487  0.1563
 2844SOL    HW119994   0.164   1.612   0.954 -1.0334 -0.7596  0.3901
 2844SOL    HW219995   0.191   1.708   1.057  2.5512  0.4519  0.0088
 2845SOL     OW19996   1.556   3.927   1.350  0.1044  0.5086 -0.4441
 2845SOL    HW119997   1.503   3.861   1.394  1.7172  1.5002  3.0322
 2845SOL    HW219998   1.486   3.984   1.319 -1.2227  0.7983  3.0544
 2846SOL     OW19999   4.514   2.503   4.689  0.0088 -0.4484 -0.4334
 2846SOL    HW120000   4.607   2.525   4.680  0.5973 -2.2850  1.2525
 2846SOL    HW220001   4.479   2.518   4.601  1.9221 -3.0129 -1.6274
 2847SOL     OW20002   2.309   3.166   6.789 -0.3625  0.1464  0.0998
 2847SOL    HW120003   2.224   3.199   6.759  0.6185  0.6567 -2.1192
 2847SOL    HW220004   2.353   3.249   6.805  1.0167 -0.5327 -0.1548
 2848SOL     OW20005   4.563   2.498   0.639  0.2700  0.0918  0.1452
 2848SOL    HW120006   4.650   2.470   0.611 -0.6598 -0.4346 -2.1629
 2848SOL    HW220007   4.564   2.590   0.612  1.1396  0.9392  2.9881
 2849SOL     OW20008   2.863   1.853   2.822 -0.1930 -0.1960 -0.4310
 2849SOL    HW120009   2.896   1.881   2.737  0.3749  0.1345 -0.1108
 2849SOL    HW220010   2.855   1.758   2.819 -1.0092 -0.2601  3.1088
 2850SOL     OW20011   2.015   2.305   1.004  0.3646  0.2500  0.2533
 2850SOL    HW120012   1.939   2.362   0.994 -0.5332 -0.9996 -0.2075
 2850SOL    HW220013   2.004   2.283   1.097  0.9408  0.1164  0.2937
 2851SOL     OW20014   2.360   2.876   6.313  0.1100 -0.0068  0.7715
 2851SOL    HW120015   2.329   2.922   6.235  2.0483 -0.3862 -0.2317
 2851SOL    HW220016   2.369   2.950   6.373 -1.0695  1.0238 -0.2958
 2852SOL     OW20017   1.383   4.437   5.744  0.3345 -0.6612 -0.5796
 2852SOL    HW120018   1.362   4.358   5.695  1.3898 -1.8450  0.8875
 2852SOL    HW220019   1.360   4.504   5.680 -2.4218  0.3343  1.4389
 2853SOL     OW20020   2.427   3.081   7.032 -0.3175 -0.1476  0.3124
 2853SOL    HW120021   2.492   3.143   7.063 -1.9901  1.3436  0.8224
 2853SOL    HW220022   2.408   3.105   6.942  2.2864 -1.4712 -0.5769
 2854SOL     OW20023   2.636   4.045   7.843  0.0040  1.1941  0.3987
 2854SOL    HW120024   2.567   4.110   7.831 -1.7985 -0.7625  0.2356
 2854SOL    HW220025   2.649   4.004   7.757  0.1154  1.1573  0.4328
 2855SOL     OW20026   4.488   2.120   5.815 -0.1855 -0.0465  0.3156
 2855SOL    HW120027   4.495   2.097   5.722 -0.0700 -0.6125  0.4650
 2855SOL    HW220028   4.536   2.051   5.860  0.6620 -0.2835 -0.9606
 2856SOL     OW20029   4.275   1.167   0.232 -0.7355 -0.1984 -0.7842
 2856SOL    HW120030   4.307   1.241   0.283  0.7703 -1.2505 -0.2013
 2856SOL    HW220031   4.312   1.090   0.276 -1.2695 -0.3019 -0.5037
 2857SOL     OW20032   0.990   1.502   7.962 -0.5002 -0.1589 -0.2447
 2857SOL    HW120033   1.057   1.562   7.994 -0.0112  0.2538 -2.0393
 2857SOL    HW220034   0.971   1.446   8.037  1.0814 -1.1777 -0.6143
 2858SOL     OW20035   2.128   1.112   5.646 -0.0096  0.3263  0.0413
 2858SOL    HW120036   2.179   1.191   5.662 -0.7703  0.8456 -0.0650
 2858SOL    HW220037   2.042   1.139   5.678 -0.6299 -1.9859  0.3874
 2859SOL     OW20038   2.799   1.002   0.352 -0.2578  0.2889  0.0432
 2859SOL    HW120039   2.851   1.025   0.429 -0.2462  1.6375 -0.3630
 2859SOL    HW220040   2.817   0.908   0.350 -0.4982  0.1790  2.7021
 2860SOL     OW20041   2.244   0.050  14.472 -0.8053  0.5160 -0.1334
 2860SOL    HW120042   2.169   0.030  14.528 -0.9719 -0.9735 -0.8845
 2860SOL    HW220043   2.253   4.680  14.444 -0.5786 -0.2087  2.2922
 2861SOL     OW20044   3.139   0.818   2.599  0.1249 -0.0503  0.2192
 2861SOL    HW120045   3.148   0.744   2.539 -1.5825 -0.3508  0.3365
 2861SOL    HW220046   3.195   0.787   2.670 -0.2277 -0.7693  0.1804
 2862SOL     OW20047   2.302   2.974   2.397 -0.2053 -0.1210 -0.0019
 2862SOL    HW120048   2.358   3.044   2.431  0.6997 -0.0010 -1.7415
 2862SOL    HW220049   2.232   3.024   2.355 -0.5563 -3.4969 -3.5018
 2863SOL     OW20050   0.859   3.277   7.478  0.0608  0.0907  0.2000
 2863SOL    HW120051   0.824   3.196   7.516  1.6654 -0.0132  1.4473
 2863SOL    HW220052   0.790   3.295   7.414 -1.7753 -0.9124  1.8965
 2864SOL     OW20053   3.125   1.612   4.277  0.9185  0.1419  0.7176
 2864SOL    HW120054   3.196   1.607   4.213  0.3666  0.6227  0.0638
 2864SOL    HW220055   3.181   1.632   4.351 -1.5973 -1.3416  3.0087
 2865SOL     OW20056   1.257   1.531   7.655 -0.2353  0.5351  0.0545
 2865SOL    HW120057   1.277   1.600   7.718  0.4222  1.2993 -0.9923
 2865SOL    HW220058   1.327   1.467   7.673 -1.9061 -0.4821  2.9254
 2866SOL     OW20059   0.348   3.858   6.391 -0.0143 -0.4603  0.1091
 2866SOL    HW120060   0.393   3.785   6.348  3.1149  0.9128  1.0701
 2866SOL    HW220061   0.261   3.821   6.410  0.5421 -0.0270  3.4397
 2867SOL     OW20062   4.698   0.508   9.209  0.5717  0.3684 -0.3254
 2867SOL    HW120063   4.643   0.493   9.286  0.0896 -0.1831 -0.7725
 2867SOL    HW220064   4.655   0.584   9.169  0.3251  1.4409  1.9682
 2868SOL     OW20065   0.608   4.090   1.386 -0.7098  0.3701  0.2277
 2868SOL    HW120066   0.551   4.137   1.447  1.3642  3.2409 -0.0229
 2868SOL    HW220067   0.657   4.045   1.455 -2.5965  0.5354  1.6706
 2869SOL     OW20068   4.467   0.320   7.911 -0.0044  0.5120  0.0965
 2869SOL    HW120069   4.522   0.365   7.975 -0.1421 -0.3655  0.8243
 2869SOL    HW220070   4.489   0.356   7.825 -1.1780 -1.7229 -1.1185
 2870SOL     OW20071   0.422   3.788   9.154  0.0466 -0.1995  0.0387
 2870SOL    HW120072   0.349   3.823   9.102  1.0149 -0.5528 -1.5673
 2870SOL    HW220073   0.374   3.721   9.202 -1.0134 -0.2741 -1.1204
 2871SOL     OW20074   1.416   1.358  16.223 -0.1841  0.4074  0.2773
 2871SOL    HW120075   1.482   1.289  16.217  0.2570  0.8099  0.5473
 2871SOL    HW220076   1.442   1.417  16.152  1.9264 -0.2928  0.4744
 2872SOL     OW20077   1.598   3.141   7.889  0.0539  0.0669  0.3959
 2872SOL    HW120078   1.529   3.175   7.831  1.3077  1.3888 -0.3199
 2872SOL    HW220079   1.575   3.175   7.975  0.4726 -0.9191  0.8902
 2873SOL     OW20080   3.016   4.389   3.569  0.4402  0.4596 -0.5297
 2873SOL    HW120081   3.089   4.367   3.626 -1.3408 -1.4490  1.0143
 2873SOL    HW220082   2.939   4.352   3.613  0.2511  1.2887 -0.1650
 2874SOL     OW20083   2.556   3.537   0.310 -0.8150  0.5663 -0.0725
 2874SOL    HW120084   2.490   3.561   0.375 -2.4990  0.7807 -1.8781
 2874SOL    HW220085   2.506   3.531   0.229 -0.2792  1.8751 -0.4896
 2875SOL     OW20086   3.604   1.115   9.920  0.5508 -0.1151 -0.2517
 2875SOL    HW120087   3.635   1.129  10.010  1.6597  1.4830 -0.8855
 2875SOL    HW220088   3.520   1.162   9.921  1.8588  2.2230  2.8075
 2876SOL     OW20089   4.117   2.072   2.759 -0.2692  0.0691 -0.0576
 2876SOL    HW120090   4.191   2.033   2.806 -0.2526 -0.2969 -0.3866
 2876SOL    HW220091   4.147   2.162   2.748 -1.4933  0.1072 -3.1129
 2877SOL     OW20092   4.133   3.646  17.090  0.2073 -0.5027 -0.3444
 2877SOL    HW120093   4.188   3.631  17.013  0.9473 -1.8581  0.4477
 2877SOL    HW220094   4.044   3.626  17.060 -0.3938  1.2623  0.2829
 2878SOL     OW20095   3.195   0.494   3.242 -0.2174  0.1844 -0.4506
 2878SOL    HW120096   3.164   0.404   3.230  0.0207  0.0208  0.2266
 2878SOL    HW220097   3.284   0.482   3.273 -0.0956 -0.2411 -0.9752
 2879SOL     OW20098   0.310   1.758   2.863 -0.0998 -0.4575 -0.3453
 2879SOL    HW120099   0.243   1.826   2.872  0.5676  0.5917 -3.3269
 2879SOL    HW220100   0.379   1.823   2.855 -1.2363  0.7987  0.0709
 2880SOL     OW20101   2.628   3.894   4.649 -0.3272 -0.1632  0.1127
 2880SOL    HW120102   2.540   3.880   4.614  0.1713 -1.3447 -0.6636
 2880SOL    HW220103   2.682   3.833   4.600 -2.9817 -1.2181 -1.5173
 2881SOL     OW20104   0.309   1.958   4.363 -0.0394 -0.4186 -0.2871
 2881SOL    HW120105   0.274   2.047   4.374 -0.3436 -0.4476 -1.0318
 2881SOL    HW220106   0.352   1.953   4.449 -0.7078 -0.6161  0.0348
 2882SOL     OW20107   1.197   2.383   2.147  0.0095 -0.1695 -0.5620
 2882SOL    HW120108   1.265   2.418   2.090  1.2388 -0.5560  0.6883
 2882SOL    HW220109   1.122   2.367   2.089 -0.5255 -0.0513  0.0846
 2883SOL     OW20110   4.545   0.231   2.081 -0.2971  0.2936  0.1283
 2883SOL    HW120111   4.626   0.263   2.040 -0.7994  3.7548  1.8378
 2883SOL    HW220112   4.515   0.301   2.139  1.2369  0.6926  0.4351
 2884SOL     OW20113   4.009   4.527  16.746  0.1830 -0.3374 -1.0953
 2884SOL    HW120114   3.969   4.583  16.813 -2.3180 -0.1585 -2.7548
 2884SOL    HW220115   4.098   4.562  16.748  0.5506 -1.2551 -1.3467
 2885SOL     OW20116   4.451   1.622   1.000  0.1817  0.0449 -0.5732
 2885SOL    HW120117   4.519   1.555   1.009 -0.0360 -0.3602 -1.9194
 2885SOL    HW220118   4.380   1.565   0.969  1.7020 -2.8452  1.2935
 2886SOL     OW20119   2.264   1.138   4.575 -0.1389 -0.0688  0.5767
 2886SOL    HW120120   2.233   1.183   4.496  1.9602  0.9309  0.3423
 2886SOL    HW220121   2.351   1.176   4.582  1.2551 -2.9559 -1.2555
 2887SOL     OW20122   2.301   0.208  15.545  0.6930 -0.9567 -0.8113
 2887SOL    HW120123   2.232   0.274  15.532  0.6795 -0.6941  0.5968
 2887SOL    HW220124   2.352   0.214  15.464  0.1579  0.9122 -1.0160
 2888SOL     OW20125   0.993   2.159   6.043 -0.5670  0.2855  0.3349
 2888SOL    HW120126   0.986   2.217   6.119 -0.3314  1.1990 -0.3401
 2888SOL    HW220127   1.077   2.115   6.059 -0.1734  0.4433 -1.2477
 2889SOL     OW20128   4.320   0.303   3.004  0.0074  0.5043 -0.4139
 2889SOL    HW120129   4.396   0.353   3.032 -1.0811  1.5743  0.6191
 2889SOL    HW220130   4.256   0.370   2.983 -0.3959  0.1128 -0.4452
 2890SOL     OW20131   2.337   0.483  10.646  0.7275 -0.0885  0.2842
 2890SOL    HW120132   2.314   0.394  10.621 -1.0731 -0.7699  4.3409
 2890SOL    HW220133   2.431   0.478  10.628  0.8079 -0.2724  0.7619
 2891SOL     OW20134   4.675   3.172   4.838 -0.0719  0.0554 -0.2641
 2891SOL    HW120135   4.693   3.251   4.888  1.1404  0.1858 -0.9191
 2891SOL    HW220136   4.717   3.113   4.901  0.3490 -0.0895 -0.6743
 2892SOL     OW20137   1.055   2.809  12.336 -0.1079 -0.3967  0.2081
 2892SOL    HW120138   1.122   2.877  12.331 -0.9254  0.3917  0.0338
 2892SOL    HW220139   0.985   2.850  12.285 -0.8711 -0.2451  1.3873
 2893SOL     OW20140   4.564   4.308   5.143  0.0664  0.4881  0.2562
 2893SOL    HW120141   4.580   4.215   5.158  1.4045  0.6685 -0.0037
 2893SOL    HW220142   4.470   4.297   5.158 -0.3217  0.2126 -2.4502
 2894SOL     OW20143   4.613   0.739   9.071 -0.3203  0.0848 -0.4189
 2894SOL    HW120144   4.609   0.832   9.092 -1.2945  0.4258 -2.1469
 2894SOL    HW220145   4.571   0.740   8.985  0.0971  0.9691 -0.6087
 2895SOL     OW20146   4.195   2.523   7.300  0.2675  0.2399  0.4084
 2895SOL    HW120147   4.100   2.525   7.288  0.4540  1.6559 -0.7308
 2895SOL    HW220148   4.219   2.614   7.311  3.2590 -0.4260 -0.6659
 2896SOL     OW20149   2.024   3.334   1.527  0.3383  0.2076  0.3613
 2896SOL    HW120150   2.114   3.309   1.550 -0.7417 -3.6737  0.3561
 2896SOL    HW220151   2.043   3.349   1.435  0.3476 -0.6923  0.2163
 2897SOL     OW20152   2.855   2.010   1.339 -0.3966  0.1996  0.7351
 2897SOL    HW120153   2.903   2.078   1.386  1.4649 -0.7185  0.1663
 2897SOL    HW220154   2.917   1.987   1.269 -1.0554 -2.2787  0.9851
 2898SOL     OW20155   1.151   0.758   2.887 -0.6154  0.5499 -0.1162
 2898SOL    HW120156   1.136   0.829   2.825 -1.3282  0.1281 -0.4265
 2898SOL    HW220157   1.233   0.722   2.855 -1.4628 -1.3298 -0.1822
 2899SOL     OW20158   0.649   4.702   1.908 -0.1359 -0.4144 -0.0770
 2899SOL    HW120159   0.556   4.699   1.931 -0.2502  4.1520 -0.0453
 2899SOL    HW220160   0.679   4.615   1.936  1.1768 -0.3397 -1.2549
 2900SOL     OW20161   3.157   2.102   4.565 -0.2136  0.0674 -0.1637
 2900SOL    HW120162   3.137   2.191   4.594  0.5659  0.1224  0.1989
 2900SOL    HW220163   3.154   2.102   4.470  0.3526  0.5827 -0.1800
 2901SOL     OW20164   0.688   1.377   0.467  0.2731  0.0217  0.6322
 2901SOL    HW120165   0.748   1.412   0.533  1.1323  0.3395 -0.3224
 2901SOL    HW220166   0.702   1.283   0.480  2.0853  0.0098 -1.4814
 2902SOL     OW20167   2.027   2.197  11.976  0.1704 -0.4464  0.1164
 2902SOL    HW120168   2.052   2.112  12.012 -0.7522  0.4216  2.8527
 2902SOL    HW220169   2.110   2.243  11.987  0.6942 -1.2158 -0.6187
 2903SOL     OW20170   2.279   0.781   4.278 -0.1799  0.2969  0.1749
 2903SOL    HW120171   2.210   0.820   4.332 -0.6071 -0.1817 -0.0214
 2903SOL    HW220172   2.263   0.820   4.192 -3.4592 -1.4277 -0.0166
 2904SOL     OW20173   4.448   4.352  12.505  0.0227 -0.3132  0.2449
 2904SOL    HW120174   4.364   4.393  12.524  0.5744  0.2891  1.3596
 2904SOL    HW220175   4.493   4.431  12.533  1.3014 -0.4695 -1.3128
 2905SOL     OW20176   3.426   3.740   2.846 -0.0589 -0.6157  0.0171
 2905SOL    HW120177   3.340   3.713   2.878  1.1487 -3.2009  1.1621
 2905SOL    HW220178   3.465   3.793   2.916 -2.5491 -0.3922  1.2150
 2906SOL     OW20179   0.993   0.393   7.398  0.1534  0.4341 -0.3695
 2906SOL    HW120180   1.080   0.420   7.427 -0.1571  1.8362 -0.7386
 2906SOL    HW220181   0.984   0.317   7.456  2.3302  0.5290  0.0737
 2907SOL     OW20182   1.709   4.454   2.139 -0.3069  0.5371  0.3752
 2907SOL    HW120183   1.679   4.475   2.227  0.7102  0.0847  0.8426
 2907SOL    HW220184   1.633   4.433   2.086  0.6892 -1.1879 -0.3719
 2908SOL     OW20185   2.792   4.611   8.885 -0.2233 -0.2703 -0.0635
 2908SOL    HW120186   2.707   4.607   8.841 -0.5733 -0.7516  0.6653
 2908SOL    HW220187   2.798   4.706   8.897  1.0369 -0.3240 -0.2673
 2909SOL     OW20188   4.355   0.243   0.981 -0.0855  0.3975 -0.2694
 2909SOL    HW120189   4.424   0.268   1.043  1.1937 -0.1058 -1.4717
 2909SOL    HW220190   4.390   0.160   0.949  1.0980  0.4511  0.9087
 2910SOL     OW20191   3.483   1.438   9.128  0.3648 -0.5218  0.0533
 2910SOL    HW120192   3.535   1.518   9.127  0.9383 -0.9450 -3.5007
 2910SOL    HW220193   3.476   1.409   9.220 -0.7840 -1.3677 -0.3029
 2911SOL     OW20194   0.616   0.802   2.637  0.7660  0.1630 -0.7472
 2911SOL    HW120195   0.688   0.841   2.588  0.9239  0.2486 -0.4464
 2911SOL    HW220196   0.650   0.715   2.655 -1.3162 -0.4863  0.0547
 2912SOL     OW20197   2.177   1.486   6.044 -0.3039 -0.1841 -0.1117
 2912SOL    HW120198   2.202   1.553   6.107 -0.4341 -0.1501 -0.0966
 2912SOL    HW220199   2.246   1.420   6.055 -1.1573 -1.2437 -1.0978
 2913SOL     OW20200   2.182   1.210   3.631  0.1850 -0.8112  0.6544
 2913SOL    HW120201   2.149   1.231   3.718 -0.2254  0.1200  0.2778
 2913SOL    HW220202   2.250   1.274   3.612 -0.4413 -0.8497 -1.7498
 2914SOL     OW20203   2.235   0.067   0.545 -0.2889 -0.5844  0.0239
 2914SOL    HW120204   2.237   0.154   0.506  0.0125 -0.1074  1.1057
 2914SOL    HW220205   2.164   0.026   0.495  0.0239 -0.8004 -0.2522
 2915SOL     OW20206   1.843   1.964  16.084 -0.5380 -0.1532  0.4468
 2915SOL    HW120207   1.797   1.996  16.007 -0.6078 -1.5742 -0.0916
 2915SOL    HW220208   1.885   2.046  16.112  0.9319 -0.6240 -0.3719
 2916SOL     OW20209   0.392   4.621   6.355  0.0515  0.1690  0.6436
 2916SOL    HW120210   0.382   4.564   6.432  2.2723 -1.6488 -0.4344
 2916SOL    HW220211   0.446   4.563   6.302  2.2299  1.6815  1.2038
 2917SOL     OW20212   0.537   3.407   7.585 -0.6354  0.0085  0.0242
 2917SOL    HW120213   0.550   3.332   7.644 -1.3311 -0.0169  0.1445
 2917SOL    HW220214   0.538   3.366   7.499  2.9719  2.9970 -1.3485
 2918SOL     OW20215   4.061   2.239   5.783  0.3468  0.1153  0.2524
 2918SOL    HW120216   3.996   2.302   5.753 -0.5527 -0.6684  0.5639
 2918SOL    HW220217   4.018   2.202   5.860  1.5782 -2.1525 -0.1473
 2919SOL     OW20218   4.462   1.475   7.500 -0.0911  0.4402 -0.3384
 2919SOL    HW120219   4.520   1.402   7.524 -0.9069  0.4805  1.8249
 2919SOL    HW220220   4.496   1.540   7.561 -0.3450  0.1397  0.1324
 2920SOL     OW20221   3.091   3.573   9.060  0.1152 -0.2952  0.3996
 2920SOL    HW120222   3.102   3.659   9.019  2.2498 -1.7960 -2.2070
 2920SOL    HW220223   3.177   3.573   9.102 -0.4846  0.6879  1.6128
 2921SOL     OW20224   1.294   3.623  16.039  0.0812 -0.0636 -0.2340
 2921SOL    HW120225   1.237   3.554  16.074  0.3016  0.1058  0.4576
 2921SOL    HW220226   1.317   3.583  15.955  0.5184 -2.1284  0.8616
 2922SOL     OW20227   0.150   1.005   6.104  1.3934 -0.1780 -0.3136
 2922SOL    HW120228   0.095   0.934   6.136 -0.2297 -0.3995 -3.6399
 2922SOL    HW220229   0.226   0.953   6.076  2.1634 -0.2434  1.9151
 2923SOL     OW20230   2.696   1.423   3.714  0.1067 -0.5270  0.5520
 2923SOL    HW120231   2.782   1.385   3.730  0.1453 -0.6375  0.0774
 2923SOL    HW220232   2.719   1.508   3.675 -2.0446 -1.0266 -1.8483
 2924SOL     OW20233   4.409   1.673  15.462  1.2034 -0.7974 -0.1708
 2924SOL    HW120234   4.362   1.743  15.417  1.4312  1.0177  2.3872
 2924SOL    HW220235   4.499   1.706  15.462  1.0037 -0.2698 -0.5251
 2925SOL     OW20236   3.486   2.223   0.307 -0.1833  0.0523 -0.2480
 2925SOL    HW120237   3.521   2.257   0.390  2.2415 -0.9204 -0.8656
 2925SOL    HW220238   3.501   2.128   0.311 -0.5945  0.0496  1.6710
 2926SOL     OW20239   3.153   0.549   6.814  0.4454  0.0503 -0.1743
 2926SOL    HW120240   3.248   0.562   6.807  0.2354  0.5667 -1.9760
 2926SOL    HW220241   3.151   0.494   6.892  0.9358  2.2039  1.3590
 2927SOL     OW20242   3.519   1.059  10.218 -0.4318  0.0694 -0.0446
 2927SOL    HW120243   3.550   1.038  10.307  1.6011  1.4576 -0.4358
 2927SOL    HW220244   3.440   1.111  10.234 -0.4568 -0.7490  2.5258
 2928SOL     OW20245   2.106   0.624  17.170 -0.4228  0.4435 -0.0369
 2928SOL    HW120246   2.025   0.667  17.194 -1.7700 -1.6583 -0.8449
 2928SOL    HW220247   2.082   0.533  17.188 -0.9582  0.8554  1.3226
 2929SOL     OW20248   2.198   2.826   4.271 -0.1848 -0.2886  0.3842
 2929SOL    HW120249   2.231   2.750   4.224 -0.4554 -0.0744 -0.1450
 2929SOL    HW220250   2.193   2.787   4.358  1.6280 -1.0289  0.1636
 2930SOL     OW20251   1.331   2.987   6.923 -0.0529 -0.0049 -0.0815
 2930SOL    HW120252   1.416   3.031   6.923 -0.2936  0.4665  0.1932
 2930SOL    HW220253   1.345   2.903   6.965 -1.3226 -0.6046 -0.8677
 2931SOL     OW20254   0.741   0.451   2.221  0.1678 -0.0441  0.3019
 2931SOL    HW120255   0.724   0.383   2.155 -0.1331 -0.5369  0.8909
 2931SOL    HW220256   0.653   0.485   2.208 -0.2539 -0.8923  0.9660
 2932SOL     OW20257   2.459   0.937   7.443  0.4816  0.1570  0.3128
 2932SOL    HW120258   2.478   0.996   7.517  1.1652  1.2176 -0.7156
 2932SOL    HW220259   2.474   1.002   7.374  0.3664 -0.5256 -0.3520
 2933SOL     OW20260   2.621   0.933   8.469 -0.2187 -0.0319 -0.6352
 2933SOL    HW120261   2.580   1.001   8.416  0.6483  1.4268  0.5592
 2933SOL    HW220262   2.671   0.882   8.405 -1.1406  0.5369 -1.8259
 2934SOL     OW20263   4.420   4.598   6.130  0.5604  0.2291 -0.4770
 2934SOL    HW120264   4.508   4.633   6.126  0.3935  0.7071  0.0953
 2934SOL    HW220265   4.434   4.526   6.192 -0.0084  0.9821  0.5287
 2935SOL     OW20266   1.588   3.380   0.280  0.4431 -0.0557 -0.9651
 2935SOL    HW120267   1.612   3.472   0.285  0.0997  0.0952 -2.1720
 2935SOL    HW220268   1.543   3.376   0.365  0.2787  0.1757 -1.0420
 2936SOL     OW20269   0.798   4.537   6.550 -0.2734 -0.8732 -0.0984
 2936SOL    HW120270   0.866   4.593   6.589 -0.7529 -1.3212  1.4040
 2936SOL    HW220271   0.830   4.447   6.545  2.2582  0.0580 -0.9060
 2937SOL     OW20272   0.210   2.203   3.678  0.0520 -0.2914 -0.0573
 2937SOL    HW120273   0.232   2.273   3.739  0.3765  0.0384 -0.5598
 2937SOL    HW220274   0.115   2.210   3.667  0.1297 -0.6731 -0.9700
 2938SOL     OW20275   4.166   4.289  14.979  0.0675 -0.1903  0.1939
 2938SOL    HW120276   4.122   4.208  14.955 -0.1632 -0.2498  0.8038
 2938SOL    HW220277   4.145   4.296  15.072  0.7859 -0.5146  0.3866
 2939SOL     OW20278   2.379   0.386   3.930 -0.2853 -0.3779 -0.2904
 2939SOL    HW120279   2.297   0.370   3.885 -1.1679  1.5687  0.6396
 2939SOL    HW220280   2.413   0.455   3.873  0.0698 -0.1392  0.2064
 2940SOL     OW20281   2.133   2.601   3.163  0.2158  0.1675  0.3283
 2940SOL    HW120282   2.096   2.596   3.075 -0.1969 -0.8984  0.5617
 2940SOL    HW220283   2.074   2.533   3.195 -0.5701  0.1302 -1.2127
 2941SOL     OW20284   0.036   3.978   2.824 -0.0809 -0.3183 -0.1527
 2941SOL    HW120285   4.679   4.030   2.805  0.5884  0.3514 -1.0826
 2941SOL    HW220286   0.041   3.925   2.744 -1.4637 -1.2354  0.3622
 2942SOL     OW20287   2.167   3.476  11.282  0.1254 -0.0455 -0.4510
 2942SOL    HW120288   2.233   3.544  11.290 -0.2376  0.3133 -0.5284
 2942SOL    HW220289   2.134   3.494  11.194  2.0555  3.0760 -0.5095
 2943SOL     OW20290   2.843   2.693   0.962 -0.1152 -0.5498  0.2028
 2943SOL    HW120291   2.875   2.783   0.961  1.6811 -1.1748  1.0639
 2943SOL    HW220292   2.754   2.705   0.929 -0.8709 -1.6239  1.8564
 2944SOL     OW20293   0.324   3.184  14.218 -0.2684  0.8462 -0.7021
 2944SOL    HW120294   0.280   3.100  14.229  0.1531  0.5114 -1.6413
 2944SOL    HW220295   0.304   3.205  14.127  0.5846  0.6278 -0.9354
 2945SOL     OW20296   0.297   2.384   0.106  0.5926  0.9335 -0.5668
 2945SOL    HW120297   0.271   2.320   0.172  0.6385 -0.4506 -1.8879
 2945SOL    HW220298   0.248   2.457   0.144  0.5481  0.9323 -0.6219
 2946SOL     OW20299   0.064   0.600   2.699 -0.4073 -0.4396  0.2800
 2946SOL    HW120300   0.115   0.643   2.768  0.2273 -0.3269 -0.2669
 2946SOL    HW220301   4.708   0.657   2.708 -0.3195 -0.0921 -1.2144
 2947SOL     OW20302   2.315   4.684   9.342 -0.4875  0.1082 -0.2583
 2947SOL    HW120303   2.314   4.622   9.415  1.7293 -0.6731 -0.9122
 2947SOL    HW220304   2.224   4.713   9.355 -0.3921  1.4391 -2.4381
 2948SOL     OW20305   2.594   4.081  15.609 -0.2081 -0.2020  0.0256
 2948SOL    HW120306   2.678   4.127  15.605  1.6907 -3.4284  3.1745
 2948SOL    HW220307   2.529   4.151  15.606  0.0594  0.0909  1.1287
 2949SOL     OW20308   0.381   1.089  11.469 -0.4613 -0.2517 -0.5952
 2949SOL    HW120309   0.325   1.055  11.539  0.7969  1.0652  1.0699
 2949SOL    HW220310   0.458   1.037  11.490 -0.1232  0.1531 -0.8442
 2950SOL     OW20311   3.654   3.033  13.609  0.1188  0.0448 -0.2707
 2950SOL    HW120312   3.713   3.035  13.685 -1.6501 -0.2033  1.1285
 2950SOL    HW220313   3.615   2.945  13.612  2.2283 -0.9210 -1.6566
 2951SOL     OW20314   3.271   3.722   8.866 -0.2195  0.0229  0.1540
 2951SOL    HW120315   3.224   3.668   8.803  1.6084 -0.5036 -0.7436
 2951SOL    HW220316   3.325   3.656   8.909 -2.0413 -2.1936 -0.9931
 2952SOL     OW20317   1.395   3.261   2.425  0.3864  0.7122 -0.2107
 2952SOL    HW120318   1.365   3.349   2.447 -1.1029 -0.0362  0.7882
 2952SOL    HW220319   1.403   3.262   2.330  2.3934 -0.6301 -0.0646
 2953SOL     OW20320   4.673   3.442   5.018 -0.4296 -0.1645  0.6132
 2953SOL    HW120321   4.644   3.500   5.088 -0.6589 -0.5116  0.8076
 2953SOL    HW220322   0.046   3.453   5.030 -0.5892  0.8568  0.8517
 2954SOL     OW20323   1.974   2.715   5.334  0.7064  0.1305  0.0789
 2954SOL    HW120324   2.007   2.730   5.423  2.1135 -1.2584 -0.2005
 2954SOL    HW220325   1.928   2.633   5.351  0.9535  0.1093  0.6693
 2955SOL     OW20326   0.878   3.136   1.952 -0.0620 -0.0117 -0.1201
 2955SOL    HW120327   0.848   3.121   1.863  1.6152  1.4504 -0.9274
 2955SOL    HW220328   0.884   3.231   1.945 -0.5143 -0.1159 -1.8046
 2956SOL     OW20329   3.562   3.136   1.100 -0.1887  0.5119  0.2932
 2956SOL    HW120330   3.644   3.167   1.137 -0.9430  0.4554  2.0154
 2956SOL    HW220331   3.582   3.129   1.007 -1.3090 -1.0085  0.1597
 2957SOL     OW20332   2.594   0.071   9.758 -0.1365  0.7372 -0.0688
 2957SOL    HW120333   2.520   0.055   9.700 -0.6961 -0.2355  0.9283
 2957SOL    HW220334   2.667   0.055   9.698 -1.1014 -0.5633 -0.8900
 2958SOL     OW20335   1.611   1.089   1.438 -0.2226 -0.0641  0.2570
 2958SOL    HW120336   1.551   1.136   1.496  0.5004  0.0873  0.8757
 2958SOL    HW220337   1.635   1.013   1.491 -0.1776  1.0496  1.8067
 2959SOL     OW20338   1.323   2.133   2.212  0.2697 -0.4593  0.4434
 2959SOL    HW120339   1.374   2.155   2.290 -0.8939 -0.8861  1.3316
 2959SOL    HW220340   1.278   2.215   2.193  0.0859 -0.4944  0.7186
 2960SOL     OW20341   1.270   3.348   6.223  0.2724 -0.1035 -0.1652
 2960SOL    HW120342   1.283   3.289   6.150  0.3487 -0.8087  0.4179
 2960SOL    HW220343   1.231   3.414   6.165  0.4463 -0.4044 -0.6195
 2961SOL     OW20344   0.933   0.848   7.277 -0.3447 -0.6231 -0.3041
 2961SOL    HW120345   0.906   0.756   7.275  1.4853 -1.1966  2.0545
 2961SOL    HW220346   1.025   0.843   7.250  0.0011  3.6241  0.1950
 2962SOL     OW20347   2.831   2.881   6.284  1.0138 -0.3667 -0.0889
 2962SOL    HW120348   2.926   2.874   6.283  0.8737 -1.9698 -2.1069
 2962SOL    HW220349   2.809   2.795   6.249  0.2230 -0.9348  1.7534
 2963SOL     OW20350   2.349   4.619   5.393 -0.1906  0.0194  0.4672
 2963SOL    HW120351   2.387   4.535   5.418 -0.2717 -0.3994 -0.8145
 2963SOL    HW220352   2.263   4.595   5.359  0.6476 -2.1818 -0.0635
 2964SOL     OW20353   0.566   3.214   6.086  0.2243  0.0091  0.1454
 2964SOL    HW120354   0.654   3.241   6.111  0.0546  0.2108  0.5242
 2964SOL    HW220355   0.515   3.266   6.148  0.0139  0.8826 -0.7451
 2965SOL     OW20356   2.978   1.608   2.173 -0.2572 -0.0379  0.1071
 2965SOL    HW120357   3.066   1.577   2.153 -0.3183  0.3886 -0.8200
 2965SOL    HW220358   2.927   1.537   2.133  0.3196 -0.5678  0.3132
 2966SOL     OW20359   3.202   2.439   7.690 -0.7713 -0.4441 -0.6964
 2966SOL    HW120360   3.176   2.443   7.782  0.4072  1.6418 -0.4457
 2966SOL    HW220361   3.265   2.368   7.686 -0.9612 -0.6954  0.9288
 2967SOL     OW20362   2.558   0.090   7.518 -0.7400  0.5352  0.0415
 2967SOL    HW120363   2.502   0.165   7.502  0.7554  1.5826 -0.2026
 2967SOL    HW220364   2.592   0.117   7.603 -2.1512 -1.7896  1.3563
 2968SOL     OW20365   3.406   0.424   3.780 -0.0478 -0.4788 -0.4350
 2968SOL    HW120366   3.325   0.450   3.823 -1.0479 -1.0421 -1.9535
 2968SOL    HW220367   3.387   0.334   3.751 -0.7170 -0.7485  0.8474
 2969SOL     OW20368   4.260   0.108   8.007  0.1904  0.4681 -0.4412
 2969SOL    HW120369   4.321   0.107   8.081  0.4651  2.0719 -0.6585
 2969SOL    HW220370   4.303   0.171   7.949  4.9419 -1.5912  0.8047
 2970SOL     OW20371   1.237   0.291   7.782  0.1295 -0.1780  0.2410
 2970SOL    HW120372   1.254   0.220   7.843 -3.0953 -0.2681  1.0379
 2970SOL    HW220373   1.178   0.352   7.826 -2.0170 -1.1641 -1.2369
 2971SOL     OW20374   2.867   0.880   7.898 -0.0701 -0.0572 -0.0171
 2971SOL    HW120375   2.867   0.867   7.993 -1.4078 -0.4733 -0.0706
 2971SOL    HW220376   2.897   0.793   7.871  2.4458  1.1039 -0.9606
 2972SOL     OW20377   3.293   2.199   4.887  0.5510  0.4673  0.0528
 2972SOL    HW120378   3.288   2.243   4.802  0.5710  1.7805  0.7439
 2972SOL    HW220379   3.300   2.273   4.946  0.1565 -0.2695  1.0344
 2973SOL     OW20380   4.721   1.134   8.738 -0.0105  0.3196  0.1854
 2973SOL    HW120381   4.657   1.072   8.774  0.7499 -0.5583  0.0211
 2973SOL    HW220382   0.084   1.090   8.742 -0.2126 -0.2788 -2.1047
 2974SOL     OW20383   4.185   3.049   4.948  0.3474 -0.2095 -0.7993
 2974SOL    HW120384   4.201   3.055   4.854 -0.0579  0.5059 -0.8245
 2974SOL    HW220385   4.264   2.998   4.967  1.9139  2.1328 -1.0006
 2975SOL     OW20386   1.099   2.673   4.334 -0.2270 -0.0864  0.6059
 2975SOL    HW120387   1.169   2.608   4.326 -0.2565 -0.0818  0.2817
 2975SOL    HW220388   1.057   2.642   4.414 -0.4839  3.3633  1.8174
 2976SOL     OW20389   3.961   1.465   6.812  0.2234  0.1712  0.0780
 2976SOL    HW120390   3.878   1.505   6.785 -0.3183 -1.0239 -0.0086
 2976SOL    HW220391   3.988   1.427   6.729 -0.2260  1.6523 -0.7277
 2977SOL     OW20392   4.383   1.890   2.315  0.2507 -0.3254 -0.1318
 2977SOL    HW120393   4.290   1.909   2.303 -0.1927 -1.0021  2.3018
 2977SOL    HW220394   4.393   1.803   2.277  0.2970 -1.0662  1.6011
 2978SOL     OW20395   3.184   1.205  15.339 -0.1122  0.0182  0.3599
 2978SOL    HW120396   3.152   1.196  15.429 -3.1582 -0.7361 -0.8115
 2978SOL    HW220397   3.204   1.298  15.335  0.0218  0.0405  1.5752
 2979SOL     OW20398   1.567   4.494   0.213 -0.2088  0.4203  0.3217
 2979SOL    HW120399   1.603   4.454   0.292 -0.3447  0.3490  0.3488
 2979SOL    HW220400   1.639   4.554   0.197 -1.0521  0.9614 -1.3693
 2980SOL     OW20401   4.512   0.139   6.415 -0.3031 -0.2232 -0.3347
 2980SOL    HW120402   4.443   0.072   6.423 -1.1598  0.5576 -1.2354
 2980SOL    HW220403   4.563   0.130   6.495 -0.0887  1.4318 -0.2904
 2981SOL     OW20404   4.657   1.806   3.543 -0.2995  0.5826  0.4539
 2981SOL    HW120405   4.637   1.742   3.612 -0.0336 -0.7231 -0.6753
 2981SOL    HW220406   4.622   1.755   3.469 -0.6756  2.0118 -0.3533
 2982SOL     OW20407   3.942   0.489   3.205  0.6146 -0.7434 -0.0969
 2982SOL    HW120408   3.998   0.544   3.151 -0.9809  0.0757 -0.9073
 2982SOL    HW220409   3.950   0.410   3.152 -3.6309  0.3256 -2.3661
 2983SOL     OW20410   3.069   0.122   8.086  0.1651  0.1899 -0.6145
 2983SOL    HW120411   3.091   0.077   8.005 -0.0600 -0.6700 -0.1922
 2983SOL    HW220412   3.153   0.129   8.132  1.5778 -2.4397 -2.8071
 2984SOL     OW20413   4.720   0.810  14.128 -0.7441  0.2596  0.1964
 2984SOL    HW120414   0.060   0.741  14.152  0.8323  1.0197 -1.7080
 2984SOL    HW220415   0.041   0.891  14.157 -1.8059  0.0418  2.4149
 2985SOL     OW20416   3.402   4.636  10.491 -0.5412 -0.2940 -0.4171
 2985SOL    HW120417   3.346   4.703  10.530 -0.5594 -0.4397 -0.1877
 2985SOL    HW220418   3.436   4.681  10.414 -0.9380  3.5330  1.6354
 2986SOL     OW20419   4.137   0.098   3.391 -0.2076  0.1291  0.1033
 2986SOL    HW120420   4.212   0.152   3.368  1.1517 -1.7072  0.2396
 2986SOL    HW220421   4.149   0.099   3.486  0.1507 -0.3057  0.0595
 2987SOL     OW20422   1.373   1.859   7.732  0.2997 -0.0726  0.0397
 2987SOL    HW120423   1.331   1.872   7.817 -1.9992 -2.6925 -0.6890
 2987SOL    HW220424   1.450   1.916   7.739  0.8299 -0.9912  1.5149
 2988SOL     OW20425   2.761   1.030   7.095  0.4039 -0.0650  0.7244
 2988SOL    HW120426   2.738   0.951   7.145 -1.9321  1.2586  1.7469
 2988SOL    HW220427   2.856   1.026   7.086  0.2587  0.4241 -1.1236
 2989SOL     OW20428   0.710   0.722   1.003  0.0171  0.4610 -0.3665
 2989SOL    HW120429   0.656   0.774   1.063 -0.0195 -1.6460  1.4537
 2989SOL    HW220430   0.797   0.757   1.022 -1.0318  2.4243  0.8698
 2990SOL     OW20431   0.664   2.609   3.426  0.2961 -0.3457  0.4273
 2990SOL    HW120432   0.628   2.531   3.469 -1.8583 -0.2416 -1.1915
 2990SOL    HW220433   0.661   2.673   3.497  1.8608  1.5583 -1.2559
 2991SOL     OW20434   1.522   0.230   2.107  0.8241  0.4800 -0.6759
 2991SOL    HW120435   1.518   0.161   2.173  3.0458  2.1749  1.2514
 2991SOL    HW220436   1.554   0.309   2.150 -1.6244  0.4844  1.1014
 2992SOL     OW20437   0.999   1.428   6.011  0.8852  0.3565 -0.1278
 2992SOL    HW120438   1.040   1.383   6.085 -0.9900  0.6669  1.1043
 2992SOL    HW220439   1.058   1.389   5.947  0.4137 -0.4361 -0.0889
 2993SOL     OW20440   2.726   1.995   3.001  0.1245 -0.1783 -0.6714
 2993SOL    HW120441   2.756   1.982   3.091 -1.0971 -1.8502 -0.5007
 2993SOL    HW220442   2.794   1.956   2.946  2.1935  1.4400  0.7503
 2994SOL     OW20443   2.957   3.626   3.350 -0.5651 -0.1834 -0.1142
 2994SOL    HW120444   2.887   3.692   3.348 -0.9124 -0.5023  1.5366
 2994SOL    HW220445   2.918   3.539   3.347  1.4462 -1.0195 -2.1075
 2995SOL     OW20446   4.227   1.029   1.825 -0.6701  0.2946 -0.4775
 2995SOL    HW120447   4.155   1.042   1.764 -2.3990 -0.4228  1.4027
 2995SOL    HW220448   4.174   1.006   1.901 -0.9373 -2.0952 -1.3704
 2996SOL     OW20449   4.595   2.329   4.041 -0.2519 -0.3304  1.0523
 2996SOL    HW120450   4.532   2.293   3.978  0.4001  0.0367  0.1905
 2996SOL    HW220451   4.540   2.389   4.092  1.6144  3.6341 -1.5830
 2997SOL     OW20452   4.450   4.575  11.734 -0.1971 -0.4483  0.1947
 2997SOL    HW120453   4.541   4.582  11.706 -0.1210 -3.0015 -0.2018
 2997SOL    HW220454   4.454   4.489  11.777 -3.5634 -1.6642 -1.9638
 2998SOL     OW20455   0.369   2.620   5.718  0.0638  0.5812  0.2061
 2998SOL    HW120456   0.293   2.566   5.701  1.4422 -0.5297 -2.3780
 2998SOL    HW220457   0.358   2.633   5.812  1.3955  1.1781  0.2771
 2999SOL     OW20458   3.619   1.267   1.743  0.1974  0.4678  0.1305
 2999SOL    HW120459   3.558   1.328   1.785 -0.6616 -0.0900 -0.3014
 2999SOL    HW220460   3.665   1.304   1.668  0.4468  3.0812  1.5774
 3000SOL     OW20461   0.921   4.384   7.896  0.3188  0.3405  0.2402
 3000SOL    HW120462   1.011   4.419   7.889 -0.1347  1.0992 -1.9973
 3000SOL    HW220463   0.929   4.329   7.973 -2.1794 -1.4521 -0.7951
 3001SOL     OW20464   4.657   0.192  13.069 -0.0764  0.0061  0.2571
 3001SOL    HW120465   4.654   0.135  13.145  1.0157 -0.4440 -0.0316
 3001SOL    HW220466   4.574   0.171  13.026 -1.2019  1.5067  1.7016
 3002SOL     OW20467   1.038   4.517   6.916 -0.4760 -0.2063 -0.3520
 3002SOL    HW120468   0.943   4.515   6.904 -0.3074  2.3247 -2.0801
 3002SOL    HW220469   1.040   4.493   7.009  0.1772  1.4403  0.0553
 3003SOL     OW20470   1.076   0.556   3.987 -0.2366  0.0700 -0.0999
 3003SOL    HW120471   0.992   0.515   3.965  0.6777 -2.5932  1.3693
 3003SOL    HW220472   1.136   0.539   3.914  0.1151 -0.1249  0.2349
 3004SOL     OW20473   2.254   1.974  16.249  0.0120 -0.2062 -0.4118
 3004SOL    HW120474   2.292   1.972  16.337  0.6339 -1.1992 -0.6995
 3004SOL    HW220475   2.172   1.932  16.272 -0.5388  0.4960 -1.0999
 3005SOL     OW20476   1.358   1.595   2.325 -0.1240  0.5046 -0.0821
 3005SOL    HW120477   1.418   1.561   2.392  0.4698 -2.3317 -2.0580
 3005SOL    HW220478   1.395   1.552   2.248  2.7048 -0.4319  1.8014
 3006SOL     OW20479   1.832   3.516   1.556  0.1871 -0.0981 -0.1961
 3006SOL    HW120480   1.878   3.551   1.633  1.0199  0.8943 -1.1543
 3006SOL    HW220481   1.883   3.437   1.541  1.8526  0.9100  0.1337
 3007SOL     OW20482   2.442   1.552  10.128 -0.3297  0.0644  0.1731
 3007SOL    HW120483   2.406   1.609  10.060  0.7537 -0.8280 -1.1455
 3007SOL    HW220484   2.534   1.548  10.103 -0.1034  0.2744  0.9707
 3008SOL     OW20485   3.923   1.795  13.854  0.2909 -0.1563 -0.2446
 3008SOL    HW120486   3.854   1.738  13.819 -0.4934  1.2670 -1.0082
 3008SOL    HW220487   3.888   1.803  13.943  1.7115  0.5732  0.2430
 3009SOL     OW20488   2.070   0.382  10.875 -0.0003  0.5098 -0.4590
 3009SOL    HW120489   2.121   0.362  10.954  0.1706  0.4406 -0.5889
 3009SOL    HW220490   2.091   0.306  10.821 -0.7021  1.9637 -2.7525
 3010SOL     OW20491   1.952   3.979   3.167  0.0721 -0.2315 -0.0151
 3010SOL    HW120492   2.039   3.942   3.181  0.6202  1.0380 -0.1262
 3010SOL    HW220493   1.963   4.012   3.078  1.3040  0.2430  0.3195
 3011SOL     OW20494   0.252   0.931   8.318 -0.3958  0.0496 -0.8576
 3011SOL    HW120495   0.328   0.977   8.354  1.2463 -3.4136 -0.0043
 3011SOL    HW220496   0.255   0.861   8.383  0.1827 -0.4953 -1.4770
 3012SOL     OW20497   1.610   4.367   9.098  0.7149 -0.6303 -0.1659
 3012SOL    HW120498   1.687   4.397   9.049 -0.6895  0.4545 -1.7031
 3012SOL    HW220499   1.628   4.274   9.109 -0.3338 -0.9707 -1.3028
 3013SOL     OW20500   3.711   0.967  16.816  0.0743 -0.4537  0.1926
 3013SOL    HW120501   3.792   0.993  16.859 -0.9500  2.5299  0.2741
 3013SOL    HW220502   3.698   0.885  16.864 -0.8250 -0.8253 -0.6844
 3014SOL     OW20503   0.893   2.623   9.065  0.2497 -0.0817 -0.8397
 3014SOL    HW120504   0.948   2.559   9.109  0.1534  1.4182  1.4495
 3014SOL    HW220505   0.956   2.684   9.026  3.0547 -1.2146  1.9518
 3015SOL     OW20506   4.096   3.529   0.650  0.0731 -0.1807 -0.6882
 3015SOL    HW120507   4.025   3.563   0.705  1.1506  1.8911 -0.5619
 3015SOL    HW220508   4.072   3.549   0.560  0.1678  1.3250 -0.3810
 3016SOL     OW20509   2.252   0.231   0.979 -0.1732 -0.1002 -0.1369
 3016SOL    HW120510   2.258   0.327   0.986 -1.6719  0.2004 -2.9516
 3016SOL    HW220511   2.306   0.216   0.902  1.2574 -1.3009  1.1042
 3017SOL     OW20512   4.485   2.614   6.091  0.1172  0.2329  0.1633
 3017SOL    HW120513   4.458   2.702   6.064 -1.2374 -0.3971 -0.5079
 3017SOL    HW220514   4.493   2.565   6.009  2.0144 -1.9723  1.6650
 3018SOL     OW20515   1.583   0.169   6.329  0.4602 -0.3558 -0.0057
 3018SOL    HW120516   1.668   0.189   6.290  0.8228 -0.2736  0.8190
 3018SOL    HW220517   1.604   0.110   6.401  1.1879 -0.6363 -0.4512
 3019SOL     OW20518   2.856   1.244  15.408 -0.5363 -0.0698 -0.3403
 3019SOL    HW120519   2.936   1.273  15.451 -1.1309 -1.5822  1.8299
 3019SOL    HW220520   2.787   1.291  15.455  0.9308 -1.6153  3.3138
 3020SOL     OW20521   2.795   3.032   2.698  0.4047  0.2912  0.3557
 3020SOL    HW120522   2.784   2.971   2.625 -2.2023  0.6981  0.3809
 3020SOL    HW220523   2.880   3.066   2.672  1.1895 -1.3045  0.8856
 3021SOL     OW20524   2.546   1.868   2.438 -0.2093 -0.2114 -0.7273
 3021SOL    HW120525   2.585   1.885   2.524 -0.7115  1.6325 -0.8565
 3021SOL    HW220526   2.608   1.914   2.381  1.5918 -1.6305  0.0764
 3022SOL     OW20527   3.491   3.499  14.973 -0.0614 -0.1227  0.8534
 3022SOL    HW120528   3.514   3.579  14.926 -1.9291  0.2060  0.5192
 3022SOL    HW220529   3.396   3.499  14.966 -0.3011 -1.4055  3.7586
 3023SOL     OW20530   3.741   0.595   0.616 -0.0682  0.3929 -0.0834
 3023SOL    HW120531   3.834   0.583   0.594  0.5380  3.0853  0.8909
 3023SOL    HW220532   3.766   0.644   0.695 -0.7923  0.2539  0.2246
 3024SOL     OW20533   3.667   2.749  17.627 -0.4258 -0.1883 -0.5056
 3024SOL    HW120534   3.662   2.690   0.015  1.3181  0.4112  0.1074
 3024SOL    HW220535   3.628   2.698  17.557 -0.6386  1.1320 -1.3577
 3025SOL     OW20536   4.683   3.152   8.752 -0.0905  0.0578  0.0336
 3025SOL    HW120537   0.045   3.104   8.758 -0.3048 -0.3235 -0.0588
 3025SOL    HW220538   4.651   3.105   8.675  2.6383 -2.7067  0.5352
 3026SOL     OW20539   4.360   2.007   7.901 -0.0401 -0.0931 -0.2660
 3026SOL    HW120540   4.273   1.982   7.930 -1.5462  2.4235 -2.6017
 3026SOL    HW220541   4.403   2.013   7.987  1.4224 -0.7739 -0.9475
 3027SOL     OW20542   3.119   0.749  13.392  0.3884 -0.7092 -0.3732
 3027SOL    HW120543   3.204   0.738  13.434 -0.6243  2.6780  2.5928
 3027SOL    HW220544   3.129   0.809  13.319  0.6834  0.7843  0.8908
 3028SOL     OW20545   1.556   0.591   7.814  0.5278 -0.5901  0.2042
 3028SOL    HW120546   1.543   0.657   7.882 -0.6660  0.7390 -1.3190
 3028SOL    HW220547   1.627   0.626   7.760 -0.9157  0.9199 -0.6928
 3029SOL     OW20548   2.416   0.266   0.762  0.5022  0.3379  0.3660
 3029SOL    HW120549   2.484   0.329   0.738 -0.8008  1.6420  0.0701
 3029SOL    HW220550   2.333   0.296   0.726  0.8862 -0.0886 -0.8747
 3030SOL     OW20551   4.271   4.342   5.100 -0.1227  0.1907 -0.3980
 3030SOL    HW120552   4.214   4.266   5.097  0.3570 -0.2168  0.8533
 3030SOL    HW220553   4.226   4.386   5.028  2.1258  1.5130 -1.0030
 3031SOL     OW20554   4.090   1.655  16.689 -0.3642 -0.0914  0.1005
 3031SOL    HW120555   4.156   1.589  16.709  0.2143  0.9186  1.5613
 3031SOL    HW220556   4.006   1.610  16.696 -1.0154  0.8635 -1.7292
 3032SOL     OW20557   3.956   1.271   7.383  0.9721  0.2385 -0.5096
 3032SOL    HW120558   4.016   1.206   7.422 -0.6219 -0.8702  0.0696
 3032SOL    HW220559   4.016   1.345   7.374 -0.3369  1.4415  0.8943
 3033SOL     OW20560   3.089   3.555   0.403 -0.5163 -0.4004 -0.7938
 3033SOL    HW120561   3.169   3.519   0.442 -0.1243  1.4861  0.1335
 3033SOL    HW220562   3.129   3.626   0.352 -0.5584 -0.0032 -0.2756
 3034SOL     OW20563   2.976   3.538   7.258  0.2560 -0.0256 -0.0633
 3034SOL    HW120564   2.907   3.555   7.322 -0.3029 -4.6542  0.5537
 3034SOL    HW220565   3.025   3.472   7.306  0.7407 -0.8634 -1.7120
 3035SOL     OW20566   4.647   0.819  13.853 -0.6611  0.0699  0.0333
 3035SOL    HW120567   4.703   0.794  13.927  0.0995  1.3236 -0.1231
 3035SOL    HW220568   4.565   0.834  13.900 -0.8952 -1.2612  0.0586
 3036SOL     OW20569   1.089   3.722   8.959 -0.1949 -0.0035  0.4077
 3036SOL    HW120570   1.027   3.685   8.895  0.2801 -1.5559  0.8475
 3036SOL    HW220571   1.064   3.692   9.046  0.8511  0.5013  0.8744
 3037SOL     OW20572   0.513   3.396   5.061 -0.6644  0.0605 -0.1961
 3037SOL    HW120573   0.571   3.470   5.045 -1.0694  0.0949 -1.5196
 3037SOL    HW220574   0.554   3.319   5.021 -0.0455 -0.4891  1.4932
 3038SOL     OW20575   4.260   4.202  16.972 -0.1615 -0.0240  0.6879
 3038SOL    HW120576   4.258   4.295  16.995  2.3454 -0.4319  2.5489
 3038SOL    HW220577   4.166   4.188  16.983 -0.0092 -1.3231  0.2823
 3039SOL     OW20578   4.255   3.188   7.776  0.7023  0.5756 -0.2769
 3039SOL    HW120579   4.211   3.264   7.736  0.3827 -0.9994 -2.9666
 3039SOL    HW220580   4.342   3.199   7.737  0.4883 -0.3754 -1.0343
 3040SOL     OW20581   2.000   1.361   2.924 -0.0745 -0.6097 -0.1338
 3040SOL    HW120582   1.910   1.393   2.934 -0.0181  0.2035 -2.2541
 3040SOL    HW220583   2.026   1.405   2.843 -1.9567 -1.1666 -1.0467
 3041SOL     OW20584   0.588   4.370   7.331 -0.3047 -0.0027 -0.7357
 3041SOL    HW120585   0.680   4.395   7.328  0.0316 -0.4746  6.6425
 3041SOL    HW220586   0.571   4.359   7.237 -1.5607  0.1678 -0.5309
 3042SOL     OW20587   0.579   1.999   7.820 -0.5845  0.4089  0.3629
 3042SOL    HW120588   0.558   1.988   7.727  2.6366  1.6618 -0.5148
 3042SOL    HW220589   0.513   1.942   7.858 -0.2922  0.0455  0.3172
 3043SOL     OW20590   3.078   4.473   6.917  0.6068 -0.0626  0.2311
 3043SOL    HW120591   3.055   4.531   6.845  0.3159  1.6667  1.7096
 3043SOL    HW220592   3.142   4.423   6.866 -0.1740 -1.2246  0.3950
 3044SOL     OW20593   1.659   0.807   8.453  0.4025 -0.1754 -0.1988
 3044SOL    HW120594   1.623   0.734   8.403  1.5261 -0.1821 -0.9983
 3044SOL    HW220595   1.711   0.763   8.519  0.6730 -0.7742 -0.8061
 3045SOL     OW20596   3.557   1.796   6.393 -0.4463 -0.4557 -0.9099
 3045SOL    HW120597   3.508   1.858   6.446  0.5657 -0.5407  0.1285
 3045SOL    HW220598   3.546   1.719   6.449  0.4039  0.2544  0.2351
 3046SOL     OW20599   4.322   4.464   8.839  0.5807 -0.6367  0.4615
 3046SOL    HW120600   4.284   4.544   8.803 -0.1300 -0.9105  0.6009
 3046SOL    HW220601   4.362   4.503   8.917 -0.4458 -0.4507  0.8899
 3047SOL     OW20602   2.600   4.168   0.810 -0.0780  0.2535 -0.0309
 3047SOL    HW120603   2.649   4.244   0.781  1.9670 -1.5659 -1.3586
 3047SOL    HW220604   2.667   4.110   0.847  1.9880  3.4484  1.1627
 3048SOL     OW20605   1.255   3.809   6.733  0.5189 -0.1491 -0.4983
 3048SOL    HW120606   1.299   3.737   6.687  0.0413  0.1546 -1.4350
 3048SOL    HW220607   1.293   3.882   6.684  1.5116  0.3890  1.0864
 3049SOL     OW20608   4.526   4.418   4.029 -0.0021 -1.0077  0.3011
 3049SOL    HW120609   4.511   4.371   4.111  0.0818  0.0665  0.9313
 3049SOL    HW220610   4.470   4.494   4.047 -0.8057 -1.3140 -0.8625
 3050SOL     OW20611   3.688   2.584   2.837 -0.6493  0.0537 -0.3074
 3050SOL    HW120612   3.761   2.594   2.898 -1.6267  1.2891  0.6510
 3050SOL    HW220613   3.614   2.550   2.888 -0.2265 -1.9301 -1.0095
 3051SOL     OW20614   0.956   1.047   7.773 -0.1345  0.2311  0.0494
 3051SOL    HW120615   0.952   1.038   7.678  0.8115 -1.4665  0.1685
 3051SOL    HW220616   1.024   1.115   7.774  0.0524  0.0321  1.0271
 3052SOL     OW20617   1.962   3.584   3.820 -0.0730 -0.0272  0.1129
 3052SOL    HW120618   2.055   3.582   3.801 -0.2708 -2.2018 -0.5487
 3052SOL    HW220619   1.959   3.648   3.892 -1.2991  0.2962 -0.2183
 3053SOL     OW20620   0.215   1.453   4.875  0.3524 -0.1856 -0.5083
 3053SOL    HW120621   0.279   1.508   4.920 -1.3231  1.1115  0.2792
 3053SOL    HW220622   0.264   1.422   4.799  0.9408  0.1743 -0.2779
 3054SOL     OW20623   4.219   0.698   2.158 -0.3091 -0.6193  0.5120
 3054SOL    HW120624   4.158   0.772   2.166 -0.3352 -0.8400  2.4070
 3054SOL    HW220625   4.305   0.739   2.151  0.8717 -3.1957  0.0796
 3055SOL     OW20626   3.378   1.944   6.568 -0.0583 -0.2799  0.2930
 3055SOL    HW120627   3.296   1.965   6.523  0.2334 -0.7644 -0.4641
 3055SOL    HW220628   3.380   2.019   6.628 -3.8507 -1.5781  2.0336
 3056SOL     OW20629   1.601   1.326  12.942  0.0248  0.3099 -0.2586
 3056SOL    HW120630   1.582   1.305  12.850 -0.5031 -0.6867  0.0810
 3056SOL    HW220631   1.629   1.243  12.982  1.3903  1.1209  0.4846
 3057SOL     OW20632   2.106   2.586   7.255  0.6638 -0.7767  0.0666
 3057SOL    HW120633   2.052   2.653   7.297  1.7049 -0.4644  0.9067
 3057SOL    HW220634   2.191   2.629   7.255  0.0835  0.3706  0.7884
 3058SOL     OW20635   0.572   4.474   6.677 -0.5878  0.0589 -0.3478
 3058SOL    HW120636   0.645   4.535   6.667 -0.9910  0.5039 -0.5526
 3058SOL    HW220637   0.613   4.402   6.628 -0.2040  0.1141 -0.1046
 3059SOL     OW20638   1.694   1.117   2.568 -0.1191  0.2384  0.0373
 3059SOL    HW120639   1.702   1.202   2.611 -0.0069  0.9211 -1.3062
 3059SOL    HW220640   1.676   1.152   2.480  2.9997 -0.6735 -0.9521
 3060SOL     OW20641   4.584   0.663   4.472 -0.5470 -0.1094  0.0847
 3060SOL    HW120642   4.543   0.737   4.427 -0.3655  1.2554  2.1763
 3060SOL    HW220643   4.546   0.664   4.559  0.6113 -0.9470  0.5957
 3061SOL     OW20644   1.249   1.309   3.820 -0.9185 -0.4641 -0.0166
 3061SOL    HW120645   1.177   1.247   3.808  0.1573 -1.4181 -1.4616
 3061SOL    HW220646   1.225   1.378   3.758 -2.1758 -1.1048 -0.2462
 3062SOL     OW20647   4.296   3.624  11.943 -0.2584  0.2745 -0.0815
 3062SOL    HW120648   4.251   3.584  11.868  0.6384 -0.5393 -0.1851
 3062SOL    HW220649   4.323   3.711  11.912  1.2439 -1.2141 -2.9854
 3063SOL     OW20650   1.336   1.674  10.973 -0.0290 -0.6696 -0.2112
 3063SOL    HW120651   1.386   1.686  10.892  1.2202 -2.3660  0.2969
 3063SOL    HW220652   1.390   1.608  11.016 -0.1687 -0.0729  0.8861
 3064SOL     OW20653   2.640   3.841   7.636  1.0717 -0.0353  0.3403
 3064SOL    HW120654   2.552   3.842   7.598  0.8606  1.4096  0.8540
 3064SOL    HW220655   2.638   3.756   7.680  2.0127  0.1331  0.7059
 3065SOL     OW20656   0.137   4.648   8.122 -0.7013 -0.0498  0.5108
 3065SOL    HW120657   0.123   4.618   8.212  0.5353 -0.1522  0.6734
 3065SOL    HW220658   0.154   4.567   8.075  0.4496 -0.3357  1.4281
 3066SOL     OW20659   4.330   0.723   2.805 -0.0474 -0.0841 -0.3174
 3066SOL    HW120660   4.262   0.786   2.828 -1.3896 -0.7206 -2.5223
 3066SOL    HW220661   4.273   0.659   2.761 -0.0938 -0.2668  0.0074
 3067SOL     OW20662   4.510   4.106   4.466  0.0637  0.7261 -0.1485
 3067SOL    HW120663   4.535   4.037   4.406 -0.0215  0.1821  0.4426
 3067SOL    HW220664   4.596   4.133   4.497  0.1168  0.4374 -0.0434
 3068SOL     OW20665   1.553   1.454   8.673  0.8885 -0.3516 -0.3343
 3068SOL    HW120666   1.612   1.382   8.693  0.2905 -0.6570  0.3255
 3068SOL    HW220667   1.476   1.411   8.635 -0.8623  2.0617  0.4130
 3069SOL     OW20668   2.206   1.103   9.003 -0.5541 -0.5938 -0.0358
 3069SOL    HW120669   2.171   1.024   8.961 -3.4289 -0.3022  1.7957
 3069SOL    HW220670   2.279   1.126   8.946  0.7385 -0.8220  1.5286
 3070SOL     OW20671   1.842   3.237  16.929  0.2935 -0.0742 -0.1877
 3070SOL    HW120672   1.806   3.165  16.981  1.3234 -2.4436 -2.7274
 3070SOL    HW220673   1.935   3.219  16.947  0.5571  0.6107 -0.8727
 3071SOL     OW20674   3.449   2.003   6.227 -0.0654 -0.2570 -1.1465
 3071SOL    HW120675   3.482   1.930   6.280  0.6932  0.1010 -1.1303
 3071SOL    HW220676   3.474   2.080   6.277 -0.4164  1.0891 -3.0348
 3072SOL     OW20677   1.838   1.975   6.313  0.1329 -0.1897  0.3194
 3072SOL    HW120678   1.864   2.058   6.354 -1.0579  0.8871 -1.0976
 3072SOL    HW220679   1.760   1.952   6.364 -0.0433  0.8364  0.5339
 3073SOL     OW20680   1.356   1.246  14.307 -0.3809  0.5062 -0.2027
 3073SOL    HW120681   1.433   1.216  14.258  0.2230 -1.3639  1.8752
 3073SOL    HW220682   1.294   1.197  14.254  0.6329 -1.3940  0.3313
 3074SOL     OW20683   2.696   3.505  17.260 -0.4200 -0.0669  0.2368
 3074SOL    HW120684   2.729   3.491  17.171 -2.0785 -0.1638 -0.3781
 3074SOL    HW220685   2.765   3.560  17.296  1.0514 -1.9036  0.1837
 3075SOL     OW20686   1.506   3.849  11.716 -0.2233 -0.0837 -0.3004
 3075SOL    HW120687   1.506   3.945  11.726  1.6398 -0.1277  0.1272
 3075SOL    HW220688   1.454   3.850  11.636 -0.1748  0.8850 -0.3228
 3076SOL     OW20689   0.888   2.190   0.411  0.0180  0.4747 -0.4961
 3076SOL    HW120690   0.917   2.252   0.478 -0.3750  0.6494 -0.4913
 3076SOL    HW220691   0.833   2.241   0.352 -0.6766  1.8721  1.3618
 3077SOL     OW20692   2.076   1.409   2.252  0.0872  0.1399 -0.6534
 3077SOL    HW120693   2.153   1.367   2.292  0.0349  0.4197 -0.2709
 3077SOL    HW220694   2.079   1.373   2.163  1.4683 -1.1618 -0.1042
 3078SOL     OW20695   1.815   3.725   6.769  0.0512 -0.4505  0.0124
 3078SOL    HW120696   1.767   3.785   6.825  1.9621  1.0942  0.0234
 3078SOL    HW220697   1.764   3.645   6.783 -0.3153 -0.4830 -1.4980
 3079SOL     OW20698   2.396   1.188  15.935 -0.2066 -0.5295  0.1703
 3079SOL    HW120699   2.415   1.206  16.028 -0.9699 -2.6458  0.7214
 3079SOL    HW220700   2.479   1.212  15.894  0.4038  2.2394  2.9305
 3080SOL     OW20701   2.066   3.753   6.114  0.3581 -1.0520  0.3114
 3080SOL    HW120702   2.026   3.667   6.102  0.9402 -1.2106 -0.4582
 3080SOL    HW220703   2.155   3.724   6.135  0.7245  0.3806  0.7751
 3081SOL     OW20704   0.186   0.361   2.687  0.2683  0.3128  0.1918
 3081SOL    HW120705   0.260   0.404   2.645 -0.4321  3.4696  2.2037
 3081SOL    HW220706   0.139   0.443   2.702  1.4635  1.3028 -1.6360
 3082SOL     OW20707   1.400   0.262   4.008 -0.3400 -0.4269  0.0832
 3082SOL    HW120708   1.487   0.263   3.969 -0.8793 -0.6477 -1.1247
 3082SOL    HW220709   1.345   0.306   3.943  2.1585 -0.0148 -1.7252
 3083SOL     OW20710   2.156   0.975   8.138 -0.4951 -0.6011 -0.1159
 3083SOL    HW120711   2.166   1.063   8.100 -1.9116  0.1407  1.2239
 3083SOL    HW220712   2.249   0.954   8.152  0.0164  2.2421  0.8148
 3084SOL     OW20713   4.137   1.998   5.646  0.0379  0.1207 -0.1205
 3084SOL    HW120714   4.078   2.037   5.581 -2.3917  1.4296  2.8105
 3084SOL    HW220715   4.168   2.081   5.681  4.3405 -0.8295 -1.8057
 3085SOL     OW20716   0.365   2.246  11.656 -0.0655  0.5704  0.2605
 3085SOL    HW120717   0.357   2.319  11.595  2.7777  1.9158  1.5214
 3085SOL    HW220718   0.451   2.257  11.695  1.0138  0.7950 -2.1924
 3086SOL     OW20719   3.886   3.444   0.914 -0.5027 -0.0781  0.2906
 3086SOL    HW120720   3.826   3.400   0.973 -0.6402 -0.7586 -0.3493
 3086SOL    HW220721   3.963   3.390   0.931 -0.3282  0.2142  0.4235
 3087SOL     OW20722   3.387   2.015  12.265 -0.3530 -0.0152  0.4176
 3087SOL    HW120723   3.422   2.104  12.276 -0.0102 -0.1749  0.6126
 3087SOL    HW220724   3.465   1.972  12.299  1.1049  1.3964 -1.1143
 3088SOL     OW20725   3.630   3.083   3.109 -0.4620 -0.2751  0.6369
 3088SOL    HW120726   3.544   3.059   3.075  0.1693 -2.9707  0.9369
 3088SOL    HW220727   3.688   3.050   3.040 -1.3655 -1.7530  0.5864
 3089SOL     OW20728   0.085   2.482  16.637 -0.3882 -0.3539 -0.4627
 3089SOL    HW120729   0.022   2.515  16.702  0.5224 -1.0797  0.7849
 3089SOL    HW220730   0.070   2.539  16.562 -0.0922 -1.6411 -1.5016
 3090SOL     OW20731   1.375   2.478   7.159 -0.1921  0.1516  0.1322
 3090SOL    HW120732   1.323   2.507   7.233  0.1283  0.3837  0.2634
 3090SOL    HW220733   1.317   2.416   7.113  2.2741 -0.6778 -1.8738
 3091SOL     OW20734   1.523   0.575   3.667 -0.7596 -0.2237  0.4231
 3091SOL    HW120735   1.518   0.655   3.718  0.6724  0.3009 -0.2764
 3091SOL    HW220736   1.616   0.556   3.661 -1.0236 -1.3978 -0.0846
 3092SOL     OW20737   1.156   0.014   0.697  0.1662 -0.4813  0.0818
 3092SOL    HW120738   1.075   4.695   0.730 -0.1137  1.6577  1.9443
 3092SOL    HW220739   1.167   4.695   0.610 -1.9136 -0.3570 -0.2463
 3093SOL     OW20740   1.350   0.714   5.962  0.1819 -0.1832  0.3437
 3093SOL    HW120741   1.272   0.706   6.017 -0.7748  1.8466 -0.7193
 3093SOL    HW220742   1.313   0.738   5.877  0.2616 -0.1823  0.3091
 3094SOL     OW20743   4.577   3.535   1.832  0.3674  0.4124  0.0793
 3094SOL    HW120744   4.608   3.446   1.851 -1.6602 -0.3452 -0.2336
 3094SOL    HW220745   4.652   3.572   1.785  1.2172 -1.3357  0.0224
 3095SOL     OW20746   0.021   1.894   9.754  0.6430  0.0188  0.5488
 3095SOL    HW120747   0.006   1.925   9.665 -2.0325 -1.1399  0.6045
 3095SOL    HW220748   0.067   1.967   9.798  2.5004 -0.8282  0.0284
 3096SOL     OW20749   0.794   0.202   6.590  0.0541  0.3108 -0.0426
 3096SOL    HW120750   0.870   0.261   6.590  0.0111  0.3705  0.6724
 3096SOL    HW220751   0.835   0.126   6.633 -0.7513 -0.1600 -0.1189
 3097SOL     OW20752   4.202   0.833   0.640  0.1788  0.0340  0.0914
 3097SOL    HW120753   4.181   0.917   0.682 -0.1820  0.4005 -0.8295
 3097SOL    HW220754   4.294   0.824   0.664 -0.0217  0.6222  1.0765
 3098SOL     OW20755   2.491   3.138  16.024  0.4706  0.2046 -0.6139
 3098SOL    HW120756   2.543   3.209  15.987  0.2075  1.3153  1.1617
 3098SOL    HW220757   2.471   3.084  15.947  1.0342  0.1222 -0.7027
 3099SOL     OW20758   1.105   3.944   9.298 -0.2679  0.0308 -0.0063
 3099SOL    HW120759   1.023   3.979   9.260 -0.2988  1.1207  1.0571
 3099SOL    HW220760   1.087   3.851   9.306 -0.5031 -0.0500 -1.4098
 3100SOL     OW20761   2.504   1.707  14.910 -0.1411 -0.6836  0.1186
 3100SOL    HW120762   2.596   1.713  14.935 -0.1391  0.9924 -0.2990
 3100SOL    HW220763   2.461   1.718  14.995 -1.3521  0.5898 -0.6554
 3101SOL     OW20764   0.969   2.948  10.318 -0.2745  0.1084  0.3330
 3101SOL    HW120765   0.956   3.040  10.296 -1.4024  0.3356  1.8703
 3101SOL    HW220766   0.917   2.941  10.398 -0.7815  0.0603 -0.0006
 3102SOL     OW20767   4.617   1.020   7.833  0.7154 -0.2846  0.7856
 3102SOL    HW120768   4.665   0.969   7.769 -1.5166  0.6180 -1.6046
 3102SOL    HW220769   4.527   1.034   7.802  1.2368  0.8477 -0.1747
 3103SOL     OW20770   3.538   0.300   2.198 -0.1134  0.0912 -0.2815
 3103SOL    HW120771   3.496   0.246   2.131 -1.4190 -0.5594  1.0387
 3103SOL    HW220772   3.514   0.246   2.274  1.6375 -0.4148 -0.0842
 3104SOL     OW20773   2.126   2.642   8.040  0.2482  0.3161  0.3584
 3104SOL    HW120774   2.066   2.712   8.017 -0.8649 -0.8805 -0.3660
 3104SOL    HW220775   2.209   2.675   8.005 -0.1302 -0.4899 -1.2695
 3105SOL     OW20776   3.195   2.936   9.460 -0.3456  0.3509 -0.5774
 3105SOL    HW120777   3.159   2.950   9.548  0.6676  0.1345 -0.1258
 3105SOL    HW220778   3.138   2.864   9.436 -1.8216  1.6704 -1.0490
 3106SOL     OW20779   2.584   2.487   8.665 -0.1570 -0.3620  0.2157
 3106SOL    HW120780   2.614   2.570   8.704  0.4628 -0.0090 -1.0142
 3106SOL    HW220781   2.551   2.515   8.580  1.6127 -2.0473 -1.0288
 3107SOL     OW20782   1.992   3.839   9.378  0.2111 -0.2287  0.4473
 3107SOL    HW120783   1.928   3.768   9.370  0.8229 -0.6915 -0.3088
 3107SOL    HW220784   2.038   3.821   9.296  0.7711 -0.8780  0.9017
 3108SOL     OW20785   0.118   4.230   5.440  0.1307  0.7590 -0.1898
 3108SOL    HW120786   0.060   4.271   5.376  1.6362  1.6662 -0.9852
 3108SOL    HW220787   0.124   4.295   5.509 -2.8019  0.6355  0.1653
 3109SOL     OW20788   2.871   1.452   8.716 -0.5239 -0.0379 -0.3317
 3109SOL    HW120789   2.932   1.406   8.773 -1.5396 -1.6396 -0.5530
 3109SOL    HW220790   2.808   1.468   8.787  1.0019  2.5132  0.4640
 3110SOL     OW20791   3.224   0.578   6.292  0.3160  0.1177 -0.1408
 3110SOL    HW120792   3.242   0.608   6.381  1.1073  0.4320 -0.4060
 3110SOL    HW220793   3.177   0.498   6.317  2.3727 -1.5138 -1.5435
 3111SOL     OW20794   1.577   1.315   4.683 -0.2168  0.5441 -0.2352
 3111SOL    HW120795   1.643   1.314   4.753 -0.0833 -2.1730 -0.4360
 3111SOL    HW220796   1.577   1.407   4.653 -1.1822  0.7578  0.4058
 3112SOL     OW20797   4.184   1.106   4.903 -0.4599 -0.0453  0.0976
 3112SOL    HW120798   4.227   1.149   4.977 -0.7792 -2.6583  1.8061
 3112SOL    HW220799   4.202   1.016   4.930 -0.0505  0.1047  0.3285
 3113SOL     OW20800   3.744   3.065   3.354 -0.3184  0.6165  0.4744
 3113SOL    HW120801   3.714   3.077   3.264 -1.0863  1.0055  0.7839
 3113SOL    HW220802   3.684   3.009   3.403  0.3462 -1.2765 -0.8638
 3114SOL     OW20803   1.382   4.657  15.146  0.5995  0.6262  0.4602
 3114SOL    HW120804   1.374   4.566  15.175 -0.5602  0.7462  0.4924
 3114SOL    HW220805   1.291   4.675  15.124  0.7224  3.5792  2.3542
 3115SOL     OW20806   0.317   3.939   3.213  0.3748 -0.8036 -1.1626
 3115SOL    HW120807   0.251   3.977   3.155  1.4586 -1.1328 -2.6152
 3115SOL    HW220808   0.258   3.892   3.270  1.1529 -2.5274 -1.7926
 3116SOL     OW20809   4.427   3.021   9.305 -0.2143 -0.3053  0.4285
 3116SOL    HW120810   4.405   2.929   9.318 -0.1539 -0.3977 -0.1476
 3116SOL    HW220811   4.484   3.020   9.229  1.9405 -1.0564  2.0678
 3117SOL     OW20812   3.423   2.672   0.862  0.2862 -0.5381  0.3995
 3117SOL    HW120813   3.410   2.765   0.840  2.4569 -0.3719 -0.1572
 3117SOL    HW220814   3.408   2.664   0.956 -1.1430  0.9518  0.3098
 3118SOL     OW20815   3.276   4.577   2.424  0.7355  0.4702  0.8909
 3118SOL    HW120816   3.359   4.619   2.402 -1.6372  4.0978 -1.1213
 3118SOL    HW220817   3.249   4.635   2.495 -2.7363 -1.7320  1.4021
 3119SOL     OW20818   0.240   2.295   3.380  0.1848  0.4401 -0.5308
 3119SOL    HW120819   0.300   2.229   3.346 -2.8931 -2.1140 -1.0657
 3119SOL    HW220820   0.223   2.271   3.471 -0.6596 -2.2141 -1.4004
 3120SOL     OW20821   3.184   0.574   2.493  0.1606 -0.1871  0.0259
 3120SOL    HW120822   3.221   0.592   2.407 -1.4908  1.6422 -0.2896
 3120SOL    HW220823   3.227   0.492   2.519 -1.7832 -1.2214 -0.0438
 3121SOL     OW20824   3.426   2.066   0.844  0.2759  0.3432 -0.2393
 3121SOL    HW120825   3.486   2.062   0.769  0.6048 -0.1438  0.0495
 3121SOL    HW220826   3.445   2.152   0.882 -0.4873  0.3543  0.1119
 3122SOL     OW20827   4.303   1.890  15.331 -0.0439 -0.4948 -0.3538
 3122SOL    HW120828   4.376   1.952  15.328 -0.3235 -0.1363  0.5537
 3122SOL    HW220829   4.237   1.939  15.379 -0.5333 -1.5044  0.0054
 3123SOL     OW20830   1.290   0.940  15.919 -0.2590  0.2632  0.3354
 3123SOL    HW120831   1.328   0.923  15.833 -1.7101 -2.0606  0.1468
 3123SOL    HW220832   1.340   1.017  15.947 -1.5659  1.5296 -0.7852
 3124SOL     OW20833   1.741   0.787  17.620 -0.6431  0.2388 -0.3030
 3124SOL    HW120834   1.740   0.699  17.582 -2.7223 -0.4531  1.3930
 3124SOL    HW220835   1.744   0.777   0.028 -1.3271  1.5343 -0.1489
 3125SOL     OW20836   4.655   2.295   6.624  0.3058 -0.4540  0.5887
 3125SOL    HW120837   0.020   2.267   6.596  0.3618 -0.9934  1.2926
 3125SOL    HW220838   4.608   2.271   6.545 -0.2123  0.7664  0.5321
 3126SOL     OW20839   2.657   3.384  13.523 -0.2197  0.2218  0.6705
 3126SOL    HW120840   2.642   3.401  13.616  0.8223  0.0603  0.8742
 3126SOL    HW220841   2.740   3.336  13.527  0.3391  1.3412  2.7143
 3127SOL     OW20842   0.868   2.479   2.872 -0.1008  0.1618  0.1099
 3127SOL    HW120843   0.929   2.538   2.915 -1.4371  0.9654  0.9001
 3127SOL    HW220844   0.918   2.477   2.790  2.1370  0.3037  1.4701
 3128SOL     OW20845   1.077   2.383   5.769 -0.8305 -0.4855 -0.5827
 3128SOL    HW120846   0.998   2.337   5.740 -1.8082  0.5358  0.4325
 3128SOL    HW220847   1.149   2.323   5.752  1.5981  1.7257  1.9088
 3129SOL     OW20848   3.821   3.728   4.250  0.0832 -0.5505 -0.1119
 3129SOL    HW120849   3.912   3.704   4.267 -0.3656 -1.7189  0.6262
 3129SOL    HW220850   3.807   3.693   4.162 -2.2755  1.1859 -0.4283
 3130SOL     OW20851   1.909   1.199  12.950 -0.0375  0.2453  0.0603
 3130SOL    HW120852   1.824   1.156  12.963  0.0107  0.2233  0.2935
 3130SOL    HW220853   1.885   1.288  12.926 -1.7069 -0.5857 -1.4650
 3131SOL     OW20854   4.175   0.188  16.008  0.3988  0.1316  0.1160
 3131SOL    HW120855   4.256   0.239  16.001  0.6283 -0.5239 -2.0660
 3131SOL    HW220856   4.124   0.253  16.057  2.5219  0.5566  1.7533
 3132SOL     OW20857   0.365   0.950  14.155  0.3172  0.0053 -0.6006
 3132SOL    HW120858   0.311   1.019  14.117  1.8754  1.9702  0.7334
 3132SOL    HW220859   0.332   0.872  14.112 -0.1621  0.1019 -0.4047
 3133SOL     OW20860   1.641   3.123   8.193  0.2098  0.1762 -0.4600
 3133SOL    HW120861   1.734   3.116   8.216  0.1377  1.3864  0.1794
 3133SOL    HW220862   1.638   3.039   8.147  1.2385 -1.5490  2.6259
 3134SOL     OW20863   4.235   0.321  11.672 -0.3772  0.4432 -0.0290
 3134SOL    HW120864   4.325   0.289  11.679 -0.3167  1.0079  1.7702
 3134SOL    HW220865   4.185   0.244  11.643 -0.0164  0.6914 -1.3067
 3135SOL     OW20866   1.714   1.369  10.966 -1.1857 -0.5969 -0.0091
 3135SOL    HW120867   1.626   1.402  10.985 -1.0744  0.5018 -1.3357
 3135SOL    HW220868   1.703   1.311  10.891 -0.5752 -0.1597 -0.4353
 3136SOL     OW20869   4.692   0.074   5.127 -0.1207 -0.4405 -0.2313
 3136SOL    HW120870   4.641   0.007   5.081 -0.5485 -1.8605  2.2791
 3136SOL    HW220871   0.041   0.094   5.066 -1.0537 -1.9710 -1.8134
 3137SOL     OW20872   2.488   1.521  17.614 -0.0765  0.5615  0.0555
 3137SOL    HW120873   2.527   1.525  17.526 -0.4258  0.4269 -0.1064
 3137SOL    HW220874   2.561   1.490  17.666 -0.2563 -0.5001 -0.3226
 3138SOL     OW20875   3.892   1.875   3.291 -0.2051 -0.3646  0.6438
 3138SOL    HW120876   3.934   1.904   3.210 -3.0319 -0.3481 -0.8217
 3138SOL    HW220877   3.936   1.791   3.307  0.4043 -0.0692  0.4940
 3139SOL     OW20878   3.720   3.333   9.135  0.0849  0.2799 -0.5850
 3139SOL    HW120879   3.674   3.250   9.132  0.6322 -0.1023  1.3491
 3139SOL    HW220880   3.690   3.361   9.049  0.1220  0.1655 -0.6343
 3140SOL     OW20881   2.476   2.570   8.388  0.0915  0.0158  0.4340
 3140SOL    HW120882   2.394   2.618   8.386  0.1024 -0.0281 -2.0699
 3140SOL    HW220883   2.540   2.640   8.398 -1.2189  1.2748 -0.0689
 3141SOL     OW20884   1.652   1.369   0.060 -0.5347 -0.2163 -0.3996
 3141SOL    HW120885   1.698   1.291   0.032 -0.5353 -0.0069 -0.9877
 3141SOL    HW220886   1.659   1.425  17.669  2.1324 -0.1482 -0.1054
 3142SOL     OW20887   3.102   2.365   4.112 -0.0679  0.6640 -0.3576
 3142SOL    HW120888   3.094   2.457   4.137 -1.3864  0.1962  0.9651
 3142SOL    HW220889   3.022   2.337   4.158  0.4401 -0.1360  0.0464
 3143SOL     OW20890   2.345   3.178  16.499  0.3612  0.8273  0.0195
 3143SOL    HW120891   2.411   3.134  16.445  0.5714  3.2139 -1.6719
 3143SOL    HW220892   2.318   3.103  16.552 -0.9913  0.2777 -1.4256
 3144SOL     OW20893   0.291   3.502   2.106  0.0122  0.0875 -0.1156
 3144SOL    HW120894   0.293   3.575   2.045 -1.8816  0.5176  0.3375
 3144SOL    HW220895   0.228   3.534   2.170 -0.5830 -2.8115  0.7852
 3145SOL     OW20896   3.137   1.636   8.716 -0.2399 -0.3951 -0.3671
 3145SOL    HW120897   3.123   1.542   8.719  0.4474 -0.4960 -0.2009
 3145SOL    HW220898   3.219   1.644   8.765 -1.2874  0.3861  1.2367
 3146SOL     OW20899   2.260   4.073   1.960  0.1768 -0.3959  0.0867
 3146SOL    HW120900   2.254   4.154   1.910  0.0049 -2.2167 -2.8796
 3146SOL    HW220901   2.174   4.032   1.967 -0.3297  0.8649  1.1739
 3147SOL     OW20902   1.666   0.263   8.120  0.0417 -0.4289  0.0524
 3147SOL    HW120903   1.630   0.345   8.155 -0.3711 -0.4567 -0.3013
 3147SOL    HW220904   1.678   0.211   8.200  0.0756  0.0416  0.3565
 3148SOL     OW20905   0.118   0.106   2.770  0.1763 -0.6655 -0.0310
 3148SOL    HW120906   0.117   0.192   2.728  1.0330 -1.3517 -1.4687
 3148SOL    HW220907   0.042   0.065   2.728  1.6681 -1.2509 -2.2198
 3149SOL     OW20908   0.644   4.370  14.877  0.0343 -0.2863 -0.2442
 3149SOL    HW120909   0.560   4.334  14.846  0.0143 -0.4138 -0.0386
 3149SOL    HW220910   0.631   4.461  14.851  0.5759  0.4414  2.1074
 3150SOL     OW20911   4.436   1.205   1.849  0.6814  0.2585  0.3722
 3150SOL    HW120912   4.387   1.124   1.863  0.7147  0.3741  1.1403
 3150SOL    HW220913   4.398   1.243   1.770 -0.7338 -2.9435 -0.5119
 3151SOL     OW20914   2.017   3.683   8.706  0.1351  0.0503 -0.1740
 3151SOL    HW120915   1.922   3.675   8.708  0.3894 -3.0070 -0.6098
 3151SOL    HW220916   2.033   3.778   8.704 -2.7330  0.5280  0.1579
 3152SOL     OW20917   1.103   3.739  12.389  0.1606 -0.1141 -0.5024
 3152SOL    HW120918   1.132   3.651  12.366  1.4336  0.7183 -2.1233
 3152SOL    HW220919   1.086   3.777  12.303  3.8637 -1.0530 -1.6588
 3153SOL     OW20920   3.932   4.384   0.338 -0.4094  0.2727  0.4069
 3153SOL    HW120921   4.018   4.365   0.376 -1.2041 -2.3867  0.8453
 3153SOL    HW220922   3.952   4.407   0.247  0.6200  2.4369  1.1830
 3154SOL     OW20923   4.596   1.168   9.703  0.5564  0.1437 -0.1179
 3154SOL    HW120924   4.501   1.166   9.713  0.4025 -1.3978 -1.8265
 3154SOL    HW220925   4.604   1.263   9.701 -0.1435  0.2011 -0.3148
 3155SOL     OW20926   1.892   1.929   8.918 -0.2049 -0.0795 -0.0005
 3155SOL    HW120927   1.978   1.925   8.874 -1.7164 -1.9739 -2.7593
 3155SOL    HW220928   1.899   1.876   8.997 -0.1681 -0.8002 -0.4881
 3156SOL     OW20929   3.908   1.693   8.046  0.7554  0.0327  0.3086
 3156SOL    HW120930   3.987   1.736   8.079  0.5161 -1.2873  2.5841
 3156SOL    HW220931   3.883   1.746   7.970  2.6798 -2.1273 -1.7916
 3157SOL     OW20932   1.386   3.352   1.601 -0.0997 -0.0561 -0.2874
 3157SOL    HW120933   1.469   3.319   1.568  0.6515 -0.8720  2.4274
 3157SOL    HW220934   1.413   3.377   1.689 -0.6533 -0.4451 -0.0015
 3158SOL     OW20935   0.836   2.831   2.467 -0.7331 -0.5286  0.3692
 3158SOL    HW120936   0.804   2.920   2.484 -4.1622 -1.8884  1.1487
 3158SOL    HW220937   0.898   2.821   2.540 -2.0544  3.0216  1.9672
 3159SOL     OW20938   2.050   1.970  12.904  0.5676  0.3631  0.4828
 3159SOL    HW120939   2.023   2.051  12.946 -0.1884  0.6894 -0.6547
 3159SOL    HW220940   2.090   1.997  12.822 -0.2604 -0.9820 -0.3638
 3160SOL     OW20941   4.334   3.471  15.040  0.6405 -0.3996 -0.2420
 3160SOL    HW120942   4.326   3.418  15.120 -2.0234 -1.5192 -1.2571
 3160SOL    HW220943   4.300   3.550  15.081  0.4726 -1.2226  1.2306
 3161SOL     OW20944   1.824   1.946  12.065 -0.2154 -0.2703 -0.7990
 3161SOL    HW120945   1.908   1.939  12.019  0.1597  2.3026 -0.4835
 3161SOL    HW220946   1.761   1.969  11.996 -1.0919  2.2787  0.8413
 3162SOL     OW20947   3.801   3.547  12.473 -0.2830 -0.2372 -0.0734
 3162SOL    HW120948   3.746   3.623  12.455 -0.1295 -0.4472 -1.4403
 3162SOL    HW220949   3.893   3.560  12.451 -0.4064  0.3831 -0.2007
 3163SOL     OW20950   2.401   4.579   3.335 -0.1878 -0.0481 -0.1673
 3163SOL    HW120951   2.350   4.583   3.416  0.9471  0.9885  0.5003
 3163SOL    HW220952   2.385   4.663   3.294 -0.9430 -1.7012 -3.2493
 3164SOL     OW20953   3.523   1.592   5.859  0.0015  0.3103 -0.1113
 3164SOL    HW120954   3.519   1.618   5.950  0.5185  0.0435 -0.0140
 3164SOL    HW220955   3.616   1.597   5.840  0.4426  0.2150  2.0387
 3165SOL     OW20956   0.823   3.917  12.756 -0.0747  0.2750  0.1453
 3165SOL    HW120957   0.777   3.877  12.830 -0.0331  1.7873  0.9975
 3165SOL    HW220958   0.865   3.839  12.719  2.9495  0.4829  3.1324
 3166SOL     OW20959   4.471   3.186   6.472  0.2352 -0.0438 -0.3553
 3166SOL    HW120960   4.401   3.177   6.408  0.6534  1.1512 -0.9763
 3166SOL    HW220961   4.413   3.179   6.548  0.4247 -1.6584 -0.3457
 3167SOL     OW20962   1.661   3.960   6.868 -0.1583 -0.6291 -0.1354
 3167SOL    HW120963   1.582   3.930   6.913  0.7542 -0.7489  1.3726
 3167SOL    HW220964   1.620   4.009   6.796 -3.6437  0.3809  2.5605
 3168SOL     OW20965   2.066   4.080   9.268 -0.0356  0.6181 -0.8493
 3168SOL    HW120966   2.004   4.011   9.292  2.0294 -0.1561  2.1885
 3168SOL    HW220967   2.139   4.044   9.319  1.1082  1.4901 -1.8806
 3169SOL     OW20968   2.678   0.042   2.670 -0.3332  0.0040 -0.4759
 3169SOL    HW120969   2.765   0.044   2.630  0.2589  0.1567  0.8425
 3169SOL    HW220970   2.652   4.678   2.634 -0.3590 -0.7776  1.4021
 3170SOL     OW20971   1.188   3.061   1.441 -0.5963 -0.0623 -0.2357
 3170SOL    HW120972   1.216   2.971   1.424 -0.2038  0.1766 -0.8489
 3170SOL    HW220973   1.232   3.078   1.525  0.7242 -0.0697 -0.9246
 3171SOL     OW20974   1.023   1.208   8.768 -0.2977  0.7747  0.1895
 3171SOL    HW120975   0.939   1.194   8.724  1.2881  0.2278 -2.6850
 3171SOL    HW220976   1.008   1.148   8.842 -1.7955 -0.5570 -1.1711
 3172SOL     OW20977   1.802   3.203   3.629 -0.5027 -0.1001 -0.5501
 3172SOL    HW120978   1.834   3.126   3.583  1.2927  0.7810 -0.7660
 3172SOL    HW220979   1.713   3.170   3.641 -0.6274  0.8649  1.2941
 3173SOL     OW20980   4.324   2.295   3.320  0.1843 -0.4777  0.5800
 3173SOL    HW120981   4.340   2.201   3.308 -1.8036 -0.4168 -2.3706
 3173SOL    HW220982   4.332   2.313   3.414  1.9326  3.3112 -0.3015
 3174SOL     OW20983   3.764   3.154   7.673 -0.2062 -0.1301 -0.0291
 3174SOL    HW120984   3.781   3.158   7.767  2.2238 -2.1629 -0.3633
 3174SOL    HW220985   3.729   3.240   7.653  2.5440  0.9330 -0.2736
 3175SOL     OW20986   3.526   1.944   5.739  0.3232  0.4830  0.3256
 3175SOL    HW120987   3.602   1.894   5.769  0.9045  0.8840 -0.4884
 3175SOL    HW220988   3.541   1.940   5.645 -0.6498  0.1849  0.1813
 3176SOL     OW20989   0.678   3.458  11.942  0.0280 -0.1781  0.1540
 3176SOL    HW120990   0.709   3.455  12.033  1.6538 -2.1492 -0.4607
 3176SOL    HW220991   0.749   3.502  11.896 -0.2211  0.0039 -0.0584
 3177SOL     OW20992   3.408   3.906   6.620 -0.4869 -0.1132 -0.1010
 3177SOL    HW120993   3.397   3.812   6.637  2.8563 -0.3095  0.9160
 3177SOL    HW220994   3.415   3.909   6.525 -0.5836 -2.6636 -0.1829
 3178SOL     OW20995   3.328   0.063   9.033 -0.0948 -0.4667 -0.3329
 3178SOL    HW120996   3.347   0.102   9.118 -0.3023 -0.5128 -0.2644
 3178SOL    HW220997   3.418   0.036   9.014 -0.0621 -1.5313  1.2783
 3179SOL     OW20998   3.387   3.056   2.325 -0.1641  0.8700  0.1883
 3179SOL    HW120999   3.443   2.980   2.310 -1.4928 -0.7282  3.1953
 3179SOL    HW221000   3.308   3.039   2.272  0.8246 -1.9071 -0.4014
 3180SOL     OW21001   4.166   3.047   6.081 -0.2553 -0.3507 -0.2667
 3180SOL    HW121002   4.082   3.025   6.040 -0.6433 -0.0272  0.3576
 3180SOL    HW221003   4.209   3.085   6.004  1.7918 -1.7321  0.2033
 3181SOL     OW21004   1.316   0.755   5.480 -0.2692 -0.0242 -0.4863
 3181SOL    HW121005   1.357   0.835   5.514 -2.2555  0.9594 -0.4352
 3181SOL    HW221006   1.247   0.745   5.545  0.1871 -0.8302 -0.1221
 3182SOL     OW21007   3.562   0.831   7.997 -0.0158  0.1889 -0.2397
 3182SOL    HW121008   3.551   0.913   7.949  2.7562  0.8487  0.2746
 3182SOL    HW221009   3.655   0.834   8.018  0.2385 -0.0002 -1.3625
 3183SOL     OW21010   2.923   0.343  12.362 -0.9042  0.0399 -0.4700
 3183SOL    HW121011   2.900   0.386  12.445  0.5813 -1.2443  0.6062
 3183SOL    HW221012   2.928   0.250  12.385 -0.2706  0.6086  1.6765
 3184SOL     OW21013   0.084   0.964  13.213  0.0253  0.4775  0.1508
 3184SOL    HW121014   4.711   0.967  13.230 -0.4282 -0.6342 -2.2114
 3184SOL    HW221015   0.114   0.995  13.299  0.1636 -2.2722  1.0986
 3185SOL     OW21016   1.872   4.164   7.523 -0.0985 -0.5998  0.2332
 3185SOL    HW121017   1.915   4.249   7.519 -0.4382 -0.4375 -0.0018
 3185SOL    HW221018   1.881   4.124   7.437 -0.0878 -2.6746  1.2124
 3186SOL     OW21019   2.384   4.150   5.707 -0.1912 -0.1034  0.0578
 3186SOL    HW121020   2.301   4.189   5.735 -0.3392  0.0619 -0.5980
 3186SOL    HW221021   2.448   4.220   5.720  0.9834 -0.9603 -1.1486
 3187SOL     OW21022   1.202   0.733  14.418  0.2829  0.4505  0.1251
 3187SOL    HW121023   1.166   0.646  14.402  1.4730 -0.4449  2.4622
 3187SOL    HW221024   1.156   0.753  14.500 -0.9799 -1.9602 -0.0223
 3188SOL     OW21025   3.178   0.708   9.580 -0.4444  0.4316  0.0443
 3188SOL    HW121026   3.084   0.720   9.587 -0.3739  0.9075  0.1326
 3188SOL    HW221027   3.190   0.739   9.491  2.2102 -0.4020  0.0964
 3189SOL     OW21028   3.809   0.106   1.906 -0.1728 -0.5584  0.2853
 3189SOL    HW121029   3.782   0.014   1.906  0.4900 -0.7531  0.1244
 3189SOL    HW221030   3.763   0.131   1.826  1.8492  0.0258 -0.6894
 3190SOL     OW21031   4.031   3.575  15.041 -1.2550 -0.1565  0.0830
 3190SOL    HW121032   4.049   3.481  15.040 -1.0617 -0.1190 -0.0852
 3190SOL    HW221033   3.954   3.574  15.098 -0.2188  0.5493  1.4977
 3191SOL     OW21034   2.095   0.317  13.120  0.5135  0.4150  0.0324
 3191SOL    HW121035   2.019   0.369  13.144  1.3241  0.2394  2.9440
 3191SOL    HW221036   2.077   0.283  13.032  0.6562 -2.4675  1.1174
 3192SOL     OW21037   0.420   1.337   0.539  0.1299  0.6495  0.1037
 3192SOL    HW121038   0.508   1.346   0.502 -0.1288 -0.8165 -0.8869
 3192SOL    HW221039   0.375   1.412   0.502 -0.9644  0.3189  0.7624
 3193SOL     OW21040   3.075   2.308   7.064  0.1679 -0.8895 -0.2400
 3193SOL    HW121041   3.079   2.404   7.069  0.1838 -0.9954  1.6956
 3193SOL    HW221042   2.984   2.289   7.088  0.7857 -3.0526  0.3647
 3194SOL     OW21043   0.860   3.151   2.937  0.2223  0.2813 -0.3302
 3194SOL    HW121044   0.873   3.243   2.960 -0.1200  0.5388 -1.1707
 3194SOL    HW221045   0.862   3.174   2.844 -1.0840 -0.9826 -0.6778
 3195SOL     OW21046   2.562   3.091   3.578  0.1775  0.0265 -0.1853
 3195SOL    HW121047   2.610   3.041   3.644 -0.7596 -1.3483 -0.5306
 3195SOL    HW221048   2.578   3.176   3.617  1.1417 -0.6391  0.8604
 3196SOL     OW21049   1.717   0.815  12.910  0.3323 -0.1978  0.6375
 3196SOL    HW121050   1.805   0.849  12.894  0.3490 -0.1986  0.7291
 3196SOL    HW221051   1.742   0.730  12.944 -2.2262 -1.2194 -0.0416
 3197SOL     OW21052   2.543   3.553   8.639 -0.0646 -0.3400  0.5755
 3197SOL    HW121053   2.470   3.615   8.647  0.9649  0.6968  2.0061
 3197SOL    HW221054   2.618   3.613   8.633  0.1807 -0.7146 -0.0567
 3198SOL     OW21055   1.856   4.254   0.786 -0.1371 -0.0477  0.2077
 3198SOL    HW121056   1.872   4.181   0.846  0.2907 -1.2542 -1.3849
 3198SOL    HW221057   1.789   4.297   0.839 -1.5268 -3.5535  1.3361
 3199SOL     OW21058   2.334   0.255   1.308 -0.4427 -0.4764  0.0797
 3199SOL    HW121059   2.414   0.301   1.284  0.7276 -2.7236 -0.3002
 3199SOL    HW221060   2.318   0.295   1.394 -0.0515 -1.1437  0.4666
 3200SOL     OW21061   3.097   4.098   4.800 -0.2494  0.0932  0.1244
 3200SOL    HW121062   3.021   4.101   4.858 -0.1631  1.2652  0.1771
 3200SOL    HW221063   3.076   4.035   4.731  2.3485  0.7154 -1.2433
 3201SOL     OW21064   1.229   2.063  15.983  0.1990 -0.2384  0.6378
 3201SOL    HW121065   1.216   2.121  16.058 -0.7322  1.4954 -0.8833
 3201SOL    HW221066   1.141   2.025  15.989 -0.4877  1.4314  1.1521
 3202SOL     OW21067   0.605   2.802   8.365 -0.5104 -0.1989 -0.1973
 3202SOL    HW121068   0.631   2.758   8.446  0.2575 -0.1718 -0.4258
 3202SOL    HW221069   0.542   2.866   8.397 -1.8971 -1.3166 -0.7134
 3203SOL     OW21070   0.911   0.819  17.170 -0.2333  0.4467 -0.5385
 3203SOL    HW121071   0.920   0.914  17.161  0.4229  0.4320 -0.0575
 3203SOL    HW221072   0.937   0.821  17.263 -1.3149 -1.6491 -0.2035
 3204SOL     OW21073   3.849   2.222   6.953  0.2835 -0.4531  0.1089
 3204SOL    HW121074   3.917   2.158   6.930  1.2999 -0.3982  2.9699
 3204SOL    HW221075   3.881   2.304   6.915 -1.1859  1.3650  2.8312
 3205SOL     OW21076   2.072   3.097  15.915 -0.0955  0.3052  0.2033
 3205SOL    HW121077   2.004   3.071  15.978  0.6643  4.0805  2.5457
 3205SOL    HW221078   2.120   3.175  15.943  2.4304 -1.3733  0.5462
 3206SOL     OW21079   2.870   1.216  17.577 -0.0732 -0.0370 -0.0309
 3206SOL    HW121080   2.900   1.140  17.526  2.0203  0.4383  0.4885
 3206SOL    HW221081   2.863   1.178  17.665  1.3247  0.6216  0.3655
 3207SOL     OW21082   3.929   0.190   5.805  0.0153  0.0756  0.1999
 3207SOL    HW121083   3.866   0.210   5.874 -0.0391 -1.1936  0.5212
 3207SOL    HW221084   3.919   0.274   5.761 -0.9286 -0.5771 -0.8556
 3208SOL     OW21085   4.307   2.149   3.616 -0.4605  0.4924  0.0438
 3208SOL    HW121086   4.325   2.241   3.597  1.6333 -0.0434 -0.5664
 3208SOL    HW221087   4.392   2.106   3.613  0.9285  3.1420  1.5887
 3209SOL     OW21088   0.360   3.416  13.700 -0.0681 -0.5316 -0.0408
 3209SOL    HW121089   0.286   3.454  13.747 -0.3985 -2.5789  1.0634
 3209SOL    HW221090   0.320   3.339  13.659 -3.1586  2.5604 -2.8263
 3210SOL     OW21091   3.583   3.082  13.155  0.5771 -0.0737  0.6073
 3210SOL    HW121092   3.642   3.059  13.083 -0.5696 -0.1733 -0.3022
 3210SOL    HW221093   3.642   3.113  13.223  0.2817  2.8494 -0.4564
 3211SOL     OW21094   1.085   2.776  11.377  0.3920 -1.0590 -0.2029
 3211SOL    HW121095   1.135   2.811  11.303 -2.1999  1.3379 -0.8003
 3211SOL    HW221096   1.028   2.850  11.396  0.3322 -0.6119 -2.0760
 3212SOL     OW21097   1.603   2.584   8.514 -0.2118  0.3807  0.3421
 3212SOL    HW121098   1.638   2.603   8.427 -2.1601  0.0488 -0.5078
 3212SOL    HW221099   1.643   2.497   8.523 -0.6331 -0.0734 -2.4012
 3213SOL     OW21100   1.791   0.602  15.154 -0.4180  0.0782  0.5552
 3213SOL    HW121101   1.747   0.608  15.239  0.4522  0.0497  1.0053
 3213SOL    HW221102   1.721   0.629  15.095  0.3551 -1.7911 -1.1812
 3214SOL     OW21103   0.526   2.624   2.759  0.0385 -0.2865 -0.0035
 3214SOL    HW121104   0.526   2.695   2.695  2.1923  1.1529  1.5699
 3214SOL    HW221105   0.532   2.552   2.697 -2.0487  0.5322 -1.1238
 3215SOL     OW21106   0.462   2.572   1.691  0.0346  0.0931  0.0441
 3215SOL    HW121107   0.474   2.649   1.748  1.3870  0.0501 -0.1797
 3215SOL    HW221108   0.496   2.500   1.744 -0.4419 -0.3909 -0.3204
 3216SOL     OW21109   0.617   2.067  12.078  0.3351  0.2255 -0.2235
 3216SOL    HW121110   0.570   2.126  12.136  0.9028  1.6545 -1.2314
 3216SOL    HW221111   0.705   2.105  12.081  1.0412 -1.4711  0.5745
 3217SOL     OW21112   0.661   1.075   0.116  0.4054  0.0255  0.4701
 3217SOL    HW121113   0.699   1.141   0.058  0.3945 -0.4530 -0.0751
 3217SOL    HW221114   0.579   1.059   0.069  0.7440  0.4321 -0.2569
 3218SOL     OW21115   2.060   2.223  12.299  0.1402  0.6408 -0.1189
 3218SOL    HW121116   1.989   2.246  12.239 -0.4532  0.6155  0.5675
 3218SOL    HW221117   2.128   2.268  12.249  1.4907 -0.8949  0.3603
 3219SOL     OW21118   3.455   0.683   2.343  0.4015 -0.3503  0.0069
 3219SOL    HW121119   3.401   0.643   2.275  1.1254 -1.9719  0.3928
 3219SOL    HW221120   3.491   0.764   2.306  0.5753  0.1426  1.2295
 3220SOL     OW21121   2.376   3.123   2.914 -0.6362 -0.6671 -0.0930
 3220SOL    HW121122   2.441   3.055   2.931  2.0913  1.6490 -1.2921
 3220SOL    HW221123   2.313   3.100   2.982 -0.8417 -2.1274 -0.7718
 3221SOL     OW21124   4.293   2.512  11.692  0.4102 -0.2095 -0.3726
 3221SOL    HW121125   4.313   2.430  11.647 -0.5674 -1.2735  1.1652
 3221SOL    HW221126   4.204   2.490  11.718  0.5658 -0.6340 -0.2006
 3222SOL     OW21127   1.009   3.368   9.307 -0.2773  0.2591 -0.8670
 3222SOL    HW121128   0.954   3.323   9.243 -1.3403  0.2736  0.0290
 3222SOL    HW221129   0.987   3.322   9.388  1.4013  0.6342 -0.1966
 3223SOL     OW21130   0.297   3.124  11.135  0.3093 -0.0900 -0.4454
 3223SOL    HW121131   0.370   3.066  11.156 -1.2668 -1.5463  0.9797
 3223SOL    HW221132   0.258   3.158  11.215 -0.1037 -1.1441 -0.1887
 3224SOL     OW21133   2.559   4.378   4.506 -0.1536  0.0468 -0.6919
 3224SOL    HW121134   2.522   4.427   4.580 -0.4989 -1.3116  0.0263
 3224SOL    HW221135   2.594   4.449   4.451  0.5749 -0.1561 -0.4896
 3225SOL     OW21136   0.410   1.332  13.297 -0.5373 -0.3603  0.5482
 3225SOL    HW121137   0.371   1.391  13.362  1.7861 -0.4429  2.0182
 3225SOL    HW221138   0.468   1.275  13.348 -1.4812 -1.6955  0.1268
 3226SOL     OW21139   2.845   0.025   2.394 -0.2193 -0.3783  0.0229
 3226SOL    HW121140   2.923   0.081   2.395 -0.8949  0.5458  0.6453
 3226SOL    HW221141   2.779   0.083   2.356  1.1509  1.3886  0.3525
 3227SOL     OW21142   2.783   3.109   5.297 -0.0556 -0.4360 -0.0250
 3227SOL    HW121143   2.839   3.183   5.274  1.1239 -1.7013 -1.2389
 3227SOL    HW221144   2.768   3.135   5.388  2.1273  0.2146  0.1647
 3228SOL     OW21145   2.313   1.173   9.563 -0.0273 -0.6974 -0.1994
 3228SOL    HW121146   2.283   1.235   9.630  0.8023 -2.7219  2.0542
 3228SOL    HW221147   2.290   1.096   9.614 -0.1340  0.3174  1.2725
 3229SOL     OW21148   3.417   0.826   7.110 -0.2919 -0.7495 -0.3226
 3229SOL    HW121149   3.340   0.806   7.163  0.0088  0.2823  0.5035
 3229SOL    HW221150   3.479   0.773   7.160  0.5446  1.0485  0.5358
 3230SOL     OW21151   1.422   2.374  14.473  0.0848 -0.0489  0.2382
 3230SOL    HW121152   1.502   2.405  14.430  0.1897 -1.5103 -0.5898
 3230SOL    HW221153   1.433   2.413  14.560  4.4687  1.2825 -0.9177
 3231SOL     OW21154   3.241   3.876   5.811  0.2365 -0.4253  0.5374
 3231SOL    HW121155   3.321   3.834   5.843 -0.5781  0.0178  3.1752
 3231SOL    HW221156   3.216   3.916   5.895 -1.0225 -0.4963  0.1900
 3232SOL     OW21157   3.638   4.011   7.887 -0.0153  0.9316  0.1836
 3232SOL    HW121158   3.610   4.103   7.885  1.1039  1.2519 -0.9527
 3232SOL    HW221159   3.728   4.017   7.857  0.4855  0.0306  1.5232
 3233SOL     OW21160   0.637   3.923  10.029 -0.3566 -0.2344 -0.2040
 3233SOL    HW121161   0.548   3.955  10.046 -0.2373  0.0723 -0.1493
 3233SOL    HW221162   0.678   4.006  10.002  0.4349 -0.1556  1.1998
 3234SOL     OW21163   2.032   4.381   3.909  0.1741  0.3518 -0.3928
 3234SOL    HW121164   1.945   4.385   3.947  0.5477  1.6614  0.3425
 3234SOL    HW221165   2.077   4.398   3.992 -1.6190 -1.4778  0.9249
 3235SOL     OW21166   4.492   0.006   0.939 -0.5845  0.1712 -0.0265
 3235SOL    HW121167   4.533   4.649   0.977  1.0554  1.4240  0.7720
 3235SOL    HW221168   4.514   4.712   0.847  1.0846  1.9848  0.0665
 3236SOL     OW21169   0.166   0.831   8.978  0.0464 -0.0930 -0.4028
 3236SOL    HW121170   0.135   0.819   8.888  0.3672 -1.2670 -0.3526
 3236SOL    HW221171   0.110   0.906   8.998  0.8266  0.1073  1.0007
 3237SOL     OW21172   2.349   1.590  10.779  0.0110  0.4021 -0.7363
 3237SOL    HW121173   2.314   1.507  10.749 -0.8098  0.2144  0.7316
 3237SOL    HW221174   2.291   1.616  10.850  0.0741  0.4656 -0.7080
 3238SOL     OW21175   3.591   0.306   4.945  0.5059  0.1522  0.3672
 3238SOL    HW121176   3.659   0.293   5.011  1.3163 -0.7189 -0.6460
 3238SOL    HW221177   3.538   0.369   4.994  0.1747  1.0145 -1.1050
 3239SOL     OW21178   1.737   1.746  16.794 -0.1528  0.4744  0.0419
 3239SOL    HW121179   1.727   1.726  16.887 -0.3757 -0.9196 -0.2717
 3239SOL    HW221180   1.694   1.666  16.763  1.4132  0.0617 -1.0305
 3240SOL     OW21181   3.737   2.657   6.149 -0.2614 -0.5388 -0.2343
 3240SOL    HW121182   3.826   2.675   6.179 -0.4526  1.6182 -0.9132
 3240SOL    HW221183   3.718   2.574   6.191 -0.0365 -0.4782 -0.0135
 3241SOL     OW21184   3.822   0.606   6.942  0.9547 -0.7074  0.1489
 3241SOL    HW121185   3.851   0.520   6.911  0.4751  0.0569 -2.4711
 3241SOL    HW221186   3.895   0.661   6.912  1.4374 -1.8664 -0.7963
 3242SOL     OW21187   1.105   1.288   0.866 -0.7811 -0.0225  0.1142
 3242SOL    HW121188   1.198   1.304   0.882 -1.7657  3.0984  2.6676
 3242SOL    HW221189   1.069   1.371   0.897  1.1345  0.8341  0.0105
 3243SOL     OW21190   0.453   3.833   1.744  0.0894 -0.3396 -0.3884
 3243SOL    HW121191   0.456   3.744   1.779 -1.4070  0.6540  2.3219
 3243SOL    HW221192   0.422   3.813   1.656  0.0193 -1.9474 -0.0041
 3244SOL     OW21193   3.505   3.690   7.003 -1.1167  0.0105  0.0001
 3244SOL    HW121194   3.438   3.627   7.029 -1.2551 -0.1968 -0.8626
 3244SOL    HW221195   3.546   3.635   6.937 -1.7196 -1.7493  1.1052
 3245SOL     OW21196   0.409   0.346   5.130 -0.4107  0.5960  0.1544
 3245SOL    HW121197   0.330   0.386   5.093 -0.0287 -1.1694 -2.5456
 3245SOL    HW221198   0.410   0.379   5.220 -1.3758 -1.1703  0.8306
 3246SOL     OW21199   1.057   0.687   1.887  0.2470  0.0635 -0.4303
 3246SOL    HW121200   1.079   0.740   1.964 -1.1592  0.6791 -0.4390
 3246SOL    HW221201   0.966   0.711   1.868  0.6240  2.1750  0.3969
 3247SOL     OW21202   3.326   3.308   8.964 -0.2943  0.1450  0.2680
 3247SOL    HW121203   3.413   3.297   8.926 -0.2173 -1.4183  0.8841
 3247SOL    HW221204   3.337   3.398   8.995 -0.2872  0.0824  0.4472
 3248SOL     OW21205   3.718   0.563  11.111  0.5231 -0.4001 -0.2326
 3248SOL    HW121206   3.794   0.519  11.074 -0.0481 -0.3373 -1.4880
 3248SOL    HW221207   3.670   0.595  11.035  2.2876 -0.5007 -1.3796
 3249SOL     OW21208   0.942   1.705  11.598  0.0724  0.3833 -0.8083
 3249SOL    HW121209   0.944   1.690  11.692 -1.1775 -0.0153 -0.8352
 3249SOL    HW221210   0.907   1.626  11.555  1.1778 -0.1996 -0.6286
 3250SOL     OW21211   0.968   1.411  17.271  0.1164 -0.1711 -0.1053
 3250SOL    HW121212   0.873   1.399  17.262 -0.1138  0.4164  1.4663
 3250SOL    HW221213   0.967   1.496  17.228 -0.8507 -0.0026  0.2353
 3251SOL     OW21214   2.949   1.734   0.571  0.4127  0.2792 -0.1596
 3251SOL    HW121215   2.856   1.723   0.592  0.6515  0.6132  1.1130
 3251SOL    HW221216   2.944   1.814   0.520  0.6387 -1.4251 -2.8253
 3252SOL     OW21217   1.831   0.409  12.573  0.2302 -0.3369  0.2195
 3252SOL    HW121218   1.911   0.387  12.526 -0.0559 -0.3789 -0.2417
 3252SOL    HW221219   1.765   0.416  12.504  0.4582 -0.5837 -0.0211
 3253SOL     OW21220   4.068   0.644   7.123  1.0189  0.6431  0.4452
 3253SOL    HW121221   3.980   0.608   7.115 -0.6103  3.7801  4.0167
 3253SOL    HW221222   4.057   0.719   7.064  0.1849  0.8512  0.8687
 3254SOL     OW21223   1.708   2.698  15.543  0.1971 -0.7739 -0.0356
 3254SOL    HW121224   1.637   2.733  15.490  0.7458  2.4402  1.2899
 3254SOL    HW221225   1.669   2.640  15.608  0.1526  0.8029  1.3500
 3255SOL     OW21226   1.848   1.034   1.663 -0.0666  0.7583  0.0876
 3255SOL    HW121227   1.848   1.038   1.759 -0.2214  1.4043  0.0602
 3255SOL    HW221228   1.768   0.984   1.649  0.3056 -0.3076  1.7639
 3256SOL     OW21229   1.074   4.486  16.817  0.5669  0.1917  0.2101
 3256SOL    HW121230   1.022   4.419  16.772  0.7731  0.6950 -0.7991
 3256SOL    HW221231   1.105   4.442  16.896 -2.8805 -1.1685  0.7890
 3257SOL     OW21232   3.505   2.338  15.286  0.2101  0.5424  0.1735
 3257SOL    HW121233   3.585   2.315  15.332  1.2640 -0.7891 -2.3290
 3257SOL    HW221234   3.466   2.250  15.280 -1.2769  1.1754  0.5976
 3258SOL     OW21235   2.241   1.948   0.816 -0.1850 -0.2118  0.4097
 3258SOL    HW121236   2.305   2.018   0.828 -0.6579 -0.1079  2.3445
 3258SOL    HW221237   2.158   1.979   0.852  0.3760  0.9678  0.6896
 3259SOL     OW21238   0.128   2.490   5.269 -0.0757  0.0133  0.0522
 3259SOL    HW121239   0.047   2.442   5.253  0.2513 -0.0126 -1.5307
 3259SOL    HW221240   0.155   2.504   5.178 -2.0531  0.2443 -0.4992
 3260SOL     OW21241   3.878   1.540   3.048 -0.3564 -0.5263  0.4106
 3260SOL    HW121242   3.820   1.471   3.078  0.3877 -0.9115  0.9477
 3260SOL    HW221243   3.824   1.583   2.981 -0.8327 -3.1239 -0.8573
 3261SOL     OW21244   1.494   4.535   6.933 -0.1847 -0.2667  0.2551
 3261SOL    HW121245   1.425   4.479   6.968  0.3896 -1.0108  0.1767
 3261SOL    HW221246   1.496   4.509   6.841  0.7242 -1.7666  0.7084
 3262SOL     OW21247   3.661   3.379   6.000 -0.1910 -0.1158  0.2350
 3262SOL    HW121248   3.698   3.466   6.015  0.9329 -0.5712  0.0880
 3262SOL    HW221249   3.690   3.353   5.913 -0.8024  2.0560 -0.6203
 3263SOL     OW21250   4.085   4.174   7.163 -0.4478  0.3046 -0.1966
 3263SOL    HW121251   4.008   4.133   7.201  0.9329 -0.6769  1.5692
 3263SOL    HW221252   4.074   4.255   7.211 -0.1558  1.1416 -1.5231
 3264SOL     OW21253   3.980   3.970   4.146 -0.5511 -0.3755 -0.9437
 3264SOL    HW121254   3.991   3.892   4.091 -1.0901  0.4965 -2.3058
 3264SOL    HW221255   4.061   3.987   4.193 -1.2243  2.6721 -0.8530
 3265SOL     OW21256   3.678   3.223  13.398 -0.1251  0.8226  0.1618
 3265SOL    HW121257   3.658   3.156  13.464 -1.1098  0.7900 -0.1591
 3265SOL    HW221258   3.760   3.180  13.376 -1.0116  0.0400 -1.6533
 3266SOL     OW21259   1.126   4.561  12.981 -0.1261 -0.6393  0.1133
 3266SOL    HW121260   1.085   4.538  13.064  1.1781 -0.0951  0.8892
 3266SOL    HW221261   1.100   4.653  12.974  3.9089  0.4980  0.1385
 3267SOL     OW21262   2.052   3.545   0.731 -0.4663  0.1567  0.1800
 3267SOL    HW121263   2.139   3.580   0.710 -0.1233 -1.5727 -1.3002
 3267SOL    HW221264   2.051   3.565   0.824  0.3560 -1.9934  0.6693
 3268SOL     OW21265   0.646   1.416   7.412  0.0316  0.3292 -0.0452
 3268SOL    HW121266   0.635   1.507   7.441  1.5409 -0.4625  3.0423
 3268SOL    HW221267   0.616   1.417   7.321 -1.8565  0.3628  0.5893
 3269SOL     OW21268   1.142   2.189   7.779  0.2646 -0.0423 -0.3935
 3269SOL    HW121269   1.051   2.215   7.770 -0.4211 -1.5853  1.9769
 3269SOL    HW221270   1.166   2.173   7.687  1.8031  2.1323 -0.3670
 3270SOL     OW21271   2.063   2.025  11.241 -0.4291 -0.3806  0.3374
 3270SOL    HW121272   2.084   1.941  11.199 -0.4898 -1.5288  2.6031
 3270SOL    HW221273   2.004   1.987  11.306  0.2215 -1.2697  0.4089
 3271SOL     OW21274   0.275   4.129   6.623 -0.0055 -0.0354 -0.6386
 3271SOL    HW121275   0.233   4.142   6.538 -2.4928 -0.6014  0.4985
 3271SOL    HW221276   0.276   4.034   6.613  2.0027  0.3298 -3.9607
 3272SOL     OW21277   3.688   2.580   3.632  0.2660  0.3906  0.0893
 3272SOL    HW121278   3.741   2.587   3.553 -1.1217 -1.7198 -0.9976
 3272SOL    HW221279   3.754   2.546   3.693 -0.6922 -1.4175  0.1275
 3273SOL     OW21280   0.373   4.410   4.847  0.5657 -0.3555  0.1030
 3273SOL    HW121281   0.284   4.446   4.843  0.8863  0.6385  1.9603
 3273SOL    HW221282   0.348   4.322   4.874  0.0319  0.0748  1.0260
 3274SOL     OW21283   2.301   3.701   7.980  0.0822 -0.1593  0.2061
 3274SOL    HW121284   2.319   3.795   7.985 -1.0120  0.0443  0.3954
 3274SOL    HW221285   2.248   3.692   8.060  1.0136  4.2750  1.3562
 3275SOL     OW21286   0.978   0.608  13.245 -0.1278 -0.3072  0.2351
 3275SOL    HW121287   1.004   0.697  13.265  0.1879  0.1873 -2.3441
 3275SOL    HW221288   0.894   0.600  13.291  0.1269  0.1461  0.7682
 3276SOL     OW21289   4.613   4.638   9.998  0.5211 -0.2109  0.2042
 3276SOL    HW121290   4.554   4.595  10.059 -0.7893  2.7797  1.0363
 3276SOL    HW221291   4.560   4.714   9.975 -0.6610 -1.1355 -0.1253
 3277SOL     OW21292   1.663   3.536   7.911 -0.1719 -0.4260 -0.7484
 3277SOL    HW121293   1.660   3.449   7.872  0.4278 -1.8836  2.4037
 3277SOL    HW221294   1.737   3.565   7.859 -0.3110  0.5780 -0.3857
 3278SOL     OW21295   0.454   3.246  12.241 -0.3115  0.3462  0.1366
 3278SOL    HW121296   0.545   3.262  12.217 -0.7212 -0.5852 -2.0046
 3278SOL    HW221297   0.441   3.272  12.332 -0.5256  2.3412 -0.4567
 3279SOL     OW21298   3.059   2.331   1.040 -0.2782  0.4867 -0.3965
 3279SOL    HW121299   3.065   2.409   0.984 -0.5863  1.2528  0.6521
 3279SOL    HW221300   3.130   2.347   1.102  0.9578  0.6816 -1.8656
 3280SOL     OW21301   1.265   0.582  15.161 -0.0509 -0.4889 -0.5313
 3280SOL    HW121302   1.217   0.537  15.092 -2.1654 -0.4605  0.9224
 3280SOL    HW221303   1.354   0.549  15.155  0.6495  1.2904  0.2020
 3281SOL     OW21304   2.466   0.251   7.931 -0.2685  0.1908  0.6047
 3281SOL    HW121305   2.478   0.289   7.844 -1.0643 -2.8601 -0.8464
 3281SOL    HW221306   2.493   0.159   7.932  2.2146  0.9442  1.8218
 3282SOL     OW21307   1.547   4.174  12.006  0.1940 -0.1981  0.3825
 3282SOL    HW121308   1.597   4.248  12.040  1.1793 -1.7731  2.3779
 3282SOL    HW221309   1.517   4.120  12.079  0.2253 -1.9473 -0.8772
 3283SOL     OW21310   1.697   3.962   7.636 -0.1581 -0.1433 -0.1724
 3283SOL    HW121311   1.617   3.928   7.596  0.8027 -1.3766 -1.0295
 3283SOL    HW221312   1.716   4.034   7.576  1.1540  1.6716  2.4421
 3284SOL     OW21313   3.181   1.994  11.852 -0.3696  0.0423  0.0094
 3284SOL    HW121314   3.096   1.968  11.887 -0.2558 -0.3941 -0.0470
 3284SOL    HW221315   3.241   1.951  11.912 -1.1982  0.4093  1.1065
 3285SOL     OW21316   2.757   0.661   3.645  0.4708  0.1333 -0.2807
 3285SOL    HW121317   2.841   0.634   3.608  0.0633 -1.5021 -0.0307
 3285SOL    HW221318   2.715   0.575   3.655  0.6510  0.3483  2.4260
 3286SOL     OW21319   4.696   0.266   3.543  0.1152 -0.0868 -0.4476
 3286SOL    HW121320   0.022   0.215   3.478  1.5973  1.3528 -0.4773
 3286SOL    HW221321   4.636   0.320   3.492  0.0619  1.6285  1.4087
 3287SOL     OW21322   1.999   0.635   4.306  0.9853  0.6320  0.4498
 3287SOL    HW121323   2.073   0.596   4.259  1.4150 -0.4449  2.0455
 3287SOL    HW221324   2.034   0.631   4.395  2.0776 -0.8698 -0.0365
 3288SOL     OW21325   4.692   2.486   3.584 -0.0714  0.1267 -0.1411
 3288SOL    HW121326   4.665   2.394   3.582 -1.1284  0.4477 -0.4918
 3288SOL    HW221327   4.715   2.490   3.677 -1.5805 -1.4722  0.3059
 3289SOL     OW21328   3.858   2.374   4.168  0.4266 -0.7043  0.0159
 3289SOL    HW121329   3.784   2.313   4.163  0.7997 -1.1853  0.4050
 3289SOL    HW221330   3.814   2.448   4.210  1.7804 -1.1052  2.1000
 3290SOL     OW21331   4.223   3.872   8.325  0.3108 -0.6716 -0.2348
 3290SOL    HW121332   4.287   3.927   8.279 -0.9287 -0.5829 -1.8394
 3290SOL    HW221333   4.266   3.877   8.410 -0.7872 -0.2537  0.2895
 3291SOL     OW21334   4.535   3.720  11.306  0.9531  0.1368 -0.2280
 3291SOL    HW121335   4.475   3.791  11.283  0.0652 -0.3582  0.5416
 3291SOL    HW221336   4.550   3.728  11.400 -3.4822 -1.4224  0.6119
 3292SOL     OW21337   1.707   0.707  11.245  0.2952  0.0757 -0.4777
 3292SOL    HW121338   1.746   0.634  11.293  0.8087  0.3783 -0.4343
 3292SOL    HW221339   1.759   0.707  11.164 -1.0341  1.8937 -1.3055
 3293SOL     OW21340   1.718   4.484   0.454  0.6696  0.1534  0.2169
 3293SOL    HW121341   1.676   4.427   0.519 -0.9709  1.5933  0.3874
 3293SOL    HW221342   1.721   4.568   0.499  1.8976 -0.1023  0.6203
 3294SOL     OW21343   1.306   1.300   8.579  0.0645 -0.1147 -0.3487
 3294SOL    HW121344   1.262   1.344   8.506  0.0583 -2.5770 -1.8082
 3294SOL    HW221345   1.340   1.223   8.536 -1.3776 -1.2060  0.4693
 3295SOL     OW21346   0.701   4.338   4.836  0.7098  0.0762  0.7299
 3295SOL    HW121347   0.795   4.331   4.853  0.6766 -0.2653  0.7815
 3295SOL    HW221348   0.685   4.431   4.852 -0.2553 -0.1263  0.9732
 3296SOL     OW21349   0.952   0.326   4.570 -0.3627 -0.1701  0.1185
 3296SOL    HW121350   0.959   0.249   4.627 -0.3654  0.1335  0.5204
 3296SOL    HW221351   0.954   0.399   4.631  0.4392 -0.2033  0.1303
 3297SOL     OW21352   1.384   3.112   8.827  0.4379 -0.1841 -0.4926
 3297SOL    HW121353   1.371   3.072   8.741 -2.2593 -0.1371 -0.0977
 3297SOL    HW221354   1.456   3.058   8.862  0.5544  0.9035  0.9397
 3298SOL     OW21355   2.379   3.574  13.183  0.6321  0.4512  0.2502
 3298SOL    HW121356   2.347   3.494  13.142  0.5987  0.8532 -0.5112
 3298SOL    HW221357   2.304   3.585  13.241  0.0494  3.4417 -1.0537
 3299SOL     OW21358   3.922   1.298  11.197 -0.1622 -0.6110 -0.6329
 3299SOL    HW121359   3.945   1.265  11.110  0.6714 -0.5244 -0.4376
 3299SOL    HW221360   4.010   1.314  11.229 -0.2932 -0.9871 -0.0872
 3300SOL     OW21361   2.628   1.849   1.315 -0.0217 -0.0173  0.0774
 3300SOL    HW121362   2.582   1.883   1.238  1.5156  3.8336  0.8812
 3300SOL    HW221363   2.662   1.933   1.345  1.6561 -0.8516  0.5517
 3301SOL     OW21364   0.000   3.988  11.634 -0.0461  0.3857  0.5301
 3301SOL    HW121365   0.094   3.977  11.620 -0.2901  0.5158 -1.1673
 3301SOL    HW221366   4.702   3.909  11.685 -1.4332  0.4550  0.1096
 3302SOL     OW21367   4.602   2.833   6.242  0.4070  0.0337 -0.4436
 3302SOL    HW121368   4.585   2.864   6.331  0.3678 -0.9616 -0.1008
 3302SOL    HW221369   4.514   2.816   6.208  0.9480 -1.2385 -1.2075
 3303SOL     OW21370   2.563   3.986   5.477 -0.3250 -1.1281  0.2564
 3303SOL    HW121371   2.569   3.892   5.494  0.0148 -1.2703 -0.6872
 3303SOL    HW221372   2.469   3.998   5.481  0.1467  2.8391 -0.9197
 3304SOL     OW21373   3.600   0.134   4.223  0.0672  0.2745  0.3152
 3304SOL    HW121374   3.539   0.149   4.151 -0.2711  0.8256  0.7197
 3304SOL    HW221375   3.674   0.185   4.191  0.8888 -0.5238  0.9384
 3305SOL     OW21376   3.560   2.502   5.199 -0.4528  0.8245  0.4413
 3305SOL    HW121377   3.615   2.580   5.200  1.1017 -0.2765  0.6476
 3305SOL    HW221378   3.502   2.515   5.274  0.3200  3.3487  0.5732
 3306SOL     OW21379   0.994   4.508   2.225  0.4010  0.1950 -0.2771
 3306SOL    HW121380   0.964   4.435   2.171 -0.8615  0.8510 -0.4707
 3306SOL    HW221381   0.925   4.491   2.290 -0.0842  2.2884 -0.2595
 3307SOL     OW21382   0.589   1.999  13.379  0.1572  0.7113 -0.2972
 3307SOL    HW121383   0.620   2.063  13.316  1.7516 -0.1401 -0.3594
 3307SOL    HW221384   0.656   1.994  13.447 -0.8573 -1.1728  0.5629
 3308SOL     OW21385   2.678   4.709   6.827  0.0092  0.3683 -0.4312
 3308SOL    HW121386   2.617   0.056   6.852 -0.6080 -0.6481  0.8941
 3308SOL    HW221387   2.684   4.654   6.906 -0.1219  1.2973  0.2218
 3309SOL     OW21388   2.983   3.537   8.080 -0.4550  0.5149 -0.4780
 3309SOL    HW121389   3.060   3.593   8.077 -0.0644  0.1260  2.3270
 3309SOL    HW221390   2.995   3.492   8.164  1.7572  1.5053 -0.2794
 3310SOL     OW21391   0.973   3.646  15.183  0.4202 -0.1056  0.0061
 3310SOL    HW121392   0.935   3.714  15.127  0.1657 -0.5497 -0.3586
 3310SOL    HW221393   0.902   3.583  15.176  1.5602 -1.2884 -0.9874
 3311SOL     OW21394   2.109   4.342   9.159  0.5905  0.4130  0.0814
 3311SOL    HW121395   2.028   4.291   9.167  1.9512 -2.2477 -3.0613
 3311SOL    HW221396   2.142   4.327   9.247 -2.6756  0.1272  1.2755
 3312SOL     OW21397   1.380   3.578   4.347 -0.0948 -0.0684 -0.4184
 3312SOL    HW121398   1.456   3.566   4.404  0.2142 -1.1119 -1.0484
 3312SOL    HW221399   1.380   3.670   4.320 -1.2929  0.0829  0.0974
 3313SOL     OW21400   2.962   3.940   8.680 -0.3259  0.0300  0.0880
 3313SOL    HW121401   2.973   3.938   8.585 -0.0261 -2.7327  0.1803
 3313SOL    HW221402   2.875   3.901   8.683  0.2496 -1.2693 -0.1725
 3314SOL     OW21403   1.943   1.910  11.462  0.3557  0.0370  0.3033
 3314SOL    HW121404   1.852   1.885  11.449  0.5132 -0.1493 -0.4336
 3314SOL    HW221405   1.975   1.820  11.463 -0.0524 -0.1052  1.0073
 3315SOL     OW21406   0.056   1.129  13.803 -0.1729  0.5726  0.1922
 3315SOL    HW121407   0.016   1.046  13.830 -0.5325  0.7820  0.3112
 3315SOL    HW221408   0.016   1.142  13.717 -2.2899  1.5723  1.3199
 3316SOL     OW21409   3.943   2.911   7.281 -0.2560  0.5324  0.1116
 3316SOL    HW121410   3.933   2.922   7.376  0.9527 -2.6485  0.6100
 3316SOL    HW221411   4.034   2.937   7.272 -0.8577  1.7776 -2.3822
 3317SOL     OW21412   4.048   3.405   2.760 -0.2597  0.2998  0.5029
 3317SOL    HW121413   3.959   3.369   2.755 -0.4397  0.5975  1.4572
 3317SOL    HW221414   4.044   3.436   2.851 -2.1033  0.0934  0.4907
 3318SOL     OW21415   1.570   3.462  14.018 -0.3685  0.2390  0.1305
 3318SOL    HW121416   1.594   3.380  13.973  2.1364  0.7683  0.5371
 3318SOL    HW221417   1.657   3.500  14.030 -0.6367  0.6507  0.7389
 3319SOL     OW21418   1.182   1.095   1.858 -0.3860  0.4732 -0.3251
 3319SOL    HW121419   1.167   1.159   1.927  0.1323  0.8298 -0.5477
 3319SOL    HW221420   1.276   1.080   1.865 -0.2796  1.5216  0.4730
 3320SOL     OW21421   1.613   3.321   7.239 -0.1703  0.4762 -0.6944
 3320SOL    HW121422   1.648   3.239   7.274 -2.0611  0.0513  0.1956
 3320SOL    HW221423   1.523   3.310   7.268 -0.7406  0.3321 -2.4874
 3321SOL     OW21424   1.774   3.805   4.472  0.3788  0.2018  0.3268
 3321SOL    HW121425   1.826   3.868   4.422  1.8614 -1.6352 -0.4840
 3321SOL    HW221426   1.820   3.805   4.556  0.5947 -0.3487  0.2073
 3322SOL     OW21427   1.456   1.053  11.665  0.0536 -0.3660 -0.6628
 3322SOL    HW121428   1.404   1.025  11.740 -0.0268  1.5862  0.0092
 3322SOL    HW221429   1.521   0.983  11.662  0.7028  0.3318 -2.6390
 3323SOL     OW21430   1.738   0.484   4.218 -0.1330  0.0102  0.4567
 3323SOL    HW121431   1.666   0.519   4.165  2.1229  0.7605 -2.1413
 3323SOL    HW221432   1.801   0.556   4.220 -0.0411 -0.0995  1.5868
 3324SOL     OW21433   3.618   3.183   8.681  0.3535 -0.5539 -0.3493
 3324SOL    HW121434   3.648   3.104   8.726 -1.9475 -0.4286  1.3879
 3324SOL    HW221435   3.705   3.223   8.678  0.1406 -0.1663 -1.4167
 3325SOL     OW21436   4.014   0.885   7.259  0.0644  0.3029  0.2861
 3325SOL    HW121437   3.921   0.908   7.265 -0.0848  0.9107 -4.4446
 3325SOL    HW221438   4.015   0.789   7.248  0.9851  0.0644  2.4937
 3326SOL     OW21439   4.607   3.440  17.080  0.0727 -0.5107 -0.2165
 3326SOL    HW121440   4.634   3.459  17.170 -0.2834 -0.3685 -0.1415
 3326SOL    HW221441   4.652   3.357  17.066 -1.4691 -0.8971 -2.7545
 3327SOL     OW21442   2.079   2.264   6.452 -0.2583 -0.3356  0.1052
 3327SOL    HW121443   2.155   2.295   6.503  0.7112  0.6679 -1.9451
 3327SOL    HW221444   2.042   2.348   6.425  1.9619  0.9056  0.8876
 3328SOL     OW21445   0.485   3.028   5.673 -0.3165 -0.1971 -0.5652
 3328SOL    HW121446   0.517   2.946   5.634  0.2880  0.0237 -0.5353
 3328SOL    HW221447   0.391   3.014   5.682 -0.4164  1.4745  0.9894
 3329SOL     OW21448   1.295   1.268   5.417  0.2759 -0.4903  0.3636
 3329SOL    HW121449   1.225   1.328   5.442  0.6647  0.1166  0.0054
 3329SOL    HW221450   1.251   1.194   5.377 -0.6305  0.5008 -0.4702
 3330SOL     OW21451   2.429   3.968  12.032 -0.7305  0.0409 -0.0910
 3330SOL    HW121452   2.366   4.031  12.068  0.1674  0.6464  0.4117
 3330SOL    HW221453   2.420   3.891  12.088  0.1729  0.6014  0.8170
 3331SOL     OW21454   2.707   4.443   9.708  0.3537  0.2887 -0.0383
 3331SOL    HW121455   2.634   4.472   9.763  0.2310 -0.6888  0.3120
 3331SOL    HW221456   2.785   4.446   9.763  0.6883  1.0471 -0.5535
 3332SOL     OW21457   2.572   3.671   6.740  0.1396 -0.0592  0.6238
 3332SOL    HW121458   2.604   3.638   6.823  2.0502  1.6763  0.5555
 3332SOL    HW221459   2.649   3.665   6.684 -0.6198  0.7478 -0.5362
 3333SOL     OW21460   0.592   1.792  11.320  0.0522  0.0222  0.1367
 3333SOL    HW121461   0.524   1.725  11.313  0.8467 -0.7739  0.0448
 3333SOL    HW221462   0.559   1.841  11.395  0.4465 -0.4434  0.6181
 3334SOL     OW21463   3.122   0.227   1.509 -0.6296 -0.4734 -0.1676
 3334SOL    HW121464   3.134   0.135   1.529  0.2131 -0.1980  0.5991
 3334SOL    HW221465   3.203   0.259   1.547  0.0387 -1.4857 -0.7690
 3335SOL     OW21466   1.607   0.929   3.999 -0.8579 -0.1657  0.0438
 3335SOL    HW121467   1.583   1.004   3.945  0.1463  1.1662  1.4426
 3335SOL    HW221468   1.636   0.980   4.075  2.2634 -3.3131  1.0169
 3336SOL     OW21469   3.552   3.732   7.776  0.1393 -0.1516  0.2597
 3336SOL    HW121470   3.575   3.825   7.778 -1.7056  0.3042 -0.2830
 3336SOL    HW221471   3.612   3.697   7.842 -0.6177 -1.3932  0.2741
 3337SOL     OW21472   3.746   3.987   8.948 -0.3978 -0.5614  0.1504
 3337SOL    HW121473   3.762   4.077   8.975 -1.3517 -0.2402 -0.3305
 3337SOL    HW221474   3.657   3.977   8.983 -0.1818 -0.9568  0.5794
 3338SOL     OW21475   4.336   2.707   2.267 -0.2163  0.5466  0.0878
 3338SOL    HW121476   4.323   2.614   2.247 -2.5388  0.9097 -0.1599
 3338SOL    HW221477   4.365   2.702   2.358  0.9570 -2.2289 -0.4348
 3339SOL     OW21478   4.539   4.467  10.673  0.2978  0.2412 -0.1573
 3339SOL    HW121479   4.498   4.537  10.623 -1.4322  0.7230  1.9170
 3339SOL    HW221480   4.592   4.430  10.603  0.8247 -0.1016  0.4247
 3340SOL     OW21481   1.098   2.936   0.636 -0.1118  0.0334 -0.7566
 3340SOL    HW121482   1.142   2.851   0.629 -2.9327 -1.2823 -2.6859
 3340SOL    HW221483   1.007   2.916   0.617 -0.5119  2.1098 -1.0797
 3341SOL     OW21484   1.443   0.999   2.915 -0.0464  0.6608 -0.1374
 3341SOL    HW121485   1.466   1.047   2.995 -1.7262  0.7466  0.3042
 3341SOL    HW221486   1.359   0.965   2.946 -0.4247  1.7069 -0.0122
 3342SOL     OW21487   0.435   1.435  13.684  0.3450  0.1459  0.3194
 3342SOL    HW121488   0.375   1.507  13.704 -1.1025 -1.6946  2.6942
 3342SOL    HW221489   0.444   1.450  13.590  0.4750  0.1244  0.3291
 3343SOL     OW21490   3.111   4.692   7.861 -0.7906  0.2094 -0.4108
 3343SOL    HW121491   3.128   0.017   7.778 -0.4501 -1.9664 -1.5615
 3343SOL    HW221492   3.024   4.660   7.840 -1.2102 -0.7403  2.8182
 3344SOL     OW21493   2.477   0.106   9.036  0.4558  0.1363  0.1827
 3344SOL    HW121494   2.494   0.197   9.014  1.8182 -0.4612 -1.2644
 3344SOL    HW221495   2.466   0.117   9.131 -0.0611  2.2076 -0.1373
 3345SOL     OW21496   2.431   2.437   2.652 -0.2121 -0.0985 -0.2593
 3345SOL    HW121497   2.390   2.417   2.568 -1.5376 -1.8686  0.7911
 3345SOL    HW221498   2.525   2.446   2.634  0.0315  0.2836  1.1648
 3346SOL     OW21499   2.539   3.473  11.257 -0.4312  0.4292 -0.5508
 3346SOL    HW121500   2.505   3.387  11.282  1.4764 -0.1227  0.1320
 3346SOL    HW221501   2.470   3.534  11.279  1.3268  2.0351  0.4820
 3347SOL     OW21502   1.715   3.389   0.687 -0.1929  0.7612  0.6258
 3347SOL    HW121503   1.768   3.384   0.607  0.5238  0.8497  1.1027
 3347SOL    HW221504   1.642   3.328   0.675 -0.7470  1.6062 -0.3554
 3348SOL     OW21505   1.651   0.851  11.691 -0.6290 -0.1398 -0.2053
 3348SOL    HW121506   1.742   0.877  11.702 -1.0564  0.9328  0.7636
 3348SOL    HW221507   1.658   0.847  11.595  0.8812  1.7879 -0.1595
 3349SOL     OW21508   1.899   3.921  10.036 -0.2317 -0.2104  0.9563
 3349SOL    HW121509   1.869   3.857   9.971  0.6591  0.6960 -0.3395
 3349SOL    HW221510   1.821   3.971  10.061  1.6243  3.1389 -0.0880
 3350SOL     OW21511   1.501   1.354   6.479 -0.5059 -0.1765 -0.2998
 3350SOL    HW121512   1.474   1.339   6.570  0.4826 -3.0916 -0.4691
 3350SOL    HW221513   1.566   1.285   6.464 -1.0850 -0.7925  0.0107
 3351SOL     OW21514   1.579   0.101  17.000 -0.0822  0.3670  0.1136
 3351SOL    HW121515   1.648   0.112  16.933  0.5038 -0.5816  0.5636
 3351SOL    HW221516   1.551   0.193  17.005  1.1400  0.9397 -3.2091
 3352SOL     OW21517   0.951   1.152   0.260 -0.1089  0.1059  0.1770
 3352SOL    HW121518   0.972   1.246   0.265  0.6980 -0.1203  0.9739
 3352SOL    HW221519   1.039   1.121   0.238  0.6741  1.6134  1.1103
 3353SOL     OW21520   2.290   3.463   8.974 -0.0538  0.2634  0.0012
 3353SOL    HW121521   2.352   3.409   8.926  0.2700 -2.2892  3.2379
 3353SOL    HW221522   2.345   3.541   8.982  0.5154  0.0079 -1.4575
 3354SOL     OW21523   0.834   1.777  14.089  0.1160  0.1899  0.0715
 3354SOL    HW121524   0.865   1.792  14.000  1.4056  1.3933  0.7394
 3354SOL    HW221525   0.749   1.736  14.070 -0.1662  0.3428  0.9822
 3355SOL     OW21526   0.009   2.594   4.546 -0.0658 -0.1819 -0.1189
 3355SOL    HW121527   0.042   2.664   4.490  0.2264 -0.1073  0.1412
 3355SOL    HW221528   0.015   2.525   4.479 -4.2180 -1.1485  0.5174
 3356SOL     OW21529   2.098   4.165   6.144 -0.2176 -0.0309 -0.2234
 3356SOL    HW121530   2.161   4.111   6.097  0.6805 -0.1960  1.1684
 3356SOL    HW221531   2.147   4.218   6.207  0.0501 -1.7246  0.9817
 3357SOL     OW21532   2.534   4.093   9.189  0.3007  0.0787 -0.0280
 3357SOL    HW121533   2.460   4.051   9.234  0.5218  0.2261  0.4631
 3357SOL    HW221534   2.576   4.032   9.129 -1.2291 -0.7725 -0.2381
 3358SOL     OW21535   4.529   4.710   7.717  0.1219  0.0032  0.9972
 3358SOL    HW121536   4.594   4.702   7.647 -1.3248  1.4006 -0.5133
 3358SOL    HW221537   4.581   0.023   7.790 -1.1990  1.5077  1.2547
 3359SOL     OW21538   1.397   3.762   4.698  0.5293 -0.1910 -0.1060
 3359SOL    HW121539   1.412   3.668   4.708  3.0787  0.5466  2.9118
 3359SOL    HW221540   1.344   3.776   4.776 -2.3597 -1.5615 -1.8136
 3360SOL     OW21541   2.320   3.772  13.618  0.2466  0.4824  0.0912
 3360SOL    HW121542   2.283   3.776  13.707 -0.7939 -1.8894 -0.2328
 3360SOL    HW221543   2.374   3.851  13.627  0.3250  0.7023 -2.2537
 3361SOL     OW21544   2.605   2.454   6.182 -0.7923 -0.1305 -0.3907
 3361SOL    HW121545   2.599   2.393   6.108  1.6088  1.0028 -1.5266
 3361SOL    HW221546   2.545   2.412   6.243  0.9645 -2.5488 -0.3374
 3362SOL     OW21547   3.475   3.352  14.104  0.2624 -0.3247 -0.2169
 3362SOL    HW121548   3.485   3.350  14.199 -0.1634  4.8535 -0.0791
 3362SOL    HW221549   3.562   3.332  14.068  2.2806  1.3333  3.7233
 3363SOL     OW21550   2.158   0.348   0.677 -0.1600 -0.3102 -0.0402
 3363SOL    HW121551   2.203   0.422   0.636 -1.5771  0.4311 -0.2546
 3363SOL    HW221552   2.075   0.392   0.694 -1.9044 -3.5055 -0.2556
 3364SOL     OW21553   3.910   4.065   7.832  0.3769 -0.4740  0.0655
 3364SOL    HW121554   3.941   4.016   7.908 -1.6827  0.5697  1.6048
 3364SOL    HW221555   3.931   4.157   7.846 -4.0191  0.8092 -1.7969
 3365SOL     OW21556   0.996   2.566   0.230 -0.2102  0.6604 -0.2858
 3365SOL    HW121557   1.005   2.604   0.318 -1.4132  1.3896 -0.4675
 3365SOL    HW221558   0.922   2.506   0.241  1.0604 -0.7011  0.7001
 3366SOL     OW21559   2.074   3.798   6.916 -0.1450  0.2472  0.2478
 3366SOL    HW121560   2.055   3.706   6.897 -1.6426  0.3396  1.3010
 3366SOL    HW221561   2.076   3.834   6.827 -1.8717 -0.6715 -0.1716
 3367SOL     OW21562   2.001   4.374   3.411  0.6486 -0.5880 -0.3152
 3367SOL    HW121563   1.940   4.306   3.382 -0.4659  0.6638 -0.9382
 3367SOL    HW221564   2.008   4.354   3.504  1.9159  1.3227 -0.0005
 3368SOL     OW21565   4.712   3.062   3.029  0.1290  0.3978  0.1148
 3368SOL    HW121566   0.031   3.142   2.996  0.4516  0.0122 -0.4210
 3368SOL    HW221567   4.622   3.092   3.014  0.5014 -0.2202 -3.4109
 3369SOL     OW21568   1.030   2.251   9.766  0.3196 -0.3887  0.5810
 3369SOL    HW121569   0.946   2.214   9.791 -0.6483  0.7419 -0.9914
 3369SOL    HW221570   1.009   2.344   9.777  1.2090  0.0682 -1.4910
 3370SOL     OW21571   1.953   2.475   3.696 -0.0921 -0.1091  0.2919
 3370SOL    HW121572   1.964   2.569   3.680  0.4896 -0.3654 -0.8396
 3370SOL    HW221573   1.859   2.461   3.708 -0.0571 -1.1533 -0.6034
 3371SOL     OW21574   2.551   3.307   4.482 -0.2246 -0.1965  0.7160
 3371SOL    HW121575   2.542   3.274   4.392 -0.1994 -0.6148  0.8641
 3371SOL    HW221576   2.462   3.342   4.478  0.0543  0.7206  2.8437
 3372SOL     OW21577   4.477   4.543   9.471 -0.3314  1.1967  0.2830
 3372SOL    HW121578   4.424   4.568   9.546  1.2155  0.9865  1.4617
 3372SOL    HW221579   4.527   4.479   9.522 -1.4676 -0.2980 -0.4582
 3373SOL     OW21580   4.637   3.572   5.726  0.0367 -0.2920 -0.0713
 3373SOL    HW121581   0.008   3.547   5.733 -1.3873 -5.6463 -0.4186
 3373SOL    HW221582   4.597   3.489   5.702 -0.3413  0.1879 -1.0881
 3374SOL     OW21583   3.460   0.308   7.115  0.5740  0.0101  0.1005
 3374SOL    HW121584   3.376   0.276   7.148  1.5761 -0.0486  2.5760
 3374SOL    HW221585   3.449   0.301   7.020  2.2496 -3.5093  0.1558
 3375SOL     OW21586   1.934   1.192   1.460 -0.5401 -0.5248 -0.5313
 3375SOL    HW121587   1.890   1.137   1.525 -1.8002 -0.6031 -1.4498
 3375SOL    HW221588   1.875   1.175   1.386 -1.5375  0.0101  0.1446
 3376SOL     OW21589   0.350   4.293   7.452 -0.6641  0.1774  0.2887
 3376SOL    HW121590   0.442   4.290   7.426 -0.6997 -0.8016  0.3016
 3376SOL    HW221591   0.295   4.317   7.377 -1.2420 -1.6669  0.1376
 3377SOL     OW21592   0.582   2.693   8.831 -0.6704  0.2411  0.5880
 3377SOL    HW121593   0.571   2.599   8.845 -0.2562  0.0531 -0.3300
 3377SOL    HW221594   0.595   2.710   8.924  0.6983 -2.1308  0.8345
 3378SOL     OW21595   3.733   3.295   2.400  0.2173  0.4636 -0.1683
 3378SOL    HW121596   3.732   3.384   2.434 -1.5501 -0.4143  2.1332
 3378SOL    HW221597   3.639   3.275   2.403  0.6922 -1.9675 -1.4159
 3379SOL     OW21598   0.438   1.555   5.704 -0.4322 -0.1363 -0.5801
 3379SOL    HW121599   0.391   1.517   5.778  0.0329  1.6916  0.6427
 3379SOL    HW221600   0.527   1.521   5.716 -0.8046 -0.9384 -0.1059
 3380SOL     OW21601   2.169   3.006   7.960 -0.2062 -0.1770 -0.1857
 3380SOL    HW121602   2.107   3.075   7.983 -1.5114 -1.1568 -0.7829
 3380SOL    HW221603   2.149   3.011   7.867 -1.9028  2.3681  0.2963
 3381SOL     OW21604   3.275   3.431   2.600 -0.3904  0.1511  0.1696
 3381SOL    HW121605   3.294   3.494   2.531 -0.0479 -0.3185 -0.1606
 3381SOL    HW221606   3.321   3.356   2.564  2.1157  1.8985 -0.1973
 3382SOL     OW21607   1.794   4.125   0.563  0.1035 -0.2966  0.5422
 3382SOL    HW121608   1.861   4.148   0.499 -1.6251  0.7211 -0.8907
 3382SOL    HW221609   1.827   4.164   0.644  0.8970 -0.4714  0.3096
 3383SOL     OW21610   4.344   3.274  11.945  0.2826  0.2244  0.1633
 3383SOL    HW121611   4.414   3.339  11.942  0.1215  0.4513  1.7858
 3383SOL    HW221612   4.276   3.334  11.916 -0.2023 -0.6392 -0.5190
 3384SOL     OW21613   4.196   3.371   7.357 -0.7043  0.2819 -0.6115
 3384SOL    HW121614   4.175   3.460   7.326 -2.3786 -0.0944 -0.5752
 3384SOL    HW221615   4.200   3.381   7.452 -0.9959  1.3747 -0.7046
 3385SOL     OW21616   1.840   4.173  16.339 -0.0097 -0.1980 -0.5789
 3385SOL    HW121617   1.793   4.205  16.416  0.3602 -0.7988 -0.1110
 3385SOL    HW221618   1.772   4.121  16.298 -0.7915  0.3180  0.0636
 3386SOL     OW21619   2.919   1.763   4.221  0.3256  0.2489  0.2066
 3386SOL    HW121620   2.996   1.709   4.205 -1.9230 -2.1189 -2.5973
 3386SOL    HW221621   2.951   1.844   4.180 -1.1884  0.4175 -0.6171
 3387SOL     OW21622   1.303   2.950  12.783 -0.7297  0.4361  0.8138
 3387SOL    HW121623   1.357   2.899  12.843  2.9077  2.9612 -0.3159
 3387SOL    HW221624   1.362   3.009  12.737  2.0646 -0.4439  3.2771
 3388SOL     OW21625   2.388   0.330   1.913  0.2465 -0.2637 -0.5463
 3388SOL    HW121626   2.381   0.323   1.817  2.9326 -1.0671 -0.7043
 3388SOL    HW221627   2.322   0.270   1.946 -0.6827  0.5414 -0.9417
 3389SOL     OW21628   1.273   2.183   4.971 -0.2058 -0.0827 -0.1461
 3389SOL    HW121629   1.211   2.172   4.900  0.7123 -1.7237 -0.6960
 3389SOL    HW221630   1.222   2.242   5.026 -0.9230  1.3680 -2.3956
 3390SOL     OW21631   3.387   0.053   6.953 -0.3194 -0.4819  0.0413
 3390SOL    HW121632   3.425   0.000   7.023 -0.6212 -2.5848 -1.3810
 3390SOL    HW221633   3.295   0.027   6.947 -1.0080  1.7928  0.6215
 3391SOL     OW21634   2.451   0.602   6.278  0.2621 -0.0382 -0.2233
 3391SOL    HW121635   2.460   0.510   6.256  1.9675 -0.2213  1.2118
 3391SOL    HW221636   2.363   0.601   6.314 -0.1924 -0.0866 -1.3318
 3392SOL     OW21637   3.166   0.397  14.999 -0.0999  0.6471  0.4287
 3392SOL    HW121638   3.223   0.460  14.954 -0.7164  0.0043 -1.2630
 3392SOL    HW221639   3.223   0.321  15.010 -0.6747  0.0911 -0.3970
 3393SOL     OW21640   2.246   2.401  16.443 -0.4393  0.3666 -0.4497
 3393SOL    HW121641   2.175   2.423  16.383  0.4955 -2.1294 -2.4978
 3393SOL    HW221642   2.202   2.330  16.490 -0.9606  0.9113 -0.1130
 3394SOL     OW21643   0.615   4.715   3.001  0.2956 -0.0058 -0.3243
 3394SOL    HW121644   0.692   4.670   2.967 -0.2425  0.3629 -2.0524
 3394SOL    HW221645   0.575   0.038   2.926 -1.4428 -1.3041 -0.1581
 3395SOL     OW21646   2.483   1.470   4.636 -0.1679 -0.1936 -0.4754
 3395SOL    HW121647   2.570   1.457   4.598 -0.2171  1.4630 -1.1429
 3395SOL    HW221648   2.455   1.538   4.575 -0.6560  0.8689  0.9358
 3396SOL     OW21649   2.218   3.577   4.404  0.3809 -0.3156  0.1100
 3396SOL    HW121650   2.140   3.522   4.402 -0.3949  0.7931 -0.1810
 3396SOL    HW221651   2.206   3.638   4.331  2.0912 -0.0562  0.0509
 3397SOL     OW21652   4.483   0.289  15.360 -0.2690 -0.2553  0.2462
 3397SOL    HW121653   4.493   0.375  15.319 -0.8279  0.7970  2.2968
 3397SOL    HW221654   4.388   0.284  15.346  0.1294 -1.1495 -1.9946
 3398SOL     OW21655   1.424   2.139   1.559  0.5789  0.1600  0.2148
 3398SOL    HW121656   1.432   2.190   1.479  0.2695 -1.1001 -0.6269
 3398SOL    HW221657   1.362   2.197   1.604 -2.8497 -2.3859 -1.2305
 3399SOL     OW21658   1.931   1.901   5.169  0.5763  0.3662  0.4540
 3399SOL    HW121659   1.911   1.987   5.132 -0.4441 -0.1505 -0.2020
 3399SOL    HW221660   2.026   1.890   5.171  0.4697 -0.6159  0.1792
 3400SOL     OW21661   2.597   1.584   2.413  0.2427 -0.5852 -0.1607
 3400SOL    HW121662   2.587   1.555   2.322  3.4025  1.1543 -1.0874
 3400SOL    HW221663   2.583   1.679   2.410 -0.4063 -0.6842 -0.0605
 3401SOL     OW21664   4.643   4.391  14.638  0.1157  0.4633 -0.4138
 3401SOL    HW121665   4.656   4.345  14.555  1.7650  0.3894 -0.1235
 3401SOL    HW221666   4.550   4.410  14.630 -0.4975 -2.2469  0.2213
 3402SOL     OW21667   4.130   1.881  11.017  0.0398 -0.2002 -0.4532
 3402SOL    HW121668   4.178   1.898  11.097  0.8854  0.8509 -1.1792
 3402SOL    HW221669   4.056   1.942  11.021  1.4363  1.4559 -0.0706
 3403SOL     OW21670   0.346   2.356   3.026  0.8032 -0.3864 -0.2894
 3403SOL    HW121671   0.423   2.334   2.973  0.0667 -2.1837 -0.6129
 3403SOL    HW221672   0.279   2.309   2.977  0.9166 -1.9505  1.0350
 3404SOL     OW21673   1.428   3.487   4.713 -0.3046 -0.3840 -0.0701
 3404SOL    HW121674   1.413   3.404   4.667  3.7174 -0.9844 -0.3077
 3404SOL    HW221675   1.521   3.486   4.734 -0.1626 -2.8478 -0.7485
 3405SOL     OW21676   2.744   1.005   9.006 -0.0641  0.4574  0.5567
 3405SOL    HW121677   2.793   1.028   8.927 -0.8294 -0.6987 -0.2632
 3405SOL    HW221678   2.655   0.998   8.972  1.7924 -3.6607 -3.5308
 3406SOL     OW21679   0.826   2.306   9.062  0.7189  0.0388  0.0268
 3406SOL    HW121680   0.770   2.267   8.995 -0.3956  1.6113  0.0391
 3406SOL    HW221681   0.776   2.388   9.069 -0.3383 -0.4315 -2.0012
 3407SOL     OW21682   0.800   2.849   4.182 -0.0171 -0.8085 -0.0229
 3407SOL    HW121683   0.706   2.862   4.191  0.6221  3.1996  1.0553
 3407SOL    HW221684   0.829   2.939   4.198  1.1335 -0.9695 -1.1940
 3408SOL     OW21685   0.367   2.010   1.042  0.3745 -0.0033 -0.7737
 3408SOL    HW121686   0.344   2.041   1.130  0.5883  2.8661 -1.7294
 3408SOL    HW221687   0.313   1.930   1.035 -0.4692  0.2730  2.6473
 3409SOL     OW21688   4.533   2.930   7.370 -0.4211 -0.1042 -0.0654
 3409SOL    HW121689   4.474   2.999   7.341  0.1350  0.2513 -0.3484
 3409SOL    HW221690   4.549   2.893   7.283 -1.5208 -1.8507  0.4676
 3410SOL     OW21691   0.645   3.046   2.048 -0.4004  0.1728 -0.4107
 3410SOL    HW121692   0.606   3.120   2.095  2.6559  1.5616 -0.0085
 3410SOL    HW221693   0.734   3.080   2.033 -0.3722  0.2603 -0.0482
 3411SOL     OW21694   4.384   1.593   7.927 -0.2632  0.2360  0.0293
 3411SOL    HW121695   4.422   1.627   7.846  1.0720  2.2866  1.5323
 3411SOL    HW221696   4.465   1.586   7.977 -1.2627 -1.9697  1.2995
 3412SOL     OW21697   3.765   4.019   4.316 -0.3780  0.4329  0.1636
 3412SOL    HW121698   3.813   3.939   4.292  0.4892  0.4723  1.7390
 3412SOL    HW221699   3.777   4.071   4.237  0.2624 -0.3887 -0.2787
 3413SOL     OW21700   4.652   4.674   2.339  0.6136  0.0945 -0.8223
 3413SOL    HW121701   4.600   4.621   2.277 -0.0724 -1.7186  1.3054
 3413SOL    HW221702   0.010   4.684   2.285 -0.1799  2.7347 -1.4827
 3414SOL     OW21703   0.939   2.758   1.554  0.6083 -0.2363  0.1259
 3414SOL    HW121704   0.856   2.713   1.537  0.3039 -0.4171  2.1084
 3414SOL    HW221705   0.988   2.699   1.611 -0.0359 -1.4043 -0.5352
 3415SOL     OW21706   4.645   1.643  13.338 -0.1519 -0.0519  0.0897
 3415SOL    HW121707   4.573   1.706  13.329 -1.3723 -1.6286 -1.2137
 3415SOL    HW221708   4.611   1.556  13.316  1.8794 -1.1658  1.4268
 3416SOL     OW21709   3.722   2.369   7.631  0.2225  0.2927  0.0083
 3416SOL    HW121710   3.655   2.354   7.564  1.9416 -0.6079 -1.5038
 3416SOL    HW221711   3.745   2.455   7.597  0.3718 -0.6395 -2.2872
 3417SOL     OW21712   1.457   2.193  13.687  0.1788  0.1532 -0.5544
 3417SOL    HW121713   1.458   2.279  13.647 -1.3291 -0.4465 -1.8615
 3417SOL    HW221714   1.415   2.141  13.619  1.4749 -1.4892 -0.1129
 3418SOL     OW21715   2.359   1.208   0.625 -0.6418  0.4675 -0.2603
 3418SOL    HW121716   2.325   1.284   0.579 -2.5748 -0.8559 -0.9933
 3418SOL    HW221717   2.281   1.173   0.668  1.0115 -3.6615 -0.5784
 3419SOL     OW21718   3.127   4.349  10.302 -0.5116  0.3793  0.0533
 3419SOL    HW121719   3.036   4.350  10.332 -0.8992 -0.5475 -1.0732
 3419SOL    HW221720   3.127   4.427  10.246 -0.1337  1.2139  1.2287
 3420SOL     OW21721   0.966   3.889   5.792  0.3626  0.1588  0.2226
 3420SOL    HW121722   1.012   3.820   5.744  0.5835  0.2582  0.2934
 3420SOL    HW221723   0.872   3.868   5.790  0.2170  0.8188  0.0933
 3421SOL     OW21724   2.547   3.397   5.734  0.5623  0.3495 -0.3448
 3421SOL    HW121725   2.489   3.392   5.658  1.5640  1.6658 -1.1900
 3421SOL    HW221726   2.499   3.434   5.808 -2.4136 -1.1818 -1.5158
 3422SOL     OW21727   3.945   2.676   2.310 -0.1210 -0.0627  0.5374
 3422SOL    HW121728   3.931   2.631   2.227  2.5058 -1.9817  1.0934
 3422SOL    HW221729   4.020   2.629   2.347 -0.1524  0.3990  1.1908
 3423SOL     OW21730   3.305   1.224   1.329 -0.4666 -0.1832 -0.0918
 3423SOL    HW121731   3.283   1.317   1.324  1.1095  0.1311 -0.9713
 3423SOL    HW221732   3.215   1.196   1.350 -0.4176 -0.1558  0.1544
 3424SOL     OW21733   0.765   1.141   4.304 -0.1967  0.2773  0.0919
 3424SOL    HW121734   0.822   1.151   4.380 -0.2547  0.0882  0.1614
 3424SOL    HW221735   0.806   1.067   4.260 -1.2661 -0.4594  0.3408
 3425SOL     OW21736   4.071   0.606  13.270 -0.0471 -0.1226 -0.1834
 3425SOL    HW121737   3.992   0.648  13.306  1.2880  0.7438  1.7638
 3425SOL    HW221738   4.033   0.582  13.185  1.2868 -0.0239 -0.7969
 3426SOL     OW21739   0.279   0.724   5.248 -0.3784  0.2376 -0.1695
 3426SOL    HW121740   0.228   0.730   5.167  0.7569  0.5677 -0.8573
 3426SOL    HW221741   0.227   0.772   5.312 -1.7914  1.3862 -2.1749
 3427SOL     OW21742   2.517   1.656  12.880 -0.0425  0.0034  0.3635
 3427SOL    HW121743   2.560   1.708  12.948  0.4768 -0.0053  0.0381
 3427SOL    HW221744   2.570   1.686  12.806  0.8498  0.3986  1.1593
 3428SOL     OW21745   3.833   3.029   2.897 -0.2900  0.1283  0.6539
 3428SOL    HW121746   3.920   3.026   2.938  0.7462 -0.4276 -1.5998
 3428SOL    HW221747   3.857   3.097   2.834  0.6988 -0.8208  0.0073
 3429SOL     OW21748   3.882   4.181   3.026 -0.0678  0.3387  0.1943
 3429SOL    HW121749   3.919   4.268   3.039 -1.0043  0.6856  0.4732
 3429SOL    HW221750   3.814   4.181   3.093 -1.7789  0.0925 -1.5502
 3430SOL     OW21751   1.392   1.310   0.144  0.3387  0.3030 -0.1196
 3430SOL    HW121752   1.365   1.400   0.162 -1.5525 -0.9233  3.1306
 3430SOL    HW221753   1.487   1.306   0.137  0.3110  0.6137 -0.6716
 3431SOL     OW21754   1.432   4.107  12.234  0.4301  0.2599 -0.4173
 3431SOL    HW121755   1.398   4.172  12.295 -0.0998 -1.9911  1.6875
 3431SOL    HW221756   1.396   4.025  12.268 -0.2346  0.3877 -0.7931
 3432SOL     OW21757   3.692   3.982   5.607  0.7357  0.1524 -0.5934
 3432SOL    HW121758   3.626   3.970   5.539 -0.5162  3.2814  0.0722
 3432SOL    HW221759   3.695   3.898   5.654 -0.1671 -0.1087 -1.0061
 3433SOL     OW21760   2.156   1.896   6.115 -0.5443  0.0288 -0.0299
 3433SOL    HW121761   2.095   1.834   6.075 -0.7955 -0.3606  0.9582
 3433SOL    HW221762   2.142   1.971   6.056  0.0617  0.0378 -0.1532
 3434SOL     OW21763   4.297   4.056   2.950 -0.8161  0.2798  0.0237
 3434SOL    HW121764   4.350   4.126   2.988 -0.1133  0.2890 -0.9685
 3434SOL    HW221765   4.268   4.102   2.871  4.5403 -0.2249 -2.1955
 3435SOL     OW21766   2.460   1.256   8.544 -0.9107  0.4432  0.4611
 3435SOL    HW121767   2.474   1.345   8.577 -1.5291 -0.0295  1.9927
 3435SOL    HW221768   2.526   1.202   8.587 -0.9437  0.8640  1.0478
 3436SOL     OW21769   2.565   2.150   5.597  0.1153 -0.2890 -0.0914
 3436SOL    HW121770   2.501   2.213   5.630  0.6619 -0.5401  1.4690
 3436SOL    HW221771   2.628   2.203   5.548  0.5498 -0.5248  0.2141
 3437SOL     OW21772   3.552   0.809  11.334  0.0852  0.2751 -0.3815
 3437SOL    HW121773   3.598   0.868  11.395 -0.8541 -0.0126  0.5993
 3437SOL    HW221774   3.466   0.851  11.335 -1.1390 -2.2251  0.4948
 3438SOL     OW21775   4.659   0.659   2.345  0.2416  0.1200  0.0329
 3438SOL    HW121776   4.572   0.631   2.374  2.3877 -3.4687  3.0696
 3438SOL    HW221777   0.000   0.613   2.402 -0.9714 -1.5812 -0.0108
 3439SOL     OW21778   1.112   3.128   0.224  0.0124  0.2715  0.4726
 3439SOL    HW121779   1.053   3.125   0.299  0.2175  1.1192  0.6678
 3439SOL    HW221780   1.158   3.209   0.248  0.9691  0.6019 -2.4854
 3440SOL     OW21781   4.553   3.937  17.305 -0.3278  0.1719 -0.0060
 3440SOL    HW121782   4.530   3.848  17.332  0.4195 -0.5075 -1.6631
 3440SOL    HW221783   4.631   3.943  17.360  0.6564  1.5973 -1.5885
 3441SOL     OW21784   4.658   4.496   7.904  0.8807  0.0655 -0.4237
 3441SOL    HW121785   4.645   4.450   7.987 -0.3838  0.7299 -0.2583
 3441SOL    HW221786   4.595   4.567   7.897  0.3518 -0.4720 -1.1945
 3442SOL     OW21787   4.354   2.236   8.222 -0.2309 -0.0387 -0.0085
 3442SOL    HW121788   4.406   2.157   8.234  0.6643  0.9372  2.5902
 3442SOL    HW221789   4.414   2.297   8.266  0.7826 -1.5511  0.7006
 3443SOL     OW21790   0.932   1.977   7.413  0.1789  0.2216  0.5528
 3443SOL    HW121791   0.999   1.910   7.402  1.6803  1.9273 -0.6637
 3443SOL    HW221792   0.939   1.992   7.507  0.4979  1.5936  0.3145
 3444SOL     OW21793   2.144   0.368  16.805  0.0649  0.1531 -0.2968
 3444SOL    HW121794   2.215   0.415  16.848  0.7136 -0.4836 -0.6695
 3444SOL    HW221795   2.197   0.346  16.727 -1.0737 -2.9482 -0.2026
 3445SOL     OW21796   2.417   2.597   6.407  0.1744  0.2069 -0.7959
 3445SOL    HW121797   2.499   2.638   6.435  0.0731 -0.1269 -0.0327
 3445SOL    HW221798   2.360   2.674   6.410 -0.9800 -0.7619  1.7671
 3446SOL     OW21799   1.078   0.214   4.337  0.3605  0.1852 -0.2291
 3446SOL    HW121800   0.999   0.241   4.384 -0.2045  1.1087 -1.6748
 3446SOL    HW221801   1.128   0.213   4.418 -0.6484 -1.8492  0.3692
 3447SOL     OW21802   1.533   2.781   0.220 -0.1575  0.4158  0.5825
 3447SOL    HW121803   1.449   2.819   0.194  0.3219  0.7103 -0.5182
 3447SOL    HW221804   1.511   2.688   0.213 -2.0528  0.8540  0.5402
 3448SOL     OW21805   1.990   3.081   8.243  0.4705 -0.6014 -0.7668
 3448SOL    HW121806   1.986   2.986   8.254 -2.7384 -0.1701  1.9912
 3448SOL    HW221807   1.948   3.093   8.158 -0.2400 -4.3592 -0.9663
 3449SOL     OW21808   1.557   2.737   4.177 -0.4329 -0.5234 -0.3338
 3449SOL    HW121809   1.510   2.657   4.152  0.4039 -0.4956 -1.9567
 3449SOL    HW221810   1.607   2.750   4.097  1.4105 -0.6616  0.8009
 3450SOL     OW21811   1.579   1.059   6.744  0.2872  0.2261 -0.1121
 3450SOL    HW121812   1.540   0.985   6.698 -1.2464  0.2166  1.1976
 3450SOL    HW221813   1.642   1.093   6.680  0.0998  0.2486 -0.2864
 3451SOL     OW21814   1.900   1.876  16.651 -0.0004  0.1245 -0.8461
 3451SOL    HW121815   1.813   1.845  16.675 -0.3499 -0.1670 -2.4566
 3451SOL    HW221816   1.943   1.791  16.641  0.3330  0.1527  0.2921
 3452SOL     OW21817   0.103   1.790  14.965 -0.4185  0.3851  0.7406
 3452SOL    HW121818   0.044   1.788  15.041  0.1362 -1.4453  1.1232
 3452SOL    HW221819   0.146   1.875  14.974 -0.5603  0.8175 -2.6604
 3453SOL     OW21820   1.930   1.640   2.751  0.2041  0.0851  0.3035
 3453SOL    HW121821   1.968   1.719   2.789  0.4070 -0.6483  1.6342
 3453SOL    HW221822   1.845   1.635   2.794 -0.0033  2.2525  0.1171
 3454SOL     OW21823   1.739   0.495   5.784  0.6067  0.8578  0.4696
 3454SOL    HW121824   1.654   0.536   5.803  0.4356  0.8946 -0.3553
 3454SOL    HW221825   1.785   0.566   5.739 -1.7681  1.0972 -1.6401
 3455SOL     OW21826   0.737   0.207  10.308 -0.0503 -0.4880 -0.5254
 3455SOL    HW121827   0.712   0.118  10.286 -0.3331 -0.4378 -0.4226
 3455SOL    HW221828   0.772   0.193  10.396  1.3842  0.2935 -0.9689
 3456SOL     OW21829   2.710   4.157   2.113  0.0911  0.5318 -0.0513
 3456SOL    HW121830   2.654   4.090   2.074  1.9287 -0.4994 -0.9156
 3456SOL    HW221831   2.757   4.183   2.034  1.9491  0.5348  1.0722
 3457SOL     OW21832   0.033   3.746   3.294  0.2429  0.0713 -0.6472
 3457SOL    HW121833   0.031   3.658   3.258  0.2234 -0.6540  1.1318
 3457SOL    HW221834   4.699   3.726   3.369  1.1706 -1.2801 -0.3394
 3458SOL     OW21835   1.662   2.024   3.986  0.2672  0.0929  0.8670
 3458SOL    HW121836   1.686   2.002   3.896  1.0327  0.0645  1.0759
 3458SOL    HW221837   1.747   2.052   4.021  0.4943  3.0449 -2.1316
 3459SOL     OW21838   3.617   1.205   2.277  0.0943 -0.1625 -0.2023
 3459SOL    HW121839   3.557   1.160   2.217  0.3062  0.4788 -0.8923
 3459SOL    HW221840   3.572   1.182   2.358  0.2721  2.1544  0.5517
 3460SOL     OW21841   1.233   0.973   8.330  0.3762 -0.5107  0.5062
 3460SOL    HW121842   1.223   0.943   8.420  0.7237  0.2647  0.8089
 3460SOL    HW221843   1.226   0.888   8.288 -0.9710 -1.2703  2.2938
 3461SOL     OW21844   2.083   4.319   3.653  0.2969  0.1424  0.2257
 3461SOL    HW121845   2.172   4.285   3.664  0.1587 -0.9183 -1.9529
 3461SOL    HW221846   2.067   4.360   3.738 -2.8141  0.1869 -0.3813
 3462SOL     OW21847   1.800   3.304  12.295 -0.0613  0.3519  0.1725
 3462SOL    HW121848   1.843   3.332  12.214 -0.0135  0.7932  0.3542
 3462SOL    HW221849   1.716   3.287  12.251 -0.1684  0.6449  0.2668
 3463SOL     OW21850   3.188   2.957   7.523  0.4378 -0.1835 -0.4658
 3463SOL    HW121851   3.268   2.957   7.471 -0.4640 -0.9215 -1.8423
 3463SOL    HW221852   3.140   2.882   7.488 -0.3449 -0.7010  1.7223
 3464SOL     OW21853   3.614   1.043   4.386 -0.4092 -0.3599  0.1200
 3464SOL    HW121854   3.709   1.028   4.381 -0.1768  1.6979 -1.6896
 3464SOL    HW221855   3.599   1.081   4.299 -2.0745  0.2237  0.6692
 3465SOL     OW21856   1.027   4.643  16.447 -0.1951 -0.1238 -0.3482
 3465SOL    HW121857   1.111   4.647  16.492 -0.9640  0.1428  1.0952
 3465SOL    HW221858   1.047   4.658  16.355  0.3637 -2.1963 -0.5514
 3466SOL     OW21859   2.151   3.147   6.478 -0.1948  0.1066 -0.0666
 3466SOL    HW121860   2.128   3.183   6.393  2.1133  0.5338 -0.4970
 3466SOL    HW221861   2.246   3.154   6.473  0.0756 -2.3168  1.3271
 3467SOL     OW21862   2.661   4.558   4.306 -0.1341 -0.3148  0.2708
 3467SOL    HW121863   2.660   4.652   4.326 -1.3997 -0.8177  2.6592
 3467SOL    HW221864   2.731   4.558   4.241  1.4935 -1.4819  2.0091
 3468SOL     OW21865   2.474   0.346   7.673 -0.1428 -0.4589 -0.2958
 3468SOL    HW121866   2.474   0.433   7.714  1.3418 -1.2642  1.4191
 3468SOL    HW221867   2.388   0.356   7.631  0.4920 -1.2124 -1.7355
 3469SOL     OW21868   3.171   2.432  14.466 -0.0108 -0.1939  0.1528
 3469SOL    HW121869   3.212   2.493  14.528 -3.9256  0.0289  2.5664
 3469SOL    HW221870   3.189   2.487  14.390  0.0495  1.0151  1.0349
 3470SOL     OW21871   4.417   3.637  15.702 -0.1450  0.0655 -1.0010
 3470SOL    HW121872   4.472   3.568  15.665  2.5135  1.0768  1.1539
 3470SOL    HW221873   4.440   3.632  15.794  1.6688 -0.1963 -1.4645
 3471SOL     OW21874   2.678   2.888   6.001  0.3073  0.9823 -0.0271
 3471SOL    HW121875   2.596   2.846   6.027  0.2981  1.1767  0.2557
 3471SOL    HW221876   2.731   2.810   5.984 -0.9820  0.1770 -0.3471
 3472SOL     OW21877   4.242   3.507  12.172 -0.3684  0.3252 -0.2680
 3472SOL    HW121878   4.321   3.533  12.220  0.7739 -0.2725 -1.8131
 3472SOL    HW221879   4.265   3.544  12.086 -0.6733 -2.1276 -1.4013
 3473SOL     OW21880   4.121   1.938   2.264 -0.0056 -0.0813 -0.4287
 3473SOL    HW121881   4.084   1.989   2.192  3.9230  1.7895 -1.0969
 3473SOL    HW221882   4.055   1.963   2.329  0.8088 -1.1091  0.7840
 3474SOL     OW21883   4.508   0.339  16.483  0.2767  0.4626  0.3706
 3474SOL    HW121884   4.560   0.260  16.492 -1.4272 -0.7304 -0.0881
 3474SOL    HW221885   4.574   0.406  16.464 -0.4880  0.5148 -2.0885
 3475SOL     OW21886   3.259   1.841   1.482  0.3271  0.8945 -0.2908
 3475SOL    HW121887   3.283   1.934   1.479  0.8290  0.8453  2.3608
 3475SOL    HW221888   3.169   1.845   1.515 -0.3118 -1.7938 -1.6864
 3476SOL     OW21889   4.462   4.721   3.454 -0.8636 -0.7239 -0.4755
 3476SOL    HW121890   4.431   4.675   3.532  0.1909  1.3937  1.1908
 3476SOL    HW221891   4.421   0.083   3.475  0.5262 -0.9124  2.9042
 3477SOL     OW21892   0.600   2.204  13.199  0.5805 -0.6535 -0.4094
 3477SOL    HW121893   0.538   2.204  13.126 -0.1476 -0.3744  0.2053
 3477SOL    HW221894   0.566   2.281  13.246  0.2746 -0.4090 -1.0251
 3478SOL     OW21895   3.260   3.932   8.600  0.0331  0.8040 -0.2059
 3478SOL    HW121896   3.174   3.931   8.641  0.1605  0.9921  0.0673
 3478SOL    HW221897   3.314   3.929   8.679  1.0101  0.3617 -0.8883
 3479SOL     OW21898   4.120   4.349  11.686 -0.3784  0.0659 -0.2649
 3479SOL    HW121899   4.097   4.311  11.770  1.1692 -1.0087 -0.3198
 3479SOL    HW221900   4.035   4.352  11.643  0.6007 -0.4861 -2.2529
 3480SOL     OW21901   4.622   0.458   8.077  0.2660  0.5044 -0.6536
 3480SOL    HW121902   4.670   0.527   8.033  0.0964 -0.1989 -1.9291
 3480SOL    HW221903   4.674   0.457   8.157  0.2011  0.4559 -0.6115
 3481SOL     OW21904   3.645   1.232   8.931  0.9459 -0.2504  0.5061
 3481SOL    HW121905   3.623   1.213   9.023  0.3789  1.6865  0.7640
 3481SOL    HW221906   3.615   1.147   8.900 -2.1217  0.1907  2.2617
 3482SOL     OW21907   0.064   1.973   7.430 -0.0699 -0.1482  0.6116
 3482SOL    HW121908   0.067   1.957   7.524 -0.0396 -0.8182  0.4920
 3482SOL    HW221909   0.046   1.890   7.386  0.5415  0.3589 -0.5943
 3483SOL     OW21910   3.988   4.720   3.209 -0.0293  0.3133  0.4702
 3483SOL    HW121911   3.913   4.711   3.268 -0.6694  0.0736 -0.3817
 3483SOL    HW221912   4.059   0.021   3.269 -0.0828  0.1094  0.6101
 3484SOL     OW21913   4.551   1.749  11.834  0.6151  0.2980  0.0110
 3484SOL    HW121914   4.593   1.666  11.857 -1.2777  0.2425  3.3184
 3484SOL    HW221915   4.634   1.797  11.846  1.2827 -0.8327 -0.0747
 3485SOL     OW21916   2.430   3.984  10.266  0.2189  0.1985 -0.2091
 3485SOL    HW121917   2.336   3.968  10.263  0.1809  0.2439  0.8047
 3485SOL    HW221918   2.438   3.903  10.318  3.5450  1.2833  0.9685
 3486SOL     OW21919   4.373   4.576  12.058  0.4327  0.2617  0.1739
 3486SOL    HW121920   4.316   4.530  12.120  0.7043 -0.3891 -0.0620
 3486SOL    HW221921   4.416   4.503  12.014  0.1496  0.9583 -1.2720
 3487SOL     OW21922   0.126   1.246   6.213  0.2940  0.7415  0.8699
 3487SOL    HW121923   0.208   1.288   6.189  1.1787 -1.9026 -0.7238
 3487SOL    HW221924   0.132   1.165   6.162  2.5083  0.9992  0.7648
 3488SOL     OW21925   2.279   2.349  10.945 -0.1308 -0.1080 -0.6034
 3488SOL    HW121926   2.325   2.350  11.029 -1.2305  1.2616  0.0044
 3488SOL    HW221927   2.352   2.368  10.886  0.0712  2.1913  0.3877
 3489SOL     OW21928   2.480   3.987  13.673  0.6473  0.3697 -0.1826
 3489SOL    HW121929   2.415   4.056  13.690 -0.2168 -0.4766 -0.0771
 3489SOL    HW221930   2.567   4.020  13.696  0.5395 -0.3795  1.2573
 3490SOL     OW21931   3.265   1.692   7.619 -0.8428 -0.5215  0.0946
 3490SOL    HW121932   3.357   1.678   7.596 -0.8364  1.0008 -0.8055
 3490SOL    HW221933   3.239   1.603   7.598  0.9499 -0.5596 -1.9630
 3491SOL     OW21934   2.365   3.967   7.981  0.4727  0.2231  0.0601
 3491SOL    HW121935   2.369   4.028   7.907 -1.7333 -0.4921 -0.6407
 3491SOL    HW221936   2.364   4.029   8.054  0.8983  0.9067 -0.5083
 3492SOL     OW21937   1.496   3.267  11.285 -0.6721 -0.0551 -0.3166
 3492SOL    HW121938   1.530   3.350  11.252  1.7773 -0.7038  0.5365
 3492SOL    HW221939   1.452   3.231  11.208 -0.3203  1.8380 -1.3869
 3493SOL     OW21940   3.556   3.992   6.068 -0.0489 -0.1051  0.2760
 3493SOL    HW121941   3.535   4.005   6.161 -0.5718  0.2515  0.1122
 3493SOL    HW221942   3.646   3.961   6.063 -0.8630 -2.4182  0.2779
 3494SOL     OW21943   1.981   2.095   2.366 -0.3265 -0.7592  0.2882
 3494SOL    HW121944   1.967   2.035   2.292 -0.4962  0.9723 -1.0744
 3494SOL    HW221945   2.037   2.038   2.420  1.2437 -0.5747 -1.1622
 3495SOL     OW21946   3.435   0.779   9.608  0.3496 -0.3620  0.1262
 3495SOL    HW121947   3.350   0.735   9.610  0.3276 -0.4955 -3.9751
 3495SOL    HW221948   3.470   0.777   9.697  1.2135  0.7592 -0.1853
 3496SOL     OW21949   1.959   0.420   5.418  0.0958  0.5534 -0.3213
 3496SOL    HW121950   1.890   0.480   5.447  1.8492  2.3774  0.1353
 3496SOL    HW221951   2.038   0.441   5.470 -0.9366 -0.7878  1.8003
 3497SOL     OW21952   3.128   2.553   4.831 -0.0509  0.2357  0.2235
 3497SOL    HW121953   3.049   2.607   4.824  0.8551  1.3657 -1.3513
 3497SOL    HW221954   3.197   2.620   4.821  0.0396  0.2232  0.7364
 3498SOL     OW21955   2.917   4.713   1.719 -0.5099  0.1108  0.0747
 3498SOL    HW121956   2.933   0.018   1.810 -0.8556 -0.0609  0.1811
 3498SOL    HW221957   3.002   4.672   1.700 -1.4245 -0.5635 -2.4576
 3499SOL     OW21958   4.610   2.533  17.231  0.3451 -0.1273 -0.2602
 3499SOL    HW121959   4.674   2.522  17.301 -0.1383 -1.0632  0.0468
 3499SOL    HW221960   4.651   2.484  17.159 -0.4309  0.1641 -0.9033
 3500SOL     OW21961   3.765   3.763   1.758 -0.1331  0.3167 -0.3194
 3500SOL    HW121962   3.769   3.811   1.841 -0.8632 -1.0545  0.5122
 3500SOL    HW221963   3.817   3.687   1.783  1.4372  0.5154 -2.9962
 3501SOL     OW21964   3.239   1.166   3.531  0.7194  0.4646  0.1139
 3501SOL    HW121965   3.302   1.151   3.461  0.2761  1.7161 -0.5562
 3501SOL    HW221966   3.265   1.104   3.599 -0.4424  0.7952  0.8641
 3502SOL     OW21967   0.412   2.204   2.773  0.5763  0.2108  0.2570
 3502SOL    HW121968   0.503   2.175   2.771  0.5735  0.2542 -1.0009
 3502SOL    HW221969   0.407   2.283   2.718 -0.9720  0.1498  0.3129
 3503SOL     OW21970   0.734   2.423  11.736 -0.3678  0.2397  0.6561
 3503SOL    HW121971   0.743   2.412  11.642 -0.5272 -0.2137  0.6928
 3503SOL    HW221972   0.714   2.339  11.778 -1.2562  0.2843  0.3259
 3504SOL     OW21973   2.318   2.265   8.489  0.3119  0.7767 -0.5722
 3504SOL    HW121974   2.340   2.190   8.545 -0.5688  0.0116 -1.2526
 3504SOL    HW221975   2.303   2.322   8.564  0.0206 -1.7247  1.2643
 3505SOL     OW21976   1.679   3.280   5.719  0.4074 -0.1506 -0.6545
 3505SOL    HW121977   1.724   3.330   5.651  0.3972 -0.0849 -0.6129
 3505SOL    HW221978   1.590   3.282   5.685 -0.2381  3.2331  1.2826
 3506SOL     OW21979   1.170   2.172   7.499  0.0978  0.0635 -0.1082
 3506SOL    HW121980   1.109   2.222   7.444  0.0952  0.1928  0.0118
 3506SOL    HW221981   1.236   2.157   7.431  1.6197 -0.2539  1.4334
 3507SOL     OW21982   3.962   3.164  14.544 -0.6548  0.0450  0.1995
 3507SOL    HW121983   4.042   3.208  14.570  1.2802 -2.1952 -1.9382
 3507SOL    HW221984   3.918   3.127  14.620 -2.7064  0.3827 -0.8141
 3508SOL     OW21985   1.173   0.679   5.710 -0.0047 -0.6357 -0.3086
 3508SOL    HW121986   1.080   0.699   5.725 -0.1549 -1.5697  0.0117
 3508SOL    HW221987   1.182   0.605   5.771  1.7898 -0.2649 -0.1194
 3509SOL     OW21988   0.160   0.695   9.287  0.0705  0.3016 -0.0852
 3509SOL    HW121989   0.150   0.759   9.216  1.6144  1.3496  0.6647
 3509SOL    HW221990   0.088   0.634   9.268  0.2660 -0.3113  1.1581
 3510SOL     OW21991   0.779   2.030   9.246 -0.4379 -0.2704  0.2435
 3510SOL    HW121992   0.779   1.945   9.290  0.3764 -0.3676  0.0438
 3510SOL    HW221993   0.752   2.008   9.156  0.8304  0.6261 -0.3448
 3511SOL     OW21994   4.014   2.731   2.738  0.4653 -0.6846  0.7318
 3511SOL    HW121995   3.943   2.733   2.673  2.1254  0.3442 -1.0527
 3511SOL    HW221996   4.084   2.725   2.674  0.7711 -0.7516  1.0724
 3512SOL     OW21997   0.024   0.834  16.540  0.1437 -0.2662  0.3188
 3512SOL    HW121998   0.089   0.827  16.610  0.4678  0.0960  0.0559
 3512SOL    HW221999   4.716   0.922  16.564 -0.7217 -0.3362 -0.4513
 3513SOL     OW22000   2.646   2.642   6.554  0.3958 -0.1560 -0.4262
 3513SOL    HW122001   2.632   2.551   6.580 -2.1556 -0.3020 -2.2441
 3513SOL    HW222002   2.656   2.685   6.639 -1.1549  0.6779 -0.6511
 3514SOL     OW22003   2.519   1.448   7.902 -0.1352 -0.0175  0.5040
 3514SOL    HW122004   2.519   1.405   7.987  0.7906  0.4090  0.7212
 3514SOL    HW222005   2.583   1.399   7.850 -2.0584 -0.3722 -1.5480
 3515SOL     OW22006   3.344   0.823   5.993  0.4627  0.7993  0.3692
 3515SOL    HW122007   3.359   0.893   5.930  1.8407 -1.0919 -1.4330
 3515SOL    HW222008   3.251   0.833   6.010  0.7852  2.4188  1.1788
 3516SOL     OW22009   0.882   3.279   5.383  0.6664 -0.2272  0.1099
 3516SOL    HW122010   0.810   3.334   5.412  1.0638  0.2729  0.1405
 3516SOL    HW222011   0.900   3.220   5.456  0.4709 -1.0117 -0.4772
 3517SOL     OW22012   3.260   2.670   4.050 -0.2699 -0.6730 -0.1668
 3517SOL    HW122013   3.254   2.700   3.959 -0.3686 -0.1204  0.0229
 3517SOL    HW222014   3.177   2.628   4.070 -0.7166  0.5116  0.4575
 3518SOL     OW22015   3.182   1.972   3.748  0.0474  0.2817 -0.2001
 3518SOL    HW122016   3.195   1.984   3.653  0.5649  0.9408 -0.0494
 3518SOL    HW222017   3.239   2.042   3.780  0.9997  0.4650 -2.2528
 3519SOL     OW22018   3.093   4.520   2.211 -0.3076  0.1175  0.0698
 3519SOL    HW122019   3.161   4.527   2.278 -0.7519 -0.3357  0.5675
 3519SOL    HW222020   3.037   4.447   2.237  1.9001 -1.2266  1.0715
 3520SOL     OW22021   2.686   1.811  13.050  0.3051  0.7352  0.4577
 3520SOL    HW122022   2.666   1.881  12.988 -1.7197 -1.4373 -1.3430
 3520SOL    HW222023   2.765   1.853  13.084  1.2430 -1.0218  0.4229
 3521SOL     OW22024   1.215   1.950   3.925  0.3969  0.0153  1.0281
 3521SOL    HW122025   1.255   2.017   3.869  0.7633 -0.4495  0.7398
 3521SOL    HW222026   1.132   1.989   3.954  0.1304 -0.5662  1.0370
 3522SOL     OW22027   4.288   2.840   4.145  0.3818  0.4063 -0.5496
 3522SOL    HW122028   4.246   2.894   4.078 -1.2128  2.6603  2.2724
 3522SOL    HW222029   4.271   2.890   4.225  0.7141  0.1335 -0.3107
 3523SOL     OW22030   1.105   2.296  17.318 -0.0698  0.1314  0.4129
 3523SOL    HW122031   1.052   2.332  17.248 -0.8946  0.2581  1.1050
 3523SOL    HW222032   1.039   2.296  17.387  1.3482  0.2642  1.7980
 3524SOL     OW22033   1.462   1.372   5.733  0.2581  0.4641  0.3041
 3524SOL    HW122034   1.526   1.425   5.782  1.9679 -1.8608  0.5510
 3524SOL    HW222035   1.524   1.334   5.672 -1.9394 -0.1913 -1.5090
 3525SOL     OW22036   3.380   1.125   3.290 -0.5716 -0.0749 -0.0586
 3525SOL    HW122037   3.383   1.215   3.257  0.0879  1.3155  3.7506
 3525SOL    HW222038   3.422   1.069   3.226 -3.2531 -2.4314  0.2066
 3526SOL     OW22039   3.457   0.662  13.118  0.0980  0.0179 -0.4699
 3526SOL    HW122040   3.513   0.688  13.045  1.7163 -3.0845 -0.3215
 3526SOL    HW222041   3.415   0.747  13.132  0.7182 -0.0222  1.6982
 3527SOL     OW22042   4.296   2.842   6.467 -0.3035  0.0165  0.5611
 3527SOL    HW122043   4.290   2.761   6.517  0.0700 -1.3273 -1.5692
 3527SOL    HW222044   4.384   2.875   6.487 -0.0602 -1.6444  2.2109
 3528SOL     OW22045   2.873   4.357   8.431 -0.7603  0.4398  0.7804
 3528SOL    HW122046   2.867   4.264   8.409 -0.3011  0.0864  2.1891
 3528SOL    HW222047   2.921   4.343   8.513  0.8272 -1.9875 -0.5604
 3529SOL     OW22048   0.432   2.716   5.301  0.3689  0.6082  0.4392
 3529SOL    HW122049   0.433   2.709   5.206  1.5694 -1.7550  0.6176
 3529SOL    HW222050   0.517   2.757   5.316 -0.5338  2.2194  1.2083
 3530SOL     OW22051   3.341   1.752  15.923  0.4164 -0.2385  0.0264
 3530SOL    HW122052   3.399   1.807  15.869 -0.6892 -0.1243 -1.0529
 3530SOL    HW222053   3.405   1.685  15.948 -2.6745 -2.5250  1.7469
 3531SOL     OW22054   1.364   4.018   5.073  0.3590 -0.2113  0.3500
 3531SOL    HW122055   1.453   4.022   5.038  0.1346  0.3535 -0.1510
 3531SOL    HW222056   1.382   4.027   5.166 -0.9928 -1.0312  0.7021
 3532SOL     OW22057   1.013   1.666  13.773  0.1199  0.5306  0.0610
 3532SOL    HW122058   1.029   1.737  13.710  0.4804  0.8286  0.4942
 3532SOL    HW222059   1.098   1.665  13.817  0.1179  1.2935  0.0734
 3533SOL     OW22060   0.446   3.772   4.196 -0.0863  0.4500 -0.0428
 3533SOL    HW122061   0.435   3.862   4.164  0.6421  1.3938  2.3936
 3533SOL    HW222062   0.428   3.785   4.289 -1.4558 -0.5430 -0.1601
 3534SOL     OW22063   3.815   0.602   8.502 -0.0537 -0.5249 -0.2713
 3534SOL    HW122064   3.862   0.603   8.418 -0.5815 -0.5683 -0.5660
 3534SOL    HW222065   3.742   0.541   8.492  1.3905 -1.6778 -3.7750
 3535SOL     OW22066   3.215   2.939   1.953  0.6928  0.4885  0.1764
 3535SOL    HW122067   3.202   2.850   1.984  0.4205 -0.1949 -1.8548
 3535SOL    HW222068   3.198   2.985   2.035  1.7554 -0.0606  0.6943
 3536SOL     OW22069   3.407   2.849   9.806  0.5246  0.9767 -0.1618
 3536SOL    HW122070   3.407   2.933   9.760  1.6327  1.6693  1.1048
 3536SOL    HW222071   3.336   2.801   9.764 -1.2314  3.3173  0.1632
 3537SOL     OW22072   0.451   4.431   5.921  0.5777  0.2263 -0.6073
 3537SOL    HW122073   0.445   4.443   5.827  0.3903  2.3388 -0.3220
 3537SOL    HW222074   0.478   4.519   5.945 -0.7106  0.6236 -0.6026
 3538SOL     OW22075   2.089   2.490  16.201  0.4107 -0.0155  0.6979
 3538SOL    HW122076   2.151   2.562  16.206  1.8627 -1.2809  1.0071
 3538SOL    HW222077   2.039   2.506  16.281 -0.8048 -0.5972  0.0582
 3539SOL     OW22078   2.851   1.983  10.358 -0.1461 -0.0611 -0.0486
 3539SOL    HW122079   2.830   1.928  10.283 -2.0527  0.6477 -0.0536
 3539SOL    HW222080   2.846   2.072  10.323  1.8530 -0.2031 -0.6596
 3540SOL     OW22081   0.815   0.916   2.937 -0.1608 -0.7869  0.5478
 3540SOL    HW122082   0.851   0.852   2.875  0.8160 -0.4672  0.7917
 3540SOL    HW222083   0.750   0.854   2.970  0.6679 -1.5778  0.6974
 3541SOL     OW22084   3.272   4.605  12.215  0.6621 -0.2997 -0.1826
 3541SOL    HW122085   3.292   4.649  12.297 -3.9654  1.0334  0.2173
 3541SOL    HW222086   3.363   4.609  12.184  0.6116 -0.4633 -0.3587
 3542SOL     OW22087   0.147   1.196   9.046  0.1284 -0.3989  0.7681
 3542SOL    HW122088   0.128   1.284   9.079 -1.2054  0.5493 -2.5086
 3542SOL    HW222089   0.206   1.162   9.113 -1.3248 -4.2590  0.1029
 3543SOL     OW22090   4.617   1.909   2.967  0.0711 -0.1588  0.2016
 3543SOL    HW122091   4.662   1.895   2.884 -0.1476 -0.8259  0.1939
 3543SOL    HW222092   4.580   1.993   2.939  0.6080 -0.7465 -2.3076
 3544SOL     OW22093   0.683   3.485   9.135  0.9169  0.2612  0.2213
 3544SOL    HW122094   0.659   3.401   9.175 -1.5675  1.6727  1.7356
 3544SOL    HW222095   0.748   3.450   9.074 -0.6279  0.2548 -1.4300
 3545SOL     OW22096   1.351   3.288   3.561 -0.1130 -0.2649 -0.4130
 3545SOL    HW122097   1.426   3.331   3.519  1.2625 -1.1437  1.1512
 3545SOL    HW222098   1.292   3.362   3.575  1.4876  0.7030  1.2683
 3546SOL     OW22099   3.622   4.139   3.174 -0.2239 -0.0319  0.2641
 3546SOL    HW122100   3.553   4.175   3.230 -0.1199 -3.6764  2.7107
 3546SOL    HW222101   3.614   4.044   3.171 -0.1708  0.0334 -1.9967
 3547SOL     OW22102   1.341   0.965   7.890  0.2232  0.7686  0.4169
 3547SOL    HW122103   1.284   0.936   7.819  0.0035 -1.4335  1.5180
 3547SOL    HW222104   1.279   1.010   7.947 -0.3999  1.8260 -1.0837
 3548SOL     OW22105   3.878   0.522   7.799  0.3850  0.5508  0.1182
 3548SOL    HW122106   3.901   0.583   7.870  1.0227  0.3686  0.0642
 3548SOL    HW222107   3.783   0.531   7.811  0.3903  1.3263 -0.4241
 3549SOL     OW22108   3.196   1.866   4.011  0.0306 -0.2732 -0.0643
 3549SOL    HW122109   3.283   1.828   4.020 -0.3677 -1.2049 -0.1255
 3549SOL    HW222110   3.193   1.880   3.917 -0.6498  0.5285  0.0800
 3550SOL     OW22111   2.027   3.384   6.567  0.1812  0.2975 -0.0515
 3550SOL    HW122112   2.035   3.312   6.505 -1.0678  0.7438 -0.7290
 3550SOL    HW222113   1.950   3.434   6.539 -1.4603 -2.0120  0.3221
 3551SOL     OW22114   3.390   3.431   5.123 -0.4309  0.2987  0.0230
 3551SOL    HW122115   3.357   3.510   5.165 -0.2069  0.6650 -0.4831
 3551SOL    HW222116   3.478   3.466   5.109  0.6222 -2.6828 -0.9638
 3552SOL     OW22117   0.189   0.734   7.703  0.0722  0.6425  0.8412
 3552SOL    HW122118   0.239   0.661   7.668  0.4690  1.6895 -0.7574
 3552SOL    HW222119   0.104   0.691   7.703 -0.0724  0.9221  0.6349
 3553SOL     OW22120   2.238   1.506   3.660 -0.3198 -0.2385 -0.1380
 3553SOL    HW122121   2.228   1.453   3.581 -2.2592  0.7103 -0.5227
 3553SOL    HW222122   2.305   1.569   3.636 -1.0819  1.4146  2.1066
 3554SOL     OW22123   2.901   2.896   7.909 -0.0490  0.2110  0.5280
 3554SOL    HW122124   2.941   2.918   7.993 -1.3649  1.2614  0.8858
 3554SOL    HW222125   2.902   2.989   7.887  0.6441  0.3426  1.1256
 3555SOL     OW22126   3.885   1.543  10.294  0.3068 -0.1593 -0.4677
 3555SOL    HW122127   3.833   1.603  10.239  0.0036  0.0153  0.0062
 3555SOL    HW222128   3.935   1.592  10.359 -0.3276 -0.9819  0.6374
 3556SOL     OW22129   2.618   0.952  14.782  0.1214 -0.5944 -0.7129
 3556SOL    HW122130   2.657   0.963  14.868 -1.7877 -0.0766  0.0818
 3556SOL    HW222131   2.523   0.962  14.786  0.1753 -0.9353  1.5352
 3557SOL     OW22132   1.747   1.741   7.892  0.0029  0.1880 -0.2443
 3557SOL    HW122133   1.801   1.810   7.854 -2.3027  0.1862 -3.4855
 3557SOL    HW222134   1.766   1.770   7.981 -0.0792  2.5635 -0.9918
 3558SOL     OW22135   4.562   1.785   0.803 -0.1488  0.2347 -0.2230
 3558SOL    HW122136   4.523   1.724   0.866 -1.6836  0.4560 -0.9767
 3558SOL    HW222137   4.654   1.759   0.816 -0.0813  0.8280  0.4757
 3559SOL     OW22138   2.352   0.810  14.527 -0.2388  0.2606 -0.0049
 3559SOL    HW122139   2.385   0.769  14.447 -1.5911 -0.1235 -0.3619
 3559SOL    HW222140   2.420   0.786  14.590  2.2190 -0.9858 -3.0932
 3560SOL     OW22141   4.493   3.643  16.006  0.4577 -0.1756 -0.0693
 3560SOL    HW122142   4.455   3.655  16.093  1.5214  2.7768  0.0174
 3560SOL    HW222143   4.534   3.557  16.006  0.9718  0.0610 -0.9833
 3561SOL     OW22144   1.570   2.997   5.317 -0.5856 -0.1105  0.9397
 3561SOL    HW122145   1.618   3.005   5.235  0.3069  2.1177  1.6692
 3561SOL    HW222146   1.633   2.976   5.386  0.4944  1.4450  0.4452
 3562SOL     OW22147   4.031   1.153   9.623  0.3427  0.3300  0.2649
 3562SOL    HW122148   4.019   1.165   9.717 -0.1037  1.5713  0.0482
 3562SOL    HW222149   4.126   1.161   9.618  0.4838 -1.6560 -0.2439
 3563SOL     OW22150   4.525   3.255   2.467 -0.1898 -0.2799  0.1083
 3563SOL    HW122151   4.443   3.205   2.464 -0.8638  0.8136  0.1233
 3563SOL    HW222152   4.585   3.204   2.413  0.8775 -0.6670  1.6667
 3564SOL     OW22153   4.023   1.868   2.980  0.0523  0.1404 -0.1524
 3564SOL    HW122154   4.038   1.782   2.941  1.3810  0.9766 -1.5002
 3564SOL    HW222155   4.110   1.906   2.967 -0.2741  0.9136 -0.0556
 3565SOL     OW22156   0.088   3.039   7.218 -0.7243 -0.1111  0.6391
 3565SOL    HW122157   0.004   3.015   7.181 -0.1634 -0.6718 -0.2531
 3565SOL    HW222158   0.130   2.965   7.174 -2.0963  0.6597 -1.9433
 3566SOL     OW22159   2.447   1.836   9.071  0.4404 -0.8868  0.2457
 3566SOL    HW122160   2.525   1.891   9.064 -0.2814 -0.0590 -1.4061
 3566SOL    HW222161   2.421   1.828   8.979 -1.9420  2.7527  0.5825
 3567SOL     OW22162   0.543   2.010  16.862 -0.5067 -0.0952 -0.0512
 3567SOL    HW122163   0.606   2.077  16.890  0.9701 -1.3134 -0.4236
 3567SOL    HW222164   0.603   1.954  16.812 -0.3845 -0.8431  0.9261
 3568SOL     OW22165   2.114   0.551   5.767  0.7915  0.7184 -0.4268
 3568SOL    HW122166   2.188   0.583   5.818 -1.8110  2.3436  2.3389
 3568SOL    HW222167   2.145   0.524   5.681 -1.9234  0.5355 -1.3533
 3569SOL     OW22168   0.618   4.442   3.568 -0.0041 -0.0260  0.1551
 3569SOL    HW122169   0.592   4.357   3.603  2.0279 -1.6073 -2.2300
 3569SOL    HW222170   0.669   4.421   3.489 -0.4809 -1.4811  0.2471
 3570SOL     OW22171   3.611   1.526   5.478  0.4837 -0.1762 -0.7356
 3570SOL    HW122172   3.610   1.536   5.573  2.5024  0.2306 -0.7677
 3570SOL    HW222173   3.556   1.448   5.464  1.0894 -0.4910 -1.3454
 3571SOL     OW22174   1.854   3.545   9.031 -0.3429  0.6487  0.2298
 3571SOL    HW122175   1.872   3.637   9.014  3.0112  0.2479  1.5661
 3571SOL    HW222176   1.907   3.506   8.962 -0.5051  0.2666  0.3191
 3572SOL     OW22177   3.783   3.602   0.682 -0.1371  0.2789 -0.3310
 3572SOL    HW122178   3.809   3.691   0.706 -1.5609  0.9344 -1.2799
 3572SOL    HW222179   3.803   3.562   0.767 -1.3372 -0.6428 -0.4920
 3573SOL     OW22180   4.112   3.951  16.016  0.2334 -0.0864  0.3470
 3573SOL    HW122181   4.153   3.869  16.045 -3.1319 -1.9723 -0.2516
 3573SOL    HW222182   4.047   3.961  16.085  0.2748  0.9831  0.2289
 3574SOL     OW22183   1.367   1.832  17.361  0.4012  0.1082 -0.3107
 3574SOL    HW122184   1.359   1.790  17.446 -0.3347 -1.9391 -1.3645
 3574SOL    HW222185   1.298   1.898  17.361  0.5648  0.2771  0.1012
 3575SOL     OW22186   3.197   1.842   7.300 -0.1792  0.1230 -0.0168
 3575SOL    HW122187   3.203   1.937   7.284  2.8042  0.1621  1.3435
 3575SOL    HW222188   3.287   1.818   7.276 -1.2684 -1.0355 -2.9094
 3576SOL     OW22189   0.856   4.437   7.252 -0.2498 -0.4579  0.1144
 3576SOL    HW122190   0.949   4.458   7.254 -0.2978 -0.3008  0.5532
 3576SOL    HW222191   0.853   4.365   7.189 -2.4282  1.9462 -2.5995
 3577SOL     OW22192   3.626   3.008   1.365 -0.1609 -0.1361 -0.4038
 3577SOL    HW122193   3.552   3.009   1.426  0.1397  1.1796 -0.0741
 3577SOL    HW222194   3.599   3.059   1.288 -0.9562  1.1104  0.7143
 3578SOL     OW22195   2.678   3.963  11.946 -0.1716 -0.4333  0.5025
 3578SOL    HW122196   2.683   3.884  11.891  1.7490  1.1249 -1.5607
 3578SOL    HW222197   2.583   3.961  11.954 -0.0945 -3.4384  0.5903
 3579SOL     OW22198   3.276   2.421   1.168 -0.4156  0.2819 -0.1819
 3579SOL    HW122199   3.350   2.377   1.126  0.4522 -0.5130  2.2039
 3579SOL    HW222200   3.321   2.504   1.187  2.1631 -1.6922  2.2604
 3580SOL     OW22201   3.548   2.815   3.937 -0.5699 -0.1957 -0.6107
 3580SOL    HW122202   3.636   2.777   3.943 -0.8653 -0.6261  1.0119
 3580SOL    HW222203   3.542   2.841   4.029  1.8828 -2.4723  0.1864
 3581SOL     OW22204   0.040   0.009  14.564  0.3215  0.5183  0.3088
 3581SOL    HW122205   0.119   0.025  14.512  0.2951 -1.7735 -0.4287
 3581SOL    HW222206   4.718   4.681  14.494  2.8472 -0.4783 -0.5777
 3582SOL     OW22207   1.579   2.749   7.234  0.5878 -0.6033  0.2229
 3582SOL    HW122208   1.635   2.812   7.191  0.7065 -1.1455 -0.4160
 3582SOL    HW222209   1.527   2.719   7.159  0.4200  0.7676 -0.2112
 3583SOL     OW22210   3.393   0.199  11.421  0.3730 -0.3268 -0.7494
 3583SOL    HW122211   3.362   0.109  11.429 -0.7461  0.2603  1.3769
 3583SOL    HW222212   3.486   0.188  11.442  0.4763 -0.9069 -1.5260
 3584SOL     OW22213   0.962   4.344   5.598 -0.0829  0.6233  0.0346
 3584SOL    HW122214   1.001   4.376   5.517 -0.8086  1.2141 -0.0837
 3584SOL    HW222215   0.874   4.321   5.568  0.0357  0.2493 -0.0303
 3585SOL     OW22216   1.688   4.001  17.577 -0.5233  0.7354  0.5712
 3585SOL    HW122217   1.773   3.956  17.583 -0.3065  1.0110 -0.4021
 3585SOL    HW222218   1.724   4.089  17.589 -0.3672  1.0501 -2.0328
 3586SOL     OW22219   2.677   2.434   4.901 -0.2341  0.5111 -0.7807
 3586SOL    HW122220   2.677   2.451   4.996  0.3570  2.0907 -1.0747
 3586SOL    HW222221   2.747   2.369   4.895  0.1584  0.8731 -0.1850
 3587SOL     OW22222   4.016   1.639   3.262  1.1216 -0.7873 -0.4701
 3587SOL    HW122223   3.969   1.623   3.180 -1.3374  0.0921  0.7671
 3587SOL    HW222224   3.993   1.559   3.308  4.0866 -2.4280 -1.8865
 3588SOL     OW22225   0.042   0.745   5.794 -0.3859 -0.3357 -0.4181
 3588SOL    HW122226   0.040   0.707   5.882 -3.5927 -1.0502 -0.8114
 3588SOL    HW222227   0.024   0.834   5.825 -2.5401 -1.2318  0.8876
 3589SOL     OW22228   1.160   1.622   6.256 -0.4208  0.4797  0.4558
 3589SOL    HW122229   1.137   1.625   6.163 -0.7459  1.5999  0.5705
 3589SOL    HW222230   1.255   1.628   6.244 -0.3350 -0.0917  0.8677
 3590SOL     OW22231   3.397   2.872  10.899 -0.3600 -0.0550 -0.3379
 3590SOL    HW122232   3.462   2.942  10.906  0.1665 -0.3997 -1.8070
 3590SOL    HW222233   3.419   2.805  10.964  2.6676 -0.3103 -1.6031
 3591SOL     OW22234   2.492   0.417   7.378  0.2477 -0.7875 -0.7886
 3591SOL    HW122235   2.472   0.505   7.409  0.5515 -1.0534  0.1917
 3591SOL    HW222236   2.436   0.425   7.302 -0.9175  0.4930  0.2188
 3592SOL     OW22237   0.906   0.348  12.979 -0.0081 -0.0377  0.1726
 3592SOL    HW122238   0.933   0.439  12.967 -0.9663 -0.0102 -1.6898
 3592SOL    HW222239   0.837   0.348  12.912  0.3548  2.3506 -0.2214
 3593SOL     OW22240   4.702   3.003  12.357  0.3546  0.3480 -0.2849
 3593SOL    HW122241   0.030   3.081  12.332  2.1162 -1.1666 -1.5197
 3593SOL    HW222242   0.049   2.952  12.400 -1.9637 -2.2002  0.3790
 3594SOL     OW22243   3.113   3.750   6.663  0.2399  0.2754  0.3402
 3594SOL    HW122244   3.157   3.782   6.742  0.8421 -1.6577  0.7857
 3594SOL    HW222245   3.088   3.833   6.622  1.3679 -0.4096 -1.7498
 3595SOL     OW22246   3.504   3.703   4.333  0.4094  0.2578 -0.4381
 3595SOL    HW122247   3.594   3.704   4.299  0.2273 -1.5908 -0.9361
 3595SOL    HW222248   3.524   3.644   4.406 -1.8266  0.7171  0.5280
 3596SOL     OW22249   4.569   1.075  14.462  0.4200 -0.5497 -0.0924
 3596SOL    HW122250   4.504   1.108  14.401  1.1636 -0.4704 -0.8441
 3596SOL    HW222251   4.526   0.991  14.480 -1.3293 -0.2766 -3.0894
 3597SOL     OW22252   0.284   1.531  13.407 -0.1088  0.3054 -0.1011
 3597SOL    HW122253   0.235   1.577  13.476 -1.3482 -0.6162 -0.3641
 3597SOL    HW222254   0.282   1.590  13.332 -0.7629  0.4146  0.0016
 3598SOL     OW22255   0.516   2.084   8.102 -0.0455  0.2148  0.1093
 3598SOL    HW122256   0.608   2.098   8.080  0.8988 -5.2569  0.4498
 3598SOL    HW222257   0.503   2.012   8.040 -3.7363  1.7102 -0.8583
 3599SOL     OW22258   3.240   3.326   9.291 -0.0048  0.1245  0.2439
 3599SOL    HW122259   3.267   3.408   9.250 -2.0424  1.0927  0.8602
 3599SOL    HW222260   3.320   3.307   9.341  0.2129 -3.0912 -1.3417
 3600SOL     OW22261   4.084   0.783   3.711 -0.9224 -0.3720 -0.3539
 3600SOL    HW122262   4.159   0.784   3.653  0.6390 -1.6662  1.6272
 3600SOL    HW222263   4.091   0.699   3.757 -1.2643 -0.6613 -0.8283
 3601SOL     OW22264   0.418   3.607   5.393  0.3742 -0.0658 -0.3514
 3601SOL    HW122265   0.420   3.651   5.478  0.8382  0.9326 -0.8750
 3601SOL    HW222266   0.385   3.520   5.415 -0.0914  0.4577  0.9910
 3602SOL     OW22267   3.442   4.418   1.788 -0.2049 -0.7322 -0.1943
 3602SOL    HW122268   3.533   4.394   1.804 -0.0574  0.0230  0.0867
 3602SOL    HW222269   3.443   4.504   1.745  3.2793 -1.5178 -1.7185
 3603SOL     OW22270   4.420   0.353   7.324  0.2487 -0.8889 -0.3083
 3603SOL    HW122271   4.383   0.271   7.353 -1.4677  0.6307  1.7706
 3603SOL    HW222272   4.433   0.335   7.231  2.1823  0.1467 -0.2320
 3604SOL     OW22273   2.093   1.921   6.520 -0.8896 -0.1780  0.3799
 3604SOL    HW122274   2.071   1.849   6.460  0.1529 -0.8339  0.7889
 3604SOL    HW222275   2.018   1.914   6.579  0.2124  0.7247  1.8828
 3605SOL     OW22276   0.662   1.575   3.875  0.2268  0.1638 -0.3788
 3605SOL    HW122277   0.747   1.548   3.839 -0.1135 -3.0988  1.2234
 3605SOL    HW222278   0.691   1.572   3.967  0.3031 -0.4791 -0.4252
 3606SOL     OW22279   3.973   1.759   8.406  0.1431  0.4416 -0.5188
 3606SOL    HW122280   3.953   1.846   8.440  0.5079  0.8913 -1.4495
 3606SOL    HW222281   3.895   1.734   8.356 -2.0897  2.6960  1.8006
 3607SOL     OW22282   4.313   3.169   6.663  0.7678  0.4160 -0.0734
 3607SOL    HW122283   4.271   3.222   6.730  0.4229  0.3656 -0.2475
 3607SOL    HW222284   4.339   3.094   6.716  1.8270  0.7320 -0.1571
 3608SOL     OW22285   3.683   2.238   2.679 -0.8511 -0.9201  0.3187
 3608SOL    HW122286   3.738   2.159   2.682  0.2397 -0.1252  1.0222
 3608SOL    HW222287   3.597   2.209   2.710 -1.7801 -1.5515 -2.8649
 3609SOL     OW22288   2.683   0.178  15.667 -0.5553  0.4257  0.7479
 3609SOL    HW122289   2.601   0.179  15.715 -0.5204  0.6153  0.8038
 3609SOL    HW222290   2.743   0.221  15.728  2.3737  0.7908 -2.3602
 3610SOL     OW22291   3.366   1.081  17.026 -0.6178  0.2449  0.2677
 3610SOL    HW122292   3.435   1.140  17.056 -0.3861  0.4665 -0.6950
 3610SOL    HW222293   3.394   1.005  17.077  0.1249  1.5966  1.8534
 3611SOL     OW22294   3.477   4.100   4.033  0.7376 -0.0365 -0.0040
 3611SOL    HW122295   3.396   4.150   4.026  0.4355 -0.5480 -0.1801
 3611SOL    HW222296   3.448   4.011   4.014 -0.6823  0.2191  0.9860
 3612SOL     OW22297   3.462   0.066   4.984 -0.4616 -0.7748 -0.1842
 3612SOL    HW122298   3.498   0.154   4.973  0.2640 -1.0869 -0.3426
 3612SOL    HW222299   3.428   0.053   4.895  0.6787 -1.9070 -0.4682
 3613SOL     OW22300   1.738   2.139  14.591  0.0889 -0.0364  0.0700
 3613SOL    HW122301   1.694   2.160  14.509 -4.2978  2.8322  3.1052
 3613SOL    HW222302   1.716   2.212  14.650  1.6441  1.1453 -0.8075
 3614SOL     OW22303   4.167   2.338   2.748  0.6084 -0.2844 -0.0791
 3614SOL    HW122304   4.088   2.378   2.712  1.2937  1.2114  0.1078
 3614SOL    HW222305   4.156   2.367   2.839  2.7963  1.5113 -0.4137
 3615SOL     OW22306   4.719   1.092   7.192  0.8631  0.2750 -0.4133
 3615SOL    HW122307   4.678   1.031   7.131 -1.5319  0.7363  0.7294
 3615SOL    HW222308   0.079   1.045   7.211  0.9034  0.6243  0.2823
 3616SOL     OW22309   3.997   2.079  13.725  0.4247  0.2012  0.0146
 3616SOL    HW122310   3.974   1.988  13.741  1.9661 -0.5536 -2.0709
 3616SOL    HW222311   3.961   2.115  13.806 -1.5246  1.0736 -1.2399
 3617SOL     OW22312   1.632   0.422  12.366  0.1363  0.1026 -0.8238
 3617SOL    HW122313   1.612   0.481  12.294 -1.7392  0.7401  0.2130
 3617SOL    HW222314   1.566   0.453  12.428 -0.7303 -2.2949 -0.5383
 3618SOL     OW22315   4.600   2.949   8.260 -0.3452 -0.3220  0.3606
 3618SOL    HW122316   4.510   2.921   8.244 -1.3252  1.5681  2.3551
 3618SOL    HW222317   4.612   2.996   8.177 -0.8385 -2.2729 -0.8009
 3619SOL     OW22318   4.253   3.725   4.349  0.0410 -0.2210  0.0239
 3619SOL    HW122319   4.240   3.700   4.440 -1.1071 -1.3365 -0.4608
 3619SOL    HW222320   4.194   3.665   4.304 -0.5745 -1.3791  2.4337
 3620SOL     OW22321   4.199   1.037   2.541 -0.1884  0.3249  0.1218
 3620SOL    HW122322   4.276   0.986   2.515 -1.4423 -0.0904 -2.8987
 3620SOL    HW222323   4.200   1.096   2.465 -1.2555 -0.2689 -0.3585
 3621SOL     OW22324   0.266   2.922  14.275  0.0542 -0.1359  0.4358
 3621SOL    HW122325   0.226   2.888  14.195  0.9323 -2.7994  1.1253
 3621SOL    HW222326   0.338   2.859  14.282  2.1993  2.5158  2.4119
 3622SOL     OW22327   2.611   0.292   6.516 -0.2806 -0.3193 -0.6153
 3622SOL    HW122328   2.592   0.367   6.573 -1.7488 -0.0204 -1.5077
 3622SOL    HW222329   2.580   0.327   6.433 -1.9248 -1.0191 -0.2881
 3623SOL     OW22330   3.619   2.202   9.889 -0.5460  0.5037 -0.2440
 3623SOL    HW122331   3.561   2.135   9.926 -0.8139  1.9116  1.8533
 3623SOL    HW222332   3.675   2.151   9.829 -1.3009 -2.1634  1.3052
 3624SOL     OW22333   1.893   1.182   7.194 -0.5457 -0.5286  0.2399
 3624SOL    HW122334   1.906   1.260   7.141 -0.5528 -0.9142 -0.3337
 3624SOL    HW222335   1.895   1.122   7.119 -0.0858  0.3308 -0.4284
 3625SOL     OW22336   4.684   0.830   9.456  0.1091 -0.1981  0.0719
 3625SOL    HW122337   4.626   0.753   9.461  0.2015 -0.2211  0.7104
 3625SOL    HW222338   0.041   0.798   9.410 -0.6819 -0.1365 -1.3373
 3626SOL     OW22339   3.325   2.997   4.098  0.1432 -0.3055 -0.7669
 3626SOL    HW122340   3.252   3.026   4.042 -0.2367  2.0530  0.9695
 3626SOL    HW222341   3.305   2.904   4.109 -0.0703 -0.0764  0.7135
 3627SOL     OW22342   2.316   1.886   7.962 -0.5056  0.1400  0.1879
 3627SOL    HW122343   2.396   1.835   7.951 -0.2202  0.4982  0.5930
 3627SOL    HW222344   2.311   1.904   8.056 -2.4288  0.6486 -0.0037
 3628SOL     OW22345   0.175   2.727   1.416  0.1965  0.4794 -0.0729
 3628SOL    HW122346   0.117   2.702   1.344  0.7100 -0.0118 -0.3115
 3628SOL    HW222347   0.244   2.661   1.414  0.9783  1.2835  0.5411
 3629SOL     OW22348   0.816   2.766   9.806  0.0686 -0.1809 -0.3488
 3629SOL    HW122349   0.887   2.829   9.823 -0.5960  0.3465  0.4775
 3629SOL    HW222350   0.745   2.814   9.849  0.5086  0.3162 -0.1814
 3630SOL     OW22351   2.999   2.619  16.790 -0.4951 -0.0873 -0.3504
 3630SOL    HW122352   2.927   2.676  16.817 -1.9589 -1.7020 -0.8261
 3630SOL    HW222353   3.052   2.675  16.734  0.5435  0.1853  0.8931
 3631SOL     OW22354   2.265   1.559  10.332  0.4587  0.4519 -0.2030
 3631SOL    HW122355   2.335   1.557  10.397 -0.8113 -1.4877  1.1362
 3631SOL    HW222356   2.317   1.569  10.252  3.8935  0.9759  2.1194
 3632SOL     OW22357   0.237   0.512   6.666 -0.1236  0.0558 -0.5113
 3632SOL    HW122358   0.299   0.583   6.651 -0.9149  0.6486 -0.9967
 3632SOL    HW222359   0.285   0.454   6.725 -1.3152  0.3060  0.7129
 3633SOL     OW22360   1.235   1.901   7.162 -0.1929 -0.0746  0.0354
 3633SOL    HW122361   1.168   1.880   7.097  0.9124 -1.2607 -0.7184
 3633SOL    HW222362   1.292   1.960   7.113 -1.8809  1.6701  0.1635
 3634SOL     OW22363   4.584   1.590   8.124  0.2227 -0.0415 -0.5828
 3634SOL    HW122364   4.556   1.520   8.183 -0.2776 -0.8545 -1.7923
 3634SOL    HW222365   4.562   1.661   8.185 -0.8316 -0.1669 -0.8149
 3635SOL     OW22366   4.434   3.668  10.685  0.5079 -0.0248  0.0222
 3635SOL    HW122367   4.353   3.634  10.722  1.3612 -0.7256  1.2751
 3635SOL    HW222368   4.471   3.702  10.767 -1.5638  1.1314  0.4651
 3636SOL     OW22369   0.035   3.307   8.109  0.2107 -0.0250  0.1010
 3636SOL    HW122370   4.711   3.386   8.136 -1.1451 -0.0153 -2.1822
 3636SOL    HW222371   0.028   3.252   8.187  1.1761 -0.1465  0.0985
 3637SOL     OW22372   1.403   3.788   0.489 -0.0265 -0.2396  0.5540
 3637SOL    HW122373   1.394   3.714   0.548  0.2120  0.8314  1.9299
 3637SOL    HW222374   1.498   3.804   0.496 -0.2165  1.2630 -0.2463
 3638SOL     OW22375   0.137   4.511   4.896 -0.0993  0.5687  0.2162
 3638SOL    HW122376   0.047   4.526   4.867  0.0681  1.1724  0.0226
 3638SOL    HW222377   0.130   4.532   4.989  0.4775  1.0254  0.1510
 3639SOL     OW22378   1.273   0.257   8.585 -0.1737 -0.0732 -0.1144
 3639SOL    HW122379   1.211   0.269   8.513  0.9170 -0.6469 -1.1338
 3639SOL    HW222380   1.232   0.179   8.623  1.6392 -0.0019  1.9612
 3640SOL     OW22381   3.480   0.117   8.722  0.0231  0.0985  0.3242
 3640SOL    HW122382   3.510   0.049   8.783 -1.0139 -0.3349  0.3632
 3640SOL    HW222383   3.454   0.061   8.649  2.7108 -0.3189 -0.3289
 3641SOL     OW22384   3.731   3.991   6.466  0.2032  0.0447  0.1240
 3641SOL    HW122385   3.674   4.031   6.400 -0.1257 -0.5499  0.0450
 3641SOL    HW222386   3.710   3.899   6.449 -2.1225  0.3781  1.1537
 3642SOL     OW22387   2.199   3.532   3.381 -0.3619  0.9417 -0.1012
 3642SOL    HW122388   2.216   3.482   3.462 -0.3145 -0.6030 -1.0610
 3642SOL    HW222389   2.106   3.519   3.365  0.1179 -1.0904 -1.2343
 3643SOL     OW22390   1.853   3.164   6.456 -0.3156 -0.1405  0.2348
 3643SOL    HW122391   1.872   3.226   6.386 -2.4527 -0.3162 -0.5093
 3643SOL    HW222392   1.766   3.197   6.475  0.2666  0.3344  2.0413
 3644SOL     OW22393   0.681   3.395   6.695  0.1658 -0.0931  0.2466
 3644SOL    HW122394   0.607   3.355   6.649  0.0403  0.0665  0.3112
 3644SOL    HW222395   0.756   3.345   6.663  0.6304  0.8318 -0.0858
 3645SOL     OW22396   4.456   1.983   8.176 -0.2880 -0.2077  0.0533
 3645SOL    HW122397   4.543   1.944   8.168 -0.0071  0.4501 -0.1086
 3645SOL    HW222398   4.421   1.919   8.238 -1.3048 -1.2054 -1.5658
 3646SOL     OW22399   1.486   4.032  17.397  0.1392  0.2365  0.2625
 3646SOL    HW122400   1.433   4.027  17.477  0.2294  1.9491  0.4397
 3646SOL    HW222401   1.567   3.998  17.436 -0.8535 -2.1058  0.2565
 3647SOL     OW22402   0.799   0.303   8.367 -0.0088 -0.0382  0.4563
 3647SOL    HW122403   0.765   0.354   8.293  0.3535  0.5542  0.6962
 3647SOL    HW222404   0.812   0.223   8.316  1.7414  1.3584 -1.2929
 3648SOL     OW22405   3.317   2.474   4.407 -0.1314 -0.2580 -0.3929
 3648SOL    HW122406   3.393   2.489   4.349  1.4168 -0.5076  1.5757
 3648SOL    HW222407   3.279   2.560   4.419 -0.6691 -0.4278 -0.8895
 3649SOL     OW22408   1.344   2.100  16.630 -0.1291 -0.2695 -0.2164
 3649SOL    HW122409   1.332   2.048  16.710 -0.5866 -0.1540 -0.2095
 3649SOL    HW222410   1.250   2.110  16.612 -0.0191  0.5238 -0.3415
 3650SOL     OW22411   3.295   2.436  13.668  0.3327 -0.1515  0.5225
 3650SOL    HW122412   3.227   2.490  13.708  0.1070  0.2424 -0.3833
 3650SOL    HW222413   3.356   2.434  13.741  1.9303 -0.9661 -0.8329
 3651SOL     OW22414   3.195   2.393   1.433  0.0290 -0.1619  0.9496
 3651SOL    HW122415   3.279   2.422   1.470  0.9915  0.4757 -1.7136
 3651SOL    HW222416   3.211   2.423   1.344  0.8027 -2.5962  0.2553
 3652SOL     OW22417   3.643   1.798   0.052  0.1545  0.5509  0.4424
 3652SOL    HW122418   3.714   1.742   0.019 -1.0122  0.3418 -1.7270
 3652SOL    HW222419   3.692   1.844   0.120  0.6044  0.8235 -0.0619
 3653SOL     OW22420   0.966   0.547   2.354 -0.0479  0.1793  0.0274
 3653SOL    HW122421   0.892   0.519   2.300  1.8211  1.7881 -3.3274
 3653SOL    HW222422   0.959   0.642   2.340  3.1386  0.6943  1.7909
 3654SOL     OW22423   3.145   0.534  11.148  0.1563  0.7879 -0.2884
 3654SOL    HW122424   3.173   0.452  11.188 -1.5389  0.3554  0.0253
 3654SOL    HW222425   3.224   0.586  11.163  0.8638 -0.0148 -1.2316
 3655SOL     OW22426   3.887   3.120  13.272 -0.2921  0.4183 -0.2545
 3655SOL    HW122427   3.957   3.126  13.207 -0.3470 -1.4308 -0.4900
 3655SOL    HW222428   3.902   3.034  13.311 -1.8200  0.2433 -0.0783
 3656SOL     OW22429   1.485   0.964   0.165 -0.0723 -0.6049  0.1076
 3656SOL    HW122430   1.561   0.953   0.222  1.5766  0.5375 -1.8663
 3656SOL    HW222431   1.432   0.884   0.175  0.7942 -1.2694 -0.5706
 3657SOL     OW22432   3.037   0.405  17.153  0.1198 -0.0391 -0.1534
 3657SOL    HW122433   3.123   0.448  17.153  0.5702 -0.9522  0.6412
 3657SOL    HW222434   3.028   0.378  17.062  1.6489 -0.4569 -0.1786
 3658SOL     OW22435   3.662   4.319  11.798 -0.5075 -0.7517  0.6080
 3658SOL    HW122436   3.726   4.294  11.731 -0.5575 -0.7670  0.5666
 3658SOL    HW222437   3.707   4.276  11.871  2.5374  3.1685  1.0082
 3659SOL     OW22438   4.091   2.954   7.797  0.0765 -0.1547 -0.0847
 3659SOL    HW122439   4.165   3.011   7.777  0.6530 -0.3089  1.6006
 3659SOL    HW222440   4.123   2.922   7.881 -0.6466  0.9115  0.5960
 3660SOL     OW22441   2.742   1.563  13.127 -0.7653 -0.2265  0.0341
 3660SOL    HW122442   2.713   1.647  13.092  1.8080  0.6720  0.1054
 3660SOL    HW222443   2.826   1.585  13.167  0.5080  0.1703 -2.8753
 3661SOL     OW22444   2.032   1.286   3.850  0.3638  0.1358  0.0639
 3661SOL    HW122445   1.949   1.330   3.865 -0.7212 -0.6433 -3.8321
 3661SOL    HW222446   2.015   1.198   3.884  0.1014 -0.5130 -1.7694
 3662SOL     OW22447   4.562   2.102   2.757 -0.1453 -0.4742  0.5748
 3662SOL    HW122448   4.520   2.188   2.752 -0.1173 -0.4803  0.2025
 3662SOL    HW222449   4.563   2.080   2.664 -0.2999  1.9368  0.0119
 3663SOL     OW22450   3.912   0.086   5.348 -0.5959 -0.3674  0.6787
 3663SOL    HW122451   3.823   0.073   5.381 -0.2106 -1.9688  1.0728
 3663SOL    HW222452   3.952   0.129   5.423  1.0837 -2.6798  1.1067
 3664SOL     OW22453   3.311   3.018  16.651 -0.0845 -0.2718 -0.4797
 3664SOL    HW122454   3.335   3.019  16.743  0.3609  0.8764 -0.6220
 3664SOL    HW222455   3.251   3.092  16.642  0.2772  0.1171  0.3716
 3665SOL     OW22456   1.641   3.010  17.427  0.4833  0.4447 -0.0900
 3665SOL    HW122457   1.606   3.046  17.509  3.1449  1.7217  0.4900
 3665SOL    HW222458   1.572   2.946  17.411  0.6832 -0.0512  1.0788
 3666SOL     OW22459   0.342   3.346   6.233 -0.1283  0.9274 -0.5508
 3666SOL    HW122460   0.287   3.272   6.257  1.4900 -0.3097 -0.6669
 3666SOL    HW222461   0.327   3.400   6.310  1.6665  0.0988  0.3799
 3667SOL     OW22462   1.437   0.544  11.153  0.0573  0.5418 -0.1282
 3667SOL    HW122463   1.432   0.500  11.068  0.0754  2.1456 -0.9608
 3667SOL    HW222464   1.454   0.635  11.127 -0.2058  0.6478  0.0751
 3668SOL     OW22465   4.590   2.032   6.084  0.0608 -0.1647 -0.4442
 3668SOL    HW122466   4.522   2.030   6.151 -0.9521 -0.4065 -1.5012
 3668SOL    HW222467   4.601   2.127   6.083  2.0403 -0.3896 -0.6501
 3669SOL     OW22468   0.039   1.448   4.256 -0.0902  0.2070 -0.2809
 3669SOL    HW122469   0.109   1.442   4.191  0.0411  1.4288 -0.2537
 3669SOL    HW222470   0.081   1.507   4.319  0.0161 -0.6855  0.4739
 3670SOL     OW22471   0.236   0.034   3.016  0.0220 -0.5296 -0.4695
 3670SOL    HW122472   0.292   4.680   2.994 -0.6346 -0.4305 -2.5104
 3670SOL    HW222473   0.219   0.069   2.928  1.4306 -0.3134 -0.6574
 3671SOL     OW22474   1.793   0.461   3.603 -0.7315 -0.1905 -0.0832
 3671SOL    HW122475   1.853   0.527   3.569  0.3289 -1.2980 -0.3561
 3671SOL    HW222476   1.856   0.413   3.656 -0.1102 -0.7192 -1.2924
 3672SOL     OW22477   1.651   0.164   5.971  0.4580  0.4803 -0.5159
 3672SOL    HW122478   1.729   0.197   6.015 -0.1702  0.8354  0.3338
 3672SOL    HW222479   1.654   0.069   5.983  0.4822  0.6846  1.1470
 3673SOL     OW22480   4.062   2.363   1.921 -0.0300  0.0027 -0.1775
 3673SOL    HW122481   4.024   2.347   1.834 -0.9122 -2.4253  0.6760
 3673SOL    HW222482   4.088   2.275   1.945  1.4182  0.3735 -0.4028
 3674SOL     OW22483   0.662   0.410   4.528 -0.1834 -0.1786 -0.1307
 3674SOL    HW122484   0.751   0.383   4.553  0.2780 -0.6909 -2.2713
 3674SOL    HW222485   0.620   0.359   4.597  0.1853 -1.3656 -0.7711
 3675SOL     OW22486   3.094   3.221   0.361 -0.1977 -0.2151 -0.0103
 3675SOL    HW122487   3.136   3.260   0.438  0.7845 -0.6220 -0.3308
 3675SOL    HW222488   3.161   3.153   0.350 -0.6084 -0.5716 -0.2689
 3676SOL     OW22489   2.373   1.665   7.123  0.6015 -0.2193 -0.7142
 3676SOL    HW122490   2.423   1.739   7.156  0.1358 -0.4262  0.4697
 3676SOL    HW222491   2.305   1.668   7.190  1.1610 -0.3951 -0.1368
 3677SOL     OW22492   0.355   3.271   1.609  0.1045  0.0211 -0.4375
 3677SOL    HW122493   0.293   3.329   1.566 -0.6990 -0.7530 -0.3314
 3677SOL    HW222494   0.423   3.259   1.543 -0.4932  0.6871 -1.1671
 3678SOL     OW22495   3.825   1.570   4.419 -0.3044 -0.2483  0.0521
 3678SOL    HW122496   3.881   1.584   4.343 -1.1712 -3.1800 -1.1161
 3678SOL    HW222497   3.760   1.637   4.399 -1.6937 -1.8908 -0.9460
 3679SOL     OW22498   4.430   0.159   8.217 -0.3633 -0.1611  0.0108
 3679SOL    HW122499   4.517   0.135   8.249 -1.6510  1.1126  4.5036
 3679SOL    HW222500   4.419   0.240   8.268  1.5390  1.1393 -1.6057
 3680SOL     OW22501   3.410   0.676  11.121 -0.2650 -0.6004  0.5633
 3680SOL    HW122502   3.478   0.695  11.057 -0.0422 -0.0591  0.9566
 3680SOL    HW222503   3.396   0.771  11.130  0.3842 -0.2719 -2.0486
 3681SOL     OW22504   3.956   2.208   0.324 -0.1103  0.7860  0.7266
 3681SOL    HW122505   4.037   2.241   0.285  1.3909 -2.4580  1.0550
 3681SOL    HW222506   3.969   2.113   0.334  0.6242  0.8058  0.0212
 3682SOL     OW22507   3.140   2.045   9.562  0.4098 -0.2742 -0.5019
 3682SOL    HW122508   3.108   1.956   9.554  1.0000 -0.5763  0.4923
 3682SOL    HW222509   3.116   2.087   9.480  0.4045 -0.7950 -0.7641
 3683SOL     OW22510   2.067   2.214   7.882  0.4020 -0.2619 -0.8776
 3683SOL    HW122511   2.055   2.136   7.829 -2.4234  0.9427 -2.0297
 3683SOL    HW222512   1.979   2.251   7.890 -0.0217 -0.7593 -3.3280
 3684SOL     OW22513   1.957   1.503   4.075 -0.3450 -0.1743  0.1110
 3684SOL    HW122514   1.929   1.415   4.097  0.0152 -0.0602  1.0491
 3684SOL    HW222515   2.044   1.502   4.115 -0.5128  0.7247  0.4977
 3685SOL     OW22516   0.103   3.346  10.087  0.1068 -0.6044  0.3018
 3685SOL    HW122517   0.164   3.358  10.015 -1.5527  2.1142 -0.6452
 3685SOL    HW222518   0.118   3.427  10.136  0.6457 -0.2448 -0.4551
 3686SOL     OW22519   0.451   3.079   6.498  1.0848 -0.0442 -0.1043
 3686SOL    HW122520   0.365   3.043   6.476  1.1133  2.1222 -3.8204
 3686SOL    HW222521   0.422   3.168   6.517  1.0155  0.0502 -0.6555
 3687SOL     OW22522   2.333   2.541   3.541 -0.2850 -0.0513  0.2001
 3687SOL    HW122523   2.314   2.508   3.453  1.9647 -1.6699  0.3280
 3687SOL    HW222524   2.282   2.622   3.532  0.2144  0.2419 -0.0077
 3688SOL     OW22525   3.812   1.599   1.164 -0.5400 -0.2686  0.2570
 3688SOL    HW122526   3.766   1.651   1.230  2.4530  0.5608  1.7104
 3688SOL    HW222527   3.777   1.637   1.083 -0.3919 -2.3281 -0.7816
 3689SOL     OW22528   1.441   2.627   4.910 -0.0010 -0.5595 -0.0382
 3689SOL    HW122529   1.467   2.711   4.874 -1.0190 -0.0146  0.5036
 3689SOL    HW222530   1.385   2.654   4.983 -1.1497  0.6445 -1.3711
 3690SOL     OW22531   1.622   1.705   9.501 -0.1883 -0.0959 -0.2081
 3690SOL    HW122532   1.612   1.716   9.596  0.8881  0.1552 -0.1235
 3690SOL    HW222533   1.716   1.719   9.486 -0.2834  2.4575  1.5379
 3691SOL     OW22534   3.846   0.536   6.083  0.2318  0.4194 -0.3795
 3691SOL    HW122535   3.933   0.521   6.048 -0.0365 -0.0251 -0.8575
 3691SOL    HW222536   3.846   0.630   6.066  0.4807  1.0720  3.2954
 3692SOL     OW22537   1.032   0.318   3.628 -0.3254 -0.4023  0.3311
 3692SOL    HW122538   0.978   0.337   3.704  0.4359  0.3530  0.6763
 3692SOL    HW222539   1.094   0.252   3.658  2.3208 -0.1039 -4.5250
 3693SOL     OW22540   1.892   3.154   3.343  0.2391  0.1303  0.0685
 3693SOL    HW122541   1.870   3.245   3.363  2.5739  0.3765  1.5040
 3693SOL    HW222542   1.864   3.149   3.252  0.5328  0.4184 -0.0363
 3694SOL     OW22543   3.375   4.472  13.099  0.6200  0.4254 -0.3375
 3694SOL    HW122544   3.446   4.408  13.096  1.1583  0.9023  1.9277
 3694SOL    HW222545   3.414   4.536  13.159  1.3727 -0.7627  0.4476
 3695SOL     OW22546   1.902   3.543   9.321  0.4204  0.4284 -0.0323
 3695SOL    HW122547   1.992   3.574   9.311  1.0551 -1.3053  0.3271
 3695SOL    HW222548   1.870   3.526   9.232  0.6199  0.4651 -0.1104
 3696SOL     OW22549   4.713   0.025   1.421  0.4344 -0.0402 -0.3046
 3696SOL    HW122550   4.666   4.677   1.375  1.8893 -1.6427  0.6172
 3696SOL    HW222551   0.011   0.079   1.345  1.4885 -0.5655 -0.4166
 3697SOL     OW22552   3.768   3.676   2.851 -0.7572 -0.5859  0.2116
 3697SOL    HW122553   3.727   3.760   2.871  1.1699  0.4454 -0.2309
 3697SOL    HW222554   3.844   3.673   2.909  0.0230 -0.0501 -0.7738
 3698SOL     OW22555   3.203   0.491   7.717 -0.4094  0.1423  0.2851
 3698SOL    HW122556   3.118   0.470   7.679 -0.5958  0.5917  0.4518
 3698SOL    HW222557   3.173   0.481   7.807  0.2048 -1.8161  0.2789
 3699SOL     OW22558   3.719   1.309   5.107 -0.4074 -0.4338 -0.1582
 3699SOL    HW122559   3.751   1.381   5.052 -0.2238 -0.1709  0.2892
 3699SOL    HW222560   3.657   1.265   5.050 -0.4395  0.4204 -0.7832
 3700SOL     OW22561   3.439   2.452   1.556  0.2887  0.5893  0.0258
 3700SOL    HW122562   3.462   2.544   1.568  0.7352  0.8291 -2.6313
 3700SOL    HW222563   3.487   2.418   1.631 -0.9031  0.3579  0.6781
 3701SOL     OW22564   2.619   4.675   6.046  0.2244  0.2982 -0.1185
 3701SOL    HW122565   2.681   4.660   6.117  0.2015 -0.6731 -0.3037
 3701SOL    HW222566   2.543   4.631   6.083 -0.2633  0.7495 -0.5691
 3702SOL     OW22567   3.747   1.110   9.564  0.2887  0.1911 -0.0082
 3702SOL    HW122568   3.829   1.140   9.602  0.8096  0.8794 -1.6556
 3702SOL    HW222569   3.761   1.017   9.575  0.0082  0.1815  0.2732
 3703SOL     OW22570   4.321   1.405   6.708  0.4371  0.1821  0.7847
 3703SOL    HW122571   4.255   1.339   6.732  0.7668  0.1907  1.7105
 3703SOL    HW222572   4.321   1.399   6.613  3.1320 -1.3342  0.8779
 3704SOL     OW22573   4.360   0.441   2.626 -0.4245  0.0040  0.1676
 3704SOL    HW122574   4.397   0.523   2.659 -0.1660  0.3797 -1.0517
 3704SOL    HW222575   4.434   0.417   2.571 -0.1524 -0.4122  0.7216
 3705SOL     OW22576   1.104   1.389   0.307  0.4960 -0.1468  0.0675
 3705SOL    HW122577   1.089   1.433   0.390  1.6630 -0.5304  0.4880
 3705SOL    HW222578   1.200   1.393   0.300  0.5115 -0.6526 -0.0445
 3706SOL     OW22579   3.986   3.461   5.567 -0.0586  0.3060 -0.1021
 3706SOL    HW122580   3.933   3.539   5.554  0.1210 -0.2248 -3.8125
 3706SOL    HW222581   4.070   3.475   5.522 -1.1043  2.2432 -1.4490
 3707SOL     OW22582   0.072   1.989   8.729 -0.0806 -0.5536  0.1322
 3707SOL    HW122583   0.001   1.995   8.793 -1.1415 -0.4090 -1.0593
 3707SOL    HW222584   0.140   2.036   8.778  2.0624 -0.8988 -2.4871
 3708SOL     OW22585   3.384   1.693   8.843 -0.5374  0.1036 -0.6891
 3708SOL    HW122586   3.455   1.697   8.779  0.4031 -1.1640  0.2830
 3708SOL    HW222587   3.428   1.726   8.921 -2.5144  0.2367  0.3657
 3709SOL     OW22588   0.897   2.301   2.589  0.7048 -0.2993  0.3158
 3709SOL    HW122589   0.955   2.377   2.595  1.7391 -0.9968 -0.8430
 3709SOL    HW222590   0.817   2.334   2.548  1.0538  2.9634  2.2315
 3710SOL     OW22591   4.667   0.464  12.993  0.0539 -0.0004  0.0140
 3710SOL    HW122592   4.690   0.372  12.981 -2.9994 -1.0112  2.0421
 3710SOL    HW222593   4.573   0.454  13.007 -0.6738  3.0313 -2.5454
 3711SOL     OW22594   4.587   3.371   9.238  0.6925 -0.0910  0.0805
 3711SOL    HW122595   4.569   3.361   9.145 -0.6913 -0.5923  0.3938
 3711SOL    HW222596   4.512   3.342   9.290 -0.0134  2.3483  0.4469
 3712SOL     OW22597   2.140   1.406  12.660  0.2504  0.2247  0.2938
 3712SOL    HW122598   2.201   1.441  12.596 -2.4764  3.6047 -0.4382
 3712SOL    HW222599   2.103   1.492  12.674  1.4605  0.2107  3.4051
 3713SOL     OW22600   2.412   2.630  16.412  0.2421  0.6135  0.1155
 3713SOL    HW122601   2.376   2.678  16.486  0.6753  0.6786  0.2861
 3713SOL    HW222602   2.371   2.544  16.423  1.5179  0.0298  0.3031
 3714SOL     OW22603   1.441   0.649  11.417  0.3556  0.0333  0.6472
 3714SOL    HW122604   1.419   0.602  11.337 -0.1978  3.1991 -1.0502
 3714SOL    HW222605   1.535   0.657  11.401  0.5295  0.1111  1.7059
 3715SOL     OW22606   0.233   0.381   7.849 -0.0103  0.0995  0.7626
 3715SOL    HW122607   0.231   0.286   7.862  1.5470 -0.0689 -0.3298
 3715SOL    HW222608   0.203   0.396   7.760  0.5623 -2.1899  0.1974
 3716SOL     OW22609   3.085   2.606   7.019 -0.0365 -0.3221 -0.1049
 3716SOL    HW122610   3.087   2.702   7.016 -1.7233 -0.2449  0.8657
 3716SOL    HW222611   2.993   2.586   7.000 -0.4730  3.0596 -1.5069
 3717SOL     OW22612   0.707   3.304   1.124 -0.2177 -0.8424  0.2294
 3717SOL    HW122613   0.700   3.397   1.144  0.0665 -0.0291 -3.3802
 3717SOL    HW222614   0.630   3.277   1.074 -0.1502 -0.6120 -0.0020
 3718SOL     OW22615   4.058   3.272   1.214 -0.9046  0.3775  0.1674
 3718SOL    HW122616   4.034   3.242   1.301 -2.7032  1.8363  0.1793
 3718SOL    HW222617   4.136   3.217   1.204 -1.9608 -1.4291  2.0576
 3719SOL     OW22618   2.109   0.982  12.520  0.2307 -0.2431  0.5839
 3719SOL    HW122619   2.041   1.044  12.495 -0.7476 -1.7877 -0.6101
 3719SOL    HW222620   2.076   0.963  12.608  2.2344 -3.0506  0.7467
 3720SOL     OW22621   0.402   0.195   9.729  0.2627 -0.2016 -0.1830
 3720SOL    HW122622   0.452   0.120   9.763 -1.1395 -0.8365  0.4933
 3720SOL    HW222623   0.474   0.249   9.698 -0.0420 -0.9191 -2.1132
 3721SOL     OW22624   4.513   1.027   4.520 -0.8741 -0.1962 -0.3052
 3721SOL    HW122625   4.572   1.096   4.491 -1.5454  0.2370 -0.6496
 3721SOL    HW222626   4.515   0.966   4.446 -1.0512 -2.2351  1.3831
 3722SOL     OW22627   3.170   4.693   2.013 -0.0606 -0.3295 -0.3602
 3722SOL    HW122628   3.129   4.636   2.078 -1.6645 -0.2656 -1.3207
 3722SOL    HW222629   3.145   0.062   2.033  1.3372 -0.1544  0.5528
 3723SOL     OW22630   1.298   1.288   4.121 -0.1528  0.2067  0.8246
 3723SOL    HW122631   1.261   1.225   4.183  0.7624 -2.0429 -0.9236
 3723SOL    HW222632   1.251   1.256   4.044  0.6245 -0.8258  0.7814
 3724SOL     OW22633   3.532   0.988   1.408  0.3138  0.1567  0.5491
 3724SOL    HW122634   3.596   0.959   1.473  0.9704 -0.5019 -0.4015
 3724SOL    HW222635   3.457   0.999   1.467  0.0072 -0.4777  0.2818
 3725SOL     OW22636   3.440   0.116  11.738  0.4565 -0.1310 -0.0864
 3725SOL    HW122637   3.416   0.168  11.661 -1.3960 -0.5916  0.1735
 3725SOL    HW222638   3.372   0.148  11.798 -0.8156  0.3763 -1.7686
 3726SOL     OW22639   2.258   2.811  10.734  0.4465  0.2408  0.1878
 3726SOL    HW122640   2.241   2.882  10.672 -1.5439  0.3134  0.8042
 3726SOL    HW222641   2.349   2.832  10.757  1.3540 -0.1450 -3.1287
 3727SOL     OW22642   2.472   4.415   2.833  0.5099 -0.1048 -0.4744
 3727SOL    HW122643   2.405   4.480   2.854  0.9823  0.3300 -0.3025
 3727SOL    HW222644   2.520   4.452   2.759  1.2738 -2.3157 -1.0772
 3728SOL     OW22645   0.171   4.650   2.207  0.5357  0.0560 -0.0357
 3728SOL    HW122646   0.173   0.021   2.182  0.0728  0.2375  0.6163
 3728SOL    HW222647   0.110   4.619   2.140 -0.0822 -1.0186  1.0354
 3729SOL     OW22648   2.092   1.474   5.420  0.3645  0.4349  0.0522
 3729SOL    HW122649   2.128   1.561   5.403 -0.1080  0.5892 -0.1500
 3729SOL    HW222650   2.042   1.480   5.502 -3.6365  1.4757 -2.4815
 3730SOL     OW22651   0.414   2.659   7.529  0.0858  0.5423  0.0516
 3730SOL    HW122652   0.437   2.591   7.466 -0.3610  0.1126  0.3452
 3730SOL    HW222653   0.370   2.615   7.603  0.2143 -1.4326 -1.0404
 3731SOL     OW22654   3.700   3.386   7.380  0.0402  0.2766 -0.2387
 3731SOL    HW122655   3.737   3.421   7.461  2.2234  1.1296 -1.6249
 3731SOL    HW222656   3.776   3.339   7.346 -0.9541 -1.2731 -0.2854
 3732SOL     OW22657   0.483   1.804   1.321 -0.1267  0.1252 -0.1911
 3732SOL    HW122658   0.461   1.896   1.309 -2.7669 -0.7515 -2.2333
 3732SOL    HW222659   0.437   1.762   1.248  0.7197 -0.9357 -0.1201
 3733SOL     OW22660   2.260   0.914  16.563  0.2049 -0.3399 -0.4032
 3733SOL    HW122661   2.243   0.878  16.476  0.6278 -0.5217 -0.4083
 3733SOL    HW222662   2.190   0.979  16.552  0.2219 -1.0026 -4.4899
 3734SOL     OW22663   0.323   0.817   4.750  0.9051  0.5219 -0.2318
 3734SOL    HW122664   0.263   0.749   4.720  1.6565 -1.1014  1.8516
 3734SOL    HW222665   0.281   0.898   4.723 -3.0072 -1.1740  0.8133
 3735SOL     OW22666   1.169   2.135   2.599  0.1225 -0.4908  0.1735
 3735SOL    HW122667   1.077   2.156   2.618  0.1788 -0.1175  0.0334
 3735SOL    HW222668   1.212   2.219   2.587  0.1711 -0.3217  1.5832
 3736SOL     OW22669   4.083   2.657   4.953  0.0648  0.0558 -0.5759
 3736SOL    HW122670   4.012   2.709   4.989  0.4525  1.7056 -2.1639
 3736SOL    HW222671   4.159   2.714   4.968  0.9402 -0.8095 -1.7053
 3737SOL     OW22672   0.921   3.551   7.516  0.6544 -0.3622 -0.4365
 3737SOL    HW122673   0.874   3.557   7.433 -1.9717  0.9544  1.1653
 3737SOL    HW222674   0.924   3.458   7.540 -0.2943 -0.0962  0.6692
 3738SOL     OW22675   4.410   0.806   3.809 -0.0574 -0.0016  0.1732
 3738SOL    HW122676   4.492   0.856   3.802  1.3830 -2.2713  0.6213
 3738SOL    HW222677   4.431   0.715   3.789  1.5733  0.4228 -0.0421
 3739SOL     OW22678   2.732   1.602   5.042  0.2510 -0.6955 -0.1955
 3739SOL    HW122679   2.694   1.549   5.113  1.9935 -0.0262  1.2259
 3739SOL    HW222680   2.657   1.652   5.010 -0.2036  0.2333  2.3262
 3740SOL     OW22681   4.112   1.400  11.402 -0.2055  0.3265  0.8026
 3740SOL    HW122682   4.148   1.395  11.490  0.1231 -0.6587  0.6037
 3740SOL    HW222683   4.114   1.496  11.396  0.7530  0.2954  0.5814
 3741SOL     OW22684   2.589   1.825  16.686  0.3443  0.1501  0.3577
 3741SOL    HW122685   2.643   1.842  16.763  1.4793  0.4606 -0.5021
 3741SOL    HW222686   2.558   1.914  16.673 -3.7015 -1.0510  1.7995
 3742SOL     OW22687   2.521   3.103  12.548  0.5423  0.4720 -0.3664
 3742SOL    HW122688   2.482   3.164  12.485 -0.4510  0.2514  0.0272
 3742SOL    HW222689   2.593   3.149  12.591  1.1326 -0.1428 -0.7128
 3743SOL     OW22690   2.994   3.153   4.359  0.3486 -0.1418 -0.3000
 3743SOL    HW122691   3.000   3.058   4.346  0.6978 -0.2142  0.3616
 3743SOL    HW222692   3.038   3.189   4.282  0.7072 -0.3695 -0.2027
 3744SOL     OW22693   0.766   2.189   8.033 -0.3289 -0.0244 -0.6295
 3744SOL    HW122694   0.823   2.114   8.016 -0.4628 -0.0824 -0.8298
 3744SOL    HW222695   0.827   2.235   8.091 -0.7300 -0.0530 -0.1891
 3745SOL     OW22696   2.985   0.167   4.150 -0.6710 -0.3848 -0.1921
 3745SOL    HW122697   2.928   0.134   4.080  1.5959  0.3527 -2.4013
 3745SOL    HW222698   3.025   0.088   4.188 -0.5505  1.6024  3.8018
 3746SOL     OW22699   4.370   2.937  16.444 -0.7047  0.0260  0.6562
 3746SOL    HW122700   4.375   2.855  16.492 -1.7859 -1.2177 -1.3803
 3746SOL    HW222701   4.360   2.908  16.353 -1.0244  0.8950  0.4128
 3747SOL     OW22702   2.407   1.090  11.057 -0.6728  0.0984  0.6145
 3747SOL    HW122703   2.373   1.000  11.053 -2.4628  0.7549  1.2097
 3747SOL    HW222704   2.502   1.077  11.056 -0.4721  1.6711  0.1821
 3748SOL     OW22705   3.067   4.136   5.720  0.5834 -0.5186 -0.1995
 3748SOL    HW122706   3.016   4.183   5.654 -2.3858 -1.8447  1.1568
 3748SOL    HW222707   3.042   4.044   5.716 -2.4306  0.3386 -1.1532
 3749SOL     OW22708   1.406   0.449  10.898  0.6756  0.1696  0.7099
 3749SOL    HW122709   1.407   0.540  10.867  1.8487 -0.0356  0.1562
 3749SOL    HW222710   1.315   0.421  10.889  1.0706 -0.0726 -2.6854
 3750SOL     OW22711   1.205   4.245   7.446 -0.0398 -0.1232  0.2860
 3750SOL    HW122712   1.246   4.216   7.365  1.7723 -0.3466  1.2825
 3750SOL    HW222713   1.238   4.335   7.454 -0.7062  0.2571 -1.2007
 3751SOL     OW22714   0.881   4.300   2.916 -0.2639  0.1664 -0.6659
 3751SOL    HW122715   0.807   4.310   2.976  1.3395  0.7541  1.2203
 3751SOL    HW222716   0.950   4.313   2.982  0.4675  1.1225 -1.6243
 3752SOL     OW22717   1.571   0.397  15.907  0.2356  0.0506  0.0189
 3752SOL    HW122718   1.481   0.395  15.875 -0.9758 -0.5557  3.4407
 3752SOL    HW222719   1.558   0.456  15.981  2.3098  0.6775 -0.1094
 3753SOL     OW22720   1.514   4.079   0.655  0.3851 -0.0925  0.0445
 3753SOL    HW122721   1.519   4.005   0.715 -2.2272 -0.0317  0.3517
 3753SOL    HW222722   1.601   4.088   0.617  0.0058  0.6787 -0.6449
 3754SOL     OW22723   1.970   0.017   5.023  0.0020 -0.6214 -0.0150
 3754SOL    HW122724   1.930   0.012   4.936 -0.0108 -0.9004  0.0081
 3754SOL    HW222725   1.924   0.078   5.081  0.5515  0.0016 -0.2311
 3755SOL     OW22726   2.924   1.214   8.087 -0.0605  0.2375  0.2842
 3755SOL    HW122727   2.915   1.181   8.177  1.8661 -0.1879  0.3058
 3755SOL    HW222728   3.008   1.173   8.067 -0.3839 -1.6714  2.7918
 3756SOL     OW22729   4.252   0.726   3.183  0.6076 -0.1734 -0.7125
 3756SOL    HW122730   4.273   0.790   3.250 -1.7650 -0.0714 -0.0727
 3756SOL    HW222731   4.159   0.744   3.170  1.4785  2.2323 -3.5988
 3757SOL     OW22732   4.510   0.277   5.173 -0.2445  0.0770  0.2940
 3757SOL    HW122733   4.584   0.306   5.226 -0.5204  1.0957  0.1281
 3757SOL    HW222734   4.543   0.187   5.165  1.8578  0.7428  1.5471
 3758SOL     OW22735   0.083   3.376   1.496 -0.3515 -0.4924 -0.2094
 3758SOL    HW122736   0.077   3.298   1.552 -3.2116  0.2162  0.4857
 3758SOL    HW222737   4.709   3.390   1.493 -0.0271  1.4052 -1.0266
 3759SOL     OW22738   1.361   3.057   1.971 -0.0849 -0.1817  0.2551
 3759SOL    HW122739   1.416   3.123   2.013  1.6553 -0.9794 -0.7898
 3759SOL    HW222740   1.404   2.980   2.008  4.2766  0.6994 -3.0300
 3760SOL     OW22741   0.793   2.581   6.857  0.4110  0.3135  0.0081
 3760SOL    HW122742   0.770   2.515   6.792 -1.6114  0.0521  0.9880
 3760SOL    HW222743   0.726   2.650   6.856 -1.0667 -1.0936  1.6618
 3761SOL     OW22744   2.859   2.347   9.989  0.4660 -0.0823  0.1791
 3761SOL    HW122745   2.951   2.330   9.971  0.6664 -1.9623  2.9776
 3761SOL    HW222746   2.872   2.434  10.025  0.1817 -0.3478  0.9252
 3762SOL     OW22747   0.436   3.054   4.839 -0.1082 -0.1841  0.4801
 3762SOL    HW122748   0.521   3.014   4.860 -0.0590  0.2488  1.1246
 3762SOL    HW222749   0.449   3.084   4.749 -3.7861 -0.2533 -0.0742
 3763SOL     OW22750   1.331   2.613   8.441 -0.1698  0.0862  0.0455
 3763SOL    HW122751   1.319   2.708   8.432  0.8816  0.3579  1.5983
 3763SOL    HW222752   1.427   2.605   8.446 -0.2857 -0.6649  1.0125
 3764SOL     OW22753   4.194   4.613  10.157 -0.0141 -0.1272 -0.4871
 3764SOL    HW122754   4.261   4.572  10.211  0.0419  2.0947  1.1088
 3764SOL    HW222755   4.119   4.564  10.191 -0.6315 -0.2335 -1.9977
 3765SOL     OW22756   3.186   3.700   6.394  0.7107 -0.4031  0.2107
 3765SOL    HW122757   3.173   3.712   6.488  0.4506  3.6820 -0.3096
 3765SOL    HW222758   3.145   3.615   6.379  2.4758 -1.3404  0.8049
 3766SOL     OW22759   2.085   4.369   8.705  0.7746 -0.5122  0.0950
 3766SOL    HW122760   2.092   4.436   8.772  0.0335 -0.0610 -0.2831
 3766SOL    HW222761   2.174   4.365   8.670  0.1775 -2.0263 -1.2545
 3767SOL     OW22762   3.705   4.148   7.487  0.0004 -0.0863  0.5162
 3767SOL    HW122763   3.695   4.147   7.392  1.0941 -0.6310  0.4048
 3767SOL    HW222764   3.641   4.213   7.516 -2.1225 -2.1082  0.4078
 3768SOL     OW22765   2.815   0.099  10.052  0.1852 -0.1432  0.4732
 3768SOL    HW122766   2.894   0.085  10.105  0.3801 -0.6571  0.0567
 3768SOL    HW222767   2.822   0.182  10.004 -0.9697  0.4486  1.3404
 3769SOL     OW22768   2.582   1.719   4.044 -0.2275 -0.2344  0.1467
 3769SOL    HW122769   2.495   1.755   4.055  0.4547  1.1251  1.0875
 3769SOL    HW222770   2.607   1.706   4.135 -1.5674 -1.1256  0.3841
 3770SOL     OW22771   2.896   1.466   0.895  0.6190  0.4744  0.1323
 3770SOL    HW122772   2.900   1.422   0.980  1.3591  0.3130  0.0192
 3770SOL    HW222773   2.866   1.549   0.930 -1.0608  0.3240 -0.9617
 3771SOL     OW22774   2.094   0.789   6.773 -0.0473  0.4162  0.0783
 3771SOL    HW122775   2.151   0.837   6.714  0.4300  0.1145  0.2897
 3771SOL    HW222776   2.108   0.832   6.857 -0.5507 -1.9200  1.3743
 3772SOL     OW22777   1.685   4.033  13.110 -0.0016 -0.3286 -0.0203
 3772SOL    HW122778   1.680   4.125  13.082  0.5911  0.4680  2.4143
 3772SOL    HW222779   1.780   4.026  13.121  0.1253  0.5727 -0.5589
 3773SOL     OW22780   3.154   1.734   5.333 -0.1200 -0.2131  0.1189
 3773SOL    HW122781   3.227   1.788   5.365 -1.1795  1.5628 -0.4617
 3773SOL    HW222782   3.089   1.772   5.392  1.6688  0.2352  1.7947
 3774SOL     OW22783   4.521   1.086   9.950 -0.0371 -0.2367 -0.4600
 3774SOL    HW122784   4.549   1.176   9.934 -0.7761  0.3879  1.6668
 3774SOL    HW222785   4.590   1.049   9.896 -0.9405  2.0801 -3.2258
 3775SOL     OW22786   1.724   2.232   3.572  0.2796  0.6976  0.2031
 3775SOL    HW122787   1.725   2.316   3.526 -3.7172  1.0540  0.8215
 3775SOL    HW222788   1.795   2.189   3.524  1.9783  3.8094 -0.0353
 3776SOL     OW22789   4.608   0.041  16.660  0.1994  0.1050  0.1467
 3776SOL    HW122790   4.676   0.105  16.640  0.1095  0.0036 -0.4806
 3776SOL    HW222791   4.638   4.686  16.609 -1.9503  0.2332 -1.3062
 3777SOL     OW22792   1.884   3.771   4.704  1.1020  0.1169  0.5747
 3777SOL    HW122793   1.861   3.833   4.772 -3.2501  1.4642 -2.1086
 3777SOL    HW222794   1.955   3.721   4.744  0.3977 -1.6962 -0.4152
 3778SOL     OW22795   3.766   1.021   8.296 -0.5509 -0.2617 -0.1436
 3778SOL    HW122796   3.829   0.986   8.359 -1.5820 -2.3451 -0.2614
 3778SOL    HW222797   3.718   1.090   8.341  0.0586 -0.8998  1.4900
 3779SOL     OW22798   2.404   2.687   6.998  0.6773  0.6898 -0.7043
 3779SOL    HW122799   2.498   2.695   7.017  0.2062  0.3406  1.8170
 3779SOL    HW222800   2.372   2.673   7.088 -2.8576 -3.7946 -2.6756
 3780SOL     OW22801   4.009   0.732   5.526  0.2046 -0.4764  0.1072
 3780SOL    HW122802   3.923   0.735   5.483  0.4387  0.5574 -0.2787
 3780SOL    HW222803   3.988   0.711   5.617  1.2546  0.4220  0.5496
 3781SOL     OW22804   4.360   3.368   4.621  0.4735 -0.2409 -0.5144
 3781SOL    HW122805   4.375   3.343   4.530 -0.4711  0.1013 -0.7645
 3781SOL    HW222806   4.279   3.417   4.611 -0.2461 -1.5145 -0.8627
 3782SOL     OW22807   0.942   3.566   8.792  0.1885 -0.2851  0.2820
 3782SOL    HW122808   0.997   3.529   8.723  1.9263 -1.0277  2.0608
 3782SOL    HW222809   0.863   3.578   8.739 -0.7377 -4.5412  0.6873
 3783SOL     OW22810   3.916   2.830  16.875  0.4164 -0.1583 -0.5693
 3783SOL    HW122811   3.954   2.909  16.837 -0.1055  0.5154  0.3135
 3783SOL    HW222812   3.827   2.862  16.892  1.3313  0.6899  2.5521
 3784SOL     OW22813   3.984   0.319   3.735  0.0428 -0.1071  0.7922
 3784SOL    HW122814   3.973   0.367   3.653  1.0414  0.8246  1.1941
 3784SOL    HW222815   4.055   0.257   3.719 -0.5978 -0.6469  0.0648
 3785SOL     OW22816   0.588   0.670  16.252  0.0077 -0.2707 -0.2321
 3785SOL    HW122817   0.668   0.685  16.200 -1.3644  3.9764 -1.1009
 3785SOL    HW222818   0.545   0.755  16.251 -0.7988 -0.6642  1.0146
 3786SOL     OW22819   3.841   0.964   3.748  0.5917  0.8564 -0.3815
 3786SOL    HW122820   3.918   0.907   3.746  1.1604  1.5813  0.6244
 3786SOL    HW222821   3.814   0.966   3.656 -0.6781  0.6890 -0.0076
 3787SOL     OW22822   3.352   0.382   1.927  0.0794  0.0452  0.0952
 3787SOL    HW122823   3.414   0.313   1.951 -0.8089 -0.0734  2.0444
 3787SOL    HW222824   3.395   0.460   1.893  0.1194  0.2603  0.6394
 3788SOL     OW22825   0.983   1.772   4.868  0.2229 -0.0851  0.2233
 3788SOL    HW122826   0.933   1.820   4.934 -0.1719  0.4684 -0.4896
 3788SOL    HW222827   0.932   1.693   4.855 -0.1346  0.6667 -2.8022
 3789SOL     OW22828   3.556   2.045  17.254  0.6211  0.0160 -0.0060
 3789SOL    HW122829   3.545   2.049  17.349 -1.1657 -0.1890 -0.2100
 3789SOL    HW222830   3.474   2.077  17.215  0.1053 -0.0594  1.0135
 3790SOL     OW22831   0.103   4.541   3.730  0.9915  0.2699 -0.8528
 3790SOL    HW122832   0.129   4.545   3.822  0.6933 -0.3548 -0.7397
 3790SOL    HW222833   0.056   4.624   3.729 -0.0075 -0.2589  1.9414
 3791SOL     OW22834   0.381   3.404  13.201  0.4752 -0.2028  0.0319
 3791SOL    HW122835   0.288   3.425  13.191  0.0173 -1.8020  0.8570
 3791SOL    HW222836   0.420   3.429  13.117 -3.2298  0.0190 -1.6201
 3792SOL     OW22837   3.653   0.912   6.284 -0.0471 -0.6289  0.0384
 3792SOL    HW122838   3.666   0.817   6.289  2.9955 -0.2923 -1.1921
 3792SOL    HW222839   3.559   0.928   6.291  0.2957  0.5713  2.0705
 3793SOL     OW22840   1.890   3.426   7.231  0.4092 -0.2716  0.2952
 3793SOL    HW122841   1.804   3.415   7.190  0.2620 -0.1201  0.5617
 3793SOL    HW222842   1.961   3.434   7.168  1.8798  0.8812  2.1267
 3794SOL     OW22843   1.781   2.082   0.507 -0.0989 -0.1843 -0.2256
 3794SOL    HW122844   1.799   2.006   0.563 -2.7456 -0.0782  0.7545
 3794SOL    HW222845   1.849   2.075   0.440 -2.1032 -0.5936 -2.2163
 3795SOL     OW22846   0.200   2.135  12.489  0.0913  0.1435  0.1423
 3795SOL    HW122847   0.163   2.175  12.567 -2.1641  0.9123 -1.3000
 3795SOL    HW222848   0.206   2.210  12.430 -1.4978 -0.7846 -1.1903
 3796SOL     OW22849   1.388   2.820   4.402  0.6078  0.2458  0.2254
 3796SOL    HW122850   1.448   2.834   4.329 -1.1969  1.6258 -0.9968
 3796SOL    HW222851   1.375   2.725   4.396  0.7103  0.3138 -1.0841
 3797SOL     OW22852   3.590   4.337   6.634  0.0030  0.3012 -0.0070
 3797SOL    HW122853   3.658   4.271   6.623  0.7738  1.4292 -2.0743
 3797SOL    HW222854   3.520   4.275   6.653 -1.0388  1.0153 -1.4713
 3798SOL     OW22855   2.355   4.671   6.445 -0.3082 -0.6059 -0.2830
 3798SOL    HW122856   2.432   4.691   6.498 -1.1669  0.0279  0.7342
 3798SOL    HW222857   2.306   0.031   6.432 -1.7364 -1.6175 -1.1881
 3799SOL     OW22858   2.275   2.335   5.070 -0.1278 -0.2895 -0.0976
 3799SOL    HW122859   2.338   2.285   5.019 -1.5334 -1.5402 -0.6315
 3799SOL    HW222860   2.219   2.378   5.005 -0.0934 -1.1912 -0.7251
 3800SOL     OW22861   2.887   4.653   9.335  0.2762  0.3525 -0.3035
 3800SOL    HW122862   2.803   4.652   9.381  0.0721  0.1440 -0.6751
 3800SOL    HW222863   2.860   4.602   9.258 -0.0617 -2.9957  2.0375
 3801SOL     OW22864   4.554   4.607   3.226  1.1984 -0.9263 -0.1549
 3801SOL    HW122865   4.567   4.669   3.153 -0.4045 -1.4219 -0.8658
 3801SOL    HW222866   4.530   4.657   3.304 -1.3464 -0.8295 -0.9771
 3802SOL     OW22867   1.638   2.467   5.862 -0.3337  1.0553  0.5411
 3802SOL    HW122868   1.701   2.407   5.901 -2.0438 -0.9391  0.2582
 3802SOL    HW222869   1.561   2.415   5.840  0.4257 -0.3172  1.1686
 3803SOL     OW22870   3.086   3.968   4.513 -0.0260  0.1781  0.1209
 3803SOL    HW122871   3.131   4.035   4.462 -0.5582 -0.0179 -0.6074
 3803SOL    HW222872   2.991   3.980   4.509 -0.0398 -0.4794 -1.5688
 3804SOL     OW22873   0.097   1.595   8.377 -0.3188  0.1405  0.2965
 3804SOL    HW122874   0.114   1.523   8.437  1.1100 -0.3104 -0.6580
 3804SOL    HW222875   0.109   1.669   8.436 -1.0539 -0.5161  1.2592
 3805SOL     OW22876   0.438   3.570   8.589  0.1505  0.4128  0.7621
 3805SOL    HW122877   0.371   3.623   8.634 -0.7970 -0.5404  0.4647
 3805SOL    HW222878   0.463   3.520   8.666  0.4775  0.4624  0.6851
 3806SOL     OW22879   1.645   3.549   4.429 -0.2320 -0.2538  0.2231
 3806SOL    HW122880   1.687   3.635   4.430  1.0009 -0.9071  3.3413
 3806SOL    HW222881   1.712   3.489   4.396 -0.8092 -1.0699  0.5300
 3807SOL     OW22882   0.964   4.112   8.941  0.0498 -0.8779 -0.4742
 3807SOL    HW122883   1.045   4.061   8.946 -0.1782 -1.7542 -5.1759
 3807SOL    HW222884   0.947   4.107   8.846  0.0450 -0.2544 -0.5080
 3808SOL     OW22885   1.231   3.421   4.058 -1.0242  0.7095 -0.1498
 3808SOL    HW122886   1.190   3.339   4.030  1.7890 -1.4816  2.2531
 3808SOL    HW222887   1.253   3.403   4.150  1.9755  0.6538 -0.8825
 3809SOL     OW22888   2.367   0.653   6.796  0.1403  0.5775 -0.7781
 3809SOL    HW122889   2.276   0.674   6.817  0.1790  1.6414 -1.7416
 3809SOL    HW222890   2.416   0.734   6.808 -0.6054  1.0662 -1.0804
 3810SOL     OW22891   2.752   0.142   7.104 -0.0119  0.2222  0.1225
 3810SOL    HW122892   2.793   0.115   7.186  1.6805 -2.1904 -1.5370
 3810SOL    HW222893   2.817   0.099   7.048 -1.3126  0.6678 -1.7348
 3811SOL     OW22894   1.076   1.889   4.382 -0.4972 -0.1829 -0.3209
 3811SOL    HW122895   1.105   1.819   4.323 -1.1946 -0.1054 -0.7453
 3811SOL    HW222896   1.155   1.943   4.375 -0.6859 -0.0400 -1.2847
 3812SOL     OW22897   3.180   2.167   5.601  0.3370  0.0909 -0.2993
 3812SOL    HW122898   3.199   2.087   5.552  0.8864 -0.9864  1.6747
 3812SOL    HW222899   3.189   2.129   5.688  1.4471 -0.1282 -0.5096
 3813SOL     OW22900   1.068   0.927  10.159  0.2544 -0.4746 -0.3678
 3813SOL    HW122901   1.058   0.865  10.232 -2.1891 -1.2982 -1.3831
 3813SOL    HW222902   1.028   0.875  10.090  2.2905 -0.7178 -1.3564
 3814SOL     OW22903   4.542   0.108  16.949  0.1573 -0.1494  0.0795
 3814SOL    HW122904   4.621   0.079  16.995 -0.5797  1.5857  2.3760
 3814SOL    HW222905   4.557   0.080  16.858 -1.5270  1.1400 -0.5837
 3815SOL     OW22906   2.371   0.323  12.112 -0.4489  0.2990  0.1109
 3815SOL    HW122907   2.432   0.290  12.045 -3.1459 -0.7764 -1.8109
 3815SOL    HW222908   2.366   0.416  12.089  0.7007  0.0984 -1.0293
 3816SOL     OW22909   2.100   3.080   7.611 -0.6647 -0.3740  0.3615
 3816SOL    HW122910   2.169   3.015   7.620  0.7569  1.0631 -0.1484
 3816SOL    HW222911   2.142   3.163   7.633  0.3289 -0.6768 -0.4248
 3817SOL     OW22912   2.430   0.816  15.632 -0.0887 -0.4884 -0.0478
 3817SOL    HW122913   2.433   0.859  15.546 -0.2581 -2.1655 -0.9017
 3817SOL    HW222914   2.342   0.780  15.640  0.7093 -2.6298 -0.8503
 3818SOL     OW22915   1.170   0.622   7.990 -0.4860 -0.2888  0.2924
 3818SOL    HW122916   1.104   0.649   7.926 -1.4056 -1.7491  0.6155
 3818SOL    HW222917   1.205   0.708   8.009 -1.1457 -0.4692  2.4037
 3819SOL     OW22918   2.482   1.871  12.565 -0.1199  0.1110 -0.1772
 3819SOL    HW122919   2.543   1.803  12.596 -0.0022  0.1575 -0.3085
 3819SOL    HW222920   2.472   1.926  12.643 -1.3934  1.1495 -1.0890
 3820SOL     OW22921   0.259   4.423   8.587  0.2190 -0.0387  0.2075
 3820SOL    HW122922   0.300   4.363   8.650  4.2178  1.7955 -0.6461
 3820SOL    HW222923   0.226   4.486   8.651  3.5348  0.7591  1.1602
 3821SOL     OW22924   1.069   1.497   2.983  0.7216  0.8844 -0.0483
 3821SOL    HW122925   1.078   1.407   3.013  1.9126  1.3403  0.9736
 3821SOL    HW222926   1.003   1.493   2.914  0.0392  0.0674  0.6501
 3822SOL     OW22927   1.568   0.911   2.665  0.7704 -0.3291 -0.3549
 3822SOL    HW122928   1.607   0.994   2.636 -0.4970  1.9341  4.4226
 3822SOL    HW222929   1.521   0.936   2.744  0.1305 -1.4639 -0.3684
 3823SOL     OW22930   1.146   3.470   3.550 -0.5731  0.2748 -0.1221
 3823SOL    HW122931   1.196   3.539   3.507 -1.2342 -0.4849 -2.0968
 3823SOL    HW222932   1.089   3.520   3.609 -1.5789 -1.5599  0.4853
 3824SOL     OW22933   1.149   2.701   7.128 -0.6323 -0.5239 -0.2033
 3824SOL    HW122934   1.083   2.740   7.071 -1.3386  0.2149  1.1224
 3824SOL    HW222935   1.136   2.607   7.116  0.5964 -0.9494  1.8480
 3825SOL     OW22936   2.606   1.374   6.795  0.4536 -0.3500 -0.0698
 3825SOL    HW122937   2.563   1.443   6.743  0.4819 -0.4772 -0.2634
 3825SOL    HW222938   2.618   1.429   6.872  2.0328 -1.9757  0.8274
 3826SOL     OW22939   2.117   0.183   3.988 -0.0816 -0.2016  0.3286
 3826SOL    HW122940   2.192   0.183   3.928  0.6249 -0.3658  1.2176
 3826SOL    HW222941   2.071   0.106   3.957 -0.6009 -0.1526  0.9861
 3827SOL     OW22942   3.833   3.525  16.034  0.0621  0.5829  0.1038
 3827SOL    HW122943   3.858   3.449  16.087 -2.5689 -0.3179  0.0384
 3827SOL    HW222944   3.796   3.567  16.112  0.9615  0.4903  0.5782
 3828SOL     OW22945   2.571   0.504   6.683  0.1934 -0.2662  0.2245
 3828SOL    HW122946   2.507   0.549   6.738 -1.6615 -2.4094 -0.1650
 3828SOL    HW222947   2.622   0.578   6.652  1.6173 -1.1899  0.3425
 3829SOL     OW22948   4.012   0.373  15.467 -0.3801 -0.0467  0.3261
 3829SOL    HW122949   3.935   0.392  15.520  1.0073  3.1002  1.1984
 3829SOL    HW222950   3.970   0.364  15.382 -0.4466  1.1567  0.2338
 3830SOL     OW22951   4.494   4.497  15.767 -0.3716  0.5712 -0.0052
 3830SOL    HW122952   4.443   4.417  15.760  0.1396  0.1806  0.7779
 3830SOL    HW222953   4.504   4.513  15.861  2.7549 -0.6269 -0.1277
 3831SOL     OW22954   2.081   2.219   4.144 -0.5513 -0.5174  0.0417
 3831SOL    HW122955   2.037   2.294   4.185 -0.8978 -0.7964  0.1778
 3831SOL    HW222956   2.040   2.225   4.057  2.1838  3.5533 -0.9584
 3832SOL     OW22957   0.651   2.669   1.515 -0.3941 -0.0147 -0.3339
 3832SOL    HW122958   0.587   2.643   1.581 -1.5153  2.1187 -0.5861
 3832SOL    HW222959   0.635   2.763   1.508  0.1330  0.1861  1.2596
 3833SOL     OW22960   2.855   2.349  15.880  0.2824 -0.5780 -0.6069
 3833SOL    HW122961   2.814   2.414  15.822 -1.0774 -1.0798 -0.2169
 3833SOL    HW222962   2.778   2.305  15.917 -0.6728  1.7726  0.2319
 3834SOL     OW22963   4.540   0.074   0.281 -0.9122 -0.2869 -0.3173
 3834SOL    HW122964   4.455   0.068   0.324 -0.8675  0.0238 -0.1887
 3834SOL    HW222965   4.579   4.708   0.290 -0.9581 -0.2276  0.4069
 3835SOL     OW22966   1.090   2.198   6.705 -0.0097 -0.1750  0.0536
 3835SOL    HW122967   1.152   2.254   6.659 -1.1847 -0.6616 -2.1185
 3835SOL    HW222968   1.125   2.110   6.688 -2.2841 -1.1762  0.5280
 3836SOL     OW22969   0.160   3.784   1.082  0.3504 -0.6608 -0.1754
 3836SOL    HW122970   0.112   3.823   1.155  1.0251 -1.6098  0.7827
 3836SOL    HW222971   0.137   3.847   1.014  0.5321 -0.6797 -0.2546
 3837SOL     OW22972   3.285   2.331   3.529 -0.6176 -0.6013 -0.2115
 3837SOL    HW122973   3.374   2.364   3.513 -0.5764 -0.5196  0.2032
 3837SOL    HW222974   3.300   2.274   3.605 -0.5264 -0.9305 -0.4743
 3838SOL     OW22975   1.614   0.371   4.422  0.3619 -0.0409 -0.5350
 3838SOL    HW122976   1.674   0.392   4.351  1.3120  0.2594  0.3510
 3838SOL    HW222977   1.536   0.417   4.389 -0.2366 -0.8825 -0.3125
 3839SOL     OW22978   4.549   4.155  17.124  0.2833  0.6467 -0.1569
 3839SOL    HW122979   4.563   4.080  17.182  2.4443  0.4833 -0.8987
 3839SOL    HW222980   4.474   4.123  17.073  0.3386 -0.1216  0.2384
 3840SOL     OW22981   1.162   4.337  12.142 -0.1105  0.6006  0.1891
 3840SOL    HW122982   1.106   4.260  12.152  0.5094  0.3175  1.5017
 3840SOL    HW222983   1.227   4.320  12.211  1.7133 -1.1961 -1.9854
 3841SOL     OW22984   0.429   1.357   5.097  0.2072  0.1750  0.5194
 3841SOL    HW122985   0.451   1.273   5.136  0.6909 -0.1590 -0.4693
 3841SOL    HW222986   0.352   1.331   5.046  0.1093 -0.8078  1.1693
 3842SOL     OW22987   3.109   3.465   8.330  0.0922  0.0027 -0.1698
 3842SOL    HW122988   3.189   3.416   8.346 -0.2833 -0.0780  1.4565
 3842SOL    HW222989   3.134   3.552   8.359 -0.5952  0.2211 -0.2220
 3843SOL     OW22990   4.621   3.452   2.919  0.3461  0.5820  0.0793
 3843SOL    HW122991   4.570   3.381   2.959  1.3763 -0.3071 -0.1821
 3843SOL    HW222992   4.615   3.435   2.825 -0.4175  0.7609  0.0915
 3844SOL     OW22993   1.824   1.208  11.218 -0.2428  0.3442  0.3026
 3844SOL    HW122994   1.808   1.272  11.149  0.4614 -0.4321 -0.5719
 3844SOL    HW222995   1.873   1.262  11.280 -1.3206 -0.3133  1.7440
 3845SOL     OW22996   3.656   4.423   6.308 -0.6642  0.4309  0.4308
 3845SOL    HW122997   3.643   4.375   6.227  0.6037 -2.7064  2.0931
 3845SOL    HW222998   3.583   4.485   6.299 -0.1256  0.9917 -0.0506
 3846SOL     OW22999   1.300   2.545  12.136  0.9630 -0.3406 -0.1434
 3846SOL    HW123000   1.325   2.634  12.160  2.3753 -0.7692 -0.0290
 3846SOL    HW223001   1.237   2.531  12.207  0.6931 -0.6963 -0.4495
 3847SOL     OW23002   3.808   4.199   6.840  0.0358  0.5154 -0.3047
 3847SOL    HW123003   3.866   4.193   6.764 -1.2908 -0.1733 -1.2503
 3847SOL    HW223004   3.774   4.110   6.852  1.1403  0.1043 -0.1374
 3848SOL     OW23005   1.335   4.104   2.923 -0.0422  0.0839  0.2901
 3848SOL    HW123006   1.375   4.030   2.878 -4.2875 -1.9748 -0.1096
 3848SOL    HW223007   1.362   4.185   2.879 -0.7274  1.7103  2.8157
 3849SOL     OW23008   0.522   0.990   8.417  0.2137 -0.0024  0.1666
 3849SOL    HW123009   0.529   1.085   8.408 -1.2582 -0.0732 -1.6386
 3849SOL    HW223010   0.517   0.972   8.511  1.8549  0.1417  0.2795
 3850SOL     OW23011   1.721   1.799   8.728 -0.9003 -0.3237 -0.0570
 3850SOL    HW123012   1.741   1.804   8.822 -1.0793 -1.8915  0.0675
 3850SOL    HW223013   1.743   1.706   8.722 -0.6764 -0.2560 -0.2819
 3851SOL     OW23014   1.475   0.109   5.057 -0.4888 -0.4518  0.2781
 3851SOL    HW123015   1.495   0.172   4.989  1.0756 -0.2447  0.9342
 3851SOL    HW223016   1.528   0.034   5.029  1.2976  1.3433 -1.1494
 3852SOL     OW23017   1.094   1.307   6.224  0.4198 -0.1128  0.0365
 3852SOL    HW123018   1.090   1.355   6.306 -2.2254  1.5714 -1.0804
 3852SOL    HW223019   1.120   1.220   6.254 -0.0461  0.9353  3.3928
 3853SOL     OW23020   1.913   3.068  15.483  0.4446 -0.3173  0.3654
 3853SOL    HW123021   1.913   3.160  15.509 -0.0865  0.2883 -1.7998
 3853SOL    HW223022   1.988   3.057  15.424 -1.0772  0.0492 -1.6499
 3854SOL     OW23023   4.700   1.333   7.801 -0.0281 -0.5840  0.3933
 3854SOL    HW123024   4.690   1.416   7.755  0.3082 -1.7696 -1.8061
 3854SOL    HW223025   4.669   1.269   7.738 -0.8989 -0.8041  1.0421
 3855SOL     OW23026   2.886   0.418  11.066 -0.1809 -0.1700 -0.0236
 3855SOL    HW123027   2.963   0.472  11.084 -0.5691 -0.2981  2.0450
 3855SOL    HW223028   2.882   0.361  11.143 -0.1254  1.1671  0.9746
 3856SOL     OW23029   2.426   0.425   2.545 -0.2655  0.3455  0.3084
 3856SOL    HW123030   2.360   0.483   2.584 -0.2609  1.0869 -0.7792
 3856SOL    HW223031   2.387   0.338   2.545 -1.0015  0.6581  2.3972
 3857SOL     OW23032   4.208   0.848   0.985  0.3432  0.2350 -0.3796
 3857SOL    HW123033   4.196   0.941   0.965  0.0008  0.2057 -0.3141
 3857SOL    HW223034   4.293   0.836   0.942  0.6182  2.6821 -0.5113
 3858SOL     OW23035   1.482   0.384   3.030  0.1272 -0.1826  0.2680
 3858SOL    HW123036   1.411   0.404   2.969  0.4198  0.3590  0.1099
 3858SOL    HW223037   1.449   0.413   3.115  1.0289 -0.2979  0.6626
 3859SOL     OW23038   2.297   1.274   6.481 -0.1346  0.3078  0.3377
 3859SOL    HW123039   2.317   1.214   6.552 -2.4197  2.0927  2.4974
 3859SOL    HW223040   2.270   1.352   6.529 -2.3984  0.6396 -1.4346
 3860SOL     OW23041   2.992   3.963  10.131  0.0249 -0.0415  0.1938
 3860SOL    HW123042   3.057   3.992  10.194  0.6144 -2.5138  0.7301
 3860SOL    HW223043   2.911   3.991  10.174 -0.3244 -0.4136 -0.2237
 3861SOL     OW23044   2.800   3.028  12.542  0.2208  0.0553 -0.4322
 3861SOL    HW123045   2.800   3.007  12.449 -0.2309 -0.7065 -0.2632
 3861SOL    HW223046   2.893   3.015  12.563  0.7443  1.2008 -2.0799
 3862SOL     OW23047   3.700   3.073   5.552 -0.1537  0.3226  0.0327
 3862SOL    HW123048   3.787   3.111   5.564 -1.1653  2.1098  1.7093
 3862SOL    HW223049   3.642   3.135   5.596  0.7697 -1.2275  3.4289
 3863SOL     OW23050   0.140   4.546  15.976  0.4280 -0.1123  0.1053
 3863SOL    HW123051   0.087   4.624  15.994  0.4879 -0.3016  1.0999
 3863SOL    HW223052   0.103   4.514  15.893  1.5544 -2.5415  0.5259
 3864SOL     OW23053   0.176   3.236   2.899  0.0258 -0.0349 -0.1045
 3864SOL    HW123054   0.182   3.151   2.856  1.2978 -0.2277  0.4522
 3864SOL    HW223055   0.135   3.296   2.836  0.4024  0.3058 -0.0277
 3865SOL     OW23056   4.408   0.906   1.639  0.6943 -0.3910 -0.5495
 3865SOL    HW123057   4.359   0.962   1.698  1.3751 -0.0862 -0.2761
 3865SOL    HW223058   4.370   0.822   1.663 -0.0096  0.3201  0.7726
 3866SOL     OW23059   0.640   3.390   3.236  0.0360  0.1155 -0.0158
 3866SOL    HW123060   0.574   3.368   3.302 -0.0345 -0.0341 -0.1352
 3866SOL    HW223061   0.702   3.319   3.256 -1.0118 -1.5231 -2.4661
 3867SOL     OW23062   3.358   3.116   8.682 -0.1473  0.1836  0.3058
 3867SOL    HW123063   3.423   3.186   8.686 -0.4751  0.5314 -0.2645
 3867SOL    HW223064   3.298   3.161   8.622  0.4543  1.3545  0.5864
 3868SOL     OW23065   1.488   1.704   8.216 -0.2113 -0.2738 -0.3133
 3868SOL    HW123066   1.469   1.611   8.208  2.1906 -0.7574 -0.5390
 3868SOL    HW223067   1.464   1.708   8.309 -2.5279  0.2869 -0.9325
 3869SOL     OW23068   1.737   3.766  16.310  0.3841  0.1895 -0.1652
 3869SOL    HW123069   1.672   3.714  16.357 -1.6287  1.5171 -1.4995
 3869SOL    HW223070   1.819   3.728  16.342  1.2733  2.9118  0.8334
 3870SOL     OW23071   0.911   2.511  13.835 -0.4020  0.2413 -0.1284
 3870SOL    HW123072   0.830   2.478  13.875 -0.9485  1.6357 -0.0808
 3870SOL    HW223073   0.921   2.591  13.888  1.0891 -0.1026  0.1097
 3871SOL     OW23074   3.027   1.362   6.363  0.3397  0.2528  0.2769
 3871SOL    HW123075   3.006   1.446   6.403 -1.2119  1.0034 -2.0964
 3871SOL    HW223076   2.956   1.311   6.403 -0.0663 -1.6648 -2.9410
 3872SOL     OW23077   2.543   0.940  15.908  0.1608 -0.4083  0.2784
 3872SOL    HW123078   2.517   0.906  15.822  1.2073 -0.1167 -0.1503
 3872SOL    HW223079   2.481   1.013  15.918 -0.0259 -0.6033  0.5340
 3873SOL     OW23080   2.198   3.242   5.630 -0.1128 -0.2968  0.0746
 3873SOL    HW123081   2.142   3.296   5.575  1.5061  1.4475  0.1367
 3873SOL    HW223082   2.225   3.186   5.558 -0.2684  0.4841 -0.5895
 3874SOL     OW23083   4.380   0.257   4.461 -0.4178 -0.4602 -0.0349
 3874SOL    HW123084   4.288   0.257   4.432 -0.5302 -0.6790  0.3310
 3874SOL    HW223085   4.375   0.334   4.518 -1.6769  0.8610 -1.8816
 3875SOL     OW23086   1.868   0.672   1.758  0.4835 -0.1278 -0.1076
 3875SOL    HW123087   1.857   0.725   1.678  1.8240  0.4734  0.1025
 3875SOL    HW223088   1.811   0.598   1.744  0.4563 -0.2711  0.7946
 3876SOL     OW23089   1.680   2.676   3.193 -0.2899 -0.0053 -0.0637
 3876SOL    HW123090   1.592   2.656   3.161 -0.4189  1.2575 -0.4931
 3876SOL    HW223091   1.681   2.770   3.178 -3.2768 -0.1146 -0.8454
 3877SOL     OW23092   0.006   1.189   9.396 -0.5883 -0.4123 -0.0335
 3877SOL    HW123093   0.101   1.181   9.382 -0.3145 -0.2717  1.7731
 3877SOL    HW223094   0.007   1.280   9.425 -3.8876 -0.7456  1.0509
 3878SOL     OW23095   0.274   1.684  10.118 -0.1948 -0.6572  0.1448
 3878SOL    HW123096   0.181   1.691  10.141 -0.3585 -1.7973 -0.1661
 3878SOL    HW223097   0.309   1.643  10.197  1.7168  1.0198  0.1545
 3879SOL     OW23098   0.995   2.858   1.313 -0.0206 -0.7792  0.2816
 3879SOL    HW123099   0.986   2.828   1.403 -0.2145  1.2863  0.9478
 3879SOL    HW223100   0.969   2.782   1.261 -2.7720  0.5013 -0.2186
 3880SOL     OW23101   4.401   2.065  13.020 -0.1591 -0.0996 -0.2131
 3880SOL    HW123102   4.315   2.034  13.047  0.3430 -3.2726 -2.2778
 3880SOL    HW223103   4.444   2.063  13.106  0.2179  2.3349 -0.3368
 3881SOL     OW23104   1.016   1.285   3.588 -0.4209 -0.4196  0.0116
 3881SOL    HW123105   1.092   1.343   3.585 -1.8806  1.5246  0.2859
 3881SOL    HW223106   0.981   1.286   3.499 -0.4601  2.6868  0.0595
 3882SOL     OW23107   0.607   0.244   9.229  0.0044 -0.0519 -0.3741
 3882SOL    HW123108   0.531   0.240   9.287  0.1722 -2.6062 -0.2919
 3882SOL    HW223109   0.681   0.216   9.283 -0.3251  0.9782  0.5951
 3883SOL     OW23110   0.199   0.208  12.769  0.1863 -0.2268 -0.4630
 3883SOL    HW123111   0.233   0.228  12.856 -0.7000  0.7298 -0.3243
 3883SOL    HW223112   0.281   0.198  12.722  2.1225 -0.2449  2.9698
 3884SOL     OW23113   3.392   0.924  13.066  0.4158  0.2545 -0.0765
 3884SOL    HW123114   3.473   0.975  13.077  0.2487  0.0815  1.9219
 3884SOL    HW223115   3.372   0.952  12.976  3.5596  0.9655 -0.5796
 3885SOL     OW23116   1.810   2.798  15.830  0.3144 -0.4285 -0.3641
 3885SOL    HW123117   1.889   2.748  15.809  1.4633  1.1173  0.3359
 3885SOL    HW223118   1.835   2.813  15.921  2.5692  2.2186 -1.4181
 3886SOL     OW23119   3.781   0.054   0.787 -0.0058  0.2075  0.1521
 3886SOL    HW123120   3.813   0.107   0.714 -0.3514 -2.1346 -1.7208
 3886SOL    HW223121   3.736   4.699   0.751  0.0209 -0.6015  1.8221
 3887SOL     OW23122   0.111   4.176  14.948 -0.3640  0.5825  0.2615
 3887SOL    HW123123   0.080   4.087  14.966 -2.4408  1.5141  1.2807
 3887SOL    HW223124   0.141   4.175  14.857 -0.3899  0.4656  0.2538
 3888SOL     OW23125   1.067   1.120   5.333 -0.5406  0.1250 -0.1272
 3888SOL    HW123126   1.024   1.096   5.415  0.6325  1.2642  0.8329
 3888SOL    HW223127   1.016   1.074   5.267 -0.1144 -0.9701  0.3131
 3889SOL     OW23128   4.400   2.218   0.539 -0.5319  0.3245 -0.0726
 3889SOL    HW123129   4.459   2.153   0.575 -1.1113 -0.2519 -0.1639
 3889SOL    HW223130   4.371   2.159   0.469 -0.3856  1.8898 -1.4847
 3890SOL     OW23131   3.661   4.486   5.372  0.1986 -0.1006 -0.1130
 3890SOL    HW123132   3.589   4.434   5.336  0.0505  0.6001 -0.8290
 3890SOL    HW223133   3.644   4.489   5.466 -0.8793  2.0768 -0.3615
 3891SOL     OW23134   4.261   3.320  15.256  0.2544 -0.9007  0.0947
 3891SOL    HW123135   4.216   3.316  15.341 -1.0581 -1.4387 -0.6236
 3891SOL    HW223136   4.184   3.315  15.198  0.6882  0.9510 -0.6199
 3892SOL     OW23137   4.183   3.648  13.977 -0.9335  0.3560 -0.4359
 3892SOL    HW123138   4.227   3.730  13.999 -2.5169  1.1917 -0.3873
 3892SOL    HW223139   4.174   3.620  14.069  0.1509  1.1781 -0.0832
 3893SOL     OW23140   4.659   1.401   5.813  0.1484  0.4909 -0.0777
 3893SOL    HW123141   4.703   1.400   5.898 -0.8343  0.1879  0.4277
 3893SOL    HW223142   4.566   1.413   5.835  0.3831  0.8748  0.6725
 3894SOL     OW23143   0.338   4.540  13.314 -0.1615  0.3524  0.2468
 3894SOL    HW123144   0.267   4.520  13.376 -0.5104 -1.2677 -0.6905
 3894SOL    HW223145   0.335   4.475  13.244  1.6100 -0.6201  1.0761
 3895SOL     OW23146   3.105   4.303   1.171  0.1752  0.3409  0.0528
 3895SOL    HW123147   3.027   4.347   1.205 -1.3462 -2.5489  0.3413
 3895SOL    HW223148   3.066   4.295   1.084 -0.6754 -2.1216  0.6455
 3896SOL     OW23149   0.814   3.143  13.092 -0.4423  0.4626 -1.0078
 3896SOL    HW123150   0.801   3.197  13.014  0.4866 -1.2077 -2.3273
 3896SOL    HW223151   0.797   3.057  13.053 -0.6247  0.3488 -0.6754
 3897SOL     OW23152   1.526   0.543   2.624  0.0227 -0.2733  0.0572
 3897SOL    HW123153   1.590   0.591   2.571  0.0261  0.8229  1.0513
 3897SOL    HW223154   1.461   0.612   2.636  0.4139 -0.0926  1.1355
 3898SOL     OW23155   2.784   2.414  10.647 -0.5404 -0.3722  0.5178
 3898SOL    HW123156   2.788   2.319  10.634  0.5604 -0.4267  1.2715
 3898SOL    HW223157   2.723   2.445  10.580 -1.3122  0.1110  1.4617
 3899SOL     OW23158   3.284   4.548   3.692 -0.2656  0.5411  0.2636
 3899SOL    HW123159   3.374   4.516   3.694 -0.2209  0.7372  1.4778
 3899SOL    HW223160   3.263   4.578   3.604 -1.0515 -2.0138 -0.4070
 3900SOL     OW23161   0.738   4.712   7.188 -0.1954 -0.4865 -0.0600
 3900SOL    HW123162   0.769   4.628   7.221 -2.0662 -1.0377  0.3127
 3900SOL    HW223163   0.816   0.045   7.201  0.0067 -0.5087 -1.2013
 3901SOL     OW23164   1.769   0.815   0.210  0.1774 -0.1887 -0.2852
 3901SOL    HW123165   1.745   0.741   0.266  1.0402  0.9364  1.5963
 3901SOL    HW223166   1.729   0.880   0.268 -0.3367 -1.7156  1.0725
 3902SOL     OW23167   0.696   2.219  17.025 -0.0272 -0.0324  0.1087
 3902SOL    HW123168   0.727   2.276  16.955 -2.5065  0.5443 -0.5068
 3902SOL    HW223169   0.767   2.154  17.025 -0.1292 -0.1328  2.2398
 3903SOL     OW23170   2.935   4.063   1.378  0.9384 -0.1699 -0.0902
 3903SOL    HW123171   2.879   4.107   1.442  1.9313 -1.7405  1.8599
 3903SOL    HW223172   2.916   4.116   1.301  0.2821 -1.2172 -0.6494
 3904SOL     OW23173   2.392   3.774  10.434  0.0204 -0.1567  0.0816
 3904SOL    HW123174   2.384   3.680  10.420  0.2888 -0.1049 -0.3896
 3904SOL    HW223175   2.346   3.787  10.517  1.6895  0.6464  0.8703
 3905SOL     OW23176   0.245   3.596   3.890 -0.1984 -0.4545 -0.1951
 3905SOL    HW123177   0.211   3.613   3.802  0.7476 -0.1090 -0.4907
 3905SOL    HW223178   0.217   3.504   3.897  0.5751 -0.6932 -0.1978
 3906SOL     OW23179   3.943   0.918   2.951 -0.2977  0.0112  0.0967
 3906SOL    HW123180   3.973   0.874   3.030  1.3474 -0.6060 -0.8573
 3906SOL    HW223181   4.023   0.940   2.904 -0.3927 -0.7400 -0.4147
 3907SOL     OW23182   1.868   2.161   5.052  1.3660  0.1654 -0.6166
 3907SOL    HW123183   1.901   2.221   4.985  1.9661 -0.5554 -0.9631
 3907SOL    HW223184   1.791   2.135   5.002  1.7931 -0.8572 -0.7539
 3908SOL     OW23185   0.185   3.936   2.354  0.5846  0.0190 -0.4110
 3908SOL    HW123186   0.258   3.922   2.415  0.1148 -1.1110 -0.1259
 3908SOL    HW223187   0.168   4.030   2.358  1.7990  0.2966 -1.5996
 3909SOL     OW23188   1.098   3.512   1.742 -0.0305  0.0149 -0.5790
 3909SOL    HW123189   1.041   3.461   1.800  0.5055  2.3543  1.9898
 3909SOL    HW223190   1.139   3.438   1.698 -1.7121 -0.8388 -0.6940
 3910SOL     OW23191   0.948   2.299   6.921 -0.0117 -0.7727 -0.2414
 3910SOL    HW123192   0.991   2.264   6.843  1.1228  0.5905 -0.2286
 3910SOL    HW223193   0.899   2.372   6.884  1.5107  0.1299 -0.4695
 3911SOL     OW23194   4.344   3.160   3.877 -0.1005 -0.0718  0.1973
 3911SOL    HW123195   4.349   3.146   3.782 -1.6203  0.9153 -0.0334
 3911SOL    HW223196   4.251   3.147   3.897  0.1758 -1.2336  0.6922
 3912SOL     OW23197   0.722   4.039   3.842  0.4378  0.0325 -0.4959
 3912SOL    HW123198   0.793   4.104   3.844 -0.1160  0.6728 -1.5225
 3912SOL    HW223199   0.732   3.987   3.922  0.8108  1.0818  0.1326
 3913SOL     OW23200   1.049   2.125  11.128  0.2291 -0.3804 -0.2322
 3913SOL    HW123201   1.109   2.057  11.098  1.2157  0.6081 -0.5015
 3913SOL    HW223202   1.029   2.169  11.045  2.4617  3.1283  1.0883
 3914SOL     OW23203   1.387   0.870   3.426 -0.3285  0.6760 -0.1591
 3914SOL    HW123204   1.476   0.903   3.430  0.5454 -1.8420  0.8875
 3914SOL    HW223205   1.337   0.930   3.482  0.0717  0.2259  0.6778
 3915SOL     OW23206   4.619   2.670   2.647  0.3955  0.7295  0.3401
 3915SOL    HW123207   4.687   2.614   2.685 -1.0791  0.5377  2.6572
 3915SOL    HW223208   4.567   2.689   2.725  0.6576  0.0523  0.6865
 3916SOL     OW23209   4.368   4.213   3.907 -0.0673 -0.0261  0.0383
 3916SOL    HW123210   4.387   4.274   3.978 -0.7546  0.1802  0.0397
 3916SOL    HW223211   4.453   4.207   3.863 -0.1793  0.2111 -0.2060
 3917SOL     OW23212   4.582   1.052   5.407 -0.0945  0.3061  0.1398
 3917SOL    HW123213   4.586   1.114   5.479  2.1990  0.0071  0.2834
 3917SOL    HW223214   4.497   1.012   5.426 -0.0349 -0.2675 -0.7809
 3918SOL     OW23215   0.765   4.467   2.008 -0.0413  0.0986 -0.2870
 3918SOL    HW123216   0.846   4.425   2.036 -0.6578 -0.1712  1.0985
 3918SOL    HW223217   0.764   4.437   1.918 -0.6669 -1.9240  0.3894
 3919SOL     OW23218   3.167   2.445   2.494  0.2658 -0.6690  0.3960
 3919SOL    HW123219   3.187   2.424   2.403 -0.1715 -1.3056  0.4459
 3919SOL    HW223220   3.240   2.498   2.524 -0.4341 -0.8703  2.4860
 3920SOL     OW23221   3.328   3.910   7.970 -0.3004  0.0638 -0.3226
 3920SOL    HW123222   3.295   3.966   7.899 -0.2780 -1.2754 -1.3998
 3920SOL    HW223223   3.420   3.922   7.944 -0.6795  0.3733 -1.5340
 3921SOL     OW23224   4.115   1.622  13.736  0.1426  0.2376  0.4531
 3921SOL    HW123225   4.055   1.689  13.770 -0.3545  0.5366 -1.0060
 3921SOL    HW223226   4.098   1.633  13.643 -0.3326  1.0255  0.6328
 3922SOL     OW23227   4.694   2.433   2.321 -0.2216 -0.0159  0.3703
 3922SOL    HW123228   4.655   2.421   2.234  0.6301  2.4824 -0.3558
 3922SOL    HW223229   0.030   2.507   2.300 -0.2128  0.6361  2.7336
 3923SOL     OW23230   2.787   2.625   8.056 -0.6465 -0.4023  0.1566
 3923SOL    HW123231   2.858   2.644   8.117 -0.1433  0.0706 -0.5799
 3923SOL    HW223232   2.777   2.702   8.000  1.7349  0.9593  1.6096
 3924SOL     OW23233   3.590   4.350   1.304  0.2048  0.0328 -0.1087
 3924SOL    HW123234   3.543   4.402   1.239  0.4670  0.5877  0.1493
 3924SOL    HW223235   3.559   4.398   1.382  0.9224 -0.0916  0.2495
 3925SOL     OW23236   4.078   0.549   3.856 -0.1732  0.5074 -0.1430
 3925SOL    HW123237   4.024   0.538   3.935  0.3274 -0.8329  0.0028
 3925SOL    HW223238   4.066   0.465   3.813 -0.2326 -0.5008  1.8539
 3926SOL     OW23239   0.335   1.753  16.848 -0.0403  0.2843  0.1186
 3926SOL    HW123240   0.320   1.680  16.907  2.6315 -0.1578  0.2539
 3926SOL    HW223241   0.430   1.767  16.855 -0.3061  1.9905  0.3647
 3927SOL     OW23242   3.408   3.786   3.570  0.2176  0.0468  0.3822
 3927SOL    HW123243   3.469   3.722   3.605 -2.1341 -1.8029  1.0766
 3927SOL    HW223244   3.429   3.785   3.477  0.8428  0.0299  0.5271
 3928SOL     OW23245   2.368   0.963  12.762  0.0516  0.2979  0.2905
 3928SOL    HW123246   2.304   1.032  12.745 -0.7818 -0.1165  1.7444
 3928SOL    HW223247   2.442   1.024  12.770  0.2708  0.2124 -1.0717
 3929SOL     OW23248   4.214   1.254  10.384 -0.6040  0.0059  0.6001
 3929SOL    HW123249   4.305   1.252  10.415 -1.4233  0.7139  3.0338
 3929SOL    HW223250   4.189   1.327  10.441  0.8639  2.2187 -1.6152
 3930SOL     OW23251   0.584   2.337   1.297 -0.3336 -0.0588 -0.1282
 3930SOL    HW123252   0.600   2.272   1.366 -1.3473 -0.9469 -0.7293
 3930SOL    HW223253   0.489   2.332   1.294 -0.3523  1.5654 -1.9373
 3931SOL     OW23254   0.509   1.197   9.112  0.3363  0.5753 -0.6366
 3931SOL    HW123255   0.477   1.108   9.107  0.8415  0.3581  0.0341
 3931SOL    HW223256   0.476   1.236   9.031 -0.1289 -0.8060 -1.1040
 3932SOL     OW23257   2.348   2.470   4.241  0.1744  0.2275 -0.5722
 3932SOL    HW123258   2.287   2.492   4.171  0.5266  0.1168 -0.9178
 3932SOL    HW223259   2.420   2.525   4.210  0.1527  0.6495  0.1223
 3933SOL     OW23260   3.584   3.531   6.813 -0.0757  0.3546 -0.7656
 3933SOL    HW123261   3.558   3.442   6.789 -1.8126  0.6746 -0.0249
 3933SOL    HW223262   3.680   3.526   6.815 -0.1037  0.3233  0.3632
 3934SOL     OW23263   4.272   1.030   9.807  0.0357  0.4317  0.0259
 3934SOL    HW123264   4.351   1.046   9.859 -1.4006 -0.5006  2.4990
 3934SOL    HW223265   4.280   1.103   9.745  1.1942 -0.8886 -1.3742
 3935SOL     OW23266   2.964   3.292  16.888  0.0368  0.5817  0.4015
 3935SOL    HW123267   2.990   3.343  16.811 -1.7552  0.4720 -0.2506
 3935SOL    HW223268   2.901   3.355  16.924 -1.8604 -1.3673  0.4484
 3936SOL     OW23269   1.361   0.680   2.327 -0.7305 -0.1000 -0.6561
 3936SOL    HW123270   1.369   0.739   2.251  3.0665  0.6958  0.3701
 3936SOL    HW223271   1.302   0.725   2.388  0.1235  0.2467 -0.0890
 3937SOL     OW23272   0.275   4.196  16.888  0.3851 -0.4752  0.3012
 3937SOL    HW123273   0.312   4.266  16.941 -0.4238 -0.0305  0.2832
 3937SOL    HW223274   0.325   4.202  16.807 -0.7391  0.5455 -0.3231
 3938SOL     OW23275   4.439   1.830   1.190 -0.4677 -0.3182  0.0424
 3938SOL    HW123276   4.473   1.764   1.251 -0.3878  0.2913  0.6512
 3938SOL    HW223277   4.444   1.791   1.102  0.1648  0.7929 -0.4205
 3939SOL     OW23278   2.857   1.457   6.085 -0.0728 -0.6688 -0.2707
 3939SOL    HW123279   2.809   1.402   6.147 -1.4456  0.9001  0.0405
 3939SOL    HW223280   2.936   1.405   6.068 -0.2792 -1.2313  0.4642
 3940SOL     OW23281   3.474   2.674   4.217  0.0262  0.6024 -0.7276
 3940SOL    HW123282   3.412   2.733   4.259  0.7192 -0.4890  1.8505
 3940SOL    HW223283   3.421   2.659   4.139 -1.0953 -0.3078  0.2070
 3941SOL     OW23284   3.988   4.040   8.380 -0.1320 -0.3673  0.9430
 3941SOL    HW123285   4.033   4.093   8.446  0.8561  1.0204 -0.8466
 3941SOL    HW223286   4.045   3.963   8.388  1.9096  0.8141 -2.0050
 3942SOL     OW23287   2.377   1.008   1.609 -0.6439 -0.1125 -0.0341
 3942SOL    HW123288   2.313   1.073   1.579 -3.3381 -2.2452  1.1310
 3942SOL    HW223289   2.373   0.937   1.545 -1.4002  0.6835 -0.8647
 3943SOL     OW23290   2.862   4.661   8.184 -0.1644  0.5158  1.0418
 3943SOL    HW123291   2.773   4.692   8.204 -0.4518 -1.1880  2.3791
 3943SOL    HW223292   2.890   0.004   8.119  0.8240 -0.4139  0.5693
 3944SOL     OW23293   2.422   2.038  11.828  0.0733 -0.3374 -0.1060
 3944SOL    HW123294   2.452   2.093  11.756  1.2139 -1.0330 -0.1568
 3944SOL    HW223295   2.504   2.012  11.870 -1.2364 -2.0877  1.3886
 3945SOL     OW23296   1.299   0.367   8.102 -0.0317  0.3255  0.2492
 3945SOL    HW123297   1.245   0.441   8.075  0.1913  0.1884 -0.5768
 3945SOL    HW223298   1.276   0.360   8.195 -0.7988  2.0991  0.1946
 3946SOL     OW23299   4.527   2.357  14.409  0.4876  0.1227  0.1215
 3946SOL    HW123300   4.527   2.376  14.315 -0.3180 -2.2300 -0.3649
 3946SOL    HW223301   4.467   2.424  14.440  0.1237 -0.7281  1.2682
 3947SOL     OW23302   4.399   4.600   3.697  0.1320  0.3473 -0.1785
 3947SOL    HW123303   4.455   4.523   3.709  0.0322  0.4229  0.8057
 3947SOL    HW223304   4.381   4.614   3.790  0.3979 -2.0469  0.2419
 3948SOL     OW23305   4.563   1.928   5.134  0.0330 -0.2934 -0.1692
 3948SOL    HW123306   4.517   1.947   5.051  0.6083 -0.3435 -0.4956
 3948SOL    HW223307   4.494   1.946   5.198  1.1248  0.4143  0.7993
 3949SOL     OW23308   2.874   1.637  16.013  0.4133 -0.2571  0.5093
 3949SOL    HW123309   2.904   1.590  15.935 -0.2460 -0.0758  0.1487
 3949SOL    HW223310   2.908   1.724  15.993  0.1370  0.0740  1.4693
 3950SOL     OW23311   3.592   1.992   5.453 -0.2198  0.2109  0.4364
 3950SOL    HW123312   3.609   2.071   5.400  0.6229  0.1763  0.6528
 3950SOL    HW223313   3.632   1.928   5.395  0.5297 -0.5764  1.8312
 3951SOL     OW23314   1.707   0.072   4.696  0.1462  0.1388  0.2116
 3951SOL    HW123315   1.618   0.094   4.671  1.5003  2.3398 -2.6631
 3951SOL    HW223316   1.744   0.158   4.717  1.1721 -0.8468  2.4912
 3952SOL     OW23317   0.324   0.341   1.305  0.0265  0.8302  0.6131
 3952SOL    HW123318   0.235   0.341   1.339 -0.6338  0.1533 -1.1284
 3952SOL    HW223319   0.369   0.269   1.350  0.9759  0.7068 -0.5137
 3953SOL     OW23320   3.676   3.908   3.890 -0.8344 -0.0866  0.8121
 3953SOL    HW123321   3.721   3.984   3.854 -3.0990  1.1572  0.5847
 3953SOL    HW223322   3.640   3.946   3.971 -2.2224  0.2284  0.0530
 3954SOL     OW23323   3.231   3.642   1.574 -0.1562  0.5375 -0.1699
 3954SOL    HW123324   3.322   3.651   1.602 -0.6689  1.2478  1.2611
 3954SOL    HW223325   3.217   3.715   1.512  0.3100 -0.2477 -1.1985
 3955SOL     OW23326   3.163   4.376  12.305 -0.1978  0.3533  0.0996
 3955SOL    HW123327   3.123   4.400  12.389 -2.4401 -2.8591 -0.0216
 3955SOL    HW223328   3.180   4.459  12.261 -1.9285  0.8806  0.4279
 3956SOL     OW23329   0.166   1.234   9.804 -0.0870 -0.1646 -0.1105
 3956SOL    HW123330   0.226   1.186   9.861  0.6792  2.3086  1.1567
 3956SOL    HW223331   0.136   1.293   9.873 -0.5001  2.2650 -2.3841
 3957SOL     OW23332   3.668   0.175   1.656 -0.2814 -0.4373 -0.1257
 3957SOL    HW123333   3.633   0.238   1.592  0.9520  0.8923  0.5084
 3957SOL    HW223334   3.735   0.127   1.608 -0.4689 -0.3382 -0.4882
 3958SOL     OW23335   3.021   4.172   7.798 -0.2442  0.5157 -0.3037
 3958SOL    HW123336   3.008   4.185   7.892  2.4097  1.3167 -0.0522
 3958SOL    HW223337   2.983   4.088   7.774 -1.2332  0.0212  3.0147
 3959SOL     OW23338   1.509   2.829   2.665  0.2244  0.1525  0.4327
 3959SOL    HW123339   1.493   2.804   2.756  1.2977 -1.5538  0.1463
 3959SOL    HW223340   1.464   2.914   2.668  0.5867  0.2580  2.9209
 3960SOL     OW23341   0.887   2.384  16.262 -0.2408  0.2175  0.2887
 3960SOL    HW123342   0.808   2.340  16.229  0.0430 -0.5758  0.6710
 3960SOL    HW223343   0.841   2.445  16.320 -1.3903 -1.3275  0.9983
 3961SOL     OW23344   1.772   1.931   6.048  0.1077  0.0411 -0.1118
 3961SOL    HW123345   1.724   1.860   6.090 -0.3836  0.1544 -0.4775
 3961SOL    HW223346   1.819   1.961   6.125  1.7528 -1.0559 -0.7029
 3962SOL     OW23347   3.500   4.043  17.638  0.1487 -0.2792  0.3575
 3962SOL    HW123348   3.425   4.063  17.581  1.7335  0.3250 -1.5406
 3962SOL    HW223349   3.561   4.061  17.566 -0.2495 -2.4692 -0.5117
 3963SOL     OW23350   2.911   1.895  13.987  0.4878 -0.0924  0.1176
 3963SOL    HW123351   3.004   1.870  13.987  0.3415 -0.6163 -1.1518
 3963SOL    HW223352   2.913   1.978  14.035  1.6199 -0.2371  0.3250
 3964SOL     OW23353   2.529   3.583   7.444 -0.2164 -0.2965 -0.9983
 3964SOL    HW123354   2.473   3.525   7.496  1.3424  0.2044  1.2502
 3964SOL    HW223355   2.488   3.665   7.472 -0.1601 -0.0871 -1.5278
 3965SOL     OW23356   3.158   3.814   3.277 -0.1397  0.4283 -0.2905
 3965SOL    HW123357   3.127   3.904   3.289  0.1255  0.2098  2.0231
 3965SOL    HW223358   3.086   3.765   3.317  1.7556 -2.3140 -0.2863
 3966SOL     OW23359   0.538   4.151   4.043  0.2614 -0.1031 -0.0400
 3966SOL    HW123360   0.583   4.145   3.959 -1.3384 -3.7227 -0.6641
 3966SOL    HW223361   0.610   4.117   4.097  0.2662 -0.6866 -0.4052
 3967SOL     OW23362   1.274   0.418   1.743  0.7474  0.0024 -0.1506
 3967SOL    HW123363   1.271   0.323   1.744  0.9523 -0.0149 -1.0709
 3967SOL    HW223364   1.296   0.445   1.832 -0.7361  2.0081 -0.3818
 3968SOL     OW23365   1.766   1.542   2.318 -0.0651 -0.2268  0.6372
 3968SOL    HW123366   1.840   1.585   2.359 -0.6027  0.9430  0.3660
 3968SOL    HW223367   1.801   1.526   2.230  1.4340  0.5996  1.0940
 3969SOL     OW23368   3.165   3.734   2.470 -0.1330 -0.3885  0.2935
 3969SOL    HW123369   3.236   3.671   2.452  0.5514  0.2338  0.8197
 3969SOL    HW223370   3.186   3.786   2.392  1.9912  0.1317  1.2173
 3970SOL     OW23371   1.491   2.374   7.462  0.4659  0.7809  0.5778
 3970SOL    HW123372   1.413   2.426   7.442  1.6807  2.1944 -0.5157
 3970SOL    HW223373   1.456   2.287   7.440  1.7435 -0.0036  1.6318
 3971SOL     OW23374   0.862   3.372  13.443  0.0483  0.7783  0.1333
 3971SOL    HW123375   0.798   3.411  13.384 -3.0553 -2.0658  1.6509
 3971SOL    HW223376   0.931   3.352  13.380 -2.4312 -1.9257 -1.6769
 3972SOL     OW23377   4.063   4.646  12.355  0.0190 -0.2554  0.0183
 3972SOL    HW123378   4.046   0.004  12.302 -1.5363  0.8037  2.0995
 3972SOL    HW223379   4.158   4.639  12.358 -0.0546 -0.1671  2.4224
 3973SOL     OW23380   3.846   0.185  12.703  0.6734  0.2874  0.6869
 3973SOL    HW123381   3.835   0.096  12.670  1.8243  0.3001  0.2706
 3973SOL    HW223382   3.783   0.235  12.652  1.6203  0.8365  0.0507
 3974SOL     OW23383   4.677   4.545   8.587  0.1667 -0.3510 -0.0217
 3974SOL    HW123384   0.009   4.554   8.666  0.6947 -2.4671 -0.1451
 3974SOL    HW223385   4.652   4.453   8.583 -1.3533  0.0715  0.0805
 3975SOL     OW23386   0.578   2.976   0.700 -0.0553 -0.2047  0.8508
 3975SOL    HW123387   0.523   3.037   0.650  1.2232  0.4238  0.1775
 3975SOL    HW223388   0.567   3.018   0.785  0.4516  1.6677 -0.0036
 3976SOL     OW23389   2.390   0.856   5.434  0.2202 -0.1700  0.3668
 3976SOL    HW123390   2.389   0.896   5.521 -0.3441  2.5284 -0.8842
 3976SOL    HW223391   2.321   0.907   5.392 -1.0015 -0.9930  1.3431
 3977SOL     OW23392   4.517   2.461   2.894 -0.4333 -0.0754 -0.0273
 3977SOL    HW123393   4.509   2.416   2.811 -5.0880  0.9424 -0.1404
 3977SOL    HW223394   4.527   2.392   2.959  0.3817  1.4164  1.4412
 3978SOL     OW23395   3.842   2.294   7.276 -0.1713 -0.1418  0.3932
 3978SOL    HW123396   3.780   2.225   7.252 -1.5853  1.5066 -0.6748
 3978SOL    HW223397   3.899   2.243   7.333 -0.2948  1.3156  1.8048
 3979SOL     OW23398   1.679   4.044  16.591  0.3110 -0.2562 -0.0939
 3979SOL    HW123399   1.597   4.087  16.564  0.2046 -0.8973 -0.7884
 3979SOL    HW223400   1.647   3.963  16.630 -0.4390 -0.3110 -0.8204
 3980SOL     OW23401   0.588   0.165  16.986 -0.5109  0.1700  0.4063
 3980SOL    HW123402   0.677   0.145  17.014  0.5617  0.2603 -2.9476
 3980SOL    HW223403   0.602   0.217  16.907  0.5046  0.7602  0.9743
 3981SOL     OW23404   0.093   2.624  15.503 -0.2503 -0.0784  0.1670
 3981SOL    HW123405   0.118   2.677  15.428 -2.7971 -0.0617 -0.6784
 3981SOL    HW223406   0.055   2.695  15.554 -0.5610  0.1270 -0.3509
 3982SOL     OW23407   1.584   1.585   4.578 -0.0239 -0.1456  0.2592
 3982SOL    HW123408   1.594   1.618   4.489  0.8467 -0.3503  0.2801
 3982SOL    HW223409   1.621   1.653   4.634  0.4855 -0.4501  0.2968
 3983SOL     OW23410   4.654   0.051   3.709 -0.0702  0.0618 -0.0641
 3983SOL    HW123411   4.679   0.117   3.644 -2.1617  1.6431  0.7175
 3983SOL    HW223412   4.600   4.715   3.654  0.7887 -0.5670 -0.2496
 3984SOL     OW23413   0.769   2.565  15.911 -0.0387  0.3705  0.8005
 3984SOL    HW123414   0.733   2.480  15.937 -1.9023  0.6593 -0.8894
 3984SOL    HW223415   0.709   2.592  15.842  0.2788 -0.3911  0.2307
 3985SOL     OW23416   2.494   0.455  13.848 -1.2743  0.3438 -0.3086
 3985SOL    HW123417   2.403   0.437  13.872 -0.6233 -0.6352  1.4311
 3985SOL    HW223418   2.490   0.538  13.800  0.5798  0.9964  0.6499
 3986SOL     OW23419   1.957   2.319   6.818 -0.0930  0.2460  0.1027
 3986SOL    HW123420   1.863   2.328   6.832 -0.2905 -3.9316  1.5117
 3986SOL    HW223421   1.969   2.413   6.805 -0.8463  0.4567  0.9377
 3987SOL     OW23422   0.286   3.627   2.399  0.1767 -0.1526  0.1860
 3987SOL    HW123423   0.308   3.717   2.422  1.5330 -0.1113 -1.2542
 3987SOL    HW223424   0.192   3.629   2.380 -0.0012 -1.1747  0.9697
 3988SOL     OW23425   0.898   2.569   5.896  0.0107 -0.0073  0.0370
 3988SOL    HW123426   0.961   2.526   5.838  0.1591  0.0479  0.1539
 3988SOL    HW223427   0.819   2.517   5.885 -1.4983  2.4258 -0.6036
 3989SOL     OW23428   2.174   2.490  12.461 -0.3371 -0.2235 -0.0913
 3989SOL    HW123429   2.157   2.431  12.534 -0.5493  0.4325  0.3894
 3989SOL    HW223430   2.101   2.484  12.399 -1.2406  1.3212  0.7988
 3990SOL     OW23431   3.590   2.684   4.494 -0.0249 -0.6780 -0.1064
 3990SOL    HW123432   3.544   2.750   4.442 -0.4289 -1.4628 -0.7420
 3990SOL    HW223433   3.581   2.603   4.443 -2.5959  0.5355 -1.5842
 3991SOL     OW23434   2.942   1.063   0.560 -0.1684 -0.3375 -0.3729
 3991SOL    HW123435   3.020   1.108   0.528 -1.1884  2.5639  1.2683
 3991SOL    HW223436   2.921   1.130   0.624  1.1896 -1.3618  1.1517
 3992SOL     OW23437   2.675   0.244  12.061  0.2463  0.0585  0.0662
 3992SOL    HW123438   2.731   0.304  12.110  3.1328 -1.9260 -0.8314
 3992SOL    HW223439   2.654   0.297  11.985 -4.0087 -0.8645  0.6085
 3993SOL     OW23440   1.777   3.758  11.774 -0.1352 -0.9738  0.2040
 3993SOL    HW123441   1.692   3.793  11.750  0.9749  1.1201 -0.6165
 3993SOL    HW223442   1.828   3.833  11.804  0.4016 -0.1828 -2.6717
 3994SOL     OW23443   0.619   0.442   1.021  0.1406 -0.7109  0.4788
 3994SOL    HW123444   0.690   0.502   0.998 -0.7545 -0.8762 -2.6916
 3994SOL    HW223445   0.650   0.420   1.109 -2.8674 -3.5017  0.8855
 3995SOL     OW23446   0.702   3.825  10.274  0.3476 -0.2404 -0.0186
 3995SOL    HW123447   0.672   3.848  10.187 -0.5677  3.1221  1.2077
 3995SOL    HW223448   0.702   3.730  10.260  4.4352 -0.1388 -0.7350
 3996SOL     OW23449   3.787   3.236  14.982 -0.1787  0.1613  0.2332
 3996SOL    HW123450   3.882   3.228  14.991 -0.4110 -2.3742  0.2576
 3996SOL    HW223451   3.754   3.156  15.022  0.6004  0.8722  2.3395
 3997SOL     OW23452   2.592   0.670   4.206 -0.6012 -0.3369 -0.1872
 3997SOL    HW123453   2.686   0.665   4.186 -0.8528  0.7107 -1.6329
 3997SOL    HW223454   2.580   0.765   4.206 -0.5556 -0.3313  1.2131
 3998SOL     OW23455   4.402   0.263   7.062  0.2950  0.1262 -0.3317
 3998SOL    HW123456   4.309   0.284   7.048  0.7280  1.4563 -1.1354
 3998SOL    HW223457   4.407   0.169   7.047  2.2641 -0.1008  1.8491
 3999SOL     OW23458   4.496   2.907   2.143 -0.0266 -0.4796 -0.2154
 3999SOL    HW123459   4.529   2.954   2.220  0.4096  0.3283 -0.9049
 3999SOL    HW223460   4.443   2.844   2.193  2.1009  0.7431  3.6231
 4000SOL     OW23461   2.881   4.033   3.006 -0.9297  0.3160  0.2753
 4000SOL    HW123462   2.841   3.982   2.936 -1.0789 -0.1036  0.6642
 4000SOL    HW223463   2.810   4.093   3.029 -1.6035 -0.1904 -0.4639
 4001SOL     OW23464   4.704   1.780   6.065 -0.0376 -0.3203  0.1246
 4001SOL    HW123465   4.698   1.876   6.057 -0.0122 -0.4498 -1.4791
 4001SOL    HW223466   0.077   1.780   6.045 -0.1434 -2.3515 -0.2890
 4002SOL     OW23467   3.142   4.659   1.500  0.0234 -0.2831  0.1803
 4002SOL    HW123468   3.183   4.589   1.449 -0.2863 -0.4305  0.1345
 4002SOL    HW223469   3.177   4.642   1.587 -1.1388 -0.3560  0.6351
 4003SOL     OW23470   0.281   2.806   7.871  0.0860  0.2079  0.1751
 4003SOL    HW123471   0.288   2.765   7.957 -2.3620 -1.2567 -0.3202
 4003SOL    HW223472   0.223   2.879   7.893 -0.7102 -0.6989  1.0754
 4004SOL     OW23473   0.457   4.397   4.246 -0.1537  0.0999  0.1566
 4004SOL    HW123474   0.362   4.392   4.257 -0.4909  0.3714 -2.8178
 4004SOL    HW223475   0.488   4.345   4.320 -0.3392  0.5882  0.5781
 4005SOL     OW23476   0.559   3.050  14.295  0.1493  0.2938  0.5953
 4005SOL    HW123477   0.514   2.967  14.282 -0.9486  0.7963  1.1863
 4005SOL    HW223478   0.495   3.108  14.253 -0.8065 -0.8351  0.4810
 4006SOL     OW23479   2.326   1.038   3.445 -0.2410 -0.5339  0.4831
 4006SOL    HW123480   2.367   1.086   3.373  1.0915 -1.1149  0.8589
 4006SOL    HW223481   2.279   1.112   3.485 -1.4815 -0.9497 -0.1891
 4007SOL     OW23482   3.822   3.376  13.003  0.4485  0.5641 -0.6532
 4007SOL    HW123483   3.783   3.393  12.918 -1.0185 -0.9939 -0.3000
 4007SOL    HW223484   3.768   3.428  13.063  2.1200 -1.4651  2.6557
 4008SOL     OW23485   0.474   3.253   2.477  0.6323 -0.2022  0.0562
 4008SOL    HW123486   0.518   3.284   2.557 -1.0073  2.8423 -0.2188
 4008SOL    HW223487   0.394   3.304   2.494  0.2829 -0.6762 -0.1811
 4009SOL     OW23488   0.766   3.680   4.404  0.6993  0.0100  0.2291
 4009SOL    HW123489   0.786   3.668   4.496  1.2483 -0.1831  0.0839
 4009SOL    HW223490   0.735   3.770   4.402 -3.8174 -1.5560 -0.2348
 4010SOL     OW23491   1.215   1.871   3.320  0.1256 -0.3709  0.0532
 4010SOL    HW123492   1.259   1.848   3.238  1.6383  0.0945  0.7382
 4010SOL    HW223493   1.122   1.880   3.297 -0.0056 -0.2045  0.6570
 4011SOL     OW23494   2.781   1.142   2.389  0.3962 -0.3631 -0.5228
 4011SOL    HW123495   2.866   1.181   2.368  0.1403  0.6516  0.2997
 4011SOL    HW223496   2.745   1.194   2.461 -0.2926  1.6962 -2.3307
 4012SOL     OW23497   1.822   1.806   3.400  0.3171  0.6521  0.1312
 4012SOL    HW123498   1.805   1.729   3.453 -0.0398  0.9866  0.5064
 4012SOL    HW223499   1.803   1.769   3.314  1.3429  0.9263 -0.2178
 4013SOL     OW23500   0.118   2.949   1.247  0.1663  0.4004  0.7229
 4013SOL    HW123501   0.125   2.895   1.326  5.5173 -0.0719 -0.0578
 4013SOL    HW223502   0.029   2.977   1.267 -0.4414 -1.7294  1.0239
 4014SOL     OW23503   1.001   0.818   6.591  0.0736  0.1914  0.4784
 4014SOL    HW123504   1.094   0.806   6.609  0.5764  0.4592 -1.9408
 4014SOL    HW223505   0.995   0.893   6.532  2.7896 -0.7154 -0.9454
 4015SOL     OW23506   0.281   0.792  13.041  0.0506  0.0798  0.2231
 4015SOL    HW123507   0.307   0.760  13.127 -1.4685  1.5986  1.2465
 4015SOL    HW223508   0.269   0.711  12.990 -3.1496  0.2150  0.7836
 4016SOL     OW23509   0.444   1.103   2.997 -0.4273 -0.5807  0.1088
 4016SOL    HW123510   0.518   1.053   3.031  0.2904 -0.8030 -1.8046
 4016SOL    HW223511   0.463   1.085   2.905 -0.5578  0.9898 -0.2275
 4017SOL     OW23512   4.508   2.543   6.987 -0.3933 -0.0588 -0.2731
 4017SOL    HW123513   4.466   2.611   7.040  1.4236  0.4765  0.4769
 4017SOL    HW223514   4.504   2.475   7.054 -2.5654  1.0220  0.7081
 4018SOL     OW23515   4.365   0.631  10.186  0.3247  0.1715  0.1240
 4018SOL    HW123516   4.432   0.652  10.250 -0.8152  2.9869  0.3935
 4018SOL    HW223517   4.394   0.682  10.111 -0.8172 -0.3950 -0.7075
 4019SOL     OW23518   3.132   2.784   6.213 -0.0571 -0.0416  0.6649
 4019SOL    HW123519   3.197   2.821   6.154 -0.1478  2.1346  1.9352
 4019SOL    HW223520   3.092   2.728   6.147  0.4538  2.0127 -1.3593
 4020SOL     OW23521   0.309   2.110  17.365  0.2827  0.1530 -0.2766
 4020SOL    HW123522   0.365   2.148  17.298 -0.5903 -0.0328 -1.1070
 4020SOL    HW223523   0.271   2.190  17.402 -0.3690 -1.3995  2.4025
 4021SOL     OW23524   0.784   4.699   5.829 -1.0772  0.0669  1.1808
 4021SOL    HW123525   0.870   4.685   5.789 -1.5649  1.0886 -0.2085
 4021SOL    HW223526   0.735   0.011   5.754 -0.2525 -0.3366  0.4581
 4022SOL     OW23527   4.494   3.643  16.690  0.9552 -0.3600  0.2051
 4022SOL    HW123528   4.509   3.638  16.596 -0.0770  0.6065 -0.0138
 4022SOL    HW223529   4.532   3.728  16.715  1.2619  0.2235 -2.2051
 4023SOL     OW23530   0.534   3.275   1.398  0.0573 -0.3745 -0.0978
 4023SOL    HW123531   0.538   3.364   1.363 -0.2256 -0.7441 -1.0938
 4023SOL    HW223532   0.623   3.261   1.432 -0.5295 -3.2149  0.2658
 4024SOL     OW23533   4.001   4.111   6.095 -0.2330  0.0930 -0.5115
 4024SOL    HW123534   4.023   4.072   6.180 -2.1618  1.6532  0.6957
 4024SOL    HW223535   4.038   4.198   6.113 -1.6540  0.8087 -0.9860
 4025SOL     OW23536   1.357   3.268   7.356 -0.3617  0.2295 -0.5893
 4025SOL    HW123537   1.273   3.225   7.341  0.2085 -1.1879  0.2608
 4025SOL    HW223538   1.399   3.197   7.406 -0.2762 -0.8532 -2.2208
 4026SOL     OW23539   2.982   4.094  17.000  0.0435  0.0838  0.7622
 4026SOL    HW123540   2.889   4.117  16.998 -0.0746 -0.1763  2.8939
 4026SOL    HW223541   3.015   4.171  17.047  1.8578  0.3846 -1.0268
 4027SOL     OW23542   1.603   4.357   4.296 -0.0057 -0.2309 -0.0685
 4027SOL    HW123543   1.560   4.385   4.215  1.2007  1.9322  0.0600
 4027SOL    HW223544   1.532   4.317   4.348  0.7779 -0.0009  1.1795
 4028SOL     OW23545   2.906   0.404   3.019 -0.8814 -0.0458  0.4442
 4028SOL    HW123546   2.891   0.497   3.001  0.4524 -0.4900 -2.9335
 4028SOL    HW223547   2.877   0.360   2.940 -1.7398 -0.7076  1.1310
 4029SOL     OW23548   1.132   3.554   9.473  0.0083 -0.2804  0.7624
 4029SOL    HW123549   1.073   3.629   9.475 -1.0528 -1.1014 -0.2986
 4029SOL    HW223550   1.088   3.482   9.427 -0.9300 -0.4326  1.8999
 4030SOL     OW23551   4.259   0.981  13.530 -0.1497 -0.2180 -0.2061
 4030SOL    HW123552   4.331   0.942  13.579 -0.6730 -0.3253  0.4798
 4030SOL    HW223553   4.269   1.072  13.559 -1.1009 -0.2886  0.3260
 4031SOL     OW23554   3.925   3.712   1.113 -0.3457  0.0415 -0.6317
 4031SOL    HW123555   3.930   3.735   1.020 -2.0654  0.9997 -0.4864
 4031SOL    HW223556   3.997   3.649   1.128  0.5827  0.5436 -3.0297
 4032SOL     OW23557   2.698   2.286   7.622  0.0071 -0.0193 -0.0748
 4032SOL    HW123558   2.731   2.374   7.601  0.8115 -0.3829 -0.3412
 4032SOL    HW223559   2.606   2.306   7.638  0.1408  1.9978 -1.8567
 4033SOL     OW23560   1.952   2.752  15.432 -0.5702 -0.3550 -0.1333
 4033SOL    HW123561   1.976   2.703  15.510 -0.2985  1.5682  0.9768
 4033SOL    HW223562   1.880   2.701  15.393 -2.1691  0.7499  1.3808
 4034SOL     OW23563   3.412   1.316   3.997  0.3145  0.3578  0.0423
 4034SOL    HW123564   3.455   1.313   4.083 -0.4043 -2.4773  0.2875
 4034SOL    HW223565   3.365   1.233   3.991  0.7951 -0.0014  1.3687
 4035SOL     OW23566   0.630   0.969   5.392 -0.4942  0.1307  0.4552
 4035SOL    HW123567   0.602   0.908   5.324 -0.3606 -1.3154  1.7135
 4035SOL    HW223568   0.706   1.005   5.347 -0.9677  0.2635 -0.2360
 4036SOL     OW23569   0.307   1.111   3.499  0.1117 -0.2204 -1.0128
 4036SOL    HW123570   0.360   1.180   3.460  0.5917  0.9252  1.6530
 4036SOL    HW223571   0.373   1.054   3.538 -0.7479 -0.2615  0.3806
 4037SOL     OW23572   4.541   1.352   5.026 -0.1651 -0.2267 -0.1858
 4037SOL    HW123573   4.616   1.339   5.084  0.6503 -1.4993 -1.5137
 4037SOL    HW223574   4.476   1.292   5.062  0.8495 -1.6700 -0.7656
 4038SOL     OW23575   3.038   0.428   6.409 -0.4722  0.4950 -0.3079
 4038SOL    HW123576   2.977   0.361   6.439  2.3356 -1.7172  0.5286
 4038SOL    HW223577   3.008   0.500   6.464 -2.0662 -1.1126  0.9065
 4039SOL     OW23578   3.601   2.321   6.617  0.0488  0.4562 -0.0957
 4039SOL    HW123579   3.596   2.415   6.604 -0.7530  0.4401  0.1185
 4039SOL    HW223580   3.547   2.314   6.696 -0.2626  0.7346 -0.2872
 4040SOL     OW23581   0.223   3.831   5.877  0.3397  0.7416 -0.1355
 4040SOL    HW123582   0.176   3.912   5.855 -0.5744 -0.0697 -1.1516
 4040SOL    HW223583   0.157   3.776   5.920  0.6224 -1.1706 -2.1313
 4041SOL     OW23584   1.106   2.599   4.782 -0.0818  0.2262  0.0363
 4041SOL    HW123585   1.127   2.692   4.775 -0.5653  0.2830 -0.6562
 4041SOL    HW223586   1.012   2.592   4.794 -0.1635  0.3263 -0.5557
 4042SOL     OW23587   2.742   4.517   3.934  0.4890 -0.1473  0.0942
 4042SOL    HW123588   2.666   4.574   3.922 -0.1292 -1.1337 -0.6708
 4042SOL    HW223589   2.810   4.574   3.899  0.6774 -0.3727  0.0920
 4043SOL     OW23590   0.911   0.971  13.182 -0.4024  0.1269 -0.2246
 4043SOL    HW123591   0.974   0.928  13.238 -1.3295 -2.9121 -1.5147
 4043SOL    HW223592   0.837   0.941  13.234  0.7159 -0.9071  0.7639
 4044SOL     OW23593   3.658   0.909   4.988 -0.4170  0.7066  0.2445
 4044SOL    HW123594   3.707   0.855   4.926 -1.9066 -0.6724  0.2620
 4044SOL    HW223595   3.589   0.848   5.014 -2.5607  2.4744 -1.2717
 4045SOL     OW23596   3.072   0.981  11.168  0.1127  0.1207 -0.3118
 4045SOL    HW123597   3.028   1.049  11.117 -0.9790 -0.7069 -0.4944
 4045SOL    HW223598   3.066   1.018  11.256  1.8040 -1.8408  0.6247
 4046SOL     OW23599   1.761   4.004   6.549  0.1421 -0.2460 -0.5164
 4046SOL    HW123600   1.777   4.093   6.517  0.6025 -0.1328  0.0373
 4046SOL    HW223601   1.705   4.023   6.625  0.1315 -2.6407  0.0633
 4047SOL     OW23602   3.584   3.579   2.689 -0.1174 -0.1845 -0.7217
 4047SOL    HW123603   3.512   3.627   2.731  0.7406  1.3724 -1.0295
 4047SOL    HW223604   3.652   3.613   2.748 -2.0322  2.6374 -0.1194
 4048SOL     OW23605   0.659   1.919   5.517 -0.0180 -0.0764  0.0845
 4048SOL    HW123606   0.697   1.832   5.526 -0.8615 -0.6256 -1.6833
 4048SOL    HW223607   0.688   1.938   5.428 -0.4071  1.5397  0.2841
 4049SOL     OW23608   2.971   4.432  11.670 -0.7184  0.2673  0.2862
 4049SOL    HW123609   2.896   4.468  11.717 -1.1552  0.0937 -0.2693
 4049SOL    HW223610   2.934   4.356  11.625 -1.1534  1.2012 -0.9254
 4050SOL     OW23611   0.350   4.467   3.558  0.1457  0.0907 -0.1798
 4050SOL    HW123612   0.323   4.457   3.650 -1.4274 -1.2184 -0.7881
 4050SOL    HW223613   0.446   4.466   3.561  0.1390 -1.5933 -0.8676
 4051SOL     OW23614   2.282   1.886  13.384 -0.1618  0.2017  0.2044
 4051SOL    HW123615   2.246   1.822  13.322  1.9964  1.0740 -1.9595
 4051SOL    HW223616   2.373   1.856  13.382 -0.6027 -1.2803  3.3788
 4052SOL     OW23617   2.390   1.812   3.187  0.5901  0.2231 -0.4356
 4052SOL    HW123618   2.438   1.804   3.269 -0.6103 -1.4254  0.1090
 4052SOL    HW223619   2.312   1.763   3.212  0.3490  1.2633  0.8528
 4053SOL     OW23620   2.211   3.085  13.878  0.2290  0.0544  0.4143
 4053SOL    HW123621   2.116   3.081  13.867  0.0346 -0.5560  2.4275
 4053SOL    HW223622   2.230   3.179  13.874  1.0747 -0.1723 -0.8878
 4054SOL     OW23623   0.696   0.777   8.848 -0.7825  0.6380  0.5218
 4054SOL    HW123624   0.663   0.785   8.938 -0.4057  0.9284  0.6394
 4054SOL    HW223625   0.733   0.688   8.848 -0.3911  0.7938  1.8415
 4055SOL     OW23626   2.063   0.457   1.827 -0.0255 -0.0862 -0.1742
 4055SOL    HW123627   2.087   0.452   1.920  1.9675 -0.0166 -0.6652
 4055SOL    HW223628   2.030   0.546   1.829 -0.4188 -0.2195 -0.7759
 4056SOL     OW23629   1.740   0.076   1.546  0.4099  0.8405 -0.3827
 4056SOL    HW123630   1.737   0.109   1.457 -1.3826 -1.5444 -1.2021
 4056SOL    HW223631   1.656   0.110   1.575 -0.1433 -1.1072  0.3081
 4057SOL     OW23632   1.294   0.747   2.625  0.0520  0.5987  0.6054
 4057SOL    HW123633   1.355   0.817   2.645  0.1884 -0.0476  2.5018
 4057SOL    HW223634   1.215   0.791   2.595  1.0140  1.6038 -0.4533
 4058SOL     OW23635   0.910   4.374   5.031  0.0108 -0.2396 -0.7748
 4058SOL    HW123636   0.992   4.328   5.047  0.1540  1.0832  2.3363
 4058SOL    HW223637   0.934   4.467   5.041  0.9440 -0.8769  2.6382
 4059SOL     OW23638   1.144   4.185   4.264 -0.1749  0.0049 -0.3279
 4059SOL    HW123639   1.155   4.107   4.318 -1.2686  0.5703  0.7075
 4059SOL    HW223640   1.157   4.144   4.178  2.3194  1.2719 -0.5513
 4060SOL     OW23641   1.529   3.128  13.359  0.1532 -0.4762  0.9777
 4060SOL    HW123642   1.619   3.157  13.342 -0.2978  0.9094  0.9101
 4060SOL    HW223643   1.520   3.129  13.454 -1.6262  1.5957  0.7919
 4061SOL     OW23644   2.038   0.476   7.105  0.4278  0.1155 -0.4878
 4061SOL    HW123645   1.979   0.425   7.049 -1.0664 -0.5249  1.6726
 4061SOL    HW223646   1.970   0.512   7.162 -0.5099 -1.5558 -0.5654
 4062SOL     OW23647   3.042   4.052   9.848  0.3667 -0.1069  0.7110
 4062SOL    HW123648   3.058   3.993   9.774 -0.3271  0.3104  0.2311
 4062SOL    HW223649   3.081   4.000   9.918  2.3181 -1.0094 -1.0433
 4063SOL     OW23650   1.156   0.821   0.616 -0.5712 -0.0234  0.0243
 4063SOL    HW123651   1.063   0.808   0.635 -0.3559 -0.2665  0.9263
 4063SOL    HW223652   1.171   0.902   0.665 -2.5171  0.1552  0.3349
 4064SOL     OW23653   2.551   4.289   9.918 -0.0300 -0.4900 -0.3644
 4064SOL    HW123654   2.633   4.250   9.888  0.6981 -0.7010  1.8939
 4064SOL    HW223655   2.554   4.268  10.012  2.0257  1.3902 -0.0278
 4065SOL     OW23656   1.813   0.049  16.863 -0.3870  0.2246  0.0039
 4065SOL    HW123657   1.835   0.126  16.811 -0.6753  0.6170  0.4596
 4065SOL    HW223658   1.806   4.710  16.789 -0.8287 -1.9156  1.8061
 4066SOL     OW23659   1.295   3.261  12.665 -0.0817 -0.3749 -0.3370
 4066SOL    HW123660   1.379   3.216  12.655  0.4933  0.7041 -0.3610
 4066SOL    HW223661   1.285   3.282  12.758 -0.4584  3.3644 -1.2595
 4067SOL     OW23662   3.708   1.894   8.767  0.4494 -0.6002 -0.0318
 4067SOL    HW123663   3.674   1.850   8.845  1.1651  0.8358  1.0866
 4067SOL    HW223664   3.797   1.859   8.764  0.4556 -0.5579 -0.3072
 4068SOL     OW23665   1.085   3.268   5.108  0.5292 -0.3101  0.2888
 4068SOL    HW123666   1.122   3.296   5.192 -0.3544 -0.1640  0.6285
 4068SOL    HW223667   1.141   3.324   5.054  0.2602 -1.3480 -1.0653
 4069SOL     OW23668   0.780   1.726   3.206 -0.3039 -0.3260 -0.4089
 4069SOL    HW123669   0.861   1.758   3.167  0.6351 -0.2767  1.5813
 4069SOL    HW223670   0.737   1.678   3.136 -2.3852  3.5393 -1.7768
 4070SOL     OW23671   2.890   4.010   6.676 -0.3701  0.3383  0.2840
 4070SOL    HW123672   2.953   4.023   6.605 -0.1617 -0.7292  0.2721
 4070SOL    HW223673   2.814   3.965   6.637 -0.1316 -0.0543  0.2713
 4071SOL     OW23674   1.277   1.558   4.193 -0.4375  0.4078  0.5035
 4071SOL    HW123675   1.296   1.465   4.181  0.5492  0.9100 -1.8484
 4071SOL    HW223676   1.309   1.581   4.281 -0.3909 -0.5576  0.7332
 4072SOL     OW23677   1.804   4.440  13.166  0.0529 -1.0400  0.7391
 4072SOL    HW123678   1.768   4.512  13.217  2.5797  1.0223 -0.4120
 4072SOL    HW223679   1.893   4.470  13.146 -0.5936  1.3092  1.3977
 4073SOL     OW23680   4.182   3.354   6.828 -0.4267  0.1109 -0.1810
 4073SOL    HW123681   4.232   3.436   6.827  0.1488 -0.2215  0.8111
 4073SOL    HW223682   4.094   3.387   6.843 -0.0282  0.4802  1.3628
 4074SOL     OW23683   1.402   3.920   9.348  0.1199  0.2126  0.2188
 4074SOL    HW123684   1.394   4.014   9.364  1.1747  0.1070  1.3996
 4074SOL    HW223685   1.310   3.895   9.363  0.1476  0.1006  0.2079
 4075SOL     OW23686   4.091   4.369   6.141  0.1925 -0.2296  0.2208
 4075SOL    HW123687   4.132   4.396   6.059  0.4204 -1.8035 -0.1899
 4075SOL    HW223688   4.052   4.447   6.180  0.7001 -1.6920  3.7170
 4076SOL     OW23689   2.818   0.112   3.954 -0.2532 -0.1614  0.1462
 4076SOL    HW123690   2.864   0.168   3.892 -0.6358  0.4789  0.4368
 4076SOL    HW223691   2.738   0.162   3.969 -0.0920 -0.1517  1.0080
 4077SOL     OW23692   3.152   3.950   2.980 -0.3122 -0.2449  0.6020
 4077SOL    HW123693   3.070   3.980   3.018 -0.7022  0.8149 -1.0921
 4077SOL    HW223694   3.143   3.855   2.985  0.2444 -0.3642 -0.6792
 4078SOL     OW23695   0.698   0.589  10.425  0.1371  0.1472  0.0287
 4078SOL    HW123696   0.644   0.550  10.356  1.2290 -1.0728 -0.1519
 4078SOL    HW223697   0.649   0.554  10.499  0.7730 -0.7330  0.0390
 4079SOL     OW23698   1.505   2.747  11.343 -0.5421 -0.2148 -0.3854
 4079SOL    HW123699   1.474   2.837  11.352 -1.1872 -0.4122 -0.6807
 4079SOL    HW223700   1.584   2.740  11.397 -0.0701 -3.0501 -1.4727
 4080SOL     OW23701   2.773   0.937   9.275  0.3881 -0.3316 -0.0493
 4080SOL    HW123702   2.756   0.846   9.297  1.2985 -0.0554  1.7915
 4080SOL    HW223703   2.737   0.948   9.187 -0.2074  0.6195  0.3051
 4081SOL     OW23704   4.209   4.463   7.615  0.1564  0.5144  0.1446
 4081SOL    HW123705   4.136   4.514   7.650  0.2942  0.6685  0.2042
 4081SOL    HW223706   4.158   4.404   7.559 -1.6511  1.8726  0.3530
 4082SOL     OW23707   3.527   1.199   8.130  0.5492 -0.1812 -0.1803
 4082SOL    HW123708   3.565   1.186   8.044 -1.9627 -0.4780 -1.2315
 4082SOL    HW223709   3.440   1.236   8.118 -0.0633 -1.6240 -0.1748
 4083SOL     OW23710   2.345   1.339   1.342  0.4515  0.1752 -0.1486
 4083SOL    HW123711   2.418   1.328   1.403 -0.2270 -0.6574  0.5152
 4083SOL    HW223712   2.292   1.263   1.365  0.1282  1.4608  3.2507
 4084SOL     OW23713   1.057   0.750  10.557 -0.2765 -0.4573  0.1821
 4084SOL    HW123714   1.038   0.766  10.650  1.0672 -1.2453  0.6015
 4084SOL    HW223715   1.067   0.655  10.561 -1.7471 -0.5427  1.7120
 4085SOL     OW23716   0.566   2.368   5.373  0.5879 -0.1809  0.0126
 4085SOL    HW123717   0.472   2.385   5.368  0.3398 -0.9503  2.0232
 4085SOL    HW223718   0.573   2.302   5.442 -0.8879  2.5294  2.7356
 4086SOL     OW23719   1.388   0.308  14.660  0.1934 -0.4201 -0.4192
 4086SOL    HW123720   1.316   0.248  14.637 -0.2519  0.5248 -1.5267
 4086SOL    HW223721   1.458   0.265  14.612  2.2669  1.7615  0.6615
 4087SOL     OW23722   2.204   1.605   7.335  0.0876  0.3550  0.2340
 4087SOL    HW123723   2.114   1.636   7.344  0.1323  0.6141 -0.2315
 4087SOL    HW223724   2.257   1.663   7.390  0.0351  0.6088  0.0154
 4088SOL     OW23725   3.920   0.121   8.636 -0.3122  0.6068  0.4577
 4088SOL    HW123726   3.856   0.157   8.697 -1.0395 -0.7962  0.5259
 4088SOL    HW223727   3.928   0.039   8.685 -2.1208 -0.3614 -0.8724
 4089SOL     OW23728   2.241   3.512   6.491  0.1086 -0.0322  0.6936
 4089SOL    HW123729   2.157   3.467   6.502  0.4506 -0.7383  0.4399
 4089SOL    HW223730   2.288   3.448   6.545 -0.2887 -0.8295  0.0912
 4090SOL     OW23731   0.310   1.409   7.460 -0.1617  0.0374 -0.1593
 4090SOL    HW123732   0.259   1.402   7.379 -1.1689 -2.5405  0.6885
 4090SOL    HW223733   0.398   1.396   7.423 -0.3896  0.0467 -0.7024
 4091SOL     OW23734   4.533   3.537   3.452 -0.7311 -0.2087 -0.5152
 4091SOL    HW123735   4.462   3.497   3.502  0.0235 -0.8286  0.0854
 4091SOL    HW223736   4.508   3.548   3.361 -1.9287 -2.6790 -0.4896
 4092SOL     OW23737   1.817   2.028   7.763 -0.0347  0.4180 -0.5085
 4092SOL    HW123738   1.822   2.121   7.783  0.4185 -0.1512  1.9327
 4092SOL    HW223739   1.801   2.038   7.669 -0.3053  1.6471 -0.3226
 4093SOL     OW23740   1.500   3.205   8.413  0.2636  0.1996  0.1912
 4093SOL    HW123741   1.542   3.173   8.332 -1.2749  0.8973 -0.8781
 4093SOL    HW223742   1.572   3.212   8.475  1.3327 -1.3140 -0.8854
 4094SOL     OW23743   0.639   0.406  14.271 -1.0782  0.4269 -0.1719
 4094SOL    HW123744   0.567   0.461  14.241 -0.3311 -0.3739 -3.4635
 4094SOL    HW223745   0.713   0.467  14.271  0.5298 -1.4885 -1.5985
 4095SOL     OW23746   3.668   2.245  13.850 -0.4844  0.0053 -0.0674
 4095SOL    HW123747   3.733   2.297  13.803 -0.0674  0.6408  1.2066
 4095SOL    HW223748   3.730   2.176  13.875 -0.0119  0.6038  0.4010
 4096SOL     OW23749   0.395   0.504   2.576 -0.2721  0.0628 -0.3112
 4096SOL    HW123750   0.438   0.444   2.515  0.0179  1.0154 -1.0545
 4096SOL    HW223751   0.458   0.516   2.647  0.8058 -3.4990 -0.6752
 4097SOL     OW23752   4.276   2.650   6.629 -0.4069 -0.0774 -0.1791
 4097SOL    HW123753   4.338   2.596   6.581 -1.0537 -1.3518  0.4289
 4097SOL    HW223754   4.269   2.601   6.711  0.9988 -2.3134 -1.3964
 4098SOL     OW23755   3.890   0.517  14.715  0.9762 -0.1290 -0.1600
 4098SOL    HW123756   3.962   0.561  14.670  2.9385 -2.0076  1.1746
 4098SOL    HW223757   3.825   0.528  14.645  2.2532  1.8444 -1.0490
 4099SOL     OW23758   4.403   1.504  12.512  0.3253 -0.2077  0.8156
 4099SOL    HW123759   4.412   1.413  12.484  1.6689 -0.3814  1.8011
 4099SOL    HW223760   4.493   1.526  12.536  1.2336 -4.4583  1.3724
 4100SOL     OW23761   2.951   2.669   8.729  0.4488  0.1948  0.4961
 4100SOL    HW123762   2.877   2.635   8.780  0.6333  1.1263  1.3927
 4100SOL    HW223763   2.979   2.744   8.781  0.3061 -0.4340  1.4737
 4101SOL     OW23764   0.068   2.660  16.430  0.3630  0.2717  0.7592
 4101SOL    HW123765   0.120   2.589  16.392 -0.7759 -2.0515  3.5235
 4101SOL    HW223766   0.095   2.726  16.366  1.2412 -0.2724  0.5630
 4102SOL     OW23767   0.284   3.804  17.568 -0.2304  0.9207 -0.4117
 4102SOL    HW123768   0.324   3.870  17.512 -1.3385 -1.1644 -3.6339
 4102SOL    HW223769   0.335   3.812  17.649  2.0863 -2.4270 -1.5270
 4103SOL     OW23770   1.845   1.510   7.605 -0.8508  0.4302 -0.8322
 4103SOL    HW123771   1.857   1.583   7.666 -0.3340 -0.6411  0.3628
 4103SOL    HW223772   1.770   1.544   7.556 -1.0967  0.9083 -0.1289
 4104SOL     OW23773   3.275   0.549   2.166 -0.0094 -0.0795  0.0130
 4104SOL    HW123774   3.317   0.486   2.108 -1.5281  0.0986 -1.2815
 4104SOL    HW223775   3.197   0.497   2.185 -1.5762  1.6871 -1.5770
 4105SOL     OW23776   2.229   2.944   7.134  0.3247 -0.2773  0.2878
 4105SOL    HW123777   2.289   2.900   7.194  0.2943  0.1225  0.6069
 4105SOL    HW223778   2.297   2.998   7.094 -0.9222 -1.2659 -3.1772
 4106SOL     OW23779   0.372   3.581   0.107  0.4579 -0.1668 -0.1964
 4106SOL    HW123780   0.428   3.588   0.030  0.6953  1.3624  0.1252
 4106SOL    HW223781   0.364   3.673   0.132  0.4793 -0.1422 -0.2802
 4107SOL     OW23782   3.305   1.214  13.022  0.1087 -0.0136 -0.6063
 4107SOL    HW123783   3.229   1.157  13.034  1.3284 -1.8594 -1.7397
 4107SOL    HW223784   3.339   1.211  13.112  0.5813  2.2456 -0.7139
 4108SOL     OW23785   0.408   3.822   7.254 -0.4658 -0.0760  0.1677
 4108SOL    HW123786   0.469   3.749   7.248  2.5358  2.6936 -3.5090
 4108SOL    HW223787   0.467   3.889   7.287  0.5606 -0.2809 -1.2419
 4109SOL     OW23788   1.039   1.322   1.443  0.4581  0.1174 -0.9220
 4109SOL    HW123789   1.085   1.243   1.416 -0.4013 -0.6244 -0.1933
 4109SOL    HW223790   0.954   1.293   1.410  0.9369 -1.6013 -0.6356
 4110SOL     OW23791   2.544   4.153   6.282  0.2138 -0.0129  0.5072
 4110SOL    HW123792   2.526   4.170   6.374  4.4448 -0.4970  1.4443
 4110SOL    HW223793   2.456   4.142   6.246  1.0669 -2.1749 -0.9512
 4111SOL     OW23794   4.241   1.957   0.521 -0.0659 -0.1134  0.3725
 4111SOL    HW123795   4.245   1.985   0.613  0.7100  2.4515 -0.4228
 4111SOL    HW223796   4.307   1.888   0.512  0.9675  0.5979  2.2369
 4112SOL     OW23797   4.631   4.345   6.120 -0.1684 -0.0428  0.3203
 4112SOL    HW123798   4.698   4.278   6.108 -0.1692 -0.1541  0.9513
 4112SOL    HW223799   4.672   4.431   6.119 -0.3898  0.0649  0.5604
 4113SOL     OW23800   4.561   0.167  14.702  0.3418 -0.4572  0.2363
 4113SOL    HW123801   4.577   0.083  14.745  0.8652 -0.2849  0.3719
 4113SOL    HW223802   4.614   0.140  14.627 -1.9868 -1.2680 -1.1144
 4114SOL     OW23803   4.212   2.583   3.898  0.3959  0.0639 -0.3826
 4114SOL    HW123804   4.169   2.662   3.931  1.0492  0.6565 -0.9527
 4114SOL    HW223805   4.196   2.534   3.979  1.7212 -1.3669 -0.9877
 4115SOL     OW23806   4.536   1.514   6.534  0.4573 -0.0488  0.3499
 4115SOL    HW123807   4.566   1.431   6.496 -1.9946 -0.6714 -0.2598
 4115SOL    HW223808   4.552   1.571   6.459  1.0644 -2.5787 -1.4504
 4116SOL     OW23809   2.674   1.979   9.050  0.2855  0.7836 -0.1234
 4116SOL    HW123810   2.765   1.950   9.039  0.1494  0.7325 -1.0761
 4116SOL    HW223811   2.674   2.043   9.121  1.0898  0.1516  0.4527
 4117SOL     OW23812   4.207   1.198   2.308  0.1731  0.6823  0.0554
 4117SOL    HW123813   4.258   1.233   2.235  0.7181  0.0227  0.1197
 4117SOL    HW223814   4.175   1.284   2.336 -0.2273  0.5339  0.0571
 4118SOL     OW23815   0.709   3.222   8.071 -0.0495  0.2944 -0.1050
 4118SOL    HW123816   0.685   3.314   8.067 -0.5806  0.2276  1.6342
 4118SOL    HW223817   0.709   3.193   7.980  0.7290  1.0581 -0.3466
 4119SOL     OW23818   3.125   1.529   0.544  0.5070  0.0109  0.2599
 4119SOL    HW123819   3.060   1.599   0.543 -0.8200 -1.2358 -0.7662
 4119SOL    HW223820   3.154   1.520   0.635 -1.1149 -0.8370  0.6899
 4120SOL     OW23821   3.253   2.819   6.520  0.3869  0.1370 -0.0459
 4120SOL    HW123822   3.264   2.770   6.439 -0.2657  0.8099 -0.5402
 4120SOL    HW223823   3.341   2.856   6.533 -0.1183  1.3561 -0.1118
 4121SOL     OW23824   1.608   3.343  15.810 -0.6402 -0.0622 -0.0248
 4121SOL    HW123825   1.695   3.329  15.772 -0.0908  2.2452  0.4361
 4121SOL    HW223826   1.614   3.296  15.894  1.5142 -1.1356 -0.7651
 4122SOL     OW23827   1.491   3.123   4.230 -0.0603  0.1216  0.6064
 4122SOL    HW123828   1.421   3.170   4.274  0.9720  1.9650  0.3035
 4122SOL    HW223829   1.502   3.171   4.148 -1.3640 -3.0290 -1.3957
 4123SOL     OW23830   1.607   2.550   8.022  0.6501 -0.6378 -0.4862
 4123SOL    HW123831   1.520   2.586   8.008  1.2791  0.8107 -0.6055
 4123SOL    HW223832   1.581   2.458   8.029  0.3247 -0.8217 -4.2903
 4124SOL     OW23833   3.840   3.219   2.687  0.1503 -0.5826 -0.8721
 4124SOL    HW123834   3.864   3.211   2.594  0.7872 -1.3217 -0.6510
 4124SOL    HW223835   3.748   3.244   2.692  0.2374 -0.2460 -0.9212
 4125SOL     OW23836   1.909   4.711  13.894 -0.3923 -0.3598 -0.5271
 4125SOL    HW123837   1.941   4.684  13.808 -0.2735  1.4312 -1.0561
 4125SOL    HW223838   1.975   4.656  13.936 -0.5546 -0.0631  0.1139
 4126SOL     OW23839   2.895   2.264   9.507  0.3485 -0.2462  0.1834
 4126SOL    HW123840   2.910   2.247   9.413 -2.3057 -1.0638 -0.0746
 4126SOL    HW223841   2.968   2.323   9.525  0.9382 -0.6868 -0.7169
 4127SOL     OW23842   1.681   1.578   6.367  0.1123 -0.2556  0.7884
 4127SOL    HW123843   1.662   1.490   6.400  1.1762 -0.6110  0.4541
 4127SOL    HW223844   1.777   1.574   6.372  0.1575 -1.4527 -0.7444
 4128SOL     OW23845   2.394   0.723   3.980 -0.0298 -0.2381 -0.3611
 4128SOL    HW123846   2.398   0.818   3.996 -0.5417  0.4175 -4.2767
 4128SOL    HW223847   2.479   0.692   4.012 -0.0461  1.2388  1.0927
 4129SOL     OW23848   2.337   3.995   2.213 -0.1810 -0.3011  0.3344
 4129SOL    HW123849   2.330   4.035   2.126  0.7455 -0.2840  0.2727
 4129SOL    HW223850   2.259   4.032   2.253 -0.5532  1.7468 -2.2757
 4130SOL     OW23851   1.700   1.981   0.993 -0.1796  0.4300 -0.2670
 4130SOL    HW123852   1.768   1.916   0.978 -1.9783 -1.8843  1.7221
 4130SOL    HW223853   1.718   2.059   0.940  0.5308 -0.7536 -1.7716
 4131SOL     OW23854   1.369   4.215   3.519  0.6766 -0.1366  0.0673
 4131SOL    HW123855   1.441   4.212   3.456 -0.1539 -0.7216 -0.8795
 4131SOL    HW223856   1.339   4.302   3.493  1.8229 -0.5441 -2.6524
 4132SOL     OW23857   1.669   3.983  10.352  0.3933 -0.0421 -0.0828
 4132SOL    HW123858   1.643   3.969  10.260  0.2974 -2.4159  0.3133
 4132SOL    HW223859   1.622   4.066  10.357 -0.0266 -0.2980  0.1718
 4133SOL     OW23860   4.318   4.545   4.214  0.8893 -0.0051  0.9469
 4133SOL    HW123861   4.309   4.626   4.265  0.3494  0.5861 -0.0846
 4133SOL    HW223862   4.398   4.509   4.252  1.4472  0.8542  0.5910
 4134SOL     OW23863   2.642   2.629  16.058  0.7224  0.0229 -0.2763
 4134SOL    HW123864   2.732   2.598  16.070 -0.2560 -2.7744 -0.1912
 4134SOL    HW223865   2.645   2.671  15.972 -0.6145 -0.1920 -0.4327
 4135SOL     OW23866   3.619   2.320   1.738  0.0597  0.5842  0.0556
 4135SOL    HW123867   3.642   2.230   1.716 -0.4012  0.4087  0.2870
 4135SOL    HW223868   3.561   2.305   1.813 -2.1302  2.7472 -1.2052
 4136SOL     OW23869   3.220   1.508   4.055 -0.6059 -0.0007 -0.7544
 4136SOL    HW123870   3.253   1.584   4.007 -0.2364 -1.0537 -2.1773
 4136SOL    HW223871   3.269   1.436   4.014 -0.3602 -0.6505  0.6708
 4137SOL     OW23872   1.750   1.470   2.940  0.3241 -0.1828  0.3621
 4137SOL    HW123873   1.669   1.420   2.936  0.9405 -1.1904  0.3805
 4137SOL    HW223874   1.715   1.558   2.955 -0.3064 -0.0769 -1.7597
 4138SOL     OW23875   3.094   3.038   0.807  0.5596  0.1748  0.5768
 4138SOL    HW123876   3.127   2.951   0.827 -1.2854 -0.5891  0.3139
 4138SOL    HW223877   3.003   3.012   0.791  1.1118 -2.0251  0.9478
 4139SOL     OW23878   1.830   3.712   5.778  0.6720 -0.3331  0.5485
 4139SOL    HW123879   1.813   3.803   5.751  2.4447 -0.1599 -0.0143
 4139SOL    HW223880   1.869   3.678   5.697  0.7374  0.1061  0.3964
 4140SOL     OW23881   0.558   2.678  15.755  0.5821 -0.0846  0.4373
 4140SOL    HW123882   0.585   2.625  15.680 -0.0667 -0.6835  0.6289
 4140SOL    HW223883   0.465   2.678  15.735  0.7374 -0.3628 -0.2867
 4141SOL     OW23884   2.982   3.415   2.177 -0.1451 -0.4022  0.4799
 4141SOL    HW123885   2.975   3.346   2.243  0.2541  0.1432  1.0856
 4141SOL    HW223886   2.942   3.489   2.223 -0.4155 -0.3128  0.1036
 4142SOL     OW23887   1.689   3.142   2.415 -0.0549  0.3815  0.1028
 4142SOL    HW123888   1.753   3.173   2.351 -0.8913  0.7594 -0.5458
 4142SOL    HW223889   1.637   3.222   2.426 -0.6387  0.1138 -0.7114
 4143SOL     OW23890   3.664   1.196  14.019 -0.6583  0.1347 -0.1999
 4143SOL    HW123891   3.749   1.175  14.057 -1.1486 -2.1838 -0.3981
 4143SOL    HW223892   3.660   1.285  14.054 -1.9998  0.8031 -2.0188
 4144SOL     OW23893   2.129   3.927  12.166 -0.1565  0.3174  0.0073
 4144SOL    HW123894   2.193   3.899  12.232 -0.4584  0.1426  0.2320
 4144SOL    HW223895   2.156   4.017  12.150 -2.1116  0.7539 -0.8048
 4145SOL     OW23896   4.614   2.312   5.306  0.5498 -0.4447  0.1183
 4145SOL    HW123897   4.543   2.248   5.296  1.5367 -1.5241  0.1196
 4145SOL    HW223898   4.588   2.356   5.387 -0.7421  0.3345 -0.7142
 4146SOL     OW23899   0.426   3.424   0.348 -0.3410 -0.0686 -0.1364
 4146SOL    HW123900   0.398   3.456   0.262 -1.6934  4.0617  1.8317
 4146SOL    HW223901   0.355   3.365   0.371 -0.9157 -0.4024 -2.7761
 4147SOL     OW23902   2.826   3.742   7.120  0.4833  0.4467 -0.5946
 4147SOL    HW123903   2.851   3.661   7.163  0.7396 -0.3708 -2.2850
 4147SOL    HW223904   2.886   3.809   7.153  1.5192 -0.3949 -0.7825
 4148SOL     OW23905   4.328   3.982   2.179  0.2118  0.4328 -0.0356
 4148SOL    HW123906   4.242   3.943   2.194  1.3622 -2.7801 -1.6847
 4148SOL    HW223907   4.345   3.969   2.086 -2.0593 -0.7714 -0.2791
 4149SOL     OW23908   0.095   3.570  10.237  0.1405  0.0712  0.6777
 4149SOL    HW123909   0.175   3.560  10.289  0.2937 -1.3358  0.1571
 4149SOL    HW223910   0.034   3.594  10.307 -3.2797  0.2546 -2.3539
 4150SOL     OW23911   1.283   1.575  10.400 -0.2588 -0.1089  0.2319
 4150SOL    HW123912   1.356   1.627  10.434  0.9399 -1.7627  0.2031
 4150SOL    HW223913   1.334   1.496  10.380 -3.7607 -1.6234 -2.7050
 4151SOL     OW23914   1.318   0.607   3.521  0.1096 -0.3426  0.3962
 4151SOL    HW123915   1.328   0.700   3.500  0.3044 -0.3944  0.2633
 4151SOL    HW223916   1.405   0.589   3.556  0.2736 -0.0521  0.1386
 4152SOL     OW23917   3.864   4.332   9.775  0.5688 -0.0992 -0.5399
 4152SOL    HW123918   3.769   4.324   9.784  0.2806  2.2591 -1.5334
 4152SOL    HW223919   3.885   4.240   9.794 -1.8568 -0.0271  2.4805
 4153SOL     OW23920   1.404   2.365   3.208 -0.8826  0.7026  0.2609
 4153SOL    HW123921   1.450   2.443   3.240 -0.8720  0.3533  1.1030
 4153SOL    HW223922   1.326   2.375   3.262 -1.2325 -0.7684  0.0234
 4154SOL     OW23923   3.141   1.258   1.581 -0.6319  0.4713 -0.1780
 4154SOL    HW123924   3.212   1.322   1.575 -0.3174  0.0783 -0.6486
 4154SOL    HW223925   3.080   1.284   1.511  0.1247  1.0591 -0.6215
 4155SOL     OW23926   1.621   3.275   6.605  0.2537  0.2335 -0.1391
 4155SOL    HW123927   1.536   3.239   6.630  0.2730  0.4485  0.2324
 4155SOL    HW223928   1.599   3.303   6.516  0.4659  2.3588  0.4788
 4156SOL     OW23929   1.158   0.864   2.389  0.3017 -0.7342  0.0169
 4156SOL    HW123930   1.164   0.944   2.338 -1.8474 -1.1463 -0.8884
 4156SOL    HW223931   1.065   0.843   2.373  0.1059 -0.8194  1.2871
 4157SOL     OW23932   2.548   4.225  10.193  0.0458  0.3642 -0.1545
 4157SOL    HW123933   2.583   4.258  10.275 -1.8178  0.1216  0.7247
 4157SOL    HW223934   2.485   4.159  10.223 -0.5697  0.7338 -0.6177
 4158SOL     OW23935   3.447   0.281   7.730 -0.1907 -0.2183  0.8118
 4158SOL    HW123936   3.478   0.276   7.640  0.9607  0.0702  1.1919
 4158SOL    HW223937   3.379   0.342   7.703 -0.1377 -0.8087 -0.6544
 4159SOL     OW23938   3.884   0.339  12.926 -0.1063  0.2849  0.3340
 4159SOL    HW123939   3.828   0.305  12.995 -2.0436  0.8525 -0.9722
 4159SOL    HW223940   3.858   0.292  12.847 -0.6351  3.3685 -1.3185
 4160SOL     OW23941   0.607   0.496   3.030  0.3356 -0.6246  0.5925
 4160SOL    HW123942   0.701   0.511   3.018  0.2673 -1.2119 -0.6571
 4160SOL    HW223943   0.599   0.423   3.091 -3.0496 -0.0694  0.8369
 4161SOL     OW23944   1.291   2.674   5.853 -0.3168  0.3965  0.7151
 4161SOL    HW123945   1.350   2.711   5.787 -0.0909  0.5683  1.0136
 4161SOL    HW223946   1.259   2.593   5.813  0.7611 -0.4653  1.5618
 4162SOL     OW23947   4.243   0.687   8.529  0.0570 -0.0789 -0.0645
 4162SOL    HW123948   4.166   0.694   8.586 -0.0400  0.0494 -0.2145
 4162SOL    HW223949   4.293   0.618   8.574  0.9903  0.7190  0.1201
 4163SOL     OW23950   2.985   0.468  16.353 -0.0373 -0.0408  0.3269
 4163SOL    HW123951   3.024   0.538  16.405  0.1677 -0.3189  0.5448
 4163SOL    HW223952   2.902   0.453  16.398 -1.6705 -2.3766 -3.4994
 4164SOL     OW23953   0.707   0.422  15.573  0.6757 -0.7023 -0.8647
 4164SOL    HW123954   0.626   0.451  15.615  0.6343  0.2772 -1.6132
 4164SOL    HW223955   0.760   0.382  15.642 -0.5175  0.6121  0.8364
 4165SOL     OW23956   3.635   0.286   5.628  0.3495 -0.5417  0.0656
 4165SOL    HW123957   3.568   0.277   5.696  0.9076 -1.3597  0.4926
 4165SOL    HW223958   3.714   0.308   5.677  0.1894  0.7984 -0.2589
 4166SOL     OW23959   0.562   1.029  10.322 -0.3826  0.7333  0.7793
 4166SOL    HW123960   0.518   1.094  10.266  0.3241  0.3954 -0.1803
 4166SOL    HW223961   0.516   0.951  10.293  1.0812 -0.5091  1.7822
 4167SOL     OW23962   3.922   3.621   5.946  0.1110 -0.0828 -0.0504
 4167SOL    HW123963   4.010   3.650   5.923  0.2482 -0.5157 -0.0628
 4167SOL    HW223964   3.942   3.529   5.934  0.2437  0.3530 -3.0444
 4168SOL     OW23965   3.502   3.764  16.326 -0.1295 -0.1883  0.4312
 4168SOL    HW123966   3.485   3.858  16.318  1.5692  0.0236 -0.6541
 4168SOL    HW223967   3.416   3.722  16.322 -1.2660  2.1980 -0.5094
 4169SOL     OW23968   2.134   0.295   4.651 -0.2564 -0.6276  0.0191
 4169SOL    HW123969   2.083   0.253   4.581 -1.1328  0.7909 -0.1869
 4169SOL    HW223970   2.215   0.312   4.602 -0.3905  2.3250  0.8281
 4170SOL     OW23971   4.519   2.497   1.591 -0.4893  0.3002 -0.0225
 4170SOL    HW123972   4.604   2.495   1.635 -1.4100  0.1590  1.7140
 4170SOL    HW223973   4.547   2.455   1.510  2.8723 -0.2308  1.4108
 4171SOL     OW23974   1.420   4.522  12.928 -0.1337 -0.0559 -0.0498
 4171SOL    HW123975   1.340   4.536  12.979  0.8636  2.1344  0.8963
 4171SOL    HW223976   1.373   4.465  12.867 -3.4338  2.9466 -0.3042
 4172SOL     OW23977   2.892   0.772   2.704  0.1678 -0.2427 -0.6188
 4172SOL    HW123978   2.972   0.804   2.661  0.8364  0.5261  1.2018
 4172SOL    HW223979   2.895   0.679   2.682  1.1212 -0.3253 -0.1643
 4173SOL     OW23980   0.190   1.035   4.688 -0.0818 -0.4141  0.2324
 4173SOL    HW123981   0.155   1.102   4.745  0.2868  0.2470 -0.3226
 4173SOL    HW223982   0.130   1.048   4.614  2.5337  1.1218 -1.6222
 4174SOL     OW23983   0.305   3.705   8.773 -0.0503 -0.3739  0.1500
 4174SOL    HW123984   0.254   3.779   8.807 -1.7493 -0.2920 -2.5604
 4174SOL    HW223985   0.344   3.661   8.848 -0.8207 -0.2700  0.6207
 4175SOL     OW23986   2.024   2.586   6.824  0.2292  0.0748 -0.4371
 4175SOL    HW123987   1.944   2.619   6.864  0.4561  1.3801 -1.0474
 4175SOL    HW223988   2.088   2.646   6.863 -0.6177  0.2238  0.7092
 4176SOL     OW23989   0.276   1.976  15.966 -0.0416  0.7585 -0.4971
 4176SOL    HW123990   0.310   1.941  15.883  1.4396  1.0528 -0.0266
 4176SOL    HW223991   0.345   2.037  15.993  0.5783 -0.7200  1.2560
 4177SOL     OW23992   3.552   4.565   2.033 -1.0674 -0.1664  0.0448
 4177SOL    HW123993   3.616   4.571   1.963 -0.9239 -2.4581 -0.0137
 4177SOL    HW223994   3.543   4.471   2.049 -0.3345 -0.3253 -0.4929
 4178SOL     OW23995   1.838   2.281   2.949  0.2282  0.6246  0.4090
 4178SOL    HW123996   1.838   2.372   2.981 -1.0074  0.5505  0.6063
 4178SOL    HW223997   1.838   2.231   3.030 -1.0846  2.4209  1.5319
 4179SOL     OW23998   1.750   0.232   6.662  0.1285  0.6803  0.0753
 4179SOL    HW123999   1.837   0.264   6.638  0.9319 -0.5333  1.3004
 4179SOL    HW224000   1.767   0.189   6.746  2.9735 -0.2546 -0.9944
 4180SOL     OW24001   0.209   0.943   3.058  0.6653 -0.2398  0.7556
 4180SOL    HW124002   0.208   0.907   3.147 -1.8131 -0.4272  0.6598
 4180SOL    HW224003   0.284   1.002   3.057  1.5023 -1.3355 -0.3808
 4181SOL     OW24004   1.592   1.054   5.840 -0.0177 -0.3967  0.2278
 4181SOL    HW124005   1.611   0.968   5.878 -0.4601 -0.3716  0.5086
 4181SOL    HW224006   1.587   1.038   5.746 -1.6090  1.2941  0.0091
 4182SOL     OW24007   3.737   4.183   2.579  0.1728 -0.3208  0.1946
 4182SOL    HW124008   3.780   4.110   2.622 -1.3662 -1.9515 -1.0218
 4182SOL    HW224009   3.768   4.255   2.634  1.8159  0.0647 -1.2330
 4183SOL     OW24010   3.158   1.805   1.802  0.0836 -0.4624 -0.3210
 4183SOL    HW124011   3.090   1.818   1.735 -1.3732  0.2915  1.3013
 4183SOL    HW224012   3.152   1.881   1.859  3.0660 -1.8586  1.8838
 4184SOL     OW24013   4.618   1.933   9.346  0.3375  0.1589  0.1249
 4184SOL    HW124014   4.575   2.001   9.295 -0.3066 -0.7139 -0.4957
 4184SOL    HW224015   4.662   1.986   9.413  0.4093  0.9608 -0.5642
 4185SOL     OW24016   0.627   4.062   7.574  0.0718 -0.4189 -0.7716
 4185SOL    HW124017   0.704   4.006   7.565  1.5438  1.8602 -2.3374
 4185SOL    HW224018   0.638   4.087   7.666 -0.8634  0.5730 -0.9287
 4186SOL     OW24019   1.524   0.480   9.119  0.2651  0.4191 -0.2891
 4186SOL    HW124020   1.531   0.464   9.213  2.5115 -2.0026 -0.8741
 4186SOL    HW224021   1.458   0.549   9.115 -0.1453  0.0191 -0.3421
 4187SOL     OW24022   3.933   2.558  12.331 -0.2441 -0.6361 -0.3177
 4187SOL    HW124023   3.967   2.611  12.403 -1.8517  0.3616 -0.2791
 4187SOL    HW224024   4.012   2.548  12.277  1.1204  4.2968  0.7344
 4188SOL     OW24025   0.700   0.323  10.068 -0.0403 -0.2550 -0.5033
 4188SOL    HW124026   0.708   0.250  10.008 -0.0950  0.1858 -1.0473
 4188SOL    HW224027   0.711   0.276  10.151  0.2166 -0.5417 -0.6998
 4189SOL     OW24028   4.134   4.393   4.865 -0.4428 -0.7962 -0.3152
 4189SOL    HW124029   4.164   4.483   4.869 -0.6236 -0.7624  0.1881
 4189SOL    HW224030   4.042   4.402   4.887  0.0294  0.2131  1.1936
 4190SOL     OW24031   2.837   0.393   9.321  0.7751  0.5403 -0.7430
 4190SOL    HW124032   2.875   0.426   9.403 -2.3598  2.0834  0.0923
 4190SOL    HW224033   2.894   0.321   9.293 -0.1865 -0.0017 -1.2744
 4191SOL     OW24034   0.002   1.702   5.180  0.9187 -0.9228 -0.0296
 4191SOL    HW124035   4.673   1.654   5.246  0.1583  0.7715  0.6259
 4191SOL    HW224036   4.666   1.778   5.168  0.7474 -0.9136  0.7995
 4192SOL     OW24037   3.654   2.895   7.599 -0.2996 -0.0967  0.2711
 4192SOL    HW124038   3.662   2.956   7.525 -0.0019  2.5252  2.4793
 4192SOL    HW224039   3.699   2.945   7.667 -0.3311  0.4445 -0.1088
 4193SOL     OW24040   0.714   4.366   3.116 -0.3044 -0.3263  0.6734
 4193SOL    HW124041   0.707   4.440   3.175  0.9960 -2.2960  3.3013
 4193SOL    HW224042   0.769   4.318   3.178  3.3395  1.8443 -0.8878
 4194SOL     OW24043   0.475   4.235   7.807  0.3512  0.0080 -0.1181
 4194SOL    HW124044   0.432   4.149   7.803 -0.7758  0.5166  1.1958
 4194SOL    HW224045   0.403   4.293   7.831  0.1310  0.5116 -1.9451
 4195SOL     OW24046   2.514   3.078  11.499 -0.5301 -0.0075  0.2630
 4195SOL    HW124047   2.592   3.078  11.443  0.2441 -0.1959  1.3439
 4195SOL    HW224048   2.547   3.033  11.576  1.3330  0.1563 -0.4252
 4196SOL     OW24049   2.408   3.239  11.329 -0.4737 -0.3286  0.1479
 4196SOL    HW124050   2.434   3.177  11.397  0.3664  0.4813  0.5785
 4196SOL    HW224051   2.314   3.242  11.347 -0.6247  0.8051 -0.8678
 4197SOL     OW24052   3.926   1.871   1.504 -0.6068  0.4295  0.3788
 4197SOL    HW124053   3.986   1.815   1.553 -0.3027 -0.1178 -0.6168
 4197SOL    HW224054   3.856   1.815   1.471  0.1366  0.5273 -1.3481
 4198SOL     OW24055   3.238   1.080   4.901 -0.3952  0.2541  0.4655
 4198SOL    HW124056   3.166   1.140   4.920  0.4800  0.9503  1.5633
 4198SOL    HW224057   3.250   1.044   4.989  2.1039  1.1983  0.5211
 4199SOL     OW24058   4.646   1.577   0.219  0.0575  0.3460 -0.0726
 4199SOL    HW124059   4.579   1.642   0.198  0.2684 -0.0898 -2.0539
 4199SOL    HW224060   4.615   1.554   0.307 -0.0002  0.6508 -0.0125
 4200SOL     OW24061   1.749   0.980   4.805 -0.6496 -0.0936  0.1954
 4200SOL    HW124062   1.714   0.899   4.767 -1.4402  0.1914  0.3239
 4200SOL    HW224063   1.674   1.028   4.840  0.0428  1.1664 -0.0422
 4201SOL     OW24064   2.022   0.731  13.010  0.1499 -0.2237  0.0834
 4201SOL    HW124065   1.952   0.672  12.980  1.0556 -0.5967 -1.2886
 4201SOL    HW224066   2.094   0.670  12.995 -0.0873 -0.1674 -1.2906
 4202SOL     OW24067   1.386   3.777   1.512  0.2296  0.0607  0.1126
 4202SOL    HW124068   1.337   3.763   1.593  2.3781  0.7005  1.5377
 4202SOL    HW224069   1.375   3.691   1.471  0.3683 -1.8220  3.9792
 4203SOL     OW24070   3.947   3.202   5.487 -0.4141 -0.0698 -0.0820
 4203SOL    HW124071   3.968   3.293   5.506 -0.4801 -0.0648 -0.0320
 4203SOL    HW224072   3.946   3.208   5.391  1.3200  0.2766 -0.0654
 4204SOL     OW24073   1.463   0.056   4.170  0.4368  0.4154 -0.0583
 4204SOL    HW124074   1.546   0.089   4.203  1.2222 -1.9117  0.2717
 4204SOL    HW224075   1.433   0.123   4.108 -0.2864 -0.3532 -0.5411
 4205SOL     OW24076   2.622   0.216   6.012  0.1283  0.0830  0.2415
 4205SOL    HW124077   2.639   0.124   6.035  0.9563  0.4075  0.9450
 4205SOL    HW224078   2.600   0.218   5.919 -1.7428  2.9945  0.7657
 4206SOL     OW24079   3.958   1.243   5.213 -0.5033  0.0508 -0.3877
 4206SOL    HW124080   3.944   1.149   5.215 -0.1260  0.0094  0.0581
 4206SOL    HW224081   3.874   1.275   5.180 -0.6614  0.2127  0.1807
 4207SOL     OW24082   1.723   0.908  11.436  0.1143  0.4970 -0.1890
 4207SOL    HW124083   1.719   0.861  11.353  0.0188 -1.0592  0.7071
 4207SOL    HW224084   1.739   0.997  11.403  4.0650  0.8056  2.5451
 4208SOL     OW24085   2.000   2.185  16.203  0.0939 -0.3494 -0.3018
 4208SOL    HW124086   2.072   2.230  16.247  1.2473 -1.4705 -1.0374
 4208SOL    HW224087   1.995   2.098  16.242  3.0423 -0.4627 -0.1388
 4209SOL     OW24088   2.036   4.467  15.745 -0.1302 -0.4631 -0.2091
 4209SOL    HW124089   1.957   4.455  15.798 -1.5485 -0.4861 -2.3272
 4209SOL    HW224090   2.068   4.380  15.721  0.3545 -0.3703  0.0987
 4210SOL     OW24091   0.088   1.286   8.392 -0.4972 -0.5010  0.6486
 4210SOL    HW124092   0.156   1.220   8.377 -0.8913 -0.5041 -1.1309
 4210SOL    HW224093   0.063   1.310   8.302 -0.0121  1.2089  0.9897
 4211SOL     OW24094   3.290   1.983   5.438 -0.2859  0.2256  0.3868
 4211SOL    HW124095   3.283   2.076   5.414  0.5060  0.2367  0.2155
 4211SOL    HW224096   3.381   1.959   5.424 -0.5012 -0.2182 -0.2656
 4212SOL     OW24097   3.246   3.967   2.565 -0.4656  0.3651  0.5410
 4212SOL    HW124098   3.205   3.885   2.539 -0.4450  1.1224 -1.9394
 4212SOL    HW224099   3.337   3.940   2.561 -0.1948  1.2016  0.9644
 4213SOL     OW24100   2.513   3.554  10.730  0.3496 -0.0006 -0.2902
 4213SOL    HW124101   2.423   3.526  10.745  0.4380  0.6731  1.5113
 4213SOL    HW224102   2.552   3.516  10.809  0.2470 -0.0019 -0.2396
 4214SOL     OW24103   3.372   3.341   4.427 -0.3325 -0.2080  0.2751
 4214SOL    HW124104   3.396   3.256   4.391  0.7182  0.0016  0.4762
 4214SOL    HW224105   3.327   3.378   4.351  1.1390 -0.4595 -0.7304
 4215SOL     OW24106   3.810   1.988   3.528 -0.3672 -0.7451 -0.5755
 4215SOL    HW124107   3.816   1.950   3.441  2.5222  3.1992 -2.1048
 4215SOL    HW224108   3.895   2.030   3.544 -0.4975 -0.9283  0.5695
 4216SOL     OW24109   3.758   4.016   5.035 -0.1017 -0.6981 -0.1107
 4216SOL    HW124110   3.834   3.964   5.063  0.9649  0.6413 -0.5569
 4216SOL    HW224111   3.742   4.067   5.114 -0.8819 -0.6953 -0.2659
 4217SOL     OW24112   1.594   3.486   7.610  0.0491 -0.0826  0.2305
 4217SOL    HW124113   1.682   3.518   7.589  0.2436 -1.5410 -1.2216
 4217SOL    HW224114   1.585   3.411   7.551  1.7978  1.6984 -2.2487
 4218SOL     OW24115   2.858   4.517   2.548 -0.1140 -0.4370  0.4054
 4218SOL    HW124116   2.834   4.570   2.472  1.4307 -1.3146 -0.6924
 4218SOL    HW224117   2.930   4.563   2.592  1.7853 -2.8115 -0.2271
 4219SOL     OW24118   3.310   0.384   0.802  0.3109  0.0263 -0.0078
 4219SOL    HW124119   3.360   0.346   0.730 -1.1941 -0.9882 -0.5348
 4219SOL    HW224120   3.356   0.467   0.811 -0.0637  0.3430 -1.0132
 4220SOL     OW24121   4.639   3.587   8.649 -0.1546 -0.0642  0.0675
 4220SOL    HW124122   4.555   3.629   8.666 -0.3744 -0.7035  0.5662
 4220SOL    HW224123   4.690   3.665   8.672 -0.7573  0.4789 -0.4532
 4221SOL     OW24124   0.137   2.441  10.714  0.5322 -0.0324  0.1816
 4221SOL    HW124125   0.130   2.523  10.761  0.6893 -0.9368  1.7948
 4221SOL    HW224126   0.214   2.403  10.757  1.9395  4.2039  1.4192
 4222SOL     OW24127   1.757   0.719   2.545  0.6837 -0.5050 -0.2316
 4222SOL    HW124128   1.691   0.778   2.581  0.6821  0.6093 -2.0532
 4222SOL    HW224129   1.809   0.782   2.495  2.2736  0.7578  3.0022
 4223SOL     OW24130   4.318   1.541  13.367  0.0009  0.0077 -0.3564
 4223SOL    HW124131   4.393   1.488  13.340 -0.4438 -0.9958  0.3822
 4223SOL    HW224132   4.267   1.470  13.405  0.0005 -0.5861 -1.4747
 4224SOL     OW24133   4.319   1.093   3.990  0.2867 -0.9009  0.6250
 4224SOL    HW124134   4.339   1.123   3.901  1.0715  1.1740  1.5106
 4224SOL    HW224135   4.248   1.030   3.978  0.4136 -0.7057 -1.2808
 4225SOL     OW24136   4.519   2.250  15.497 -0.1168 -0.4963 -0.6322
 4225SOL    HW124137   4.547   2.330  15.452 -0.7815 -0.1288 -0.3940
 4225SOL    HW224138   4.521   2.276  15.589 -1.2611  2.6783 -1.4923
 4226SOL     OW24139   3.207   1.474  14.626 -0.2413  0.2592 -0.4562
 4226SOL    HW124140   3.223   1.530  14.702 -0.8181  1.6744 -1.3775
 4226SOL    HW224141   3.282   1.500  14.573  0.4225 -0.1055  0.3139
 4227SOL     OW24142   3.655   2.124   7.150  0.1956  0.5290  0.0378
 4227SOL    HW124143   3.566   2.158   7.149  0.3790  1.0657  1.3567
 4227SOL    HW224144   3.699   2.157   7.071 -0.3204  3.4011  0.9542
 4228SOL     OW24145   0.102   0.149   1.615  0.2338 -0.4464  0.1492
 4228SOL    HW124146   0.133   0.077   1.669 -1.9004 -1.1863  0.3833
 4228SOL    HW224147   0.058   0.102   1.545  1.0112 -0.1665 -0.5270
 4229SOL     OW24148   3.711   2.144  11.015  0.0167  0.4368  0.6338
 4229SOL    HW124149   3.691   2.106  11.100 -0.4180  3.2479  1.7963
 4229SOL    HW224150   3.758   2.071  10.975 -2.2246 -0.1732 -0.8968
 4230SOL     OW24151   2.346   1.364   7.283  0.1102 -0.2134  0.1654
 4230SOL    HW124152   2.300   1.448   7.277 -0.8891 -0.8475 -1.0483
 4230SOL    HW224153   2.433   1.397   7.302  0.7381 -0.2109 -2.7279
 4231SOL     OW24154   3.009   1.335   4.943 -0.4872 -0.1838 -0.2376
 4231SOL    HW124155   3.001   1.430   4.948 -2.8041 -0.3848 -0.1069
 4231SOL    HW224156   2.990   1.335   4.849  1.5179  0.3952 -0.6429
 4232SOL     OW24157   1.015   4.461  12.581  0.2698 -0.4303 -0.3716
 4232SOL    HW124158   1.029   4.375  12.542  2.3133 -0.0075 -0.5720
 4232SOL    HW224159   1.080   4.462  12.652 -0.2890  0.8278  0.1338
 4233SOL     OW24160   3.689   0.632   3.581  0.5612  0.1501 -0.1641
 4233SOL    HW124161   3.674   0.543   3.548 -1.0099 -0.3297  1.8058
 4233SOL    HW224162   3.627   0.695   3.546 -0.2027  0.2340  1.3192
 4234SOL     OW24163   2.213   0.778   2.942  0.1257 -0.2698 -0.0448
 4234SOL    HW124164   2.181   0.834   2.871  2.7769 -1.4975 -2.1670
 4234SOL    HW224165   2.273   0.831   2.995 -1.5898  0.9076  0.7428
 4235SOL     OW24166   3.524   0.345   1.399 -0.1304 -0.0335  0.0957
 4235SOL    HW124167   3.556   0.426   1.440  1.8410 -2.2514  2.8819
 4235SOL    HW224168   3.477   0.384   1.325 -1.9015  0.5343  1.5325
 4236SOL     OW24169   0.494   1.516   2.675 -0.4757 -0.0672  0.1018
 4236SOL    HW124170   0.452   1.574   2.612  0.0104  0.6546  0.4228
 4236SOL    HW224171   0.551   1.578   2.721 -0.0259 -0.0904 -0.4197
 4237SOL     OW24172   1.619   3.421   1.762  0.8449  0.2598  0.3466
 4237SOL    HW124173   1.643   3.417   1.669 -1.1663  0.3441 -0.1757
 4237SOL    HW224174   1.702   3.402   1.806  0.8748  0.6117  0.4397
 4238SOL     OW24175   0.851   3.929  15.676 -0.8605 -0.1764  0.1559
 4238SOL    HW124176   0.848   3.920  15.581  2.1890  2.7294 -0.2377
 4238SOL    HW224177   0.757   3.946  15.688 -1.6084 -3.1767 -1.4630
 4239SOL     OW24178   0.225   4.647   0.015  0.3303 -0.8992  0.2432
 4239SOL    HW124179   0.141   4.630  17.659  0.4437  1.4227 -0.8822
 4239SOL    HW224180   0.231   0.021   0.014  1.6143 -0.9742  0.3140
 4240SOL     OW24181   1.335   2.641   0.461  0.2301  0.2008 -0.1438
 4240SOL    HW124182   1.336   2.550   0.492 -2.1740  0.8285  1.8248
 4240SOL    HW224183   1.340   2.622   0.367 -0.9694 -0.7798 -0.0179
 4241SOL     OW24184   0.795   0.083  13.485  0.3449  1.1747 -0.4285
 4241SOL    HW124185   0.772   4.717  13.455 -0.6708  0.4812  2.3472
 4241SOL    HW224186   0.755   0.135  13.416 -0.5448  2.5966  1.1398
 4242SOL     OW24187   0.278   4.341   6.999 -0.1946  0.1656 -0.1963
 4242SOL    HW124188   0.229   4.264   7.028 -1.9855  1.8409  1.2366
 4242SOL    HW224189   0.348   4.292   6.956  0.4053  0.9915 -0.1534
 4243SOL     OW24190   0.899   3.013   3.201 -0.5541 -0.2412 -0.6532
 4243SOL    HW124191   0.874   3.084   3.141  1.1411 -0.5783 -1.7793
 4243SOL    HW224192   0.866   2.945   3.141 -0.3074 -1.3573  0.4759
 4244SOL     OW24193   1.405   2.875  14.388 -0.0616 -0.2162 -0.3982
 4244SOL    HW124194   1.455   2.881  14.469 -1.1647  0.5856  0.2098
 4244SOL    HW224195   1.322   2.839  14.420  1.4057 -1.1943  2.3230
 4245SOL     OW24196   0.280   1.357   2.734 -0.3040 -0.4213 -0.6362
 4245SOL    HW124197   0.285   1.274   2.686 -0.6916  0.4242 -2.1429
 4245SOL    HW224198   0.366   1.393   2.714 -1.1084  0.4331 -2.6166
 4246SOL     OW24199   2.216   3.624   8.248 -0.2753 -0.0615  0.2247
 4246SOL    HW124200   2.215   3.626   8.343 -0.6387  0.8478  0.2036
 4246SOL    HW224201   2.152   3.553   8.241  0.9779 -1.2879  1.2761
 4247SOL     OW24202   3.467   4.566   1.424 -0.2464  0.0580  0.4708
 4247SOL    HW124203   3.522   4.571   1.502 -0.3685  1.5510  0.4482
 4247SOL    HW224204   3.464   4.659   1.402  1.5653 -0.1819 -0.7948
 4248SOL     OW24205   0.523   3.314   4.071  0.4729 -0.1255 -1.0034
 4248SOL    HW124206   0.434   3.317   4.107 -0.1064  2.4890 -2.6679
 4248SOL    HW224207   0.530   3.407   4.052  1.1807 -0.0070 -0.1477
 4249SOL     OW24208   3.045   0.609   6.032 -0.1152 -0.0954  0.6502
 4249SOL    HW124209   3.124   0.595   6.083 -0.1281 -0.0700  0.6768
 4249SOL    HW224210   3.009   0.524   6.058  1.6873 -0.8700  0.6451
 4250SOL     OW24211   3.537   3.004  15.308 -0.5758  0.2901 -0.2337
 4250SOL    HW124212   3.484   3.013  15.229  0.4593 -1.8540 -1.1620
 4250SOL    HW224213   3.531   3.092  15.345 -2.6894  0.8668 -1.9687
 4251SOL     OW24214   1.794   0.991  17.453 -0.7360  0.0662  0.3310
 4251SOL    HW124215   1.807   1.067  17.510  0.3240 -0.4179  0.7308
 4251SOL    HW224216   1.784   0.928  17.525  1.4428 -2.0996 -1.2829
 4252SOL     OW24217   2.738   3.164   6.988  0.3913  0.4281  0.1444
 4252SOL    HW124218   2.749   3.167   6.893  0.8149  1.4044  0.2198
 4252SOL    HW224219   2.807   3.223   7.018 -0.2736  2.2898 -2.0268
 4253SOL     OW24220   1.860   4.315   6.089  0.3962  0.0921  0.6761
 4253SOL    HW124221   1.861   4.376   6.163 -1.7687  0.4890  0.3817
 4253SOL    HW224222   1.942   4.272   6.110 -0.2631 -2.0248 -1.0552
 4254SOL     OW24223   0.801   3.185  14.513  0.0280  0.2802 -0.1560
 4254SOL    HW124224   0.778   3.194  14.606  1.6456  1.1701  0.1593
 4254SOL    HW224225   0.767   3.261  14.466  2.1721  0.4439 -1.4626
 4255SOL     OW24226   3.350   2.426   9.669  0.0319  0.3798  0.4878
 4255SOL    HW124227   3.358   2.356   9.734  0.6406 -1.8088 -1.9287
 4255SOL    HW224228   3.427   2.402   9.616 -0.8652  0.1531 -0.6955
 4256SOL     OW24229   3.799   1.148   8.629  0.2635  0.4316 -0.0097
 4256SOL    HW124230   3.780   1.165   8.721  3.6929  1.7570  0.4803
 4256SOL    HW224231   3.865   1.079   8.626 -0.4975 -0.3394  0.8487
 4257SOL     OW24232   0.283   0.124  11.801 -0.6940  0.0620 -0.4427
 4257SOL    HW124233   0.287   0.168  11.716  1.8995 -1.7741 -1.2780
 4257SOL    HW224234   0.277   0.187  11.873  0.6997  2.0268 -2.0664
 4258SOL     OW24235   0.570   0.348   8.548  0.1423  0.1804 -0.4208
 4258SOL    HW124236   0.511   0.282   8.511  2.0746 -0.1494 -2.9134
 4258SOL    HW224237   0.651   0.339   8.498 -0.6687 -0.0795 -1.6860
 4259SOL     OW24238   3.810   4.378   7.829  0.1459  0.6397  0.3149
 4259SOL    HW124239   3.780   4.469   7.837  1.5366  0.9474  1.8559
 4259SOL    HW224240   3.853   4.365   7.913  2.5619 -0.5847 -1.1047
 4260SOL     OW24241   1.665   0.918   3.608  0.2748 -0.8382  0.5168
 4260SOL    HW124242   1.677   1.002   3.651 -1.0943 -1.5963  2.3686
 4260SOL    HW224243   1.709   0.855   3.664  1.3953  2.5692  3.4350
 4261SOL     OW24244   0.839   0.603   2.934  0.6145  0.4011 -0.4687
 4261SOL    HW124245   0.917   0.604   2.878 -0.0313 -1.1167 -1.3829
 4261SOL    HW224246   0.884   0.630   3.014  0.5378 -0.3880 -0.1579
 4262SOL     OW24247   1.233   3.249   4.615  0.4475 -0.5429  0.1044
 4262SOL    HW124248   1.139   3.235   4.621  0.0363  1.9800 -0.5765
 4262SOL    HW224249   1.273   3.164   4.598  0.2746 -0.9402  1.6296
 4263SOL     OW24250   0.378   2.254  13.017  0.4133 -0.1378  0.2937
 4263SOL    HW124251   0.361   2.251  12.922 -0.3403 -0.6884  0.4497
 4263SOL    HW224252   0.341   2.340  13.037  1.4272 -0.2595  2.6371
 4264SOL     OW24253   1.196   2.893   8.501  0.7935 -0.1305 -0.3463
 4264SOL    HW124254   1.232   2.920   8.416  2.1156  0.7653  0.4940
 4264SOL    HW224255   1.277   2.902   8.552  0.1645 -1.5291  0.9014
 4265SOL     OW24256   4.127   0.858  10.347 -0.0129 -0.5016 -0.3896
 4265SOL    HW124257   4.035   0.884  10.345  0.3739  0.9987  1.1564
 4265SOL    HW224258   4.165   0.935  10.305  0.8203 -1.7885 -1.9953
 4266SOL     OW24259   1.605   3.254   4.982  0.6674 -0.3852 -0.3570
 4266SOL    HW124260   1.611   3.349   4.993  0.1199 -0.5807  1.5804
 4266SOL    HW224261   1.685   3.231   5.030 -1.0288  0.2506  2.7926
 4267SOL     OW24262   0.200   2.421  13.373 -0.3814  0.3138 -0.4681
 4267SOL    HW124263   0.125   2.419  13.314 -0.2476 -0.4813 -0.6151
 4267SOL    HW224264   0.265   2.424  13.303 -1.1103  1.8743 -1.0787
 4268SOL     OW24265   3.896   0.672   4.542 -0.0568 -0.4213 -0.1975
 4268SOL    HW124266   3.883   0.714   4.457 -0.4117 -0.4938 -0.1769
 4268SOL    HW224267   3.984   0.633   4.546 -0.1473 -0.3704  1.8875
 4269SOL     OW24268   4.175   3.685  16.104 -0.1345  0.0375  0.3329
 4269SOL    HW124269   4.236   3.624  16.145  0.7332  0.4869 -0.2892
 4269SOL    HW224270   4.125   3.637  16.038 -0.4313 -0.0604  0.6295
 4270SOL     OW24271   0.091   0.942   7.578  0.4000  0.4515  0.4005
 4270SOL    HW124272   0.183   0.963   7.565  0.2005 -0.1994 -2.0851
 4270SOL    HW224273   0.096   0.863   7.632  0.6100 -0.0730 -0.3765
 4271SOL     OW24274   2.954   4.002  16.164  0.3047 -0.0527  0.1812
 4271SOL    HW124275   2.872   3.960  16.190  0.4614 -0.7858 -0.4928
 4271SOL    HW224276   2.938   4.074  16.103  1.0775  1.3927  1.6598
 4272SOL     OW24277   4.115   4.030   2.552 -0.2778 -0.2439  0.2586
 4272SOL    HW124278   4.137   3.940   2.528  1.9286  0.6914 -1.1116
 4272SOL    HW224279   4.050   4.032   2.623 -0.5043 -2.3219  0.1338
 4273SOL     OW24280   4.464   4.533  13.899 -0.1907 -0.0438  0.1435
 4273SOL    HW124281   4.398   4.541  13.830  1.7653 -1.2633 -1.8832
 4273SOL    HW224282   4.410   4.566  13.971 -0.8409 -0.9743  0.0863
 4274SOL     OW24283   3.771   1.570   2.322 -0.2793 -0.3009  0.2945
 4274SOL    HW124284   3.839   1.623   2.364 -1.1018  1.3542 -0.4864
 4274SOL    HW224285   3.720   1.641   2.283  1.2424  1.7299  1.9920
 4275SOL     OW24286   0.302   2.724   6.871 -0.6240  0.2352  0.0705
 4275SOL    HW124287   0.274   2.680   6.791 -0.6377  2.3091 -1.0774
 4275SOL    HW224288   0.324   2.653   6.931 -0.8671  0.0083 -0.1058
 4276SOL     OW24289   3.235   0.790   8.297 -0.5921 -0.5580  0.2259
 4276SOL    HW124290   3.247   0.800   8.202 -0.8271 -0.6996  0.1811
 4276SOL    HW224291   3.295   0.857   8.330 -2.2024 -0.3307  2.6951
 4277SOL     OW24292   0.387   1.810   1.969  0.4243  0.2606  0.1189
 4277SOL    HW124293   0.365   1.723   1.936 -1.7870  0.7935  0.2394
 4277SOL    HW224294   0.470   1.794   2.015 -1.0978 -1.5116  2.2238
 4278SOL     OW24295   3.969   1.529   2.706 -0.1324 -0.8352  0.7556
 4278SOL    HW124296   3.889   1.560   2.748 -0.9056 -2.2508  0.3090
 4278SOL    HW224297   3.957   1.435   2.692 -2.0004 -0.3757 -0.6586
 4279SOL     OW24298   0.484   1.332   3.783 -0.2690  0.2275 -0.4017
 4279SOL    HW124299   0.554   1.296   3.729 -0.1555  0.1747 -0.2223
 4279SOL    HW224300   0.518   1.320   3.872 -1.5020  1.5248  0.2438
 4280SOL     OW24301   0.257   2.576   2.049  0.4411  0.9640 -0.6095
 4280SOL    HW124302   0.293   2.642   1.989  2.4700  0.9369  0.5875
 4280SOL    HW224303   0.218   2.510   1.992  0.4339  0.2336  0.2501
 4281SOL     OW24304   3.802   1.878   0.254 -0.2386  0.5586 -0.0730
 4281SOL    HW124305   3.752   1.859   0.333 -0.3861 -0.2790 -0.3633
 4281SOL    HW224306   3.882   1.917   0.290  0.5284 -1.4683  0.4189
 4282SOL     OW24307   3.052   2.371   5.489  0.1795  0.1895 -0.3452
 4282SOL    HW124308   3.120   2.323   5.537  0.9973  1.1374 -0.5653
 4282SOL    HW224309   2.983   2.371   5.555 -0.5770 -1.9896 -1.1516
 4283SOL     OW24310   1.649   3.539  11.290 -0.5003 -0.3271  0.3573
 4283SOL    HW124311   1.712   3.527  11.219 -1.1295 -0.3057 -0.2097
 4283SOL    HW224312   1.620   3.630  11.288 -2.1016 -0.9058 -2.8354
 4284SOL     OW24313   3.779   3.305  11.657 -0.6145 -0.1373 -0.3647
 4284SOL    HW124314   3.849   3.366  11.632 -1.4413  1.4558  1.1978
 4284SOL    HW224315   3.744   3.344  11.737  3.4438 -0.2481  1.4587
 4285SOL     OW24316   4.650   1.843  17.642 -0.3647  0.2216 -0.0629
 4285SOL    HW124317   0.019   1.832  17.670 -0.2386  0.3621 -0.4150
 4285SOL    HW224318   4.646   1.773  17.576  0.2674 -0.0044  0.1439
 4286SOL     OW24319   2.512   2.972   6.705  0.8341  0.0148 -0.3102
 4286SOL    HW124320   2.454   2.897   6.714  1.1336  0.1433  2.7490
 4286SOL    HW224321   2.452   3.046   6.721  2.4685  1.6431 -1.7549
 4287SOL     OW24322   1.995   4.364   2.948  0.0317 -0.5102 -0.5957
 4287SOL    HW124323   2.075   4.382   2.997 -1.7777  1.9868  1.4338
 4287SOL    HW224324   1.965   4.291   3.002 -0.4577 -0.1390 -0.3622
 4288SOL     OW24325   2.979   3.251   1.581 -0.8118  0.0014  0.3663
 4288SOL    HW124326   3.057   3.208   1.614  0.4533  2.0657  0.0750
 4288SOL    HW224327   2.992   3.341   1.610  0.8388  0.1224 -0.7486
 4289SOL     OW24328   2.136   3.241   6.219  0.3521  0.3474  0.1661
 4289SOL    HW124329   2.185   3.188   6.155 -0.7960 -1.3164  0.6615
 4289SOL    HW224330   2.182   3.324   6.227  2.0699 -0.2161 -3.6894
 4290SOL     OW24331   0.980   0.013   6.047 -0.4038 -0.5064  0.2794
 4290SOL    HW124332   1.034   4.693   6.115 -0.7698 -0.4822  0.5864
 4290SOL    HW224333   0.890   0.002   6.078 -0.2712 -1.0136  0.4740
 4291SOL     OW24334   2.115   3.229  10.516 -0.3637 -0.1446  0.1058
 4291SOL    HW124335   2.178   3.267  10.578 -0.4606 -0.4321  0.3791
 4291SOL    HW224336   2.150   3.142  10.495 -1.4298 -0.5576  0.0669
 4292SOL     OW24337   0.919   3.691  11.309 -0.1371  0.2232 -0.5461
 4292SOL    HW124338   0.889   3.743  11.234  0.7088  0.9306 -0.3953
 4292SOL    HW224339   0.942   3.612  11.261 -2.6404 -0.8188 -0.0087
 4293SOL     OW24340   4.246   4.106  10.798 -0.3765 -0.3559 -0.1168
 4293SOL    HW124341   4.262   4.013  10.812 -0.1561 -0.7827 -3.2384
 4293SOL    HW224342   4.314   4.144  10.854 -0.8722 -1.1731  1.0434
 4294SOL     OW24343   1.428   2.024   8.181 -0.2432  0.2323 -0.9586
 4294SOL    HW124344   1.411   1.966   8.255 -0.2949  2.7675  1.0334
 4294SOL    HW224345   1.388   1.984   8.104  0.0249  1.1755 -1.5878
 4295SOL     OW24346   2.010   2.649   5.741 -0.2706  0.2080 -0.0356
 4295SOL    HW124347   2.088   2.699   5.763 -0.1074  0.6680 -1.6044
 4295SOL    HW224348   1.955   2.658   5.818  0.2700 -0.1798  0.3982
 4296SOL     OW24349   0.216   3.935  13.895 -0.1433 -0.1336 -0.6600
 4296SOL    HW124350   0.203   3.920  13.801 -0.0957  2.5842 -1.0943
 4296SOL    HW224351   0.132   3.896  13.917 -0.2470  0.4233 -0.0819
 4297SOL     OW24352   2.826   4.324   3.753  0.5304  0.1962 -0.0393
 4297SOL    HW124353   2.786   4.375   3.823  1.2121  0.2863  0.2845
 4297SOL    HW224354   2.752   4.289   3.703 -1.1157  1.2945  1.6486
 4298SOL     OW24355   3.995   0.252  11.863  0.4774  0.0625 -0.1099
 4298SOL    HW124356   4.084   0.282  11.880  1.3651 -1.9463 -1.2261
 4298SOL    HW224357   4.004   0.157  11.871 -2.5647 -0.3153 -0.9130
 4299SOL     OW24358   3.946   1.017  12.394 -0.3197  0.3208 -0.0442
 4299SOL    HW124359   4.012   0.951  12.376 -0.3951  0.1474  0.3173
 4299SOL    HW224360   3.865   0.965  12.389  0.5523 -1.0595  0.1057
 4300SOL     OW24361   0.566   2.264   8.304  0.3651 -0.4303  0.2412
 4300SOL    HW124362   0.550   2.189   8.247 -0.2263 -1.2636  1.4925
 4300SOL    HW224363   0.536   2.335   8.247  0.9939  0.1747  0.6754
 4301SOL     OW24364   1.953   1.040  16.412 -0.3194  0.0465 -1.0455
 4301SOL    HW124365   1.961   1.077  16.500  2.0516 -0.2391 -1.1497
 4301SOL    HW224366   1.890   0.970  16.431  0.5564  0.0930  2.0413
 4302SOL     OW24367   1.272   1.680   5.328  0.3245  0.0923  0.2797
 4302SOL    HW124368   1.236   1.596   5.355 -0.5103  0.6095  0.7762
 4302SOL    HW224369   1.348   1.684   5.386  1.1644 -1.5702 -0.7024
 4303SOL     OW24370   0.085   3.616   6.105  0.0806 -0.1904  0.2191
 4303SOL    HW124371   0.074   3.648   6.195  2.3568  1.5705 -0.1416
 4303SOL    HW224372   0.172   3.575   6.105  0.4749  0.6521  1.1906
 4304SOL     OW24373   2.179   1.151   6.269 -0.0879  0.2251 -0.5949
 4304SOL    HW124374   2.227   1.141   6.187  0.4098  1.8984 -0.5152
 4304SOL    HW224375   2.238   1.190   6.335 -0.5156 -0.9795  0.5041
 4305SOL     OW24376   2.310   2.853  15.618  0.4473  0.0620 -0.5448
 4305SOL    HW124377   2.373   2.788  15.587 -1.0753 -1.3590 -0.6191
 4305SOL    HW224378   2.256   2.867  15.540  1.3039 -0.6487 -1.2674
 4306SOL     OW24379   1.754   4.652   5.544 -0.0522  0.5773  0.4979
 4306SOL    HW124380   1.839   4.640   5.587 -0.6558  1.2130  1.8273
 4306SOL    HW224381   1.726   4.719   5.606 -2.1422  0.8130 -0.6896
 4307SOL     OW24382   3.940   2.998   1.108  0.2340  0.2042 -0.3319
 4307SOL    HW124383   3.937   3.032   1.198 -0.8847 -2.8199  0.7768
 4307SOL    HW224384   3.936   2.904   1.128 -2.1985  0.2644 -0.4564
 4308SOL     OW24385   1.608   4.520   1.397 -0.6167  0.2715 -0.4400
 4308SOL    HW124386   1.686   4.477   1.431 -1.4350  1.0584  2.4114
 4308SOL    HW224387   1.638   4.545   1.310 -0.8725  1.1980 -0.2629
 4309SOL     OW24388   4.649   3.637   4.266 -0.2288 -0.5686 -0.1987
 4309SOL    HW124389   4.662   3.598   4.352 -1.7833  0.4610  0.5136
 4309SOL    HW224390   0.015   3.650   4.228 -0.1181 -1.2820 -0.1791
 4310SOL     OW24391   2.396   1.728   1.392  0.0515 -0.4655 -0.5752
 4310SOL    HW124392   2.344   1.752   1.315  0.8664 -2.2664 -1.6934
 4310SOL    HW224393   2.481   1.758   1.359 -0.0492  1.9667  1.4461
 4311SOL     OW24394   1.062   4.688   2.682 -0.0920 -0.6433  0.0216
 4311SOL    HW124395   1.052   0.055   2.718  0.8087 -1.0528  1.2615
 4311SOL    HW224396   0.981   4.689   2.631 -0.2387  1.4537  0.3004
 4312SOL     OW24397   2.100   2.844   6.923 -0.3119  0.4413  0.7090
 4312SOL    HW124398   2.126   2.878   7.008  1.1201 -0.6043  0.6825
 4312SOL    HW224399   2.061   2.918   6.876  1.3368  0.1607 -1.1087
 4313SOL     OW24400   1.402   0.439   5.733  0.5979 -0.3323 -0.7200
 4313SOL    HW124401   1.460   0.420   5.660  1.8670 -4.6335  1.3908
 4313SOL    HW224402   1.460   0.416   5.806 -1.6508 -2.6798  0.3437
 4314SOL     OW24403   2.098   2.682  12.807 -0.5617  0.3431 -0.4006
 4314SOL    HW124404   2.053   2.612  12.854  0.4381 -0.5188 -0.7252
 4314SOL    HW224405   2.072   2.755  12.863 -2.6439 -0.1645 -0.7316
 4315SOL     OW24406   0.344   0.450   5.605  0.1473  0.0189 -0.1416
 4315SOL    HW124407   0.356   0.484   5.516 -2.2806  0.9679 -0.1276
 4315SOL    HW224408   0.416   0.490   5.654  0.2806 -0.2013 -0.1611
 4316SOL     OW24409   3.714   2.198   5.357  0.0963 -0.1524 -0.2811
 4316SOL    HW124410   3.739   2.274   5.305  0.9672  0.1656  0.6077
 4316SOL    HW224411   3.630   2.234   5.386  0.5435  1.8442 -1.5025
 4317SOL     OW24412   3.235   4.447  11.726  0.4128 -0.6375 -0.2784
 4317SOL    HW124413   3.251   4.393  11.648 -2.5683 -0.1908 -1.2071
 4317SOL    HW224414   3.140   4.456  11.719  0.5614  2.0815  1.3101
 4318SOL     OW24415   4.291   1.325   6.423  0.6621  0.1275 -0.8372
 4318SOL    HW124416   4.221   1.297   6.363  0.9566 -0.6341 -0.8287
 4318SOL    HW224417   4.359   1.335   6.357  2.1001 -1.2123  0.4448
 4319SOL     OW24418   2.220   4.539   7.873 -0.2238  0.0337 -0.6558
 4319SOL    HW124419   2.271   4.535   7.792  0.1869  1.7724 -0.4934
 4319SOL    HW224420   2.187   4.627   7.855  4.6800  2.2016  0.9483
 4320SOL     OW24421   1.580   4.361   0.627  0.1738 -0.1329 -0.3495
 4320SOL    HW124422   1.524   4.289   0.654  0.3302  0.3657  1.2767
 4320SOL    HW224423   1.585   4.415   0.705  0.3211 -2.3363  1.1878
 4321SOL     OW24424   4.278   3.896  14.051 -0.2248  0.1936 -0.6720
 4321SOL    HW124425   4.349   3.957  14.036  1.2138 -0.3691  3.9460
 4321SOL    HW224426   4.195   3.937  14.025 -1.3488 -1.4593  0.3183
 4322SOL     OW24427   4.280   4.199   2.696  0.0334  0.3351  0.5261
 4322SOL    HW124428   4.230   4.130   2.652 -1.0293  1.0490  0.6148
 4322SOL    HW224429   4.224   4.275   2.678 -1.4423 -0.7751  0.4442
 4323SOL     OW24430   0.420   4.199   3.355 -0.3354 -0.2981 -0.0994
 4323SOL    HW124431   0.420   4.294   3.342 -2.0311 -0.0818  1.5778
 4323SOL    HW224432   0.438   4.168   3.265  0.8547  0.6990 -0.2115
 4324SOL     OW24433   0.311   4.652   7.441  0.0539  0.5452  0.1045
 4324SOL    HW124434   0.329   4.597   7.365  1.5918  3.0537 -1.3490
 4324SOL    HW224435   0.393   4.702   7.446  0.2854  0.1646  0.1924
 4325SOL     OW24436   2.866   3.389   6.798  0.0865 -0.2948  0.1647
 4325SOL    HW124437   2.820   3.464   6.837  1.3710  0.6044 -0.0557
 4325SOL    HW224438   2.786   3.339   6.781 -0.7434  0.3895  2.0141
 4326SOL     OW24439   1.285   2.900   0.114 -0.6238 -0.4415  0.2115
 4326SOL    HW124440   1.242   2.848   0.047 -2.4857 -0.0624  1.1287
 4326SOL    HW224441   1.261   2.990   0.096 -0.6908 -0.1979  1.5106
 4327SOL     OW24442   3.366   1.051   4.077 -0.0225 -0.0955 -0.3767
 4327SOL    HW124443   3.373   1.036   4.171 -0.0204 -0.0642 -0.3720
 4327SOL    HW224444   3.374   0.964   4.037  0.3751 -0.0922 -0.3017
 4328SOL     OW24445   1.273   2.806   3.691  0.0635 -0.2307  0.5985
 4328SOL    HW124446   1.231   2.873   3.636  1.1987  0.2753  0.3474
 4328SOL    HW224447   1.365   2.832   3.689  0.3703 -1.4598 -0.7660
 4329SOL     OW24448   0.848   2.521   4.760  0.3962 -0.5643  0.2319
 4329SOL    HW124449   0.839   2.425   4.759 -4.1904 -0.0777 -1.2255
 4329SOL    HW224450   0.858   2.542   4.667 -1.8806 -0.8977 -0.0833
 4330SOL     OW24451   3.784   4.712  17.186  0.0849 -0.7844  0.2929
 4330SOL    HW124452   3.848   4.650  17.221  1.1591 -0.1188 -0.5301
 4330SOL    HW224453   3.823   0.077  17.198  0.2445 -0.7568 -0.4600
 4331SOL     OW24454   1.666   3.584   1.348 -0.3508 -0.0374  0.6581
 4331SOL    HW124455   1.678   3.679   1.354 -0.6282  0.0163  0.3500
 4331SOL    HW224456   1.734   3.546   1.404  0.4791  1.0046  0.3495
 4332SOL     OW24457   1.037   0.718  14.643 -0.3899 -0.0719 -0.5090
 4332SOL    HW124458   0.969   0.711  14.710 -0.2616  0.3985 -0.3297
 4332SOL    HW224459   1.004   0.802  14.612  0.2598 -0.2902 -1.7628
 4333SOL     OW24460   2.636   0.175   3.322  0.0127 -0.6182  0.1126
 4333SOL    HW124461   2.700   0.146   3.257 -2.1571 -1.0282 -1.8344
 4333SOL    HW224462   2.556   0.196   3.274  0.2977 -0.7657 -0.4280
 4334SOL     OW24463   2.853   2.546   6.899  0.5696  0.0014  0.0935
 4334SOL    HW124464   2.783   2.573   6.840  1.8056  0.0434 -1.3695
 4334SOL    HW224465   2.883   2.469   6.850  0.1463 -1.8509  2.7610
 4335SOL     OW24466   2.490   3.338   8.476  0.4820  0.4237 -0.1816
 4335SOL    HW124467   2.531   3.370   8.395  0.7449 -0.4388 -0.3935
 4335SOL    HW224468   2.527   3.406   8.532  1.1731  1.1182 -1.4762
 4336SOL     OW24469   2.830   4.069   4.541  0.1863 -0.1581  0.1072
 4336SOL    HW124470   2.763   4.095   4.478 -0.2213 -2.0547 -0.2293
 4336SOL    HW224471   2.776   4.010   4.593  1.9446 -2.6150 -0.8649
 4337SOL     OW24472   1.812   2.507   4.601  0.3552  0.0772  0.4422
 4337SOL    HW124473   1.907   2.503   4.603  0.3621 -0.4637 -1.2461
 4337SOL    HW224474   1.786   2.548   4.519 -2.0166  1.8306  2.0738
 4338SOL     OW24475   4.645   0.740   7.709 -0.0315 -0.1621 -0.6137
 4338SOL    HW124476   4.603   0.741   7.623 -1.3562 -0.4337  0.0350
 4338SOL    HW224477   4.566   0.727   7.760  1.1974 -1.0107  1.0687
 4339SOL     OW24478   3.146   0.240   2.023 -0.1481  0.7560  0.8672
 4339SOL    HW124479   3.076   0.281   1.972 -2.0928 -1.3995  1.8228
 4339SOL    HW224480   3.216   0.272   1.966  0.2391 -1.3742  0.1569
 4340SOL     OW24481   0.651   3.515   8.106  0.0611  0.2218  0.1399
 4340SOL    HW124482   0.600   3.549   8.180  0.6247 -1.2184  1.1796
 4340SOL    HW224483   0.737   3.516   8.149 -0.1525 -0.3243  0.5762
 4341SOL     OW24484   0.913   0.990  14.063  0.8127  0.3867 -0.1161
 4341SOL    HW124485   0.897   1.081  14.040  0.3622 -0.0550 -1.5701
 4341SOL    HW224486   0.959   1.005  14.145 -0.7046  1.9147  0.4469
 4342SOL     OW24487   3.223   1.220  14.729 -0.0933  0.1976  0.1884
 4342SOL    HW124488   3.173   1.242  14.807 -3.6500 -0.3226 -1.9790
 4342SOL    HW224489   3.223   1.304  14.683  3.1331  0.2565  0.2531
 4343SOL     OW24490   3.361   0.675  16.211 -0.4099  0.2406  0.4711
 4343SOL    HW124491   3.300   0.745  16.188 -1.2874 -0.7656 -0.2888
 4343SOL    HW224492   3.431   0.730  16.246 -1.2493  2.1151 -0.7541
 4344SOL     OW24493   2.137   3.474   0.112 -0.9130 -0.0285 -0.4626
 4344SOL    HW124494   2.082   3.397   0.096 -2.1891  1.0993 -1.4680
 4344SOL    HW224495   2.120   3.497   0.203  1.8713 -0.2318  0.1199
 4345SOL     OW24496   3.778   1.995   4.058  0.5267 -0.4138 -0.4182
 4345SOL    HW124497   3.757   1.903   4.047 -1.3990 -0.1821  1.2346
 4345SOL    HW224498   3.873   1.994   4.064  0.3992  2.0809  2.4649
 4346SOL     OW24499   2.768   1.615   7.171  0.0029 -0.0531  0.7238
 4346SOL    HW124500   2.823   1.540   7.196  0.3684 -0.1735 -0.4309
 4346SOL    HW224501   2.827   1.681   7.207  0.2101 -0.1013  0.4802
 4347SOL     OW24502   3.610   0.223   0.898 -0.2392 -0.3647  0.1733
 4347SOL    HW124503   3.555   0.251   0.825 -0.7101  0.2900  0.7804
 4347SOL    HW224504   3.669   0.160   0.856 -0.3128  0.3588 -1.0150
 4348SOL     OW24505   3.217   1.350   5.124 -0.7719 -0.6215 -0.0790
 4348SOL    HW124506   3.178   1.265   5.145 -0.4520 -1.1141 -1.4940
 4348SOL    HW224507   3.158   1.370   5.050 -0.1179 -3.6424 -1.4244
 4349SOL     OW24508   1.267   2.660  13.830  0.7284 -0.0190  0.5120
 4349SOL    HW124509   1.332   2.616  13.775 -0.4418 -0.2558 -0.6737
 4349SOL    HW224510   1.201   2.684  13.765  0.9732  0.3477  0.3979
 4350SOL     OW24511   2.010   1.493   5.684  0.1784  0.1307 -0.5471
 4350SOL    HW124512   2.021   1.586   5.702 -0.9033  0.0033  0.8115
 4350SOL    HW224513   1.949   1.467   5.754 -1.6317 -0.1274 -2.2287
 4351SOL     OW24514   3.491   2.170   7.428 -0.3638 -0.4934  0.8055
 4351SOL    HW124515   3.562   2.122   7.385  0.2820 -0.8163  2.2159
 4351SOL    HW224516   3.425   2.167   7.358  1.7588  0.6153 -1.2152
 4352SOL     OW24517   0.640   2.157   4.683  0.2848  0.4819 -0.3010
 4352SOL    HW124518   0.608   2.195   4.765  0.4261  1.8042 -0.8569
 4352SOL    HW224519   0.727   2.193   4.669  1.0675 -0.9708  0.8258
 4353SOL     OW24520   4.267   2.992  14.020 -0.0824 -0.0097  0.0804
 4353SOL    HW124521   4.287   3.053  13.949  0.0769 -0.6971 -0.4668
 4353SOL    HW224522   4.173   2.995  14.034 -0.2963  1.3181 -1.6197
 4354SOL     OW24523   0.341   1.278   8.563 -0.7033 -0.1122  0.1835
 4354SOL    HW124524   0.383   1.274   8.477  0.7361  1.7052  0.8128
 4354SOL    HW224525   0.348   1.370   8.586  0.1127  0.0796 -0.8479
 4355SOL     OW24526   2.560   2.936  10.522  0.0573  0.2044 -0.1065
 4355SOL    HW124527   2.598   2.895  10.600 -1.0455  0.5995  0.6523
 4355SOL    HW224528   2.546   2.866  10.459 -0.3150  0.3919 -0.2380
 4356SOL     OW24529   3.927   2.328  11.192 -0.7400 -0.2810  0.2312
 4356SOL    HW124530   3.910   2.241  11.157 -1.6224  0.2697 -0.7265
 4356SOL    HW224531   3.967   2.363  11.112 -1.5601 -1.1154 -0.5400
 4357SOL     OW24532   0.968   2.611   6.151  0.4559  0.1374  0.1472
 4357SOL    HW124533   0.911   2.550   6.199 -0.5304  1.5581  0.7893
 4357SOL    HW224534   0.946   2.577   6.064 -0.5303 -1.6124  1.0614
 4358SOL     OW24535   4.573   1.481  10.948 -0.2948  0.1410  0.5476
 4358SOL    HW124536   4.636   1.415  10.977  0.2645  0.0907 -0.7568
 4358SOL    HW224537   4.569   1.462  10.854  0.6137 -1.8567  0.9124
 4359SOL     OW24538   1.982   0.788   0.680  0.8198 -0.1716  0.7807
 4359SOL    HW124539   1.908   0.846   0.666  0.5666 -0.2724  1.6672
 4359SOL    HW224540   1.965   0.763   0.771  2.1599 -2.1195  0.4935
 4360SOL     OW24541   2.053   0.044   9.292  0.9259 -0.7454  0.2831
 4360SOL    HW124542   2.058   0.096   9.212  0.2195 -1.3082 -0.1289
 4360SOL    HW224543   2.031   0.111   9.357  0.0993 -0.3770 -0.3812
 4361SOL     OW24544   0.605   4.145  13.416 -0.7167 -0.1993  0.4471
 4361SOL    HW124545   0.516   4.110  13.421 -0.6226 -0.8750 -2.4558
 4361SOL    HW224546   0.632   4.129  13.506 -0.1385 -0.8827  0.1523
 4362SOL     OW24547   0.577   0.030   6.056  0.3308  0.1311  0.4269
 4362SOL    HW124548   0.640   4.685   6.085  0.3385  0.4207  1.0786
 4362SOL    HW224549   0.629   0.055   5.980 -0.1019  1.6218  0.6361
 4363SOL     OW24550   4.696   1.462   6.072  0.4808 -0.4792 -0.1992
 4363SOL    HW124551   0.039   1.406   6.115  2.6982  1.3416 -1.1605
 4363SOL    HW224552   0.026   1.542   6.078 -1.3269  0.8098 -1.8253
 4364SOL     OW24553   1.277   4.676   6.466  0.5329 -0.5136  0.2709
 4364SOL    HW124554   1.293   4.607   6.529  0.4805 -2.1272 -1.4992
 4364SOL    HW224555   1.295   0.040   6.507 -0.2644 -1.2868  2.2230
 4365SOL     OW24556   1.560   1.179   8.092  0.5707  0.1381 -0.1193
 4365SOL    HW124557   1.594   1.267   8.080 -0.0171  0.2022 -1.2482
 4365SOL    HW224558   1.495   1.179   8.023 -2.0839 -0.7686  2.3990
 4366SOL     OW24559   0.882   1.035   6.947  0.4216 -0.0189  0.0134
 4366SOL    HW124560   0.887   1.108   7.008 -1.4059  0.6368 -0.6413
 4366SOL    HW224561   0.863   1.077   6.863  0.5048 -0.5700 -0.2806
 4367SOL     OW24562   0.785   1.185   3.322 -0.0949 -0.5515  0.0167
 4367SOL    HW124563   0.765   1.091   3.325 -2.4634 -0.0259 -0.0047
 4367SOL    HW224564   0.845   1.198   3.249  0.2549 -2.7904 -0.0931
 4368SOL     OW24565   0.445   0.030   4.868  0.5791 -0.3272  0.1267
 4368SOL    HW124566   0.378   4.721   4.806  1.4544 -0.4080 -0.7808
 4368SOL    HW224567   0.462   4.672   4.919 -0.1098 -0.1998  0.5670
 4369SOL     OW24568   3.168   0.369  16.179  0.2213  0.7998 -0.3713
 4369SOL    HW124569   3.119   0.335  16.104  0.2274 -1.0773  0.4863
 4369SOL    HW224570   3.093   0.402  16.228 -0.7472  0.7158 -1.7889
 4370SOL     OW24571   0.542   1.278   3.362 -0.7646  0.5938 -0.6668
 4370SOL    HW124572   0.574   1.363   3.392 -0.2603  0.7807 -1.7223
 4370SOL    HW224573   0.627   1.234   3.354 -0.3333  1.0052  1.6659
 4371SOL     OW24574   1.390   4.590  16.199  0.8654 -0.2866 -0.1505
 4371SOL    HW124575   1.307   4.543  16.202  1.0985 -0.5730  1.5368
 4371SOL    HW224576   1.386   4.616  16.291 -2.8957 -1.9905  0.1640
 4372SOL     OW24577   2.595   3.577  14.516  0.1947 -0.4329 -0.3595
 4372SOL    HW124578   2.622   3.669  14.521 -0.1860 -0.3146 -0.4910
 4372SOL    HW224579   2.677   3.531  14.537  2.3862  2.8045 -1.7929
 4373SOL     OW24580   0.882   1.075  10.719 -0.0514  0.1234 -0.6250
 4373SOL    HW124581   0.880   1.040  10.629 -0.1928 -0.9651 -0.2008
 4373SOL    HW224582   0.801   1.125  10.719 -0.6894 -0.8877 -1.3620
 4374SOL     OW24583   2.327   0.013   5.901 -0.7468 -0.1146  0.0826
 4374SOL    HW124584   2.375   0.072   5.960  0.4871 -0.7426 -0.2868
 4374SOL    HW224585   2.253   4.712   5.957  0.8709 -1.2348  1.8048
 4375SOL     OW24586   2.498   0.182  17.301  0.2538  0.0030  0.2773
 4375SOL    HW124587   2.416   0.212  17.263  0.6666 -1.7681 -2.0083
 4375SOL    HW224588   2.459   0.144  17.380  1.0125 -1.6489 -0.1379
 4376SOL     OW24589   4.477   2.605   8.205 -0.3024  0.4053  0.3144
 4376SOL    HW124590   4.523   2.535   8.252 -0.7654 -0.4308 -0.4852
 4376SOL    HW224591   4.410   2.628   8.269 -0.2319  0.3900  0.3947
 4377SOL     OW24592   3.117   0.240   1.229 -0.4686  0.3531  0.3458
 4377SOL    HW124593   3.120   0.247   1.325  0.9770 -1.1533  0.4184
 4377SOL    HW224594   3.060   0.165   1.211  2.0723 -0.1956 -5.2524
 4378SOL     OW24595   4.143   4.661   4.941 -0.2680 -0.2403  0.2648
 4378SOL    HW124596   4.188   0.022   4.960  0.5350 -0.5276 -0.3836
 4378SOL    HW224597   4.067   4.669   4.998 -0.9048  1.5793 -0.8590
 4379SOL     OW24598   0.747   4.639   6.293 -0.4648 -0.1122 -0.2043
 4379SOL    HW124599   0.748   4.608   6.384 -0.4168  0.0268 -0.1579
 4379SOL    HW224600   0.728   4.557   6.248  0.4835  0.6874 -2.0703
 4380SOL     OW24601   1.996   3.108   6.692  0.1269  0.0587 -0.6136
 4380SOL    HW124602   1.925   3.144   6.639  0.2827  2.3563  0.7367
 4380SOL    HW224603   2.061   3.085   6.626 -1.1785  0.4428 -2.0335
 4381SOL     OW24604   2.377   3.385   3.565 -0.0411 -0.5805  0.5704
 4381SOL    HW124605   2.431   3.358   3.491  1.1651  1.0732  0.8563
 4381SOL    HW224606   2.356   3.298   3.599  0.7051 -1.0897 -0.2664
 4382SOL     OW24607   3.062   4.512   9.637 -0.6520 -0.2870  0.0278
 4382SOL    HW124608   3.050   4.531   9.730  0.9542  1.4484 -0.1090
 4382SOL    HW224609   3.117   4.435   9.649  0.2418  0.1042 -1.5774
 4383SOL     OW24610   1.127   0.011   4.183  1.0241 -0.2296  0.5301
 4383SOL    HW124611   1.136   0.076   4.253 -2.6756  0.3326  0.4896
 4383SOL    HW224612   1.035   4.705   4.189  0.8268  0.0550 -1.2979
 4384SOL     OW24613   0.037   4.050   7.959  0.0943  0.0167 -0.2078
 4384SOL    HW124614   4.702   4.125   7.940  0.6625  0.8943  1.5310
 4384SOL    HW224615   0.066   4.030   7.870 -2.7159 -1.0357 -0.8648
 4385SOL     OW24616   2.077   0.792   8.608 -0.5842  0.1130 -0.6529
 4385SOL    HW124617   2.047   0.701   8.600  1.8203 -0.8321  0.8508
 4385SOL    HW224618   2.065   0.809   8.515  1.4704  0.3076 -0.8771
 4386SOL     OW24619   4.080   1.107  14.527  0.2120  0.0057 -0.6755
 4386SOL    HW124620   4.056   1.016  14.511 -0.7605 -0.1374  1.6574
 4386SOL    HW224621   4.168   1.095  14.491  0.1907 -0.2256 -0.6495
 4387SOL     OW24622   0.317   2.287   7.831  0.0297  0.4870 -0.1591
 4387SOL    HW124623   0.403   2.291   7.872 -0.5016 -0.5527  1.0372
 4387SOL    HW224624   0.262   2.316   7.904 -0.7783 -1.4955  0.0063
 4388SOL     OW24625   3.860   3.533   6.804 -0.3841 -0.1635  0.4282
 4388SOL    HW124626   3.870   3.516   6.897 -0.9497  0.9204  0.6866
 4388SOL    HW224627   3.874   3.628   6.805 -1.3883  0.0246 -1.8848
 4389SOL     OW24628   1.766   1.107   7.441 -0.1040  0.1196 -0.2530
 4389SOL    HW124629   1.807   1.125   7.356 -1.0085  2.9655 -0.0732
 4389SOL    HW224630   1.842   1.063   7.480  1.4932  3.2927  0.1967
 4390SOL     OW24631   1.126   3.639   8.404 -0.9582  0.4607 -0.0202
 4390SOL    HW124632   1.179   3.560   8.410 -0.8624  0.5447  0.2877
 4390SOL    HW224633   1.038   3.602   8.406 -0.9836  0.5753  1.0071
 4391SOL     OW24634   0.629   2.771  16.017 -0.0856 -0.0650  0.1036
 4391SOL    HW124635   0.673   2.688  15.998 -0.1147 -0.6376  2.5407
 4391SOL    HW224636   0.576   2.780  15.938  0.8644 -1.4746 -0.7045
 4392SOL     OW24637   3.750   2.985   6.545  0.3866  0.7400 -0.1096
 4392SOL    HW124638   3.841   2.968   6.520  0.0151 -1.0791 -0.2019
 4392SOL    HW224639   3.766   3.036   6.624 -0.1787 -0.5995  0.8767
 4393SOL     OW24640   2.083   4.201  12.125 -0.1478  0.4964 -0.3089
 4393SOL    HW124641   1.989   4.205  12.144  0.5476 -2.1682  3.5981
 4393SOL    HW224642   2.084   4.193  12.029 -1.3209 -0.5714 -0.2339
 4394SOL     OW24643   0.920   4.152   8.371  0.0115 -0.2579  0.5684
 4394SOL    HW124644   0.927   4.061   8.345  1.2229 -0.5364  1.8568
 4394SOL    HW224645   0.999   4.197   8.341 -1.1640  1.7066  0.4224
 4395SOL     OW24646   3.954   0.988   7.611  0.0373 -0.0966  0.0379
 4395SOL    HW124647   3.957   0.960   7.520  0.1165  2.7825 -0.8335
 4395SOL    HW224648   3.954   0.903   7.656  0.6032  0.4345  1.0431
 4396SOL     OW24649   1.753   1.207   0.805 -0.2326 -0.4585  0.0986
 4396SOL    HW124650   1.805   1.193   0.885 -0.5570 -1.6335  0.1044
 4396SOL    HW224651   1.666   1.197   0.845  0.2001  0.5967  1.3192
 4397SOL     OW24652   3.923   1.952   5.143  0.0245 -0.5941 -0.0169
 4397SOL    HW124653   3.966   1.888   5.199  0.2445  1.4581  2.1299
 4397SOL    HW224654   3.841   1.906   5.124  0.2599 -1.3535  0.8158
 4398SOL     OW24655   1.729   1.880  16.330  0.6754  0.3152  0.1520
 4398SOL    HW124656   1.782   1.927  16.266 -0.5714  2.4933  0.6860
 4398SOL    HW224657   1.704   1.805  16.277 -0.7680  0.0303  1.2185
 4399SOL     OW24658   1.822   2.630  16.853 -0.1414  0.0302  0.5665
 4399SOL    HW124659   1.772   2.570  16.798 -0.8169  1.1177 -0.0117
 4399SOL    HW224660   1.760   2.697  16.881  0.5894 -0.2788  2.9207
 4400SOL     OW24661   2.612   0.210  14.877 -0.0149  0.3606  0.5497
 4400SOL    HW124662   2.620   0.142  14.811  0.3305 -0.9333  1.9366
 4400SOL    HW224663   2.706   0.228  14.879  0.0812 -0.1010  0.1839
 4401SOL     OW24664   1.578   3.429   3.453 -0.1554  0.3487  0.0047
 4401SOL    HW124665   1.625   3.389   3.381  2.2234  0.3358  1.5867
 4401SOL    HW224666   1.642   3.476   3.506 -1.2440  1.7902  0.0639
 4402SOL     OW24667   2.496   1.128   8.292  0.2671 -0.4559  0.2539
 4402SOL    HW124668   2.539   1.178   8.223 -0.1182  1.2822  1.2842
 4402SOL    HW224669   2.489   1.192   8.363  0.8218 -0.6227  0.4595
 4403SOL     OW24670   0.823   1.550  16.679 -0.1297  0.4340 -0.9438
 4403SOL    HW124671   0.873   1.591  16.749 -0.1710  1.1394 -1.3301
 4403SOL    HW224672   0.893   1.487  16.662  1.2268  1.1626  1.8364
 4404SOL     OW24673   2.751   4.231   7.551 -0.3304 -0.0273  0.5306
 4404SOL    HW124674   2.819   4.167   7.571 -0.8886 -1.0528 -0.9064
 4404SOL    HW224675   2.718   4.185   7.474 -1.3672  0.2726  0.8049
 4405SOL     OW24676   4.034   4.015   8.099  0.3610 -0.0810 -0.4016
 4405SOL    HW124677   4.109   3.958   8.081  0.6385  0.0714  0.2843
 4405SOL    HW224678   4.009   3.992   8.189 -1.1896  1.1518 -0.5165
 4406SOL     OW24679   2.896   3.230   2.361  0.8867 -0.2735 -0.7614
 4406SOL    HW124680   2.901   3.268   2.449 -1.0720  0.2641 -0.8995
 4406SOL    HW224681   2.801   3.223   2.360  0.7510  1.6195 -1.8054
 4407SOL     OW24682   3.883   2.237   0.633 -0.1153  0.5678  0.1778
 4407SOL    HW124683   3.882   2.333   0.630 -1.3796  0.5502  0.1326
 4407SOL    HW224684   3.880   2.226   0.538 -0.0670  2.9931 -0.1055
 4408SOL     OW24685   3.492   0.993   3.079  0.7928 -0.6119 -0.4866
 4408SOL    HW124686   3.501   0.898   3.086  1.6582 -0.6294 -1.7851
 4408SOL    HW224687   3.577   1.023   3.112  0.7309  0.3827 -1.2094
 4409SOL     OW24688   4.335   0.666  13.241  0.3086  0.6297 -0.3106
 4409SOL    HW124689   4.262   0.609  13.265 -0.8820  1.7155 -1.4171
 4409SOL    HW224690   4.365   0.612  13.168  1.4721  0.6378  0.1592
 4410SOL     OW24691   3.662   4.618   5.032 -0.1255 -0.1473 -0.6319
 4410SOL    HW124692   3.637   4.537   5.075  0.7771  1.3519  2.7294
 4410SOL    HW224693   3.577   4.655   5.011 -1.0931 -0.9800  1.8887
 4411SOL     OW24694   4.024   2.424  14.056  0.1586 -0.1341 -0.2438
 4411SOL    HW124695   4.110   2.407  14.018  2.0354 -0.7786  4.2514
 4411SOL    HW224696   3.974   2.389  13.982  2.1436  1.4684 -2.3408
 4412SOL     OW24697   4.476   0.663  14.734 -0.4502  0.0599  0.4880
 4412SOL    HW124698   4.550   0.602  14.727  0.3958  1.1035  0.4713
 4412SOL    HW224699   4.422   0.603  14.787 -0.1277 -1.3138 -0.7340
 4413SOL     OW24700   1.376   4.428   6.149 -0.7027 -0.0078 -0.7331
 4413SOL    HW124701   1.388   4.519   6.175  2.2008 -0.3017 -1.0412
 4413SOL    HW224702   1.309   4.437   6.081 -0.0807  1.0759 -1.2088
 4414SOL     OW24703   1.401   4.506   3.093  0.3578 -0.1495 -0.3164
 4414SOL    HW124704   1.355   4.426   3.067  0.8147 -0.5293  0.0495
 4414SOL    HW224705   1.411   4.559   3.014  1.5247 -0.5556 -0.4378
 4415SOL     OW24706   0.657   2.433   2.507  0.7659 -0.4386  0.1276
 4415SOL    HW124707   0.580   2.381   2.483  0.9882 -0.2040 -1.0953
 4415SOL    HW224708   0.649   2.508   2.449  2.3056 -0.0804  0.3758
 4416SOL     OW24709   4.433   2.986   4.572  0.0378 -0.0804  0.1757
 4416SOL    HW124710   4.491   2.996   4.497 -1.1695 -1.0874 -0.8899
 4416SOL    HW224711   4.488   2.916   4.608  1.1811 -0.1667 -1.7382
 4417SOL     OW24712   1.216   1.113   0.210 -0.0756  0.0824  0.3513
 4417SOL    HW124713   1.256   1.196   0.185  2.2809 -0.5738  1.9219
 4417SOL    HW224714   1.290   1.053   0.224  0.4747  0.6485 -0.1114
 4418SOL     OW24715   1.323   3.974   8.677  0.4200  0.5362 -0.0992
 4418SOL    HW124716   1.417   3.957   8.684  0.4041  0.9412  1.0505
 4418SOL    HW224717   1.295   3.936   8.594  1.1817 -2.5191  1.0482
 4419SOL     OW24718   2.031   4.232  11.847 -0.1256 -0.1388  0.1001
 4419SOL    HW124719   2.050   4.325  11.840 -0.3685 -0.0591  0.4927
 4419SOL    HW224720   2.118   4.192  11.837  0.0818  0.4504 -0.5090
 4420SOL     OW24721   1.456   0.117   4.613  0.3122  0.4672 -0.0436
 4420SOL    HW124722   1.416   0.196   4.577  0.9280  1.0403  0.5202
 4420SOL    HW224723   1.409   0.045   4.571  0.2618  1.6322 -1.9811
 4421SOL     OW24724   3.287   1.970   3.486 -0.0309  0.0170 -0.1425
 4421SOL    HW124725   3.382   1.971   3.474  0.2879  0.6387  2.4282
 4421SOL    HW224726   3.276   1.875   3.488 -0.9528  0.1160 -1.0210
 4422SOL     OW24727   0.769   4.554   8.412 -0.4388 -0.8521  0.2785
 4422SOL    HW124728   0.684   4.597   8.405  1.1063  1.9013 -1.4379
 4422SOL    HW224729   0.735   4.485   8.470 -0.9022 -0.2437  0.7328
 4423SOL     OW24730   0.125   2.807  15.951 -0.6698  0.3260  0.2597
 4423SOL    HW124731   0.210   2.802  15.908 -1.5214 -1.5138 -1.2062
 4423SOL    HW224732   0.072   2.782  15.875 -1.5317 -0.5231  1.1356
 4424SOL     OW24733   1.614   3.700   3.647 -0.1485 -0.2101 -0.5444
 4424SOL    HW124734   1.641   3.746   3.727  0.0979  0.3094 -0.9247
 4424SOL    HW224735   1.673   3.625   3.641  0.3320  0.1364 -0.1986
 4425SOL     OW24736   0.372   1.567   8.504  0.3135 -0.3398  0.0240
 4425SOL    HW124737   0.352   1.653   8.541  0.7094 -0.3668  0.3047
 4425SOL    HW224738   0.454   1.581   8.456 -0.4638 -0.9047 -1.4638
 4426SOL     OW24739   1.992   0.117   5.984 -0.0441  0.1093  0.1731
 4426SOL    HW124740   1.968   0.115   5.891  0.0395  1.2017  0.1300
 4426SOL    HW224741   1.968   0.207   6.002 -0.8093  0.0998 -0.7935
 4427SOL     OW24742   3.136   0.645  16.476 -0.0408  0.0736 -0.2274
 4427SOL    HW124743   3.216   0.662  16.427  0.1892 -0.3499 -0.0007
 4427SOL    HW224744   3.075   0.689  16.417 -3.1262 -1.3994  1.8296
 4428SOL     OW24745   1.195   3.045   3.558  0.4716  0.2119  0.1233
 4428SOL    HW124746   1.260   3.108   3.528 -0.5877  0.1497 -2.3237
 4428SOL    HW224747   1.158   3.097   3.630  1.2800  0.4427  0.3689
 4429SOL     OW24748   3.037   1.874  10.524 -0.2372  0.2120 -0.8733
 4429SOL    HW124749   2.984   1.879  10.603  0.5934 -2.2262 -0.1632
 4429SOL    HW224750   2.978   1.921  10.464  0.4940 -0.7729 -2.3783
 4430SOL     OW24751   0.631   1.559  14.706  0.2009 -0.0319 -0.1316
 4430SOL    HW124752   0.635   1.583  14.799  2.1348  1.1077 -0.5121
 4430SOL    HW224753   0.554   1.601  14.668 -1.2187  0.3242  3.1610
 4431SOL     OW24754   1.432   2.754   6.705  0.7694 -0.2564 -0.4009
 4431SOL    HW124755   1.449   2.802   6.624  0.4212 -0.0320 -0.3438
 4431SOL    HW224756   1.431   2.822   6.772 -4.6252 -0.4137 -0.3231
 4432SOL     OW24757   1.835   4.671  16.455 -0.0881  0.0153 -0.2191
 4432SOL    HW124758   1.782   4.604  16.411 -1.2236 -1.0065  2.6658
 4432SOL    HW224759   1.907   4.692  16.395  0.3147  0.4598  0.4188
 4433SOL     OW24760   0.035   4.503   1.683 -0.4449  0.0530  0.1993
 4433SOL    HW124761   0.109   4.454   1.720  0.0554  0.5826 -0.1097
 4433SOL    HW224762   0.063   4.530   1.596 -1.6349  0.0782 -0.1689
 4434SOL     OW24763   2.954   2.599   2.535 -0.5446  0.1408 -0.6904
 4434SOL    HW124764   3.028   2.541   2.519  0.4572  0.5063  2.7296
 4434SOL    HW224765   2.987   2.689   2.524  0.8465 -0.2659  0.1626
 4435SOL     OW24766   2.046   0.758  17.592 -0.4102 -0.3305 -0.3160
 4435SOL    HW124767   2.014   0.831  17.645 -0.4507 -0.6794  0.1364
 4435SOL    HW224768   2.132   0.740  17.630 -0.6491 -1.4522 -0.3103
 4436SOL     OW24769   2.925   0.880  16.854 -0.4082  0.6038 -0.2017
 4436SOL    HW124770   2.842   0.876  16.806 -1.5623  2.1258  1.6611
 4436SOL    HW224771   2.900   0.942  16.923 -1.3598 -0.4372  0.3975
 4437SOL     OW24772   4.383   3.610  16.294  0.0642  0.3483 -0.1667
 4437SOL    HW124773   4.418   3.539  16.348 -0.2322 -0.5289 -1.1415
 4437SOL    HW224774   4.458   3.669  16.307  1.0157 -1.2793  1.6601
 4438SOL     OW24775   1.524   1.405   6.822 -0.0102  0.1224 -0.2062
 4438SOL    HW124776   1.534   1.493   6.859 -0.0012  0.0136  0.0488
 4438SOL    HW224777   1.606   1.401   6.772 -1.0816  2.0498 -2.0774
 4439SOL     OW24778   3.149   1.426   3.621  0.0355 -0.3103 -0.1995
 4439SOL    HW124779   3.197   1.348   3.591  0.2777  0.2058 -1.1298
 4439SOL    HW224780   3.078   1.380   3.666 -0.2444 -0.8020 -1.1499
 4440SOL     OW24781   0.874   1.425   4.912 -0.1228 -0.2176 -0.6175
 4440SOL    HW124782   0.878   1.331   4.896 -0.3427 -0.4674  0.7589
 4440SOL    HW224783   0.781   1.439   4.930 -0.4099 -2.3492 -0.4662
 4441SOL     OW24784   4.203   3.237   8.043  0.0861  0.0649 -0.4023
 4441SOL    HW124785   4.189   3.212   7.952  1.8775 -3.5591  0.3039
 4441SOL    HW224786   4.133   3.298   8.065  0.4625  0.8183 -1.3178
 4442SOL     OW24787   3.386   4.468   8.602 -0.0449  0.0572 -0.4671
 4442SOL    HW124788   3.322   4.475   8.673 -1.1845 -0.9543 -1.3966
 4442SOL    HW224789   3.363   4.381   8.569  1.6669 -0.8327  0.6872
 4443SOL     OW24790   1.484   3.681   7.311 -0.1680  1.0635  0.4143
 4443SOL    HW124791   1.440   3.763   7.334 -0.1932  0.9875  0.6412
 4443SOL    HW224792   1.571   3.718   7.322  0.4601 -0.2461 -0.2159
 4444SOL     OW24793   4.155   3.960  17.685  0.7507  0.1298  0.3376
 4444SOL    HW124794   4.129   3.869   0.012 -1.0632  0.5402 -0.2731
 4444SOL    HW224795   4.227   3.941  17.626  0.5817  1.1881 -0.2241
 4445SOL     OW24796   2.290   2.990   8.521  0.2711  0.1835  0.2376
 4445SOL    HW124797   2.259   3.006   8.610  0.5153 -0.5356  0.4462
 4445SOL    HW224798   2.286   2.895   8.511  0.3713  0.2232 -0.2082
 4446SOL     OW24799   3.180   1.783   5.843  0.6517  0.7531 -0.3004
 4446SOL    HW124800   3.212   1.711   5.788 -0.9922 -0.3504  0.2109
 4446SOL    HW224801   3.144   1.739   5.919 -2.1659  2.1781 -0.8057
 4447SOL     OW24802   0.688   1.482   5.731 -0.1485 -0.5844  0.1930
 4447SOL    HW124803   0.735   1.405   5.700 -1.5529 -1.1745 -0.4432
 4447SOL    HW224804   0.760   1.526   5.778 -0.0813 -1.2976  0.7623
 4448SOL     OW24805   0.252   1.784  11.165  0.2868 -0.7704 -0.0253
 4448SOL    HW124806   0.221   1.866  11.204  2.2716 -0.1329  0.2032
 4448SOL    HW224807   0.335   1.815  11.129 -1.3927 -0.0064 -3.2876
 4449SOL     OW24808   1.700   4.540   6.413 -0.0958  0.1423  0.2155
 4449SOL    HW124809   1.612   4.510   6.388 -0.5534  0.8787  0.9401
 4449SOL    HW224810   1.674   4.611   6.472 -1.6399 -0.1233 -0.1422
 4450SOL     OW24811   3.046   3.908   5.505  0.6690 -0.2027  0.1395
 4450SOL    HW124812   3.072   3.891   5.414  0.2558  2.5405 -0.4909
 4450SOL    HW224813   2.959   3.945   5.491  1.0196  1.1540  1.5137
 4451SOL     OW24814   1.394   3.180  13.122 -0.0316 -0.3905 -0.1671
 4451SOL    HW124815   1.458   3.176  13.193  1.3327  1.5559 -1.2935
 4451SOL    HW224816   1.448   3.172  13.043  1.4067  0.6627  0.7354
 4452SOL     OW24817   3.726   1.582   6.702  0.2978  0.0892 -0.2957
 4452SOL    HW124818   3.649   1.565   6.648 -0.2575 -0.5665  0.7005
 4452SOL    HW224819   3.672   1.610   6.777  1.5788 -0.6936  0.9314
 4453SOL     OW24820   3.478   3.163   3.851 -0.0275  0.1301 -0.0177
 4453SOL    HW124821   3.446   3.108   3.922 -0.0919 -1.9234 -1.6725
 4453SOL    HW224822   3.415   3.235   3.852 -0.9297 -0.6822  0.6773
 4454SOL     OW24823   1.289   2.730   2.261  0.7503 -0.5283 -0.2060
 4454SOL    HW124824   1.354   2.718   2.191 -0.6027  1.5724 -1.8300
 4454SOL    HW224825   1.265   2.822   2.256 -0.2794 -0.7259  1.1660
 4455SOL     OW24826   2.712   2.751   4.848  0.1986  0.4618 -0.1902
 4455SOL    HW124827   2.728   2.809   4.923  0.7727  0.9703 -0.7110
 4455SOL    HW224828   2.759   2.671   4.870  2.7685  1.4332 -2.2707
 4456SOL     OW24829   3.610   0.757   3.174  0.3510  0.3433  0.4070
 4456SOL    HW124830   3.568   0.684   3.128  1.4797 -0.2727  0.3489
 4456SOL    HW224831   3.687   0.708   3.203  1.4467 -0.1791 -3.4195
 4457SOL     OW24832   0.559   1.087   2.708 -0.0469 -0.0932  0.0909
 4457SOL    HW124833   0.640   1.116   2.666  0.5998 -2.5257 -0.3592
 4457SOL    HW224834   0.583   1.000   2.741  2.4798 -0.8136 -3.5820
 4458SOL     OW24835   0.147   3.031  10.042  0.4576 -0.0782 -0.4619
 4458SOL    HW124836   0.156   3.123  10.017 -0.7449  0.5074  1.2663
 4458SOL    HW224837   0.239   3.010  10.057  0.5718  0.8290  0.1004
 4459SOL     OW24838   4.368   4.311  16.517 -0.5785  0.4409 -0.0355
 4459SOL    HW124839   4.362   4.353  16.603 -0.9658 -0.6015  0.4555
 4459SOL    HW224840   4.434   4.243  16.531  0.0812  0.5717 -2.6388
 4460SOL     OW24841   4.444   3.592   1.257  0.3953 -0.4422 -0.2499
 4460SOL    HW124842   4.499   3.536   1.311  1.2233 -0.7229 -1.3867
 4460SOL    HW224843   4.420   3.546   1.176 -1.2253 -3.0907  1.7352
 4461SOL     OW24844   1.876   1.211   1.898  0.1384  0.1003 -0.3441
 4461SOL    HW124845   1.958   1.221   1.947 -0.5764 -1.1692  1.1128
 4461SOL    HW224846   1.918   1.191   1.815 -2.8262 -0.6930 -1.6646
 4462SOL     OW24847   1.983   3.473  15.249  0.2105  0.3264 -0.4203
 4462SOL    HW124848   1.998   3.524  15.169  0.5345  2.5391  1.0628
 4462SOL    HW224849   1.968   3.389  15.206  1.8215  0.2511 -0.8371
 4463SOL     OW24850   2.995   0.437   5.161 -0.2357  0.2846  0.6146
 4463SOL    HW124851   3.037   0.390   5.089 -0.5438  1.0089 -0.0358
 4463SOL    HW224852   2.999   0.377   5.235  0.3204  0.5549  0.8105
 4464SOL     OW24853   1.984   1.045   3.939  0.0941 -0.3429 -0.7688
 4464SOL    HW124854   1.956   0.970   3.992  0.8863  0.0882  0.2524
 4464SOL    HW224855   2.001   0.994   3.859  1.6196 -1.6183  0.3682
 4465SOL     OW24856   2.997   2.887  10.738  0.4616 -0.8066  0.4625
 4465SOL    HW124857   3.050   2.926  10.806  1.3485  1.2425 -1.3955
 4465SOL    HW224858   3.048   2.916  10.663 -2.2124 -0.6456 -1.3312
 4466SOL     OW24859   4.444   1.482   2.568 -0.4112  0.1822  0.2312
 4466SOL    HW124860   4.461   1.389   2.583  2.3152  0.8056  1.0815
 4466SOL    HW224861   4.509   1.494   2.498 -0.5357 -0.0397  0.0808
 4467SOL     OW24862   3.338   0.382   1.597  0.0783 -0.4620 -0.2788
 4467SOL    HW124863   3.360   0.383   1.690  0.5452  1.1116 -0.4134
 4467SOL    HW224864   3.349   0.475   1.578 -1.0020 -0.3715 -0.4553
 4468SOL     OW24865   2.980   2.611   4.125  0.0825  0.5026  0.0094
 4468SOL    HW124866   2.901   2.561   4.105 -0.6021  1.5443  0.1323
 4468SOL    HW224867   2.938   2.669   4.189 -0.0551 -0.8459  1.1264
 4469SOL     OW24868   0.913   2.415   0.840 -0.5467  0.1957 -0.4772
 4469SOL    HW124869   0.845   2.382   0.782  1.3157 -2.5454 -1.1222
 4469SOL    HW224870   0.967   2.463   0.776 -3.0379  2.1715 -1.0871
 4470SOL     OW24871   4.439   0.520   4.931 -0.0034  0.3712  0.1027
 4470SOL    HW124872   4.462   0.494   5.021  0.6163 -1.4170 -0.5688
 4470SOL    HW224873   4.353   0.561   4.936 -0.0608  0.2950 -0.3102
 4471SOL     OW24874   1.957   0.796   1.287 -0.0158 -0.2835 -0.2495
 4471SOL    HW124875   1.977   0.708   1.254 -0.6537 -0.8187  0.7952
 4471SOL    HW224876   1.892   0.776   1.354  0.6658  0.3370  0.5964
 4472SOL     OW24877   1.677   3.514   6.168  0.0912  0.2157  0.3242
 4472SOL    HW124878   1.663   3.598   6.211 -0.8005  0.3003 -0.1443
 4472SOL    HW224879   1.663   3.455   6.242  1.2013 -0.0701  0.3135
 4473SOL     OW24880   4.674   4.617  14.343  0.3001  0.2197 -0.0098
 4473SOL    HW124881   4.685   4.522  14.351  2.0512  0.5624  1.7770
 4473SOL    HW224882   4.655   4.616  14.250  0.2393  0.8634 -0.0052
 4474SOL     OW24883   4.127   2.093   1.972 -0.8009  0.3263  0.1128
 4474SOL    HW124884   4.105   2.077   1.880  0.1329  1.9513 -0.3834
 4474SOL    HW224885   4.045   2.079   2.020 -0.8422 -0.2347 -0.1183
 4475SOL     OW24886   0.677   0.154  14.188  0.6943  0.1127 -0.9269
 4475SOL    HW124887   0.675   0.250  14.182 -0.2064  0.1993  1.0745
 4475SOL    HW224888   0.653   0.158  14.280 -2.9701 -1.6068 -1.7862
 4476SOL     OW24889   4.258   1.880  11.273  0.4185  0.1904  0.5833
 4476SOL    HW124890   4.303   1.796  11.265  2.3601  1.3142 -0.2532
 4476SOL    HW224891   4.167   1.864  11.298  0.5710  0.7129  1.5163
 4477SOL     OW24892   4.005   4.708  11.934 -0.0826  0.5168 -0.5533
 4477SOL    HW124893   4.058   4.629  11.944 -1.2954 -0.2995 -0.5748
 4477SOL    HW224894   3.934   4.672  11.880 -0.6239 -1.1329  1.2725
 4478SOL     OW24895   2.627   2.184   4.168 -0.5272  0.1797 -0.0365
 4478SOL    HW124896   2.531   2.183   4.163 -0.4232  2.1087 -2.2720
 4478SOL    HW224897   2.653   2.109   4.114 -2.3087  0.2442 -1.0035
 4479SOL     OW24898   4.564   4.450  10.208 -0.1390  0.7908  0.0632
 4479SOL    HW124899   4.538   4.426  10.297 -3.6737 -2.3644 -1.8294
 4479SOL    HW224900   4.578   4.366  10.164  0.4789  0.9806 -0.1015
 4480SOL     OW24901   0.620   1.723  16.994 -0.2573  0.0562  0.0622
 4480SOL    HW124902   0.599   1.789  17.060 -2.1780 -1.6742  1.1599
 4480SOL    HW224903   0.693   1.772  16.957 -0.3097  1.0853  1.3106
 4481SOL     OW24904   1.698   3.199  16.012 -0.4737 -0.6988  0.0429
 4481SOL    HW124905   1.785   3.210  16.051 -1.1201 -1.8692  1.8109
 4481SOL    HW224906   1.680   3.108  16.037  1.0658 -1.0773 -0.2165
 4482SOL     OW24907   4.297   1.013  11.620  0.5881  0.4409  0.3397
 4482SOL    HW124908   4.210   0.996  11.656 -1.1608  0.2840 -3.9942
 4482SOL    HW224909   4.278   1.099  11.581 -2.3276  0.4351  1.7303
 4483SOL     OW24910   3.613   4.193   9.313  0.2185  0.2126 -0.4835
 4483SOL    HW124911   3.558   4.265   9.344  0.1341  0.0171 -0.1830
 4483SOL    HW224912   3.599   4.139   9.391  1.6390 -0.5703 -0.7727
 4484SOL     OW24913   4.211   2.543   3.265 -0.6990  0.3699 -0.3569
 4484SOL    HW124914   4.261   2.462   3.276 -0.1069  0.6382 -1.1002
 4484SOL    HW224915   4.126   2.511   3.295 -0.7559  0.6834 -0.1758
 4485SOL     OW24916   0.736   4.184  12.752  0.0431  0.2911 -0.6108
 4485SOL    HW124917   0.784   4.204  12.832 -0.3301 -0.7599 -0.1258
 4485SOL    HW224918   0.734   4.088  12.755  0.8565  0.2743 -0.6383
 4486SOL     OW24919   0.348   4.400  14.504 -0.3158 -0.0991  0.5344
 4486SOL    HW124920   0.287   4.436  14.568  1.2225  0.0506  1.9070
 4486SOL    HW224921   0.379   4.318  14.543  0.5799  1.3684  2.9071
 4487SOL     OW24922   3.857   2.081  13.956  0.8506 -0.4740 -0.0329
 4487SOL    HW124923   3.899   1.996  13.964 -0.7226 -1.1810  0.7157
 4487SOL    HW224924   3.832   2.101  14.046 -0.5858  1.6125 -0.8675
 4488SOL     OW24925   1.713   0.113   4.402  0.0255  0.3584 -0.3145
 4488SOL    HW124926   1.664   0.195   4.399 -1.4914 -0.5458 -0.0682
 4488SOL    HW224927   1.695   0.080   4.490 -1.6410 -0.5573 -1.0006
 4489SOL     OW24928   0.730   1.833   8.388  0.4074 -0.2209 -0.6020
 4489SOL    HW124929   0.808   1.825   8.333 -0.6864  0.5296 -2.2908
 4489SOL    HW224930   0.716   1.927   8.376 -0.0478 -0.2583 -0.3666
 4490SOL     OW24931   0.580   1.953   5.056  0.5675  0.2796 -0.6454
 4490SOL    HW124932   0.674   1.939   5.054  0.3704 -1.0469 -0.7003
 4490SOL    HW224933   0.554   1.971   5.146  0.3562  0.7988 -0.8069
 4491SOL     OW24934   2.316   2.909   8.804  0.0112 -0.0575 -0.2299
 4491SOL    HW124935   2.254   2.981   8.820 -4.0073 -2.8386 -3.4247
 4491SOL    HW224936   2.261   2.850   8.753 -0.0434 -0.6084  0.4637
 4492SOL     OW24937   0.681   0.705   3.426  0.0314 -0.4130  0.1261
 4492SOL    HW124938   0.741   0.631   3.417  0.6419 -0.1874  2.2558
 4492SOL    HW224939   0.604   0.664   3.387  0.7981 -3.8296  2.2317
 4493SOL     OW24940   4.186   1.763   8.010  0.6175 -0.3838 -0.1540
 4493SOL    HW124941   4.203   1.756   8.104  0.4641  1.2262 -0.0182
 4493SOL    HW224942   4.265   1.719   7.976  0.3694 -0.7760 -0.2276
 4494SOL     OW24943   3.700   3.032   7.375 -0.5921  0.3863 -0.2429
 4494SOL    HW124944   3.760   2.978   7.323  0.1073 -0.0928  1.0443
 4494SOL    HW224945   3.750   3.114   7.375 -0.7481  0.4881  1.0914
 4495SOL     OW24946   0.488   1.960   7.566 -0.1794  0.2300 -0.2042
 4495SOL    HW124947   0.419   2.027   7.571  1.5288  1.9573  0.3981
 4495SOL    HW224948   0.439   1.878   7.568  1.0675 -0.4894  0.6943
 4496SOL     OW24949   1.610   3.744  10.163  0.2086  0.3960  0.0113
 4496SOL    HW124950   1.691   3.733  10.213  2.5474  2.1749 -3.3733
 4496SOL    HW224951   1.602   3.661  10.118 -1.8762  0.3140  0.5449
 4497SOL     OW24952   2.610   2.850   8.665  0.8585  0.0376  0.0735
 4497SOL    HW124953   2.529   2.878   8.707  0.5675  2.3567 -2.0511
 4497SOL    HW224954   2.622   2.917   8.597  1.6256 -0.4640 -0.2929
 4498SOL     OW24955   0.612   2.960  12.168 -0.3270  0.3823 -0.6546
 4498SOL    HW124956   0.605   2.998  12.255  0.4522  1.5132 -1.0950
 4498SOL    HW224957   0.629   3.033  12.109  1.2271  0.2818 -0.3188
 4499SOL     OW24958   4.401   0.352  10.144  0.0008 -0.4138 -0.3274
 4499SOL    HW124959   4.423   0.379  10.233  1.3136 -1.7323 -0.2389
 4499SOL    HW224960   4.378   0.432  10.098  2.3903  0.7401  0.5028
 4500SOL     OW24961   0.701   4.666   3.757 -0.8423 -0.0493  0.5750
 4500SOL    HW124962   0.694   4.604   3.685  0.0918  0.7950 -0.2377
 4500SOL    HW224963   0.653   4.610   3.819  0.4318 -2.0300 -0.2211
 4501SOL     OW24964   3.659   1.912   4.524  0.4937 -0.2097  0.5133
 4501SOL    HW124965   3.733   1.920   4.464 -0.3606  0.0995 -0.5131
 4501SOL    HW224966   3.586   1.961   4.485  0.6963  1.9635  2.8473
 4502SOL     OW24967   3.622   1.853   7.658  0.7025  0.2510 -0.5837
 4502SOL    HW124968   3.637   1.911   7.583  0.2971  2.9199  1.3812
 4502SOL    HW224969   3.698   1.796   7.665  0.9944  0.8145  0.7947
 4503SOL     OW24970   0.533   3.625   8.945  1.2515 -0.7254  0.3144
 4503SOL    HW124971   0.570   3.710   8.921  0.7545 -0.5579  0.1507
 4503SOL    HW224972   0.585   3.600   9.021 -0.3116 -1.0619  1.2817
 4504SOL     OW24973   2.271   3.825   0.882 -0.4917 -0.1718 -0.2420
 4504SOL    HW124974   2.258   3.731   0.866  0.4552 -0.8870  3.0975
 4504SOL    HW224975   2.260   3.864   0.796 -0.5657 -1.9904 -1.0714
 4505SOL     OW24976   1.079   2.528   8.065  0.7802 -0.5691  0.0918
 4505SOL    HW124977   1.099   2.622   8.073 -2.9237  0.3960 -1.8345
 4505SOL    HW224978   0.984   2.521   8.057  0.8909  0.4956 -2.2963
 4506SOL     OW24979   3.216   1.577   9.605  0.0338  0.5484 -0.9293
 4506SOL    HW124980   3.291   1.600   9.550  0.4245 -2.1996 -1.5352
 4506SOL    HW224981   3.251   1.501   9.651 -0.6903  0.2224 -0.9247
 4507SOL     OW24982   2.415   3.708   3.418  0.2674  0.1259 -0.0752
 4507SOL    HW124983   2.476   3.665   3.358 -0.1478  1.2620 -1.2923
 4507SOL    HW224984   2.341   3.648   3.421 -0.1177  0.6403  0.8406
 4508SOL     OW24985   0.735   4.002   5.135 -0.2609  0.1133  0.2463
 4508SOL    HW124986   0.662   4.060   5.114 -0.5365 -1.0537 -1.9809
 4508SOL    HW224987   0.717   3.995   5.229 -1.2401 -1.4242 -0.0666
 4509SOL     OW24988   1.090   4.117   5.724 -0.3188  0.0595 -0.5227
 4509SOL    HW124989   1.043   4.200   5.713  2.8304  1.6522 -1.8948
 4509SOL    HW224990   1.022   4.052   5.741  0.1560 -0.1097  0.7217
 4510SOL     OW24991   1.960   2.723   3.327  0.4827  0.1637  0.4981
 4510SOL    HW124992   2.039   2.715   3.274  1.0743  0.5632  1.3373
 4510SOL    HW224993   1.891   2.719   3.260 -0.0401  0.3266  1.0233
 4511SOL     OW24994   3.711   1.457  14.319 -0.4414  0.2852 -0.4298
 4511SOL    HW124995   3.615   1.463  14.327 -0.4789 -0.3036 -0.4405
 4511SOL    HW224996   3.732   1.482  14.229  3.8845  0.0805  0.5463
 4512SOL     OW24997   2.040   0.263  10.390 -0.3317 -0.2200  0.3972
 4512SOL    HW124998   1.994   0.347  10.396  1.7962  0.9730 -0.0859
 4512SOL    HW224999   2.020   0.228  10.304 -1.9723  1.3375  0.1441
 4513SOL     OW25000   1.209   1.462   3.598  0.9111 -0.0067  0.5754
 4513SOL    HW125001   1.208   1.553   3.629  0.5675 -1.3141  4.2952
 4513SOL    HW225002   1.284   1.473   3.539 -0.3482  2.0768 -0.6390
 4514SOL     OW25003   4.191   1.407  17.562  0.4184  0.2909 -0.6247
 4514SOL    HW125004   4.207   1.314  17.546 -0.9980 -0.6658  3.5418
 4514SOL    HW225005   4.280   1.441  17.550  0.7002  0.5490  2.3352
 4515SOL     OW25006   0.889   1.373   5.311 -0.0012 -0.1517  0.7552
 4515SOL    HW125007   0.930   1.288   5.293  1.4239  0.8363 -0.5958
 4515SOL    HW225008   0.864   1.362   5.403  1.2591  0.3644  1.1568
 4516SOL     OW25009   2.387   1.957   8.221 -0.5312  0.4543  0.6066
 4516SOL    HW125010   2.395   2.053   8.218  2.1791  0.2784  3.1103
 4516SOL    HW225011   2.348   1.936   8.306  1.2646 -0.6775  1.1295
 4517SOL     OW25012   1.675   4.704   1.859 -0.2819 -0.5602 -0.4380
 4517SOL    HW125013   1.618   4.636   1.894 -2.2940 -0.0132 -2.6011
 4517SOL    HW225014   1.752   4.654   1.832  0.8057  0.1017  1.4238
 4518SOL     OW25015   2.381   1.996   6.528 -0.3034 -0.7614  0.0668
 4518SOL    HW125016   2.402   1.972   6.437  1.6377 -0.0812  0.3472
 4518SOL    HW225017   2.286   2.008   6.526 -0.0470  1.0079 -1.3065
 4519SOL     OW25018   0.528   0.391   7.966 -1.1309 -0.1087  0.4694
 4519SOL    HW125019   0.499   0.301   7.955  0.2203 -0.1887 -2.4622
 4519SOL    HW225020   0.585   0.407   7.891 -0.2381 -1.9153  0.7717
 4520SOL     OW25021   0.768   2.420   6.631 -0.2109  0.3631  0.6648
 4520SOL    HW125022   0.697   2.415   6.566  0.9377  2.0685 -0.7198
 4520SOL    HW225023   0.825   2.488   6.596 -0.3588  0.4539  0.6006
 4521SOL     OW25024   0.590   3.012   6.733  0.1956  0.2133  0.3952
 4521SOL    HW125025   0.523   3.036   6.797  0.1482 -2.0522  1.2132
 4521SOL    HW225026   0.547   3.024   6.649  1.3520 -0.6843 -0.3334
 4522SOL     OW25027   4.444   4.115  12.328  0.2826 -0.1962  1.1591
 4522SOL    HW125028   4.432   4.164  12.246 -0.2916 -0.5175  1.0482
 4522SOL    HW225029   4.452   4.188  12.389 -1.1332  1.8575 -1.1055
 4523SOL     OW25030   3.878   4.405   7.316  0.0561  0.3674 -0.1630
 4523SOL    HW125031   3.794   4.440   7.345 -0.3988 -1.0387  0.2488
 4523SOL    HW225032   3.851   4.382   7.227 -0.9356 -0.2779  0.2924
 4524SOL     OW25033   1.855   3.263   8.864  0.0742  0.1100 -0.4882
 4524SOL    HW125034   1.917   3.327   8.830 -1.0632  1.9887  0.9589
 4524SOL    HW225035   1.900   3.243   8.945 -1.4584  0.1536  0.3768
 4525SOL     OW25036   0.736   2.338  17.296 -0.9513 -0.0183  0.1925
 4525SOL    HW125037   0.673   2.400  17.333 -2.3516 -0.3720 -1.5814
 4525SOL    HW225038   0.698   2.325  17.209 -2.7883  0.2094  0.9578
 4526SOL     OW25039   2.426   4.513   8.851 -0.2876  0.0357 -0.0203
 4526SOL    HW125040   2.376   4.594   8.858 -3.2936 -1.9615  1.8366
 4526SOL    HW225041   2.390   4.473   8.930  0.2098  0.8778  0.6269
 4527SOL     OW25042   1.422   2.231   4.052  0.1345 -0.3453 -1.2309
 4527SOL    HW125043   1.434   2.142   4.084  0.7157  0.1482 -0.1056
 4527SOL    HW225044   1.447   2.222   3.960 -1.7819 -2.2171 -1.5801
 4528SOL     OW25045   4.605   4.130  14.715 -0.2499 -0.2353  0.4589
 4528SOL    HW125046   4.632   4.221  14.701 -0.2684 -0.4936 -1.1898
 4528SOL    HW225047   4.628   4.117  14.807  2.5585 -0.7287 -0.3381
 4529SOL     OW25048   2.408   0.269  14.661 -0.5118 -0.1003  0.0089
 4529SOL    HW125049   2.475   0.288  14.727 -0.4315  0.7236 -0.3040
 4529SOL    HW225050   2.383   0.352  14.620  1.0798 -0.3300 -1.4478
 4530SOL     OW25051   0.442   0.156   3.494  0.2706  0.3316 -0.2048
 4530SOL    HW125052   0.530   0.190   3.509  0.8301 -1.4043  0.3702
 4530SOL    HW225053   0.448   0.105   3.413 -0.2806 -0.0374 -0.0152
 4531SOL     OW25054   4.368   0.262   3.817 -0.2118  0.4173  0.8294
 4531SOL    HW125055   4.285   0.233   3.854  1.0417 -1.1173  2.4105
 4531SOL    HW225056   4.432   0.212   3.868 -1.2781  0.2609  2.0111
 4532SOL     OW25057   1.475   2.899   4.889 -0.0735  0.4602 -0.2261
 4532SOL    HW125058   1.543   2.922   4.953  0.0427 -1.5233  0.3614
 4532SOL    HW225059   1.412   2.969   4.904 -0.2454  0.1238  0.6500
 4533SOL     OW25060   1.546   0.708   4.919  0.3509 -0.0801 -0.0396
 4533SOL    HW125061   1.640   0.700   4.905  0.4021  0.2572  0.1026
 4533SOL    HW225062   1.519   0.655   4.844  0.1595  0.5855 -0.4492
 4534SOL     OW25063   0.375   0.139   4.274  0.4383  0.6281 -0.0830
 4534SOL    HW125064   0.353   0.137   4.181 -0.4224 -0.3779  0.1420
 4534SOL    HW225065   0.297   0.170   4.320  1.3174 -0.6734  2.3330
 4535SOL     OW25066   4.218   3.492   8.488  0.1825 -0.5067 -0.7112
 4535SOL    HW125067   4.309   3.499   8.460  0.5120  1.9082  0.9822
 4535SOL    HW225068   4.220   3.553   8.562 -0.1752  0.0716 -1.1760
 4536SOL     OW25069   0.774   0.210   4.041  0.4585 -0.1312  0.4328
 4536SOL    HW125070   0.717   0.241   4.112 -0.0553 -0.7473  0.2917
 4536SOL    HW225071   0.751   0.278   3.977 -1.9645 -1.2456  0.1196
 4537SOL     OW25072   3.210   3.781  13.775  0.2857 -0.4791  0.1398
 4537SOL    HW125073   3.241   3.751  13.860 -1.3342  1.3366  1.3699
 4537SOL    HW225074   3.267   3.855  13.753 -1.7669  1.1671  0.3614
 4538SOL     OW25075   4.578   1.006   7.455 -0.2344 -0.3972  0.3161
 4538SOL    HW125076   4.667   1.004   7.491  0.1700  0.1830 -0.6513
 4538SOL    HW225077   4.603   0.999   7.363 -1.9613  1.6404 -0.3117
 4539SOL     OW25078   1.296   1.236   6.850  0.0750  0.0301  0.0298
 4539SOL    HW125079   1.366   1.301   6.853  0.4288 -0.2140 -3.7310
 4539SOL    HW225080   1.220   1.293   6.847 -0.8305 -1.1141  1.0422
 4540SOL     OW25081   1.974   2.952   2.237 -0.4125  0.7826 -0.5050
 4540SOL    HW125082   2.037   2.894   2.195 -2.0173 -1.3218 -0.0053
 4540SOL    HW225083   2.009   3.036   2.206  0.5757  0.6800  0.3363
 4541SOL     OW25084   1.941   2.637  11.095 -0.3542  0.1801  0.5468
 4541SOL    HW125085   1.873   2.633  11.028 -0.1788 -4.8017  0.6386
 4541SOL    HW225086   2.014   2.678  11.049 -0.4249  0.1665  0.4235
 4542SOL     OW25087   3.078   3.023   6.351  0.1695 -0.2566 -0.6012
 4542SOL    HW125088   3.118   2.946   6.310  2.2964 -0.0384  1.0516
 4542SOL    HW225089   3.162   3.070   6.359 -0.2547  0.2232  1.0735
 4543SOL     OW25090   3.049   2.525   6.429 -0.0192  0.9001 -0.0688
 4543SOL    HW125091   2.968   2.576   6.423  1.4646  2.7575 -3.9591
 4543SOL    HW225092   3.020   2.448   6.379  0.6542  1.3069 -1.0978
 4544SOL     OW25093   3.202   4.257   6.709 -0.3919 -0.3218  0.3971
 4544SOL    HW125094   3.232   4.173   6.744 -0.3988 -0.4778  0.0366
 4544SOL    HW225095   3.276   4.315   6.724 -0.0091 -1.1172  1.5691
 4545SOL     OW25096   0.634   1.972  13.683 -0.5082 -0.3643 -0.4009
 4545SOL    HW125097   0.594   1.891  13.651 -0.8090 -0.2413 -0.3396
 4545SOL    HW225098   0.552   2.010  13.716  0.8133  1.4422  0.8234
 4546SOL     OW25099   3.378   4.328   4.595 -0.4979 -0.0155  0.1609
 4546SOL    HW125100   3.325   4.405   4.612  1.4171  1.3857 -0.2303
 4546SOL    HW225101   3.336   4.294   4.515 -0.3197 -1.4559  0.6868
 4547SOL     OW25102   3.224   0.399  12.413  0.5419  0.5246 -0.0543
 4547SOL    HW125103   3.158   0.347  12.459 -0.5577  2.4429  0.5153
 4547SOL    HW225104   3.193   0.487  12.431  2.2704  0.9313  1.0210
 4548SOL     OW25105   0.496   3.582   1.817  0.2030 -0.3153 -0.0399
 4548SOL    HW125106   0.481   3.495   1.856  3.0130 -0.8314 -0.1621
 4548SOL    HW225107   0.570   3.566   1.760 -1.0522  0.3682 -1.8630
 4549SOL     OW25108   2.379   0.887   3.129 -0.1038 -0.1506 -0.4847
 4549SOL    HW125109   2.452   0.839   3.166 -0.6981  0.7126  1.7877
 4549SOL    HW225110   2.380   0.976   3.164  3.2336 -1.3256  2.4014
 4550SOL     OW25111   1.064   1.183   7.125 -0.1353  0.2304  0.1715
 4550SOL    HW125112   1.028   1.224   7.204 -0.8171 -1.6235  0.8212
 4550SOL    HW225113   1.134   1.245   7.101 -0.7617  0.5797 -0.7785
 4551SOL     OW25114   4.293   1.073   6.569 -0.3713 -0.1698 -0.0768
 4551SOL    HW125115   4.244   1.089   6.650 -0.1522  0.3135 -0.0425
 4551SOL    HW225116   4.293   1.164   6.539 -1.2450 -0.1282  0.0226
 4552SOL     OW25117   1.995   2.773   3.692 -0.1940  1.2189 -0.0645
 4552SOL    HW125118   1.946   2.839   3.643 -3.1964 -1.5557 -0.8094
 4552SOL    HW225119   2.081   2.813   3.684  0.3086  0.4236  1.3247
 4553SOL     OW25120   2.231   0.778   7.795  0.4637  0.2588  0.3245
 4553SOL    HW125121   2.142   0.786   7.759  0.4034  2.5582  1.0253
 4553SOL    HW225122   2.235   0.870   7.820  0.4491 -0.5905  3.4029
 4554SOL     OW25123   3.026   3.923   8.429  0.6785  0.5655  0.1056
 4554SOL    HW125124   3.108   3.953   8.390  0.9322 -0.3847 -0.0944
 4554SOL    HW225125   2.959   3.961   8.373  0.9392  0.7953 -0.0496
 4555SOL     OW25126   4.526   0.571   3.756 -0.4656  0.4341  0.2327
 4555SOL    HW125127   4.500   0.480   3.746  1.3193 -0.2381  1.7516
 4555SOL    HW225128   4.570   0.568   3.841  0.8602 -1.1663 -0.5095
 4556SOL     OW25129   3.938   4.008   2.750 -0.2097 -0.3435 -0.2337
 4556SOL    HW125130   4.012   3.979   2.803 -0.8165 -2.3700 -0.4962
 4556SOL    HW225131   3.874   4.029   2.818 -0.9168  1.2396 -1.3934
 4557SOL     OW25132   1.982   0.822   7.679 -0.3267  0.1473  0.0433
 4557SOL    HW125133   1.966   0.864   7.764 -0.3744 -2.4595  1.3096
 4557SOL    HW225134   1.980   0.899   7.622 -2.2454 -1.0437 -1.4640
 4558SOL     OW25135   0.178   0.743   2.884  0.7063  0.4942 -0.3930
 4558SOL    HW125136   0.247   0.679   2.901  0.3274  0.1369 -0.2182
 4558SOL    HW225137   0.193   0.812   2.949 -0.3552 -0.4441  0.8358
 4559SOL     OW25138   1.263   1.892   7.991  0.7286 -0.4264  0.1381
 4559SOL    HW125139   1.188   1.946   8.016  1.2480  0.8034 -0.9251
 4559SOL    HW225140   1.240   1.800   8.002  0.8953 -0.7858 -2.4565
 4560SOL     OW25141   1.528   3.805   6.529 -0.3074  0.4993  0.0828
 4560SOL    HW125142   1.604   3.860   6.542  0.2633 -0.0342 -1.0067
 4560SOL    HW225143   1.549   3.755   6.450  1.1940  0.6863  0.3727
 4561SOL     OW25144   3.773   3.761   3.635 -0.5200 -0.3687 -0.4063
 4561SOL    HW125145   3.852   3.720   3.670 -0.5500 -0.8129 -0.8595
 4561SOL    HW225146   3.708   3.717   3.689 -0.1604  0.3369  0.6106
 4562SOL     OW25147   3.465   2.148   2.314 -0.1615  0.3619  0.1050
 4562SOL    HW125148   3.446   2.242   2.324 -1.7434 -0.1699  2.0966
 4562SOL    HW225149   3.393   2.115   2.260 -1.7621  1.2349  1.6675
 4563SOL     OW25150   4.491   1.223   2.644 -0.0962 -0.2972 -0.1572
 4563SOL    HW125151   4.448   1.153   2.596 -1.2131  0.9261 -0.9375
 4563SOL    HW225152   4.445   1.218   2.728  2.0279  2.0407  1.1414
 4564SOL     OW25153   2.338   0.422   5.231  0.4178 -0.0680 -0.5143
 4564SOL    HW125154   2.352   0.514   5.209 -0.1900 -0.0955 -1.0203
 4564SOL    HW225155   2.334   0.383   5.144  1.8881  0.5091 -0.8428
 4565SOL     OW25156   1.009   0.356   8.787 -0.2721  0.2557  0.3821
 4565SOL    HW125157   1.026   0.262   8.787  0.6518  0.4255  1.3406
 4565SOL    HW225158   1.087   0.405   8.761 -0.0236  0.2836  1.1915
 4566SOL     OW25159   0.043   4.035   4.528  0.7797  0.5600 -0.6182
 4566SOL    HW125160   0.080   3.947   4.520  0.7768  0.4860  0.2176
 4566SOL    HW225161   0.061   4.060   4.618 -1.0244 -1.7297  0.3947
 4567SOL     OW25162   0.458   4.077   0.890  0.3409  0.0256 -0.0332
 4567SOL    HW125163   0.472   4.109   0.979 -1.0991  1.6563 -0.3831
 4567SOL    HW225164   0.419   3.990   0.895  0.1054  0.3988  4.4053
 4568SOL     OW25165   0.795   0.226   4.983  0.6059  0.3321  0.0206
 4568SOL    HW125166   0.741   0.201   5.059 -1.9000 -0.2748 -1.9493
 4568SOL    HW225167   0.736   0.239   4.909 -0.3990 -3.2463  0.1805
 4569SOL     OW25168   4.668   2.352   1.378  0.0198 -0.3658 -0.4453
 4569SOL    HW125169   4.603   2.333   1.310 -0.4641  0.4116 -0.1980
 4569SOL    HW225170   0.021   2.392   1.332 -2.3023  0.7526 -3.1944
 4570SOL     OW25171   1.701   2.147   4.426  0.2330  0.4702  0.2912
 4570SOL    HW125172   1.678   2.224   4.374  1.2050  0.2316 -0.5052
 4570SOL    HW225173   1.774   2.186   4.475  0.5104 -1.2746  1.2723
 4571SOL     OW25174   1.862   1.010   8.377  0.6986  0.4203  0.0994
 4571SOL    HW125175   1.798   0.953   8.419  0.7617  0.9632  0.9245
 4571SOL    HW225176   1.926   0.943   8.354  0.7217 -0.3450  2.4156
 4572SOL     OW25177   4.150   2.664  16.174 -0.2347  0.1042  0.1629
 4572SOL    HW125178   4.057   2.648  16.192  0.4529 -1.5452  2.1985
 4572SOL    HW225179   4.168   2.578  16.136  1.1982 -0.4433  2.0437
 4573SOL     OW25180   0.548   2.372   6.447  0.4999 -0.5420 -0.2078
 4573SOL    HW125181   0.499   2.291   6.459 -0.2955  0.4039  3.0227
 4573SOL    HW225182   0.508   2.411   6.525  0.5259 -1.7370  0.3915
 4574SOL     OW25183   1.805   3.961   8.651 -0.4371  0.4465 -0.3048
 4574SOL    HW125184   1.819   3.934   8.741 -0.6662 -0.1345 -0.4462
 4574SOL    HW225185   1.747   3.891   8.622 -3.0618  2.4175  0.1125
 4575SOL     OW25186   1.654   0.819  14.304 -0.6966 -0.4621  0.6899
 4575SOL    HW125187   1.644   0.730  14.338  1.3435 -0.9986 -0.0440
 4575SOL    HW225188   1.566   0.856  14.312 -0.9786 -1.0660  0.3905
 4576SOL     OW25189   4.388   4.713   5.553  0.2532  0.3229  0.1307
 4576SOL    HW125190   4.390   0.033   5.467  1.0174 -2.1389 -1.0502
 4576SOL    HW225191   4.301   4.674   5.555  0.4411 -0.0228  1.2774
 4577SOL     OW25192   1.137   2.400   4.605 -0.0850  0.0403 -0.2893
 4577SOL    HW125193   1.137   2.475   4.663 -0.7943  0.1898 -0.4833
 4577SOL    HW225194   1.192   2.432   4.534  0.5301  0.3484  0.3371
 4578SOL     OW25195   1.920   2.128   5.778  0.1191 -0.0178  0.3202
 4578SOL    HW125196   1.961   2.205   5.739 -0.0318 -0.8909 -1.5652
 4578SOL    HW225197   1.924   2.064   5.707  0.6462  0.0423  0.2970
 4579SOL     OW25198   0.949   0.464   6.550 -0.0131  0.0953  0.1300
 4579SOL    HW125199   0.864   0.496   6.521  0.7429  2.5739  0.5767
 4579SOL    HW225200   0.960   0.514   6.631 -1.6246 -0.8107  0.9105
 4580SOL     OW25201   3.709   1.620   2.808 -0.2619  0.5857 -0.3680
 4580SOL    HW125202   3.659   1.541   2.831 -1.4811  1.3543 -0.3796
 4580SOL    HW225203   3.652   1.663   2.745  0.2398  1.2972 -0.3351
 4581SOL     OW25204   1.255   1.336   9.583  0.2033  0.4309 -0.1029
 4581SOL    HW125205   1.275   1.252   9.622 -1.1120  1.3341  2.4968
 4581SOL    HW225206   1.267   1.310   9.491  2.5577 -3.6326  1.3899
 4582SOL     OW25207   3.354   2.918   6.860 -0.1517 -0.3219  0.4287
 4582SOL    HW125208   3.334   2.831   6.824 -1.5787 -0.0314  0.5152
 4582SOL    HW225209   3.267   2.957   6.868  0.0578 -0.0647  1.3454
 4583SOL     OW25210   4.377   4.254   8.626 -0.0464  0.3240 -0.7560
 4583SOL    HW125211   4.374   4.318   8.697  2.4353  2.1738 -2.3417
 4583SOL    HW225212   4.437   4.187   8.658 -0.0649  0.2735 -0.8261
 4584SOL     OW25213   1.440   0.183   7.955 -0.0015  0.2652  0.1658
 4584SOL    HW125214   1.413   0.257   8.010  1.3910  1.0808 -0.2624
 4584SOL    HW225215   1.521   0.221   7.921 -1.0913  0.3578 -2.2915
 4585SOL     OW25216   1.084   2.094   5.671  0.0852  0.3379  0.0475
 4585SOL    HW125217   1.158   2.089   5.732 -0.5924 -3.3626  0.5818
 4585SOL    HW225218   1.131   2.077   5.590 -1.8280  2.1195 -1.4191
 4586SOL     OW25219   0.088   0.278   1.894  0.0513  0.7224 -0.2504
 4586SOL    HW125220   0.160   0.302   1.837 -0.1651 -0.4375 -1.0092
 4586SOL    HW225221   0.018   0.266   1.830 -3.8518  1.1539  3.9202
 4587SOL     OW25222   1.361   2.795  13.517 -0.0987  0.3195  0.2942
 4587SOL    HW125223   1.302   2.731  13.477 -0.9053  0.0498  1.9460
 4587SOL    HW225224   1.440   2.742  13.518  1.1949  2.2048 -0.2479
 4588SOL     OW25225   4.004   3.323  11.457  0.0626  0.3592 -0.1538
 4588SOL    HW125226   4.055   3.256  11.412  1.6283  2.5270 -1.6576
 4588SOL    HW225227   3.989   3.272  11.537 -0.7955 -0.3572 -0.7810
 4589SOL     OW25228   3.933   4.572   6.236 -0.2019  0.1290 -0.0173
 4589SOL    HW125229   3.964   4.597   6.323 -0.1747 -0.1768  0.0590
 4589SOL    HW225230   3.851   4.533   6.266  0.3719  0.7625  2.3906
 4590SOL     OW25231   0.388   0.277   7.588 -0.2750 -0.4513 -0.0309
 4590SOL    HW125232   0.305   0.232   7.576 -0.4453  0.0896 -0.8396
 4590SOL    HW225233   0.394   0.327   7.507 -0.8627 -0.3698 -0.0212
 4591SOL     OW25234   3.666   0.929  13.394  0.2141  0.2328 -0.5073
 4591SOL    HW125235   3.653   0.984  13.471  1.2305  1.0571 -0.9032
 4591SOL    HW225236   3.672   0.997  13.326  2.5856 -0.8916 -1.4276
 4592SOL     OW25237   0.329   4.482   7.683  0.7599  0.4885 -0.0284
 4592SOL    HW125238   0.337   4.426   7.606  0.6661  0.4806 -0.0328
 4592SOL    HW225239   0.336   4.570   7.647  0.4509 -0.1687 -1.7051
 4593SOL     OW25240   3.837   1.080   5.552 -0.1291 -1.1078  0.4257
 4593SOL    HW125241   3.785   1.100   5.474  1.6312  0.7903 -0.2665
 4593SOL    HW225242   3.835   1.151   5.617  0.6126  0.7689 -1.5910
 4594SOL     OW25243   0.335   0.583   8.840  0.0902 -1.0050 -0.0289
 4594SOL    HW125244   0.414   0.572   8.787 -0.8345  1.4332 -1.9008
 4594SOL    HW225245   0.330   0.678   8.841  0.0896 -1.0017 -0.2798
 4595SOL     OW25246   3.147   1.010   1.916  0.3406  0.2540 -0.9905
 4595SOL    HW125247   3.184   1.003   2.004 -1.7481 -0.1382 -0.1354
 4595SOL    HW225248   3.206   0.945   1.878  0.1105  0.8874 -2.3959
 4596SOL     OW25249   1.558   3.191  12.905  0.2954 -0.1195  0.5431
 4596SOL    HW125250   1.536   3.127  12.838 -0.9024  1.4042 -0.5338
 4596SOL    HW225251   1.642   3.224  12.872 -0.4013 -0.2134 -1.3711
 4597SOL     OW25252   2.258   1.366   5.232  0.6305  0.0635  0.6112
 4597SOL    HW125253   2.234   1.418   5.308 -1.0963 -0.7957  0.6574
 4597SOL    HW225254   2.219   1.421   5.164  1.4817 -0.9642 -0.7329
 4598SOL     OW25255   0.009   3.349   7.708 -0.6601  0.2856 -0.2596
 4598SOL    HW125256   0.080   3.290   7.734  1.7321  1.8596 -3.2957
 4598SOL    HW225257   0.043   3.429   7.749 -2.0146  0.3696  0.7198
 4599SOL     OW25258   3.868   1.419   7.923  0.0575 -0.5484 -0.3279
 4599SOL    HW125259   3.957   1.454   7.928 -0.0310 -0.6094  1.5314
 4599SOL    HW225260   3.853   1.406   8.017 -0.9089  0.9724 -0.2795
 4600SOL     OW25261   4.498   1.399   8.275 -0.3640  0.1443 -0.1037
 4600SOL    HW125262   4.411   1.436   8.294 -0.3202  0.8815 -1.3222
 4600SOL    HW225263   4.508   1.336   8.346 -2.4423  0.0367  0.1191
 4601SOL     OW25264   3.189   4.190   3.975 -0.1616 -0.5592  0.0261
 4601SOL    HW125265   3.194   4.117   4.037  0.9299  0.4905  1.1415
 4601SOL    HW225266   3.120   4.152   3.920 -0.7131 -0.2664  0.5133
 4602SOL     OW25267   0.782   3.560   7.848 -0.0821 -0.3061  0.0708
 4602SOL    HW125268   0.796   3.634   7.789  0.1359  0.7698  1.4581
 4602SOL    HW225269   0.718   3.589   7.913  0.2892 -0.7517  0.6349
 4603SOL     OW25270   2.485   0.057  10.371 -0.2898 -0.5326 -0.4244
 4603SOL    HW125271   2.558   0.011  10.331 -0.1831  0.7338 -1.6820
 4603SOL    HW225272   2.440   0.092  10.294  1.9471 -0.3697 -1.6610
 4604SOL     OW25273   3.667   4.050   2.238  0.5977  0.2691 -0.4628
 4604SOL    HW125274   3.620   4.128   2.210 -1.2146 -0.7152 -0.2020
 4604SOL    HW225275   3.756   4.075   2.264  0.0874 -1.1262  2.6235
 4605SOL     OW25276   3.808   0.196   8.388 -0.5158  0.2650 -0.7019
 4605SOL    HW125277   3.862   0.203   8.467 -1.1172  0.8289 -0.3359
 4605SOL    HW225278   3.735   0.256   8.404  0.3103  0.7241  1.3388
 4606SOL     OW25279   4.445   0.550  14.096 -0.9411  0.2888  0.0227
 4606SOL    HW125280   4.411   0.587  14.014  0.6132  2.2043  0.2583
 4606SOL    HW225281   4.538   0.536  14.077 -0.8257 -2.0902  2.4469
 4607SOL     OW25282   1.680   3.746  14.819  0.4148 -0.1183  0.2606
 4607SOL    HW125283   1.765   3.723  14.856  0.4305  0.7116  0.7452
 4607SOL    HW225284   1.629   3.671  14.850  1.2065 -0.1382  1.5398
 4608SOL     OW25285   2.569   2.804  11.258 -0.1199  0.1322  0.0136
 4608SOL    HW125286   2.618   2.883  11.281  0.0531  0.0835 -0.1979
 4608SOL    HW225287   2.519   2.784  11.338 -0.2693 -1.5028 -0.4911
 4609SOL     OW25288   0.527   0.842   3.142  0.2438 -0.1442 -0.1629
 4609SOL    HW125289   0.491   0.766   3.188  2.4240 -1.2650 -0.3428
 4609SOL    HW225290   0.476   0.838   3.060  0.1665  2.5025 -0.2589
 4610SOL     OW25291   1.841   1.159   4.600 -0.2052 -0.5394  0.2007
 4610SOL    HW125292   1.807   1.105   4.671 -1.7370  1.3702  0.9220
 4610SOL    HW225293   1.909   1.212   4.643 -0.4266 -0.6900  0.7332
 4611SOL     OW25294   0.700   1.252   7.618  0.7428 -0.1899  0.1154
 4611SOL    HW125295   0.650   1.170   7.619 -0.2133  0.3766 -1.2262
 4611SOL    HW225296   0.670   1.299   7.540 -0.1361 -1.7986 -0.5219
 4612SOL     OW25297   4.190   4.401   0.439 -0.3604  0.0154 -0.1201
 4612SOL    HW125298   4.183   4.338   0.511 -0.2393 -1.7348 -1.6438
 4612SOL    HW225299   4.202   4.485   0.485 -1.9186 -0.3007  0.8617
 4613SOL     OW25300   1.138   3.140   3.225  0.1972  0.2281  0.5026
 4613SOL    HW125301   1.112   3.228   3.252 -1.3138 -0.1216  0.1445
 4613SOL    HW225302   1.052   3.098   3.218 -0.1142  1.4199 -2.8225
 4614SOL     OW25303   3.458   3.578  15.245  0.0839  0.7978  0.3535
 4614SOL    HW125304   3.475   3.530  15.164 -0.3435 -0.3171  0.9209
 4614SOL    HW225305   3.538   3.566  15.297 -0.0650  0.3562  0.4856
 4615SOL     OW25306   2.770   0.325   2.195  0.1091 -0.7290  0.1310
 4615SOL    HW125307   2.678   0.310   2.172 -0.0001  0.8392 -0.3959
 4615SOL    HW225308   2.767   0.417   2.220  1.8303 -1.0396  1.4887
 4616SOL     OW25309   0.852   3.027   3.563 -0.3342  0.3977 -0.5796
 4616SOL    HW125310   0.802   3.041   3.483 -1.4100  1.0966  0.2168
 4616SOL    HW225311   0.946   3.035   3.543 -0.4840  0.9728 -1.0471
 4617SOL     OW25312   1.704   2.757   5.217 -0.1494  0.1550 -0.1059
 4617SOL    HW125313   1.798   2.768   5.229  0.2382 -0.8657 -2.2288
 4617SOL    HW225314   1.682   2.829   5.158 -3.0410  0.7315  1.6956
 4618SOL     OW25315   1.803   4.386   8.131 -0.4712  0.2580  0.6611
 4618SOL    HW125316   1.727   4.348   8.176 -1.5112 -0.1952 -1.4862
 4618SOL    HW225317   1.877   4.345   8.175 -1.5615 -1.1764  1.1588
 4619SOL     OW25318   2.248   2.505   5.514 -0.6649 -0.3525  0.5250
 4619SOL    HW125319   2.279   2.518   5.424  0.6991  1.4674  1.2553
 4619SOL    HW225320   2.217   2.593   5.534  0.6449  0.3182 -0.4290
 4620SOL     OW25321   2.605   0.215   5.723  0.0560 -0.4000  0.1012
 4620SOL    HW125322   2.571   0.210   5.633  0.6634 -1.5597 -0.0732
 4620SOL    HW225323   2.689   0.251   5.695 -0.7424  0.8674 -0.6702
 4621SOL     OW25324   3.316   0.466   2.838  0.6980 -0.3028  0.3641
 4621SOL    HW125325   3.305   0.557   2.812  4.0927  0.2359  0.8695
 4621SOL    HW225326   3.401   0.452   2.796 -0.8541 -1.8586 -2.2963
 4622SOL     OW25327   1.852   1.933   8.526 -0.1785 -0.1241 -0.4624
 4622SOL    HW125328   1.791   1.933   8.452  1.9993 -0.1324 -2.2645
 4622SOL    HW225329   1.799   1.884   8.589 -1.1500  0.8529 -0.5300
 4623SOL     OW25330   4.258   1.553   3.106  0.1824 -0.5231 -0.2170
 4623SOL    HW125331   4.173   1.551   3.150 -0.5736 -1.1882 -1.7154
 4623SOL    HW225332   4.240   1.608   3.030  0.2019  3.4924  2.6611
 4624SOL     OW25333   4.270   3.221   7.068 -0.8199  0.1242  0.3386
 4624SOL    HW125334   4.313   3.234   6.983 -3.2055 -1.4453 -1.1177
 4624SOL    HW225335   4.227   3.140   7.041 -0.8967  0.2785 -0.0123
 4625SOL     OW25336   2.838   4.531   6.513 -0.9093  0.0492 -0.3044
 4625SOL    HW125337   2.800   4.462   6.567 -2.8306 -0.2396 -2.0699
 4625SOL    HW225338   2.915   4.489   6.476  1.4178  0.7907  3.6112
 4626SOL     OW25339   4.360   0.714   5.731 -0.1960 -0.4050  0.6890
 4626SOL    HW125340   4.419   0.726   5.805 -1.0525  0.4668  1.2255
 4626SOL    HW225341   4.357   0.622   5.704 -1.6965 -0.6528  1.7469
 4627SOL     OW25342   1.220   1.803   7.406  0.4790  0.3918 -0.0573
 4627SOL    HW125343   1.259   1.723   7.371 -3.2166 -1.4590  0.0906
 4627SOL    HW225344   1.246   1.868   7.340 -0.3048 -0.8874 -1.6101
 4628SOL     OW25345   2.056   0.077  17.402 -0.0586  0.8590  0.3136
 4628SOL    HW125346   2.147   0.051  17.392  0.1059  1.1566  0.9940
 4628SOL    HW225347   2.025   0.071  17.312  2.5335 -0.8509 -0.4520
 4629SOL     OW25348   2.423   1.752   7.426 -0.1435  0.9144 -0.8458
 4629SOL    HW125349   2.493   1.796   7.475 -2.3723  0.6946  2.5828
 4629SOL    HW225350   2.462   1.668   7.406 -1.6018  0.5384 -2.0649
 4630SOL     OW25351   2.538   0.382   8.152 -0.6363 -0.1170  0.2222
 4630SOL    HW125352   2.527   0.329   8.073 -1.9559  0.2247  0.1773
 4630SOL    HW225353   2.449   0.398   8.182 -1.3331 -2.1366 -0.8036
 4631SOL     OW25354   1.991   2.984   0.097  0.5168  0.6531 -0.2650
 4631SOL    HW125355   2.065   2.926   0.112 -1.5020 -1.6830  0.6471
 4631SOL    HW225356   1.973   2.970   0.004  1.3771  0.3654 -0.3863
 4632SOL     OW25357   2.556   0.302   5.313  0.2482  0.2506 -0.0478
 4632SOL    HW125358   2.532   0.220   5.357 -2.2041  0.1332 -1.6086
 4632SOL    HW225359   2.472   0.340   5.291  1.3030  2.1876 -0.6788
 4633SOL     OW25360   0.720   3.956   6.685 -0.1520  0.3422  0.6377
 4633SOL    HW125361   0.709   3.863   6.664  2.2973  0.5196 -1.3761
 4633SOL    HW225362   0.665   3.987   6.613  0.6736 -0.6675 -0.4251
 4634SOL     OW25363   1.389   4.693  16.470  0.1147 -0.8134  0.2451
 4634SOL    HW125364   1.351   0.049  16.510  1.5223  0.7984 -1.5196
 4634SOL    HW225365   1.369   4.629  16.538 -1.4753  0.7991  1.2952
 4635SOL     OW25366   4.492   1.382  16.361 -0.2595  0.2758 -0.2431
 4635SOL    HW125367   4.542   1.303  16.385 -1.4234 -0.3421  0.1822
 4635SOL    HW225368   4.541   1.408  16.283 -1.0028 -0.0790 -0.8320
 4636SOL     OW25369   3.831   3.168   6.721 -0.3124 -0.0798 -0.2649
 4636SOL    HW125370   3.843   3.173   6.815 -0.1237 -0.9109 -0.2531
 4636SOL    HW225371   3.903   3.228   6.702 -1.0961  1.2238  0.8579
 4637SOL     OW25372   3.372   1.755   0.875  0.2654 -0.1693 -0.3406
 4637SOL    HW125373   3.365   1.847   0.848 -0.4952 -0.5286 -1.3476
 4637SOL    HW225374   3.278   1.741   0.876  0.3209 -0.6850 -1.9002
 4638SOL     OW25375   3.681   1.095  10.922  0.1432  0.2243 -0.9420
 4638SOL    HW125376   3.683   1.014  10.973 -1.5493  0.8732  0.1818
 4638SOL    HW225377   3.739   1.160  10.962 -0.1516 -1.2482  1.9331
 4639SOL     OW25378   4.057   2.187   4.265 -0.4999 -0.1614  0.0162
 4639SOL    HW125379   4.121   2.243   4.307  0.3697 -2.9973  2.4838
 4639SOL    HW225380   3.975   2.236   4.272  1.0072  2.2678  0.4036
 4640SOL     OW25381   3.012   1.262   3.355  0.2881  0.5545 -0.3575
 4640SOL    HW125382   3.084   1.225   3.405 -2.0804 -1.8535  1.2913
 4640SOL    HW225383   3.046   1.334   3.303  2.3565  1.6579  2.5159
 4641SOL     OW25384   2.077   4.043   2.936  0.4690  0.0971 -0.1122
 4641SOL    HW125385   2.157   4.093   2.925  0.9370 -0.0743  2.6800
 4641SOL    HW225386   2.072   4.002   2.849 -1.3105 -1.2350  0.6267
 4642SOL     OW25387   3.456   4.263   7.629 -0.1373 -0.3718  0.2314
 4642SOL    HW125388   3.516   4.269   7.703 -0.1723  0.8377  0.1703
 4642SOL    HW225389   3.395   4.333   7.651  1.5039  0.8139  1.0468
 4643SOL     OW25390   1.488   4.462   4.067  0.1947 -0.0140 -0.7708
 4643SOL    HW125391   1.437   4.396   4.020  0.5848 -1.9425  1.5664
 4643SOL    HW225392   1.537   4.498   3.993 -0.1741  0.4975 -0.7641
 4644SOL     OW25393   0.157   1.822   2.596  0.3336  0.4972  0.2337
 4644SOL    HW125394   0.221   1.752   2.587 -0.2980  0.0069 -0.4268
 4644SOL    HW225395   0.205   1.887   2.648  0.8729  0.0067  0.3435
 4645SOL     OW25396   3.812   1.392   8.231 -0.1259 -0.1829  0.4479
 4645SOL    HW125397   3.853   1.388   8.317 -0.8909 -0.9893  0.7661
 4645SOL    HW225398   3.727   1.361   8.260 -0.0654  0.2698  1.1187
 4646SOL     OW25399   4.437   3.696  17.404  0.6039  0.0274 -0.6386
 4646SOL    HW125400   4.449   3.679  17.498 -0.8550  1.9076 -0.1246
 4646SOL    HW225401   4.380   3.621  17.385  0.6336 -0.1664  0.0211
 4647SOL     OW25402   3.678   0.025  12.262 -0.0341  0.2284  0.4694
 4647SOL    HW125403   3.640   4.681  12.203  0.9629 -0.1413  0.2362
 4647SOL    HW225404   3.594   0.052  12.299 -1.3154 -0.3275 -2.0611
 4648SOL     OW25405   4.348   0.170   5.356 -0.2881  0.1495 -0.1591
 4648SOL    HW125406   4.398   0.222   5.293  0.2108 -1.5394 -1.1609
 4648SOL    HW225407   4.268   0.222   5.363 -0.6629 -0.4053 -0.3011
 4649SOL     OW25408   0.683   1.630   5.502  0.2016 -0.1674 -0.1158
 4649SOL    HW125409   0.659   1.599   5.589 -0.4832 -1.6957 -0.8579
 4649SOL    HW225410   0.624   1.579   5.447 -0.3201  0.0208  0.2671
 4650SOL     OW25411   1.942   3.362  17.346  0.0681  0.1284  0.6433
 4650SOL    HW125412   1.914   3.421  17.416 -1.7359 -0.1856  0.1808
 4650SOL    HW225413   1.862   3.337  17.302  0.6195  2.2719 -1.5778
 4651SOL     OW25414   4.111   2.389   8.364  0.4808  0.3779 -0.2973
 4651SOL    HW125415   4.043   2.444   8.325  0.0526 -0.7656 -1.1682
 4651SOL    HW225416   4.115   2.305   8.318  0.2082 -0.5381  1.3257
 4652SOL     OW25417   1.151   0.068   4.965  0.1132  0.2046  0.0669
 4652SOL    HW125418   1.101   4.720   5.009  1.3088 -0.1635  0.8193
 4652SOL    HW225419   1.238   0.039   4.992  0.6554  3.7399  2.1313
 4653SOL     OW25420   0.122   2.223   6.374 -0.1720 -0.1696  0.6267
 4653SOL    HW125421   0.203   2.176   6.391 -0.5040 -1.5572 -1.6169
 4653SOL    HW225422   0.103   2.213   6.281 -2.6986 -0.5549  1.1726
 4654SOL     OW25423   3.085   3.522   4.179  0.5399 -0.0031 -0.1300
 4654SOL    HW125424   3.145   3.593   4.155  2.0768 -1.2857 -0.1134
 4654SOL    HW225425   3.050   3.550   4.263  1.1346  1.3610 -0.3318
 4655SOL     OW25426   4.556   3.410   4.121 -0.7510  0.0152 -0.0011
 4655SOL    HW125427   4.613   3.427   4.046  1.2628 -2.0682  1.0603
 4655SOL    HW225428   4.580   3.488   4.172  1.3889 -1.1841  0.8602
 4656SOL     OW25429   2.566   2.248  12.672 -0.4992  0.1557  0.1058
 4656SOL    HW125430   2.658   2.233  12.695  0.0776 -1.8547 -3.6267
 4656SOL    HW225431   2.515   2.178  12.714  1.6388  0.1207  2.6579
 4657SOL     OW25432   4.269   3.583   2.060 -0.1563  0.4319  0.1076
 4657SOL    HW125433   4.352   3.593   2.106  0.5682 -0.8790 -0.9226
 4657SOL    HW225434   4.209   3.642   2.106  1.1907  0.5645  1.6851
 4658SOL     OW25435   0.043   1.333   5.167  0.3092 -0.7736  0.2634
 4658SOL    HW125436   0.025   1.407   5.224  1.1616  0.3863 -0.9645
 4658SOL    HW225437   0.078   1.265   5.225  0.1181  0.2957  1.6232
 4659SOL     OW25438   1.630   4.297   3.781  0.1361  0.0649 -0.3628
 4659SOL    HW125439   1.597   4.328   3.697  0.0411 -1.2561 -0.8071
 4659SOL    HW225440   1.662   4.374   3.829 -1.8802 -0.0073  1.0916
 4660SOL     OW25441   1.765   2.888   6.527  0.1112 -0.0805  0.2533
 4660SOL    HW125442   1.673   2.910   6.541 -0.1777 -0.9501 -0.2656
 4660SOL    HW225443   1.804   2.973   6.509  1.9086 -0.4491  2.2917
 4661SOL     OW25444   4.532   3.647   6.032  0.5008 -0.3287  0.1407
 4661SOL    HW125445   4.615   3.650   5.985  0.6556  1.2562  0.5123
 4661SOL    HW225446   4.473   3.696   5.974  0.4162 -0.5404  0.0465
 4662SOL     OW25447   4.005   3.100  12.917 -0.2356 -0.1365  0.6048
 4662SOL    HW125448   4.070   3.066  12.978  1.0664  0.7965 -0.2656
 4662SOL    HW225449   4.056   3.132  12.842  1.3848  1.4718  2.3818
 4663SOL     OW25450   4.250   0.543   6.859  0.0361 -0.0022 -0.3600
 4663SOL    HW125451   4.277   0.520   6.770 -0.2551 -0.6005 -0.2930
 4663SOL    HW225452   4.326   0.579   6.905 -1.3958  0.8368  1.3906
 4664SOL     OW25453   0.981   4.394  16.518  0.1094 -0.5613  0.3157
 4664SOL    HW125454   1.067   4.384  16.477  0.0945 -1.7547  0.5604
 4664SOL    HW225455   0.969   4.488  16.514  2.7394 -0.3119 -1.0895
 4665SOL     OW25456   3.712   0.988   7.420  0.4410 -0.4184  0.1635
 4665SOL    HW125457   3.734   1.073   7.458 -1.4137  1.1464 -2.3326
 4665SOL    HW225458   3.655   0.962   7.493 -1.8597  1.5509 -0.9383
 4666SOL     OW25459   3.426   1.501   0.537  0.1772  0.4184  0.0218
 4666SOL    HW125460   3.344   1.547   0.517 -0.0011 -0.8110 -2.1485
 4666SOL    HW225461   3.459   1.479   0.450 -0.9373  0.2576 -0.3633
 4667SOL     OW25462   2.648   4.554  10.298  0.0213 -0.5606 -0.2420
 4667SOL    HW125463   2.683   4.465  10.296 -1.9055 -1.2949 -0.7820
 4667SOL    HW225464   2.706   4.596  10.362 -1.6064 -0.2752  1.0542
 4668SOL     OW25465   2.413   1.768   0.334 -0.2587  0.3496 -0.2612
 4668SOL    HW125466   2.490   1.784   0.389 -0.3275 -1.5101  0.4033
 4668SOL    HW225467   2.341   1.774   0.396 -0.8443 -2.1749 -0.6706
 4669SOL     OW25468   1.322   3.905  12.393  0.0428  0.3126  0.1117
 4669SOL    HW125469   1.239   3.858  12.394 -0.2651  0.8454 -0.2705
 4669SOL    HW225470   1.339   3.930  12.484 -0.2264  0.1345  0.2115
 4670SOL     OW25471   0.604   2.271  10.532  0.6544 -0.5740 -0.1798
 4670SOL    HW125472   0.512   2.255  10.553  1.1142 -2.2235  0.5478
 4670SOL    HW225473   0.645   2.244  10.614  4.2818 -0.9006 -2.0637
 4671SOL     OW25474   2.836   3.376   5.571  0.0636 -0.4268 -1.0053
 4671SOL    HW125475   2.823   3.423   5.653 -1.0927 -0.7258 -1.0219
 4671SOL    HW225476   2.750   3.362   5.532 -1.2726  0.2881  1.6951
 4672SOL     OW25477   0.113   2.808   8.591 -0.1260  0.0647  0.0615
 4672SOL    HW125478   0.087   2.764   8.511 -3.3387  0.8317  0.6866
 4672SOL    HW225479   0.187   2.761   8.628  0.8154  0.6395 -1.0871
 4673SOL     OW25480   2.712   2.524  15.736 -0.3091 -0.2311 -0.5686
 4673SOL    HW125481   2.700   2.606  15.784  2.7446 -0.5750  0.8357
 4673SOL    HW225482   2.716   2.562  15.648  0.3169 -0.2155 -0.5379
 4674SOL     OW25483   0.522   3.583   8.318 -0.2184  0.0235 -0.7536
 4674SOL    HW125484   0.566   3.667   8.314  0.1010 -0.0719  0.9738
 4674SOL    HW225485   0.516   3.569   8.412  1.0918 -0.2827 -0.7178
 4675SOL     OW25486   3.462   1.800   2.096  0.1147 -0.1626  0.4248
 4675SOL    HW125487   3.468   1.789   2.001  0.7269 -1.8959  0.6605
 4675SOL    HW225488   3.424   1.717   2.125 -1.7529  1.0115  1.3758
 4676SOL     OW25489   2.451   4.378   3.538 -0.3115 -0.0141 -0.0720
 4676SOL    HW125490   2.460   4.455   3.483 -0.1729 -1.1411 -1.6199
 4676SOL    HW225491   2.413   4.330   3.464  0.6467  0.4668 -0.8716
 4677SOL     OW25492   1.796   2.315   7.836  0.2611 -0.6786 -0.4042
 4677SOL    HW125493   1.781   2.383   7.770 -1.8017 -0.4215  0.3511
 4677SOL    HW225494   1.719   2.322   7.892  0.7938  0.4808  0.1813
 4678SOL     OW25495   1.495   2.558   3.425 -0.5623  0.2676 -0.7974
 4678SOL    HW125496   1.442   2.564   3.505 -0.5102  2.1756 -0.9239
 4678SOL    HW225497   1.453   2.618   3.364 -1.4088  0.5976  0.1141
 4679SOL     OW25498   0.009   2.658   3.965 -0.2322 -0.0165 -0.5857
 4679SOL    HW125499   0.029   2.742   3.924  1.4471  0.0726  0.4471
 4679SOL    HW225500   4.649   2.684   4.009  0.6465  0.6116  0.6641
 4680SOL     OW25501   1.200   4.389   9.429  0.0327 -0.5089  0.0065
 4680SOL    HW125502   1.291   4.366   9.412 -0.7748 -2.8854 -1.1205
 4680SOL    HW225503   1.214   4.413   9.520 -2.2164  0.8613 -0.0018
 4681SOL     OW25504   2.041   1.882   2.810 -0.4564  0.4084 -0.2747
 4681SOL    HW125505   2.125   1.919   2.839 -0.1127 -1.4296  1.0350
 4681SOL    HW225506   1.997   1.920   2.886  0.2086 -0.9030  0.7652
 4682SOL     OW25507   3.213   4.111  12.284  0.6207 -0.5974 -0.4895
 4682SOL    HW125508   3.122   4.086  12.299  0.2768  1.2362  0.4450
 4682SOL    HW225509   3.212   4.205  12.262  0.9032 -0.4500  0.1515
 4683SOL     OW25510   2.507   3.617   5.065 -0.3098 -0.0831 -0.0957
 4683SOL    HW125511   2.572   3.660   5.010  1.0300  0.6509  2.0558
 4683SOL    HW225512   2.483   3.688   5.125  1.5283  1.7449 -1.5450
 4684SOL     OW25513   3.189   1.738   2.792  0.1128  0.2000 -0.2664
 4684SOL    HW125514   3.201   1.800   2.720  1.9760 -0.0814 -0.2052
 4684SOL    HW225515   3.155   1.802   2.854  0.8760  2.0624 -1.7640
 4685SOL     OW25516   1.242   2.324   1.633 -0.0942  0.2903  0.3871
 4685SOL    HW125517   1.254   2.410   1.594 -2.4971  1.3937  2.1017
 4685SOL    HW225518   1.271   2.338   1.723  0.8446 -1.0476  0.2938
 4686SOL     OW25519   4.453   0.596   7.461 -0.1593  0.2849  0.1613
 4686SOL    HW125520   4.483   0.514   7.420 -0.4119 -0.6469  1.8453
 4686SOL    HW225521   4.364   0.594   7.424  0.2421  0.0696 -0.7980
 4687SOL     OW25522   3.726   0.259   5.168 -0.5494 -0.4572  0.2822
 4687SOL    HW125523   3.695   0.191   5.227  1.5921  1.5960  3.7481
 4687SOL    HW225524   3.812   0.273   5.209 -0.6388  2.4735 -0.4737
 4688SOL     OW25525   3.819   4.037   0.640  0.1410  0.6812 -0.0402
 4688SOL    HW125526   3.842   4.086   0.719  1.2828 -0.1005  0.1155
 4688SOL    HW225527   3.727   4.065   0.632  0.5433  1.8469 -0.5737
 4689SOL     OW25528   3.593   1.602   8.595 -0.1501  0.0958  0.4097
 4689SOL    HW125529   3.566   1.537   8.660 -1.1848  0.6590  0.5416
 4689SOL    HW225530   3.675   1.629   8.635  0.9711 -0.6151 -1.4167
 4690SOL     OW25531   2.957   3.000  15.557  0.1903  0.3045 -0.4426
 4690SOL    HW125532   3.038   3.047  15.534  1.6579 -1.4893  1.0674
 4690SOL    HW225533   2.981   2.908  15.547 -0.6963 -0.0336  0.6546
 4691SOL     OW25534   2.488   2.685   6.111 -0.0476 -0.0878  0.2119
 4691SOL    HW125535   2.540   2.610   6.140  0.4810  0.1364 -0.1640
 4691SOL    HW225536   2.446   2.703   6.196  2.8357 -2.7843  2.1955
 4692SOL     OW25537   4.117   3.115   2.739 -0.8712  0.1178 -0.0072
 4692SOL    HW125538   4.055   3.132   2.668 -1.8755  0.3944  0.9465
 4692SOL    HW225539   4.138   3.205   2.764 -2.6311  0.1202  1.4136
 4693SOL     OW25540   3.678   3.033   3.682  0.5765 -0.0640 -0.1890
 4693SOL    HW125541   3.718   3.057   3.766 -0.8751 -3.4179  1.4678
 4693SOL    HW225542   3.587   3.012   3.702  1.6808 -1.4450  3.4690
 4694SOL     OW25543   1.272   3.931   0.131  0.1594 -0.5715 -0.3442
 4694SOL    HW125544   1.302   3.997   0.194  0.2179 -1.3311  0.4279
 4694SOL    HW225545   1.348   3.873   0.134  0.4043 -0.1989  0.7254
 4695SOL     OW25546   1.673   3.884   5.643  0.8316 -0.3057 -0.0238
 4695SOL    HW125547   1.744   3.883   5.579  0.6247  0.2674 -0.2635
 4695SOL    HW225548   1.636   3.972   5.633  3.2217  1.0658  3.1612
 4696SOL     OW25549   3.838   2.240   3.017 -0.0757  0.4014  0.3610
 4696SOL    HW125550   3.921   2.215   3.058 -0.8942  0.5736  2.1326
 4696SOL    HW225551   3.878   2.274   2.937 -1.6659  1.9746  0.2335
 4697SOL     OW25552   0.935   1.745   8.236 -0.3431 -0.2129  0.0210
 4697SOL    HW125553   0.920   1.749   8.142 -1.6645 -1.8643  0.1609
 4697SOL    HW225554   1.029   1.733   8.250 -0.4409 -0.5679  0.3872
 4698SOL     OW25555   0.698   0.805  14.210 -0.3179  0.1592 -0.1438
 4698SOL    HW125556   0.723   0.897  14.201 -3.7150  1.4093  2.9969
 4698SOL    HW225557   0.603   0.811  14.211 -0.3101  0.2542  0.2678
 4699SOL     OW25558   1.216   1.550   7.290 -0.1160  0.3478 -0.0250
 4699SOL    HW125559   1.246   1.466   7.257 -0.0848  0.5253 -0.4469
 4699SOL    HW225560   1.216   1.536   7.385  2.8217 -1.7814 -0.3163
 4700SOL     OW25561   3.173   2.028   0.654  0.2955  0.3419 -0.4770
 4700SOL    HW125562   3.242   2.005   0.716 -0.7016  0.9443  0.8473
 4700SOL    HW225563   3.090   2.016   0.700  1.9429 -4.2257  1.3869
 4701SOL     OW25564   4.032   0.825  13.044  0.3708 -0.3290 -0.1986
 4701SOL    HW125565   4.002   0.736  13.061 -1.8431  0.9598  2.6154
 4701SOL    HW225566   4.095   0.847  13.113  0.0099  0.3848 -0.0942
 4702SOL     OW25567   2.940   3.456   7.803  0.3354  0.5954  0.0729
 4702SOL    HW125568   2.926   3.470   7.897 -1.3406 -0.5993  0.0100
 4702SOL    HW225569   3.004   3.522   7.777  1.0579  0.0846  0.5384
 4703SOL     OW25570   0.956   1.617   7.236  0.2869 -0.6575  0.1099
 4703SOL    HW125571   0.939   1.642   7.327  0.5725 -2.3577  0.6328
 4703SOL    HW225572   1.051   1.621   7.245  0.4839 -2.4107 -1.0719
 4704SOL     OW25573   2.742   2.982   4.504 -0.1872  0.3684  0.2548
 4704SOL    HW125574   2.714   2.932   4.427  0.6053  0.9556 -0.4099
 4704SOL    HW225575   2.836   2.964   4.512 -0.1998 -0.5527 -1.6680
 4705SOL     OW25576   4.095   3.536   1.207  0.0545 -0.2358 -0.3638
 4705SOL    HW125577   4.085   3.444   1.231  0.9528  0.0849  1.2524
 4705SOL    HW225578   4.163   3.529   1.141  0.3332 -0.2437 -0.0740
 4706SOL     OW25579   2.630   3.433  10.966 -0.2184 -0.8767  0.2803
 4706SOL    HW125580   2.612   3.431  11.060 -0.9068 -1.7044  0.1350
 4706SOL    HW225581   2.723   3.410  10.964  0.5085  2.1449 -0.8492
 4707SOL     OW25582   3.019   3.064   5.964  0.1815  0.7316  0.0265
 4707SOL    HW125583   3.015   2.970   5.948  1.9611  0.4427  1.2773
 4707SOL    HW225584   3.099   3.087   5.917 -0.3924  0.0197 -1.3096
 4708SOL     OW25585   0.036   3.796   2.149  0.1094  0.0053  0.5923
 4708SOL    HW125586   0.089   3.843   2.213 -0.2881  1.1310  0.1108
 4708SOL    HW225587   0.098   3.791   2.076  3.0557 -0.8540  3.1759
 4709SOL     OW25588   4.473   1.131   3.069  0.2266 -0.2489  0.3546
 4709SOL    HW125589   4.524   1.050   3.066  2.1731  1.0198 -1.4303
 4709SOL    HW225590   4.545   1.194   3.075  0.1908 -0.3136  1.3884
 4710SOL     OW25591   1.941   2.436   4.193 -0.0936 -1.0969 -0.6712
 4710SOL    HW125592   1.925   2.523   4.230  4.1528 -1.1840  1.3458
 4710SOL    HW225593   1.854   2.397   4.200 -1.1287  1.2022 -0.5866
 4711SOL     OW25594   3.609   0.200   6.899 -0.4993 -0.1091 -0.2135
 4711SOL    HW125595   3.535   0.140   6.896  1.0789 -2.1355  1.2173
 4711SOL    HW225596   3.681   0.139   6.883  0.3634  1.2351 -1.4879
 4712SOL     OW25597   0.000   4.427   9.860  0.9704  0.0154 -0.5708
 4712SOL    HW125598   4.696   4.405   9.770  0.4312 -0.9086 -0.1879
 4712SOL    HW225599   4.656   4.493   9.882 -0.1495 -0.9654 -0.9978
 4713SOL     OW25600   0.032   4.479  15.742 -0.0840  0.3286 -0.5024
 4713SOL    HW125601   4.658   4.488  15.738 -0.0114  1.2238 -0.1400
 4713SOL    HW225602   0.070   4.500  15.657  2.5130 -0.8335  0.3534
 4714SOL     OW25603   1.277   1.237   3.056  0.7540 -0.0160 -0.3071
 4714SOL    HW125604   1.264   1.286   3.137 -2.2550 -0.7799 -0.3304
 4714SOL    HW225605   1.274   1.152   3.099  1.3880 -0.4441 -1.1013
 4715SOL     OW25606   2.589   3.918   7.148 -0.4892 -0.6354 -0.9064
 4715SOL    HW125607   2.569   3.957   7.063  0.2357  0.9602 -0.3448
 4715SOL    HW225608   2.664   3.863   7.125 -0.7904 -0.6713 -1.7926
 4716SOL     OW25609   2.955   3.057   8.598  0.1955  0.1782  0.2172
 4716SOL    HW125610   2.962   2.968   8.633 -3.1940 -1.0619 -2.2972
 4716SOL    HW225611   2.990   3.044   8.510  2.1172 -0.5557  1.0948
 4717SOL     OW25612   1.449   2.036   2.916 -0.3285 -0.1735 -0.0847
 4717SOL    HW125613   1.528   2.024   2.863  0.6439  0.9982  1.1221
 4717SOL    HW225614   1.435   2.130   2.905  0.1046 -0.1370 -0.3204
 4718SOL     OW25615   1.988   2.925   2.506  0.3107  0.2511 -0.2560
 4718SOL    HW125616   1.959   2.938   2.416  1.6324 -1.4295 -0.9188
 4718SOL    HW225617   1.991   2.829   2.507 -3.0427  0.1805  0.5664
 4719SOL     OW25618   0.414   3.447  11.928 -0.2673  0.2619 -0.0556
 4719SOL    HW125619   0.389   3.500  11.852 -0.6978 -0.6581 -0.5509
 4719SOL    HW225620   0.509   3.462  11.929 -0.5335  1.8704  1.3389
 4720SOL     OW25621   2.242   3.423   2.888 -0.2769 -0.0569 -0.3961
 4720SOL    HW125622   2.292   3.471   2.954 -0.7838 -1.1211  0.7695
 4720SOL    HW225623   2.284   3.337   2.898 -0.7038 -0.1212  0.8831
 4721SOL     OW25624   1.714   2.384   6.899 -0.7094 -0.0703  0.4169
 4721SOL    HW125625   1.678   2.472   6.887  1.6081  1.0357  1.6969
 4721SOL    HW225626   1.647   2.360   6.963 -0.0956 -1.5562  0.5003
 4722SOL     OW25627   3.308   1.061   4.400 -0.5430  0.0309 -0.2363
 4722SOL    HW125628   3.283   1.060   4.493  1.7580 -1.7236  0.3475
 4722SOL    HW225629   3.373   0.991   4.407 -1.0413 -0.4093  0.0185
 4723SOL     OW25630   1.039   4.209  12.496  0.5124 -0.3294  0.6704
 4723SOL    HW125631   0.986   4.148  12.444 -1.1858 -1.2624  3.5116
 4723SOL    HW225632   1.062   4.153  12.570  0.6695  1.0889  1.6779
 4724SOL     OW25633   1.461   2.827   5.660 -0.2743 -0.0593  0.6515
 4724SOL    HW125634   1.484   2.747   5.611 -0.3504 -0.7836  1.8083
 4724SOL    HW225635   1.549   2.863   5.664 -0.8630  1.4046  0.4480
 4725SOL     OW25636   1.923   0.164   7.258 -0.2258 -0.2472 -0.1171
 4725SOL    HW125637   1.831   0.141   7.249 -0.4515 -0.6543  3.2554
 4725SOL    HW225638   1.963   0.088   7.216  2.7491  0.4715  1.3430
 4726SOL     OW25639   3.381   2.191   3.743  0.3488  0.3034  0.0720
 4726SOL    HW125640   3.436   2.269   3.740  2.2836 -1.0369  0.3636
 4726SOL    HW225641   3.426   2.140   3.676  0.9189 -0.4910  1.0588
 4727SOL     OW25642   0.545   0.729   7.586  0.3355  0.3445 -0.3750
 4727SOL    HW125643   0.524   0.647   7.630  2.8146  0.2013  0.5099
 4727SOL    HW225644   0.507   0.712   7.500 -0.8994 -0.0845  0.2602
 4728SOL     OW25645   0.801   1.687   9.653  0.1085 -0.2789 -0.1521
 4728SOL    HW125646   0.740   1.753   9.618  0.1075 -0.4006 -0.3827
 4728SOL    HW225647   0.752   1.673   9.733  0.3382 -0.5962 -0.0693
 4729SOL     OW25648   1.921   2.526  16.449 -0.3315  0.0478 -0.2560
 4729SOL    HW125649   1.853   2.492  16.508  0.3375  0.6710  0.8728
 4729SOL    HW225650   1.907   2.620  16.457  1.3515  0.1372  1.4767
 4730SOL     OW25651   3.621   2.988  14.056 -0.3008  0.4572  0.2114
 4730SOL    HW125652   3.550   2.983  13.992  0.4940 -0.5003 -0.5911
 4730SOL    HW225653   3.583   2.962  14.139  0.9146  1.6861  1.1571
 4731SOL     OW25654   3.440   0.375   5.845 -0.2604  0.0271  0.7185
 4731SOL    HW125655   3.434   0.425   5.926  0.7227 -0.0672  0.8547
 4731SOL    HW225656   3.414   0.290   5.880 -1.5948  0.9790  2.0055
 4732SOL     OW25657   1.654   2.141  16.390  0.5985 -0.0259 -0.3082
 4732SOL    HW125658   1.668   2.046  16.391  2.4197  0.2248 -1.4402
 4732SOL    HW225659   1.627   2.137  16.298  1.2011 -1.0458 -0.4434
 4733SOL     OW25660   4.710   2.231  10.514 -0.3783  0.3514 -0.1682
 4733SOL    HW125661   4.686   2.138  10.511 -1.1446  0.4794  1.9531
 4733SOL    HW225662   0.002   2.256  10.422 -0.0940  1.5136  0.1899
 4734SOL     OW25663   0.435   0.473   4.012 -0.1066 -0.1005  0.3556
 4734SOL    HW125664   0.342   0.483   4.035 -0.7300  1.6404 -2.9933
 4734SOL    HW225665   0.481   0.524   4.079 -0.3204  2.5928 -1.5372
 4735SOL     OW25666   3.030   2.777   5.424 -0.3304  0.2379 -0.3395
 4735SOL    HW125667   3.060   2.743   5.508 -2.1700  3.2214  1.5121
 4735SOL    HW225668   3.087   2.853   5.418 -1.1930  1.1731  3.2022
 4736SOL     OW25669   3.462   2.286   5.434 -0.1994  0.2211  0.5033
 4736SOL    HW125670   3.437   2.376   5.416  0.1999  0.1053 -0.6381
 4736SOL    HW225671   3.470   2.290   5.529 -1.2403  0.2622  0.5880
 4737SOL     OW25672   2.172   2.600   4.090  0.0665  0.1970 -0.0630
 4737SOL    HW125673   2.091   2.549   4.096 -0.4328  0.3902 -5.7634
 4737SOL    HW225674   2.202   2.590   4.000 -2.5394 -0.3428 -0.8923
 4738SOL     OW25675   3.986   2.986   7.546  0.3764 -0.2890  0.0231
 4738SOL    HW125676   3.919   3.042   7.584 -1.0114  0.1281 -3.0686
 4738SOL    HW225677   4.040   2.969   7.624 -0.2563  1.6776  0.8936
 4739SOL     OW25678   1.302   3.903   6.421 -0.1486  0.0159 -0.7771
 4739SOL    HW125679   1.351   3.926   6.342  0.7925 -0.7282 -0.4174
 4739SOL    HW225680   1.369   3.846   6.459 -0.4967 -0.5013 -0.9475
 4740SOL     OW25681   3.086   3.081   2.157  0.0172  0.0670 -0.0555
 4740SOL    HW125682   3.036   3.111   2.233  1.4149 -0.3233  1.0156
 4740SOL    HW225683   3.015   3.057   2.096  1.5828 -2.5090 -0.8272
 4741SOL     OW25684   1.372   3.545   6.999 -0.0546  0.1373 -0.0460
 4741SOL    HW125685   1.446   3.487   6.980  0.5530  0.9507 -0.1594
 4741SOL    HW225686   1.299   3.483   7.002 -0.7836  0.9385 -1.2244
 4742SOL     OW25687   3.174   3.695   6.095 -0.5065 -0.1384 -0.2230
 4742SOL    HW125688   3.248   3.719   6.040 -1.6272  2.8115 -0.4584
 4742SOL    HW225689   3.207   3.719   6.182  0.1120 -1.7811 -0.0047
 4743SOL     OW25690   3.119   3.671  11.556  0.7169 -0.3046  0.0993
 4743SOL    HW125691   3.026   3.691  11.564  0.1713 -3.1716  0.8313
 4743SOL    HW225692   3.139   3.672  11.649 -1.5049  1.8902  0.5718
 4744SOL     OW25693   1.359   1.618   4.933 -0.1677  0.1653  0.4702
 4744SOL    HW125694   1.287   1.561   4.961  1.0438 -2.0560 -0.9044
 4744SOL    HW225695   1.426   1.590   4.994  2.0331  1.8497 -1.1553
 4745SOL     OW25696   3.948   3.893   7.284 -0.3480 -0.6947 -0.7047
 4745SOL    HW125697   3.854   3.906   7.269 -0.1021 -0.0282 -1.6334
 4745SOL    HW225698   3.958   3.898   7.379 -1.2764  0.7764 -0.6760
 4746SOL     OW25699   4.194   1.018   5.338  0.4066  0.1911  0.3836
 4746SOL    HW125700   4.167   1.057   5.421 -0.3245 -0.5567  0.4906
 4746SOL    HW225701   4.144   0.940   5.317  0.5994  0.1545  0.0511
 4747SOL     OW25702   1.619   0.807   3.035  0.2297 -0.3520 -0.2369
 4747SOL    HW125703   1.541   0.772   3.078 -1.3120  1.4457 -1.5552
 4747SOL    HW225704   1.599   0.881   2.977  0.3514  0.7927  1.1759
 4748SOL     OW25705   0.165   1.589   4.481  0.4071  0.6813  0.1990
 4748SOL    HW125706   0.258   1.612   4.483  0.5206  0.3525 -1.4439
 4748SOL    HW225707   0.142   1.636   4.561 -2.0586 -0.8928  0.4061
 4749SOL     OW25708   1.724   4.367   5.565 -0.0759  0.3390 -0.3468
 4749SOL    HW125709   1.718   4.461   5.552 -2.7522  0.1358 -0.6665
 4749SOL    HW225710   1.799   4.351   5.507  0.2264  1.3060 -0.2231
 4750SOL     OW25711   4.538   1.754  16.359 -0.3683 -0.5136 -0.0373
 4750SOL    HW125712   4.591   1.822  16.401 -1.0233  0.1311 -0.2386
 4750SOL    HW225713   4.604   1.721  16.298 -0.8107 -1.7410  0.1563
 4751SOL     OW25714   1.490   0.382   1.536 -0.2178 -0.0025 -0.7822
 4751SOL    HW125715   1.477   0.289   1.553 -2.0058  0.8619  2.4887
 4751SOL    HW225716   1.436   0.419   1.606 -1.6559  0.5841 -2.1874
 4752SOL     OW25717   4.114   0.967   5.942 -0.0037  0.3308 -0.0454
 4752SOL    HW125718   4.193   0.913   5.946  0.1212  0.5368  0.3207
 4752SOL    HW225719   4.098   0.967   5.848  1.0895  2.4352 -0.2417
 4753SOL     OW25720   3.011   1.919   1.586  0.1970  0.2036  0.2100
 4753SOL    HW125721   3.042   2.000   1.546  2.5227 -1.3032 -1.0496
 4753SOL    HW225722   2.921   1.933   1.557  0.5511  0.5975 -0.7247
 4754SOL     OW25723   1.754   2.665  11.455  0.6280 -0.5073  0.3802
 4754SOL    HW125724   1.755   2.674  11.550 -0.6330 -2.4377  0.5777
 4754SOL    HW225725   1.840   2.628  11.433 -0.1206 -1.6418 -0.6410
 4755SOL     OW25726   1.874   1.414  15.046 -0.1585 -0.3130 -0.6122
 4755SOL    HW125727   1.867   1.403  14.951  2.8084  1.7887 -1.0791
 4755SOL    HW225728   1.883   1.323  15.075  0.1295 -0.2258 -0.4247
 4756SOL     OW25729   0.916   2.427   1.732 -0.2466  0.4622 -1.1083
 4756SOL    HW125730   0.829   2.406   1.698 -0.3050 -2.0741  0.6332
 4756SOL    HW225731   0.895   2.512   1.771  0.6563 -0.0048  0.4057
 4757SOL     OW25732   3.918   2.730   1.228  0.3435  0.5541  0.3535
 4757SOL    HW125733   3.977   2.673   1.179 -0.0479 -0.5424  1.1616
 4757SOL    HW225734   3.946   2.704   1.316  0.0368 -2.7661 -0.5233
 4758SOL     OW25735   0.071   2.396   4.373 -0.4556  0.1202 -0.2301
 4758SOL    HW125736   0.125   2.391   4.294 -0.3191 -0.6426 -0.0865
 4758SOL    HW225737   0.002   2.332   4.361 -0.6591  0.2281  0.3953
 4759SOL     OW25738   1.463   1.073  17.566 -0.5884 -0.1776  0.2007
 4759SOL    HW125739   1.497   1.051  17.653  0.4762 -0.9296 -0.4168
 4759SOL    HW225740   1.472   0.986  17.529 -1.0243  0.4824 -1.4670
 4760SOL     OW25741   2.617   3.907   1.383 -0.0820 -0.1698  0.1957
 4760SOL    HW125742   2.689   3.965   1.357 -0.4255  0.0066 -0.3552
 4760SOL    HW225743   2.675   3.860   1.442 -0.1854 -0.1110  0.3453
 4761SOL     OW25744   1.395   1.772   3.501 -0.0300  0.0908 -0.2208
 4761SOL    HW125745   1.337   1.809   3.435 -1.0514 -2.2754 -0.6451
 4761SOL    HW225746   1.422   1.852   3.546  1.3810 -0.4127 -0.1678
 4762SOL     OW25747   2.154   2.970   3.036 -0.1782  0.4850 -0.1484
 4762SOL    HW125748   2.181   2.902   2.974 -0.1993  1.4022 -1.1696
 4762SOL    HW225749   2.077   3.003   2.990 -0.0911  1.0630  0.1177
 4763SOL     OW25750   4.646   4.267   9.221  0.3827 -0.8438 -0.1468
 4763SOL    HW125751   0.003   4.320   9.208 -0.1951  0.0449  0.0013
 4763SOL    HW225752   4.654   4.197   9.156 -1.1305 -0.7686 -0.4252
 4764SOL     OW25753   3.877   4.417  12.389  0.3374  0.0242 -0.0780
 4764SOL    HW125754   3.921   4.501  12.402 -1.2017  1.0284 -1.4018
 4764SOL    HW225755   3.807   4.432  12.326 -0.7882 -0.0768  1.1450
 4765SOL     OW25756   0.384   2.676  17.681 -0.1027  0.1416  0.0634
 4765SOL    HW125757   0.441   2.738  17.636  1.7059 -0.7573  1.1383
 4765SOL    HW225758   0.298   2.697  17.643 -0.5283 -2.7441 -0.5850
 4766SOL     OW25759   0.484   1.484   5.346  0.3704 -0.4170  0.0678
 4766SOL    HW125760   0.482   1.422   5.273  0.5515 -2.1753  1.5310
 4766SOL    HW225761   0.399   1.476   5.388  1.2819 -0.9215  1.8614
 4767SOL     OW25762   3.816   3.187   6.115  0.3887 -0.0479  0.6545
 4767SOL    HW125763   3.746   3.237   6.074 -2.1010 -3.6628  0.4510
 4767SOL    HW225764   3.823   3.235   6.197  0.1731  0.5048  0.3452
 4768SOL     OW25765   2.289   0.748  11.810 -0.1070 -0.0605  0.4084
 4768SOL    HW125766   2.268   0.752  11.717  1.9688  0.3778 -0.0339
 4768SOL    HW225767   2.207   0.786  11.842 -0.6472  1.1149 -2.3236
 4769SOL     OW25768   0.800   1.508   4.391  0.2261  0.1296  0.0645
 4769SOL    HW125769   0.780   1.449   4.463  3.1032 -0.0892  0.6883
 4769SOL    HW225770   0.766   1.591   4.423  0.4981  0.4907 -0.5740
 4770SOL     OW25771   3.215   1.274   2.867  0.0461  0.7751 -0.1972
 4770SOL    HW125772   3.234   1.182   2.882  0.7858  1.3246  2.2596
 4770SOL    HW225773   3.168   1.283   2.784  0.9813  1.6656 -0.6227
 4771SOL     OW25774   4.326   3.111  14.969  0.3848 -0.3561 -0.4714
 4771SOL    HW125775   4.273   3.031  14.966 -0.9997  0.5357  0.2269
 4771SOL    HW225776   4.374   3.085  15.048  1.2197  0.0594 -0.8394
 4772SOL     OW25777   2.091   0.495   8.469  0.4116 -0.5009  0.7093
 4772SOL    HW125778   2.174   0.535   8.493  0.4678  0.1785 -0.5942
 4772SOL    HW225779   2.074   0.517   8.377 -2.4280 -0.8393  1.1381
 4773SOL     OW25780   4.241   0.966   8.079 -0.2524 -0.2049  0.5117
 4773SOL    HW125781   4.256   1.056   8.049 -0.9716  0.5978  2.6110
 4773SOL    HW225782   4.227   0.924   7.994 -3.0213  2.0614 -0.1697
 4774SOL     OW25783   2.873   0.693   4.662  0.2011  0.4123 -0.2957
 4774SOL    HW125784   2.951   0.652   4.626  2.4033  3.3854  1.1075
 4774SOL    HW225785   2.855   0.630   4.732  0.6134  0.2888 -0.3009
 4775SOL     OW25786   3.285   4.623  12.897 -0.3672 -0.1869  0.1041
 4775SOL    HW125787   3.356   4.560  12.893  0.0499  0.1571  2.4787
 4775SOL    HW225788   3.274   4.621  12.992  1.0003 -0.6399  0.2542
 4776SOL     OW25789   1.712   3.063   7.374  0.1887 -0.0112 -0.5423
 4776SOL    HW125790   1.802   3.085   7.353 -0.6241  2.4995 -1.3535
 4776SOL    HW225791   1.726   2.996   7.441 -1.1185  2.0342  1.7537
 4777SOL     OW25792   0.376   3.818   5.193 -0.8173 -0.4624  0.5452
 4777SOL    HW125793   0.430   3.887   5.232 -0.6318  0.8275 -2.0080
 4777SOL    HW225794   0.356   3.774   5.275 -0.1979  0.0174  0.9537
 4778SOL     OW25795   3.810   3.059  13.880  0.2517 -0.2018 -0.4488
 4778SOL    HW125796   3.892   3.056  13.929 -0.2826 -0.1938  0.4352
 4778SOL    HW225797   3.746   3.034  13.946 -0.1720  2.1567  0.0553
 4779SOL     OW25798   3.834   0.659  13.619  0.1582 -0.0294  0.0668
 4779SOL    HW125799   3.829   0.667  13.523 -0.3658  4.5493  0.4737
 4779SOL    HW225800   3.843   0.564  13.621 -0.1551 -0.1287 -2.6262
 4780SOL     OW25801   4.653   2.386   7.453 -0.3122  0.7893 -0.6296
 4780SOL    HW125802   4.709   2.412   7.380  0.1333  1.2913 -0.1133
 4780SOL    HW225803   4.687   2.451   7.515  1.0848 -1.0791  0.6008
 4781SOL     OW25804   3.958   3.751   3.015 -0.0725  0.0974 -0.1072
 4781SOL    HW125805   4.051   3.768   2.997 -0.2703  0.0254 -1.2255
 4781SOL    HW225806   3.940   3.832   3.062 -0.6074  0.0582 -0.2452
 4782SOL     OW25807   1.308   3.533   5.142 -0.6264 -0.4637  0.0555
 4782SOL    HW125808   1.291   3.608   5.199  1.5222  1.2687 -1.5771
 4782SOL    HW225809   1.252   3.559   5.069  2.6260  1.6866 -1.6598
 4783SOL     OW25810   2.049   4.599   5.350  0.8950 -0.2855 -0.4980
 4783SOL    HW125811   2.023   4.665   5.285 -3.3864 -0.8880  0.6484
 4783SOL    HW225812   1.985   4.616   5.419  0.8469 -1.3384 -0.2817
 4784SOL     OW25813   3.336   1.873  16.342  0.3614 -0.4240  0.1679
 4784SOL    HW125814   3.313   1.789  16.302 -0.2625 -0.4772  0.6400
 4784SOL    HW225815   3.259   1.921  16.314 -0.8050 -2.6078 -0.3921
 4785SOL     OW25816   4.144   2.914   2.280 -0.1036  0.2184  0.1394
 4785SOL    HW125817   4.074   2.884   2.338  2.4663 -0.1286  3.1121
 4785SOL    HW225818   4.195   2.834   2.267  0.5491  0.4282  1.4033
 4786SOL     OW25819   3.520   4.380  10.523  0.0931  0.1211  0.1801
 4786SOL    HW125820   3.459   4.451  10.502 -3.4462 -2.2041  2.6584
 4786SOL    HW225821   3.577   4.428  10.583 -1.3170  0.1617  1.5051
 4787SOL     OW25822   4.272   1.233   2.854 -0.5340 -0.2112 -0.2687
 4787SOL    HW125823   4.330   1.241   2.930 -0.2270  1.0634 -0.6356
 4787SOL    HW225824   4.193   1.280   2.883  0.7923  0.2450  2.5916
 4788SOL     OW25825   1.151   3.362   7.647  0.1658 -0.0268 -0.0152
 4788SOL    HW125826   1.176   3.396   7.561  1.3139 -2.5897 -0.6840
 4788SOL    HW225827   1.097   3.284   7.634 -0.1403  0.1456  0.2196
 4789SOL     OW25828   0.115   2.312  16.081  0.1682 -0.2315 -0.6941
 4789SOL    HW125829   0.191   2.313  16.023  0.9998 -0.3191  0.4009
 4789SOL    HW225830   0.150   2.248  16.143 -1.7397  0.8788  1.5130
 4790SOL     OW25831   2.193   2.319  12.694 -0.0535 -0.2449  0.0747
 4790SOL    HW125832   2.177   2.319  12.788 -1.6623 -0.3741 -0.2042
 4790SOL    HW225833   2.222   2.230  12.671  2.4364  0.8249 -1.0128
 4791SOL     OW25834   3.381   0.032  12.673 -0.7105 -0.3911 -0.4352
 4791SOL    HW125835   3.428   0.086  12.737 -2.4454 -0.4991  0.9179
 4791SOL    HW225836   3.338   4.687  12.726  2.1491 -0.3918  1.9120
 4792SOL     OW25837   1.359   1.368   5.171  0.0065  0.1538  0.1477
 4792SOL    HW125838   1.317   1.351   5.256 -1.2360  2.5217  0.0101
 4792SOL    HW225839   1.290   1.354   5.106  1.1776 -1.6437 -0.6929
 4793SOL     OW25840   1.410   0.619   8.383 -0.1795  0.4914 -0.4406
 4793SOL    HW125841   1.401   0.676   8.459  1.0026 -0.1838  0.1920
 4793SOL    HW225842   1.338   0.658   8.331  0.1302 -1.7674 -2.5683
 4794SOL     OW25843   1.773   0.020   7.896  0.8847  0.4136 -0.0288
 4794SOL    HW125844   1.746   0.078   7.967  1.3295 -0.5529  0.9157
 4794SOL    HW225845   1.861   0.055   7.878  0.5954  1.9349  1.5049
 4795SOL     OW25846   4.371   2.740   5.842  0.1359  0.0271  0.2548
 4795SOL    HW125847   4.416   2.824   5.841  1.3201 -0.6042  0.1219
 4795SOL    HW225848   4.424   2.690   5.780 -3.0519 -2.1390 -0.7261
 4796SOL     OW25849   4.406   4.229   7.254  0.4056 -0.1670 -0.0591
 4796SOL    HW125850   4.485   4.187   7.220 -1.1161 -2.6149 -0.5967
 4796SOL    HW225851   4.435   4.305   7.304 -0.6822  1.0867 -1.3226
 4797SOL     OW25852   0.194   3.700   3.638  0.0344 -0.3989 -0.5216
 4797SOL    HW125853   0.105   3.706   3.604 -0.0450 -0.4770 -0.3230
 4797SOL    HW225854   0.224   3.784   3.605  3.0973 -0.6917  1.5180
 4798SOL     OW25855   2.911   1.787   3.133 -0.1342 -0.0361 -0.2207
 4798SOL    HW125856   2.838   1.744   3.088  2.3877 -2.5770 -1.8342
 4798SOL    HW225857   2.850   1.835   3.190 -0.6948 -0.4555 -0.4625
 4799SOL     OW25858   3.520   3.382   2.201  0.3208 -0.4640 -0.2711
 4799SOL    HW125859   3.512   3.461   2.148 -1.0312 -1.0235 -0.9003
 4799SOL    HW225860   3.466   3.318   2.155 -0.1937  1.0458 -1.7478
 4800SOL     OW25861   3.139   3.917  13.225  0.4465  0.3969 -0.5668
 4800SOL    HW125862   3.129   3.826  13.198 -2.6578 -0.0857  2.1127
 4800SOL    HW225863   3.047   3.945  13.220  0.3892  0.4965  0.9801
 4801SOL     OW25864   3.743   1.566   1.898  0.0488  0.1667  0.5357
 4801SOL    HW125865   3.793   1.490   1.925 -0.0340 -0.4803 -1.1242
 4801SOL    HW225866   3.659   1.536   1.933 -0.2207  1.0281  0.6405
 4802SOL     OW25867   0.045   1.081  16.655 -0.1093 -0.3280 -0.3171
 4802SOL    HW125868   0.010   1.045  16.737  0.6837  0.3623  0.3236
 4802SOL    HW225869   0.122   1.125  16.691 -0.8019  1.5661 -1.1845
 4803SOL     OW25870   1.697   4.232   1.304 -0.0697  0.2640  0.3037
 4803SOL    HW125871   1.783   4.228   1.262 -0.5645  1.8649 -0.8870
 4803SOL    HW225872   1.714   4.185   1.386 -0.3206  0.4448  0.4587
 4804SOL     OW25873   4.433   0.154  11.791 -0.2768 -0.1092  0.0296
 4804SOL    HW125874   4.408   0.066  11.763 -3.1118 -0.0015  2.2394
 4804SOL    HW225875   4.528   0.144  11.782 -0.3146 -1.2098  0.8690
 4805SOL     OW25876   2.209   3.581   8.548  0.1274  0.4152 -0.1074
 4805SOL    HW125877   2.273   3.652   8.551 -0.4785  0.9816 -0.5051
 4805SOL    HW225878   2.139   3.621   8.598  1.0376 -0.0571  1.5459
 4806SOL     OW25879   1.252   1.590   9.623  0.2419  0.1078 -0.1999
 4806SOL    HW125880   1.266   1.495   9.619 -0.9974 -0.0597 -0.4354
 4806SOL    HW225881   1.290   1.611   9.708  0.2806 -2.8283  0.5252
 4807SOL     OW25882   2.164   1.496   6.603 -0.2062 -0.0579 -0.0638
 4807SOL    HW125883   2.096   1.535   6.657  1.4283 -0.0210  1.9630
 4807SOL    HW225884   2.188   1.570   6.548  0.8505  1.1950  2.0644
 4808SOL     OW25885   1.363   4.522   4.748 -0.1312 -0.2849 -0.5099
 4808SOL    HW125886   1.362   4.573   4.667  2.5969 -0.8384 -0.8900
 4808SOL    HW225887   1.293   4.461   4.727 -1.0859  0.5400  0.2915
 4809SOL     OW25888   4.159   1.767   1.653  0.1614  0.5460 -0.2503
 4809SOL    HW125889   4.159   1.700   1.721 -3.2706 -0.5259 -1.2952
 4809SOL    HW225890   4.252   1.786   1.642 -0.1851  1.1539 -2.0822
 4810SOL     OW25891   3.509   3.443   6.380 -0.7328  0.2820  0.7275
 4810SOL    HW125892   3.584   3.466   6.435  0.3688 -1.1601 -0.1702
 4810SOL    HW225893   3.438   3.435   6.443  1.2347  0.2682  2.9516
 4811SOL     OW25894   1.681   2.064   1.665  0.4830  0.4292 -0.4544
 4811SOL    HW125895   1.690   1.991   1.726  0.5542 -0.4769 -1.5441
 4811SOL    HW225896   1.585   2.071   1.660  0.6620  1.1268 -2.6690
 4812SOL     OW25897   1.204   3.027   1.093 -0.0772 -0.2125 -0.3006
 4812SOL    HW125898   1.227   3.063   1.007 -0.2277 -2.3416 -1.2417
 4812SOL    HW225899   1.225   2.935   1.077  2.0140  0.3232 -0.6600
 4813SOL     OW25900   4.007   2.468   5.126  0.0672  0.3425  0.6582
 4813SOL    HW125901   3.959   2.388   5.106  0.8997 -0.5325  2.1699
 4813SOL    HW225902   3.966   2.543   5.081  0.9137  1.7351  2.1932
 4814SOL     OW25903   2.945   0.196   3.394  0.3058 -0.3987  0.1450
 4814SOL    HW125904   2.900   0.135   3.336  0.8948  1.0809 -1.8432
 4814SOL    HW225905   2.922   0.286   3.372  0.4958 -0.5896 -0.8162
 4815SOL     OW25906   1.702   1.413   8.070  0.3074 -0.2600 -0.5532
 4815SOL    HW125907   1.793   1.387   8.055  0.2837  0.0245 -1.1917
 4815SOL    HW225908   1.707   1.430   8.164 -1.2146 -1.8983 -0.1807
 4816SOL     OW25909   4.612   0.268   4.050 -0.3267  0.1897  0.3270
 4816SOL    HW125910   4.590   0.360   4.039 -0.8034  0.1875  1.2657
 4816SOL    HW225911   4.615   0.258   4.145  1.7109  0.2611  0.2828
 4817SOL     OW25912   3.081   2.616  17.608  0.0327 -0.0231 -0.1401
 4817SOL    HW125913   3.041   2.623  17.522  2.0708  0.4221 -1.0434
 4817SOL    HW225914   3.046   2.695  17.649  0.8230  0.4986 -0.4664
 4818SOL     OW25915   2.383   0.548   8.496 -0.0866  0.1418  0.0470
 4818SOL    HW125916   2.426   0.593   8.568 -0.2224 -2.3501  1.6623
 4818SOL    HW225917   2.423   0.462   8.505  0.8276  0.2994 -2.4182
 4819SOL     OW25918   1.228   3.617   2.663 -0.1994  0.4334  0.1652
 4819SOL    HW125919   1.170   3.692   2.652 -0.0016  0.5283 -0.2433
 4819SOL    HW225920   1.226   3.584   2.573 -0.5196 -0.6450  0.5650
 4820SOL     OW25921   0.436   1.936   8.458  0.1676 -0.4506  0.1506
 4820SOL    HW125922   0.452   1.983   8.540  3.4153 -0.8025 -0.3212
 4820SOL    HW225923   0.517   1.895   8.430  0.3480 -0.9288  1.3553
 4821SOL     OW25924   1.984   0.152   4.428 -0.0301  1.0021 -0.0576
 4821SOL    HW125925   1.889   0.156   4.421 -0.0508 -2.6999 -2.1746
 4821SOL    HW225926   2.005   0.204   4.350 -2.5989 -0.8983 -2.0100
 4822SOL     OW25927   1.018   2.006   9.133 -0.0667 -0.0251  0.7331
 4822SOL    HW125928   0.954   2.033   9.198 -0.7172 -0.3472  0.2297
 4822SOL    HW225929   0.994   2.055   9.055 -1.1507 -0.5372  0.7447
 4823SOL     OW25930   0.519   3.586   2.259  0.3491  0.1632 -0.2828
 4823SOL    HW125931   0.474   3.570   2.176 -1.1087  3.0097 -0.0360
 4823SOL    HW225932   0.448   3.604   2.321  1.0981 -1.2757  1.0078
 4824SOL     OW25933   3.215   2.694  13.817 -0.3471  0.3218 -0.0158
 4824SOL    HW125934   3.232   2.779  13.776  0.0152 -0.2424 -1.0357
 4824SOL    HW225935   3.124   2.671  13.799  0.1081  0.7993 -2.9422
 4825SOL     OW25936   1.641   1.536  13.091 -0.2533  0.2581 -0.0512
 4825SOL    HW125937   1.641   1.597  13.017 -0.5536  0.9158  0.4882
 4825SOL    HW225938   1.600   1.464  13.044 -0.8520  0.3654  0.3127
 4826SOL     OW25939   2.730   1.499   8.933 -0.5948  0.1412  0.2580
 4826SOL    HW125940   2.723   1.595   8.925 -1.9032  0.3993  4.6623
 4826SOL    HW225941   2.747   1.487   9.026 -2.9283 -1.0737  0.5161
 4827SOL     OW25942   1.397   0.691   8.675 -0.1008  0.4023 -0.3975
 4827SOL    HW125943   1.396   0.739   8.758  1.5106 -2.5074  1.3090
 4827SOL    HW225944   1.478   0.639   8.675 -0.9278 -0.8501  0.8829
 4828SOL     OW25945   1.297   2.179   3.750 -0.0163 -0.1376 -0.3215
 4828SOL    HW125946   1.228   2.225   3.798 -0.6605  0.6931 -2.0473
 4828SOL    HW225947   1.351   2.253   3.724 -1.3680  1.7401  2.1513
 4829SOL     OW25948   3.687   3.142   2.129  0.0556  0.1088 -0.3851
 4829SOL    HW125949   3.654   3.231   2.141  0.5499  0.3490 -0.7900
 4829SOL    HW225950   3.759   3.160   2.067 -0.8920  1.3646 -1.1223
 4830SOL     OW25951   0.871   3.413   3.704  0.1533  0.4670 -0.1550
 4830SOL    HW125952   0.783   3.416   3.668  0.1467  2.2672  0.0409
 4830SOL    HW225953   0.898   3.504   3.713  1.7866 -0.1250  0.9558
 4831SOL     OW25954   1.574   1.085   5.010  0.2607  0.1315 -0.1524
 4831SOL    HW125955   1.485   1.048   5.016 -0.0967  1.0197 -0.0450
 4831SOL    HW225956   1.558   1.171   5.048 -0.4446 -0.2329  0.3884
 4832SOL     OW25957   3.987   1.965   6.391 -0.1245  0.8942 -0.0045
 4832SOL    HW125958   3.925   1.984   6.462  1.7885  1.4732  1.5012
 4832SOL    HW225959   4.072   1.964   6.434  0.4192  1.2977 -1.0717
 4833SOL     OW25960   4.215   1.825   8.300  0.1169 -0.0121  0.2196
 4833SOL    HW125961   4.133   1.805   8.345  0.9378 -0.5481  1.4833
 4833SOL    HW225962   4.280   1.770   8.343  2.7981  0.9809 -2.5757
 4834SOL     OW25963   0.976   3.535   6.165 -0.3537 -0.2194 -0.2134
 4834SOL    HW125964   1.013   3.560   6.250  0.3870  1.5953 -1.0688
 4834SOL    HW225965   0.961   3.616   6.117 -0.5117 -0.8589 -1.2216
 4835SOL     OW25966   2.364   3.789   8.597  0.8072  0.3680 -0.4193
 4835SOL    HW125967   2.293   3.843   8.633  1.2467  0.2937  0.5654
 4835SOL    HW225968   2.423   3.863   8.582  1.0081  0.6430  1.7232
 4836SOL     OW25969   4.182   4.590   6.724 -0.1349 -0.6067 -0.6517
 4836SOL    HW125970   4.132   4.634   6.793  0.7377  1.8730 -1.6183
 4836SOL    HW225971   4.249   4.556   6.783 -0.2181  0.8420  0.2952
 4837SOL     OW25972   3.806   2.727   0.289 -0.1730  0.3357 -0.0458
 4837SOL    HW125973   3.777   2.701   0.376 -1.2498 -2.3685 -1.2111
 4837SOL    HW225974   3.746   2.678   0.232 -2.0201  0.3586  1.8738
 4838SOL     OW25975   0.450   1.021   7.087  0.5281  0.0236  0.6597
 4838SOL    HW125976   0.536   1.053   7.118  0.8726  0.5287 -0.8174
 4838SOL    HW225977   0.396   1.099   7.076  1.1304  0.8840  3.6274
 4839SOL     OW25978   4.124   0.097   4.699  0.0302  0.4748 -0.2280
 4839SOL    HW125979   4.119   0.067   4.790 -0.9976  1.1907 -0.0582
 4839SOL    HW225980   4.215   0.127   4.694  0.1914 -0.0210 -0.2662
 4840SOL     OW25981   0.110   1.994   3.123  0.3159  0.3379 -0.4120
 4840SOL    HW125982   0.157   1.998   3.040 -2.0076 -0.5413 -1.7642
 4840SOL    HW225983   0.037   1.937   3.101  0.7413 -0.1286 -0.6144
 4841SOL     OW25984   3.274   3.944   9.962  0.0753  0.4715  0.5877
 4841SOL    HW125985   3.332   4.008  10.004 -0.9935  1.6395  0.2938
 4841SOL    HW225986   3.290   3.873  10.024 -0.2478  1.5806  1.9370
 4842SOL     OW25987   3.583   0.832   1.944 -0.1674 -0.4053 -0.5322
 4842SOL    HW125988   3.652   0.769   1.923  3.5452  2.7092  2.3004
 4842SOL    HW225989   3.498   0.807   1.908 -1.3922  2.1828  0.5235
 4843SOL     OW25990   4.572   2.409   2.086 -0.2663 -0.2980 -0.2241
 4843SOL    HW125991   4.599   2.331   2.038  0.5025 -0.2730  0.1752
 4843SOL    HW225992   4.477   2.417   2.073 -0.3099 -0.4632 -0.0015
 4844SOL     OW25993   1.695   2.697   0.934  0.0190  0.4574  0.3291
 4844SOL    HW125994   1.774   2.749   0.950  0.0531  0.5296 -0.0601
 4844SOL    HW225995   1.629   2.764   0.912 -0.1276  0.2319  0.0759
 4845SOL     OW25996   1.276   3.866   9.834  0.0916  0.0885  0.0406
 4845SOL    HW125997   1.320   3.865   9.919  0.1493  3.6752  0.0739
 4845SOL    HW225998   1.277   3.772   9.820 -0.0655  0.0428  0.3368
 4846SOL     OW25999   4.245   3.840  15.626  0.3546 -0.2992 -0.4610
 4846SOL    HW126000   4.312   3.876  15.567  1.4138 -1.0433  0.3006
 4846SOL    HW226001   4.271   3.752  15.653 -2.2352 -1.1861 -0.9369
 4847SOL     OW26002   0.461   2.622   9.982  0.0090  0.2685 -0.3692
 4847SOL    HW126003   0.462   2.571  10.063  0.8736 -2.2486 -1.9496
 4847SOL    HW226004   0.500   2.567   9.914 -0.4230 -0.9148  0.3357
 4848SOL     OW26005   0.770   2.506   8.091 -0.5411  0.0005 -0.2220
 4848SOL    HW126006   0.754   2.462   8.175 -2.1194  2.3901  0.7121
 4848SOL    HW226007   0.764   2.597   8.118 -0.6678 -0.2560  0.6173
 4849SOL     OW26008   1.613   0.737  15.701  0.7226  0.1052 -0.0801
 4849SOL    HW126009   1.523   0.766  15.689  0.8408  0.7813  0.6989
 4849SOL    HW226010   1.624   0.681  15.624  0.8631  0.6735 -0.4738
 4850SOL     OW26011   1.551   0.618   4.049  0.3552  0.3629 -0.6932
 4850SOL    HW126012   1.544   0.704   4.007  0.2565 -0.7512 -2.9782
 4850SOL    HW226013   1.474   0.611   4.105  1.6008  0.2929  1.0213
 4851SOL     OW26014   3.379   3.248   6.004 -0.3572  0.5374 -0.2954
 4851SOL    HW126015   3.444   3.318   5.993 -1.3411  1.5260  0.0935
 4851SOL    HW226016   3.297   3.298   6.003 -1.0978 -0.6985 -0.9410
 4852SOL     OW26017   2.612   4.079  10.564 -0.1074  0.5136  0.1656
 4852SOL    HW126018   2.692   4.027  10.552 -0.4501 -0.8064  3.5528
 4852SOL    HW226019   2.596   4.115  10.477  0.4897 -2.2972 -1.0860
 4853SOL     OW26020   4.131   4.672   9.085 -0.5522  0.2897  0.0611
 4853SOL    HW126021   4.100   4.681   9.175  0.2331 -0.9644  0.4713
 4853SOL    HW226022   4.225   4.676   9.104 -0.3061 -3.5623 -0.2581
 4854SOL     OW26023   4.346   0.531  11.794 -0.6067 -0.2733 -0.1958
 4854SOL    HW126024   4.308   0.460  11.743 -1.2815  0.2499 -0.4156
 4854SOL    HW226025   4.386   0.583  11.723 -2.7864 -0.0266 -1.2470
 4855SOL     OW26026   4.578   2.233   4.431  0.1782  0.0366 -0.2118
 4855SOL    HW126027   4.609   2.151   4.470  3.2415  0.5838 -1.5108
 4855SOL    HW226028   4.484   2.238   4.451  0.2243  0.9469 -0.2462
 4856SOL     OW26029   2.788   2.688  12.562 -0.0751  0.9757 -0.3103
 4856SOL    HW126030   2.753   2.777  12.573 -0.3711  0.6244  1.5621
 4856SOL    HW226031   2.819   2.702  12.472  1.7968 -1.8810 -0.1119
 4857SOL     OW26032   4.634   3.297  14.904 -0.1175  0.0834 -0.0343
 4857SOL    HW126033   4.711   3.303  14.848  1.0348 -1.5498  1.3958
 4857SOL    HW226034   4.655   3.225  14.963 -1.9422  0.5317  1.1720
 4858SOL     OW26035   1.685   0.069  13.569 -0.1691  0.2104 -0.5024
 4858SOL    HW126036   1.615   0.132  13.551 -1.5153 -0.9631  0.6573
 4858SOL    HW226037   1.680   0.059  13.664  0.3751 -2.2201 -0.7272
 4859SOL     OW26038   2.665   2.347   5.369  0.6743  0.2463  0.1579
 4859SOL    HW126039   2.749   2.391   5.358  0.0851  0.9776 -1.3766
 4859SOL    HW226040   2.604   2.415   5.340  0.7225  0.0598 -0.3762
 4860SOL     OW26041   3.923   1.698   8.686  0.0367 -0.7732  0.3050
 4860SOL    HW126042   3.986   1.628   8.702  0.0413 -1.1830 -1.4934
 4860SOL    HW226043   3.935   1.707   8.591  1.1906 -2.0643  0.3276
 4861SOL     OW26044   4.655   4.340   3.141  0.4804 -0.0149 -0.5142
 4861SOL    HW126045   4.707   4.378   3.070 -0.9381 -0.6557 -1.8873
 4861SOL    HW226046   4.666   4.414   3.201  0.3106 -0.6917  0.3436
 4862SOL     OW26047   2.868   1.898   2.553  0.1666 -0.6403  0.2683
 4862SOL    HW126048   2.823   1.948   2.486 -0.3077 -1.2388  0.1472
 4862SOL    HW226049   2.918   1.842   2.494 -1.3550 -2.1527  0.3897
 4863SOL     OW26050   2.845   3.056   6.500  0.7415  0.1684  0.3851
 4863SOL    HW126051   2.927   3.071   6.453  1.0670 -1.4568  0.4361
 4863SOL    HW226052   2.812   2.981   6.450 -0.9944 -0.3291  2.3120
 4864SOL     OW26053   0.783   0.069  12.546 -0.3146  0.8408  0.0698
 4864SOL    HW126054   0.708   0.018  12.514 -0.5341  2.1876 -1.5400
 4864SOL    HW226055   0.763   0.063  12.640 -0.0499  0.1809  0.0841
 4865SOL     OW26056   3.411   3.017  15.584 -0.1123 -0.0847 -0.0506
 4865SOL    HW126057   3.485   3.077  15.597  1.1001 -1.6376  0.2365
 4865SOL    HW226058   3.431   2.976  15.500 -0.8181  0.5080 -0.5050
 4866SOL     OW26059   1.135   3.917   4.408  0.1514  0.5983  0.4107
 4866SOL    HW126060   1.198   3.900   4.337 -1.2376 -1.8797 -0.2093
 4866SOL    HW226061   1.121   3.829   4.442  2.2021  0.9033  2.0352
 4867SOL     OW26062   3.216   4.288  11.507  0.3021  0.2867  0.7545
 4867SOL    HW126063   3.179   4.335  11.432  0.5062  0.0740  0.5208
 4867SOL    HW226064   3.281   4.235  11.461  0.6896  0.7825  0.7224
 4868SOL     OW26065   0.863   0.387   2.555  0.3965 -0.0073 -0.5083
 4868SOL    HW126066   0.932   0.321   2.562  0.8909  0.5571 -0.0433
 4868SOL    HW226067   0.907   0.444   2.492 -1.0633 -1.6621 -3.0331
 4869SOL     OW26068   1.670   4.547   3.872 -0.0272 -0.1986  0.0436
 4869SOL    HW126069   1.620   4.628   3.865  0.6129 -0.0945 -3.4778
 4869SOL    HW226070   1.694   4.540   3.779  2.4223 -0.7744  0.7106
 4870SOL     OW26071   0.520   0.831  13.856 -0.2458 -0.3628  0.3066
 4870SOL    HW126072   0.612   0.803  13.864  0.1278  1.5337  2.4902
 4870SOL    HW226073   0.524   0.926  13.854 -3.0609 -0.2385  1.0287
 4871SOL     OW26074   3.289   3.496   5.712  0.4077  0.5559  0.4661
 4871SOL    HW126075   3.215   3.556   5.700 -1.7331 -1.6284  2.8075
 4871SOL    HW226076   3.256   3.452   5.790 -0.6041 -1.2277 -0.9651
 4872SOL     OW26077   0.065   1.858  11.847 -0.0496 -0.3604 -0.3309
 4872SOL    HW126078   0.093   1.940  11.888  1.3922 -0.9487 -0.1632
 4872SOL    HW226079   0.127   1.856  11.775 -1.7411  0.9951 -1.8288
 4873SOL     OW26080   3.205   3.073  15.218  0.3496  0.3511 -0.4280
 4873SOL    HW126081   3.203   3.151  15.164  0.9640  1.3668  0.9996
 4873SOL    HW226082   3.267   3.026  15.162  2.0647  1.6539  0.3765
 4874SOL     OW26083   4.117   1.819  13.488  0.2115  0.0196 -0.2963
 4874SOL    HW126084   4.078   1.904  13.506 -0.1440 -0.2707  0.2906
 4874SOL    HW226085   4.210   1.833  13.469  0.0767 -0.5161 -1.3708
 4875SOL     OW26086   4.213   4.571   7.233  0.1249 -0.3469  0.0594
 4875SOL    HW126087   4.220   4.546   7.325  1.5019 -1.2831 -0.2904
 4875SOL    HW226088   4.277   4.639   7.210 -1.4739  0.5769 -1.7019
 4876SOL     OW26089   3.109   2.394   5.072  0.3512 -0.4988  0.0446
 4876SOL    HW126090   3.140   2.440   5.150 -0.4007  0.8416 -0.4580
 4876SOL    HW226091   3.157   2.442   5.005 -1.2393  1.1309  0.0749
 4877SOL     OW26092   0.639   0.702   0.743 -0.4261  0.0267  0.4222
 4877SOL    HW126093   0.634   0.608   0.730 -0.1304  0.0443  0.1762
 4877SOL    HW226094   0.667   0.711   0.834 -1.5764 -0.8480  0.8559
 4878SOL     OW26095   4.463   3.534  13.555 -0.2642 -0.0663  0.2312
 4878SOL    HW126096   4.388   3.550  13.612 -0.3964  3.0523 -0.8173
 4878SOL    HW226097   4.538   3.581  13.592  1.0227 -0.5812 -1.7206
 4879SOL     OW26098   0.707   1.047   7.913 -0.0003  0.5647 -0.4795
 4879SOL    HW126099   0.781   1.029   7.855 -0.9073 -0.5909 -1.2591
 4879SOL    HW226100   0.652   0.973   7.888 -1.5151  1.4790  0.1435
 4880SOL     OW26101   1.375   4.719   5.914 -0.4897 -0.0275 -0.1014
 4880SOL    HW126102   1.464   4.703   5.883 -0.0522  0.1419  1.0436
 4880SOL    HW226103   1.383   0.012   6.009 -1.3142  0.7435 -0.1480
 4881SOL     OW26104   1.664   3.517  15.168  0.1336  0.5959  0.0930
 4881SOL    HW126105   1.722   3.560  15.231  0.9942 -0.4833  0.0426
 4881SOL    HW226106   1.583   3.527  15.217 -0.5101 -0.0204 -0.8642
 4882SOL     OW26107   4.097   2.805   5.872 -0.4156  0.2969  0.3153
 4882SOL    HW126108   4.188   2.782   5.852 -0.2695 -0.5718  1.9908
 4882SOL    HW226109   4.101   2.900   5.884  0.2377  0.3792 -0.4956
 4883SOL     OW26110   0.149   0.006   5.948  0.1098 -0.0913 -0.1094
 4883SOL    HW126111   0.195   0.038   6.026 -3.0344  0.5611  1.4905
 4883SOL    HW226112   0.089   0.079   5.933  2.1734  1.8429  0.9673
 4884SOL     OW26113   3.514   0.621   7.325 -0.1707  0.3414 -0.5695
 4884SOL    HW126114   3.600   0.610   7.285 -0.3345 -1.6296 -0.3788
 4884SOL    HW226115   3.522   0.661   7.411  2.2992 -1.0889 -0.1460
 4885SOL     OW26116   1.521   0.874  15.061  0.2826  0.3329  0.4929
 4885SOL    HW126117   1.551   0.800  15.009  0.0818 -0.4453  1.4869
 4885SOL    HW226118   1.541   0.945  15.001 -1.4704  0.3111 -0.1213
 4886SOL     OW26119   3.077   1.269   6.106 -0.1682  0.1666 -0.8437
 4886SOL    HW126120   3.051   1.307   6.190 -0.0642  0.0087 -0.7406
 4886SOL    HW226121   3.164   1.308   6.100 -1.0093  2.0537 -0.8557
 4887SOL     OW26122   2.096   0.830  14.586  0.5582 -0.5785  0.0085
 4887SOL    HW126123   2.067   0.881  14.510 -2.0231 -0.0771  1.3488
 4887SOL    HW226124   2.190   0.831  14.568  0.3639  1.1732 -0.9945
 4888SOL     OW26125   3.509   0.150  10.767 -0.2203  0.2833 -0.0303
 4888SOL    HW126126   3.433   0.114  10.721 -0.5475  0.2508  0.5470
 4888SOL    HW226127   3.466   0.214  10.823 -1.0797  0.8480 -1.3447
 4889SOL     OW26128   1.185   2.149   8.919  0.3622  0.5579  0.0441
 4889SOL    HW126129   1.199   2.058   8.895 -0.3482  0.3634  0.3670
 4889SOL    HW226130   1.274   2.163   8.952 -0.3568 -1.0916  2.6876
 4890SOL     OW26131   4.151   0.265   8.545 -0.2549 -0.2951 -0.1481
 4890SOL    HW126132   4.074   0.209   8.557 -0.1208 -0.3620  0.3882
 4890SOL    HW226133   4.158   0.267   8.449  0.8325 -1.3518 -0.0882
 4891SOL     OW26134   2.547   1.329   2.560 -0.5449  0.5343  0.1179
 4891SOL    HW126135   2.545   1.331   2.655 -0.9300  1.3891  0.0861
 4891SOL    HW226136   2.551   1.420   2.532  0.8826  0.6546  0.6983
 4892SOL     OW26137   2.751   0.670   5.778 -0.7969  0.5245 -0.2280
 4892SOL    HW126138   2.687   0.602   5.759  0.9262 -0.9949 -0.5469
 4892SOL    HW226139   2.746   0.712   5.692  0.7759  0.5454 -0.3051
 4893SOL     OW26140   4.001   0.674   5.793 -0.3397  0.2052 -0.4149
 4893SOL    HW126141   3.980   0.750   5.847 -0.2584 -0.3750  0.4395
 4893SOL    HW226142   4.033   0.616   5.862  0.0888  0.8904 -0.0407
 4894SOL     OW26143   4.245   2.164   5.998 -0.4431  0.4424 -0.6963
 4894SOL    HW126144   4.202   2.197   5.919  0.0219  1.8603 -0.3726
 4894SOL    HW226145   4.314   2.116   5.953 -1.2619 -1.7594  0.4095
 4895SOL     OW26146   0.266   2.702   2.903 -0.2700 -0.2529  0.1546
 4895SOL    HW126147   0.354   2.681   2.934  0.0616  1.7345  0.5442
 4895SOL    HW226148   0.284   2.715   2.810 -1.9149 -1.4734 -0.3310
 4896SOL     OW26149   0.361   0.662   0.785 -0.6144 -0.7534 -0.6725
 4896SOL    HW126150   0.308   0.730   0.742  1.2380  1.3455  0.3253
 4896SOL    HW226151   0.447   0.703   0.788 -0.6961 -0.6456  0.3151
 4897SOL     OW26152   1.222   2.706   3.936 -0.0271  0.6790  0.5344
 4897SOL    HW126153   1.249   2.743   3.852 -0.3640  0.1654  0.2003
 4897SOL    HW226154   1.130   2.687   3.919  0.4759  1.2595 -2.7859
 4898SOL     OW26155   0.816   3.029  10.537  0.5148 -0.0756  0.5827
 4898SOL    HW126156   0.786   3.029  10.628  0.6923  0.7534  0.6409
 4898SOL    HW226157   0.808   3.123  10.522  0.3398 -0.2907 -0.6415
 4899SOL     OW26158   1.586   3.672   5.516 -0.5848  0.0160 -0.0307
 4899SOL    HW126159   1.669   3.627   5.501 -0.7253 -1.2187  3.0952
 4899SOL    HW226160   1.604   3.733   5.587 -1.5340  0.5751 -0.2728
 4900SOL     OW26161   2.884   0.696   9.565  0.2153 -0.7218  0.5759
 4900SOL    HW126162   2.818   0.745   9.515  3.5302  2.5885 -0.5537
 4900SOL    HW226163   2.829   0.647   9.625 -0.4712  0.1113  0.6358
 4901SOL     OW26164   4.065   0.097  11.609  0.6214 -0.4216  0.0614
 4901SOL    HW126165   3.980   0.054  11.613 -0.7965  2.2959 -1.1363
 4901SOL    HW226166   4.113   0.024  11.648 -1.1882 -2.7129 -2.0027
 4902SOL     OW26167   3.614   1.800   1.023 -0.1842 -0.2185  0.0483
 4902SOL    HW126168   3.644   1.757   0.943 -2.5163 -1.1618 -0.3208
 4902SOL    HW226169   3.526   1.831   1.003  0.9847  0.4855 -3.9353
 4903SOL     OW26170   4.681   1.175  16.422 -0.2900 -0.4304 -0.2070
 4903SOL    HW126171   4.699   1.113  16.351 -0.7208 -2.9690  1.9159
 4903SOL    HW226172   0.005   1.132  16.495  0.3982 -1.2813 -1.1199
 4904SOL     OW26173   0.035   3.594   6.971  0.8142 -0.2660 -0.6245
 4904SOL    HW126174   0.012   3.621   6.882 -0.8265  2.4085  0.6320
 4904SOL    HW226175   0.022   3.499   6.973  0.8057 -0.2411  0.3584
 4905SOL     OW26176   4.680   0.926   2.402  0.3788  0.4292  0.8052
 4905SOL    HW126177   4.700   0.834   2.381 -1.3520 -0.4781  3.0974
 4905SOL    HW226178   0.044   0.969   2.408  1.8713 -2.3350 -0.3005
 4906SOL     OW26179   2.146   2.585  11.777  0.3812 -0.2589 -0.2876
 4906SOL    HW126180   2.159   2.614  11.686 -0.1864  0.9090 -0.0042
 4906SOL    HW226181   2.119   2.666  11.821 -2.5232 -1.1061 -0.4586
 4907SOL     OW26182   0.739   0.886  13.367 -0.4144  0.1736 -0.2696
 4907SOL    HW126183   0.770   0.927  13.448 -1.2335 -0.4934  0.3862
 4907SOL    HW226184   0.658   0.851  13.404 -0.4872  0.9882  0.3453
 4908SOL     OW26185   1.714   1.692  13.317 -0.1507 -0.4236 -0.1304
 4908SOL    HW126186   1.671   1.645  13.246  0.0094  0.1830 -0.6325
 4908SOL    HW226187   1.645   1.733  13.370  0.0498  0.8244 -0.8353
 4909SOL     OW26188   3.803   1.212   3.807  0.4619 -0.0650  0.0788
 4909SOL    HW126189   3.724   1.206   3.754  0.6234 -0.7773 -0.0727
 4909SOL    HW226190   3.822   1.119   3.818 -0.5055 -0.0495  1.8856
 4910SOL     OW26191   2.475   1.914   7.170  0.3253 -0.0958  0.1971
 4910SOL    HW126192   2.567   1.922   7.196  0.5877  0.5736 -0.9479
 4910SOL    HW226193   2.443   2.000   7.197 -0.1287 -1.4601  4.0532
 4911SOL     OW26194   1.079   3.936   7.122  0.4368  0.2297 -0.3050
 4911SOL    HW126195   1.070   3.875   7.049 -0.5509 -1.1554  0.9775
 4911SOL    HW226196   1.079   3.866   7.187 -0.4947  0.3951 -0.1355
 4912SOL     OW26197   2.550   0.682   3.362 -0.0703  0.4611 -0.1121
 4912SOL    HW126198   2.561   0.587   3.367 -1.3798  0.3259  0.1618
 4912SOL    HW226199   2.599   0.697   3.281 -0.8816  1.3937 -0.4267
 4913SOL     OW26200   3.479   1.728   1.606 -0.0806 -0.2579 -0.3274
 4913SOL    HW126201   3.401   1.776   1.579 -0.7334 -1.9999 -1.5899
 4913SOL    HW226202   3.495   1.783   1.682 -1.6311 -0.5586  0.2259
 4914SOL     OW26203   0.558   4.247   5.047  0.2090  0.0374  0.8526
 4914SOL    HW126204   0.492   4.240   4.978  1.0329  0.3330  0.0370
 4914SOL    HW226205   0.637   4.256   4.994 -0.9145  1.9414 -0.4904
 4915SOL     OW26206   3.133   1.546   7.077 -0.6823  0.5773 -0.4295
 4915SOL    HW126207   3.111   1.633   7.045  0.8548 -0.0526 -3.2555
 4915SOL    HW226208   3.191   1.517   7.006 -1.7836  0.2449 -1.2061
 4916SOL     OW26209   0.872   3.580   6.867 -0.0096 -0.5436  0.0214
 4916SOL    HW126210   0.827   3.599   6.949 -1.9227  0.8029 -1.3641
 4916SOL    HW226211   0.805   3.558   6.802  1.5443  1.2963 -2.2010
 4917SOL     OW26212   3.528   0.064   3.757 -0.1983  0.4748 -0.0935
 4917SOL    HW126213   3.543   4.691   3.747 -0.8139  0.6423 -2.6500
 4917SOL    HW226214   3.444   0.075   3.712 -0.5739  2.0168  1.0311
 4918SOL     OW26215   0.110   1.770   4.281  0.2564  1.0888 -0.0679
 4918SOL    HW126216   0.196   1.810   4.280  1.3737 -1.2659  0.3456
 4918SOL    HW226217   0.123   1.694   4.338 -2.0517  0.1598 -0.7564
 4919SOL     OW26218   2.412   3.131   6.419  0.0026 -0.1396  0.6560
 4919SOL    HW126219   2.492   3.104   6.374  1.3568  2.3473  1.5177
 4919SOL    HW226220   2.451   3.201   6.472 -0.2987 -0.1604  0.9036
 4920SOL     OW26221   1.838   1.845  12.566 -0.1333  0.1156  0.3324
 4920SOL    HW126222   1.864   1.858  12.475 -1.2767 -1.3429 -0.2160
 4920SOL    HW226223   1.768   1.910  12.575 -0.1979 -0.0306  0.8894
 4921SOL     OW26224   0.981   4.072   4.964  0.2211 -0.3278 -0.0795
 4921SOL    HW126225   1.059   4.071   5.020  0.7888 -0.0786 -0.8624
 4921SOL    HW226226   0.913   4.035   5.019  0.9226  0.8433  1.5622
 4922SOL     OW26227   3.065   2.835  14.397  0.2153  0.1584  0.0405
 4922SOL    HW126228   3.121   2.758  14.407  1.6706  1.1191 -0.7293
 4922SOL    HW226229   3.097   2.873  14.316 -0.2262  2.1747  0.8188
 4923SOL     OW26230   1.722   3.895   9.111 -0.3183  0.2165  0.0672
 4923SOL    HW126231   1.641   3.925   9.070  1.1050  1.0917 -2.0641
 4923SOL    HW226232   1.739   3.977   9.156 -1.1384  0.4272 -0.0087
 4924SOL     OW26233   4.162   2.559   4.692  0.2979  0.2931  0.1766
 4924SOL    HW126234   4.135   2.604   4.772 -2.6624 -0.9545 -0.1167
 4924SOL    HW226235   4.086   2.501   4.691  0.4810  0.0917 -1.8836
 4925SOL     OW26236   1.240   3.355  15.636 -0.2155  0.2393 -0.1103
 4925SOL    HW126237   1.197   3.283  15.682 -1.1270  0.2845 -0.8989
 4925SOL    HW226238   1.168   3.386  15.582  0.6950  0.7613 -1.0385
 4926SOL     OW26239   3.384   3.867   6.318  0.6041  0.0581 -0.2420
 4926SOL    HW126240   3.323   3.810   6.365 -0.3565  0.6641 -0.7590
 4926SOL    HW226241   3.326   3.928   6.273  2.9245 -0.1749 -3.5350
 4927SOL     OW26242   1.976   1.417  11.073  0.3830  0.3116  0.3385
 4927SOL    HW126243   1.887   1.405  11.039  0.6510  0.2660 -0.3377
 4927SOL    HW226244   1.986   1.512  11.065  0.3987  0.5146  2.7966
 4928SOL     OW26245   2.904   2.131   5.889  0.7610  0.3277 -0.2412
 4928SOL    HW126246   2.993   2.164   5.898  0.6793  0.0741  1.5481
 4928SOL    HW226247   2.922   2.047   5.846  0.2406 -0.3540  0.8692
 4929SOL     OW26248   2.602   1.979   2.679  0.3879 -0.8567  0.5054
 4929SOL    HW126249   2.635   1.951   2.765  1.2020  0.8034  0.7275
 4929SOL    HW226250   2.652   2.060   2.671 -1.7140  0.4238  0.5246
 4930SOL     OW26251   1.084   2.812   8.122 -0.7307  0.3327  0.4487
 4930SOL    HW126252   1.107   2.881   8.060  3.0697 -1.2088  0.1140
 4930SOL    HW226253   1.131   2.845   8.199  2.4637 -3.3670  0.1364
 4931SOL     OW26254   2.293   3.543   7.623  0.0886  0.2674  0.0972
 4931SOL    HW126255   2.244   3.491   7.687  0.1062 -0.9884 -0.9163
 4931SOL    HW226256   2.251   3.625   7.650 -0.6408  0.2550 -0.9957
 4932SOL     OW26257   0.414   0.568   4.398  0.1985 -0.4602 -0.9236
 4932SOL    HW126258   0.478   0.636   4.375  0.0381  0.3267  0.9770
 4932SOL    HW226259   0.460   0.523   4.469  2.5421  2.4030 -0.5840
 4933SOL     OW26260   4.583   2.129  12.005 -0.5284 -0.1142 -0.5741
 4933SOL    HW126261   4.614   2.073  12.076 -1.3447  1.5282  1.0957
 4933SOL    HW226262   4.638   2.205  12.024 -1.7593  0.7598 -0.5021
 4934SOL     OW26263   2.352   2.387  11.687  0.3420 -0.0787  0.0467
 4934SOL    HW126264   2.339   2.473  11.726 -0.1154 -0.2126  0.1932
 4934SOL    HW226265   2.284   2.387  11.619  0.1787 -0.8723  0.2050
 4935SOL     OW26266   2.725   0.632   8.747 -0.3334 -0.5596 -0.6329
 4935SOL    HW126267   2.770   0.595   8.671 -1.5306  1.3156 -2.2422
 4935SOL    HW226268   2.634   0.648   8.722 -0.4283  0.4163  0.3207
 4936SOL     OW26269   2.133   4.688   6.140 -0.4676 -0.0480 -0.5576
 4936SOL    HW126270   2.075   4.625   6.183  0.1840  1.5575  2.6641
 4936SOL    HW226271   2.069   0.005   6.081  0.5481 -0.0750 -1.6654
 4937SOL     OW26272   0.781   3.864   4.814 -0.0346  0.4026  0.3065
 4937SOL    HW126273   0.730   3.943   4.831  0.9330  0.8216  1.2692
 4937SOL    HW226274   0.836   3.900   4.745 -0.3846 -1.2005 -0.8227
 4938SOL     OW26275   2.375   4.180   3.331  1.2069 -0.6903  0.7791
 4938SOL    HW126276   2.290   4.194   3.290  0.5596 -0.8751  2.0412
 4938SOL    HW226277   2.377   4.084   3.331 -1.7985 -0.7735  0.7744
 4939SOL     OW26278   0.593   2.365   7.907  0.2262 -0.3879 -0.6545
 4939SOL    HW126279   0.633   2.434   7.960 -2.6789  0.8648 -0.0494
 4939SOL    HW226280   0.633   2.284   7.941 -0.1365  0.0902  0.9259
 4940SOL     OW26281   3.657   0.838  11.053  0.1375  0.2218  0.0129
 4940SOL    HW126282   3.679   0.805  11.140 -2.6123 -0.5494  0.4235
 4940SOL    HW226283   3.635   0.757  11.007  2.1332 -1.2675  1.7119
 4941SOL     OW26284   1.450   1.149   8.341 -0.0926  0.7722  0.1474
 4941SOL    HW126285   1.464   1.171   8.249 -0.4505  1.4622  0.2586
 4941SOL    HW226286   1.397   1.069   8.333 -0.4889  1.0291  0.2267
 4942SOL     OW26287   1.756   1.194   3.336 -0.1425  0.6455 -0.6002
 4942SOL    HW126288   1.849   1.212   3.348  0.0775 -0.9031  0.0371
 4942SOL    HW226289   1.719   1.281   3.321 -0.0729  0.6469 -0.7546
 4943SOL     OW26290   2.091   1.948   4.846  0.2506 -0.6452  0.3451
 4943SOL    HW126291   2.166   2.003   4.868 -0.6838  0.4393  0.7971
 4943SOL    HW226292   2.019   2.010   4.841  0.3576 -0.6004 -0.5498
 4944SOL     OW26293   2.581   0.025   6.552 -0.0852 -0.2507 -0.6574
 4944SOL    HW126294   2.569   0.119   6.559 -1.0019 -0.2996 -1.6720
 4944SOL    HW226295   2.625   0.009   6.636  0.7018 -0.6408 -1.1472
 4945SOL     OW26296   0.727   2.067  11.544  0.3903  0.1937 -0.0942
 4945SOL    HW126297   0.775   2.141  11.506 -0.8638 -0.1086 -2.2600
 4945SOL    HW226298   0.640   2.082  11.507 -0.3897 -1.3236  1.1074
 4946SOL     OW26299   3.982   1.831   4.169  0.2002  0.0870  0.1397
 4946SOL    HW126300   4.072   1.823   4.200  0.2572  1.9544  0.4791
 4946SOL    HW226301   3.969   1.758   4.108 -1.5350  0.9515 -0.5404
 4947SOL     OW26302   3.807   1.527   5.776 -0.6019 -0.0262 -0.3813
 4947SOL    HW126303   3.810   1.558   5.867  2.2572  0.6466 -0.7029
 4947SOL    HW226304   3.881   1.571   5.734 -1.2082  1.3532  0.0037
 4948SOL     OW26305   2.936   0.566   8.896 -0.4038  0.2079  0.8083
 4948SOL    HW126306   2.897   0.581   8.982  1.1225 -2.2760  1.9321
 4948SOL    HW226307   2.857   0.573   8.842 -0.7740 -1.7608  1.1013
 4949SOL     OW26308   3.875   2.507   2.089  0.5967 -0.5219 -0.3491
 4949SOL    HW126309   3.831   2.523   2.005  0.2194 -0.0467 -0.0628
 4949SOL    HW226310   3.945   2.451   2.056 -0.7782 -1.9478 -0.8333
 4950SOL     OW26311   1.776   3.314   4.593  0.2458  0.0272  0.0012
 4950SOL    HW126312   1.742   3.361   4.669  0.4892 -2.4597  1.6632
 4950SOL    HW226313   1.698   3.263   4.574 -0.8203  2.2621 -1.5601
 4951SOL     OW26314   1.145   4.641   3.614  0.3194 -0.2739  0.7437
 4951SOL    HW126315   1.156   4.613   3.705  0.2409  0.4731  0.9809
 4951SOL    HW226316   1.158   0.014   3.622  0.2432 -0.2502  0.5907
 4952SOL     OW26317   3.596   4.209   4.699 -0.5075 -0.1837  0.6504
 4952SOL    HW126318   3.618   4.210   4.606  0.8468 -3.3520  0.9036
 4952SOL    HW226319   3.518   4.252   4.664  0.1818  1.3849  1.0482
 4953SOL     OW26320   1.239   3.666   6.099 -0.1346 -0.1537 -0.3780
 4953SOL    HW126321   1.159   3.686   6.050  0.6072  0.6188 -1.2772
 4953SOL    HW226322   1.287   3.620   6.029  2.5388  0.6403  0.9402
 4954SOL     OW26323   2.651   3.377   8.258 -0.7385  0.2125 -0.5595
 4954SOL    HW126324   2.722   3.402   8.317  0.5085 -0.6015 -1.7235
 4954SOL    HW226325   2.604   3.460   8.257 -2.0096 -0.4981  0.0761
 4955SOL     OW26326   0.071   2.328  10.258 -0.5786 -0.9351  0.0636
 4955SOL    HW126327   0.077   2.394  10.189 -0.7171  0.7263  1.6385
 4955SOL    HW226328   0.053   2.252  10.203  3.4394 -1.2637 -0.8428
 4956SOL     OW26329   0.901   0.936   4.204 -0.2370 -0.4393 -0.1494
 4956SOL    HW126330   0.936   0.868   4.262  2.5350 -0.1837 -1.5489
 4956SOL    HW226331   0.852   0.886   4.139  1.5706 -0.0736 -1.7992
 4957SOL     OW26332   3.092   0.749   7.558 -0.6939  0.3657  0.0348
 4957SOL    HW126333   3.066   0.743   7.650 -0.5627  0.8688  0.1030
 4957SOL    HW226334   3.046   0.678   7.513  1.5603 -0.6619 -0.6886
 4958SOL     OW26335   1.018   1.513   7.516 -0.0104 -0.8363 -0.4196
 4958SOL    HW126336   1.086   1.551   7.571  0.0607  1.6518 -2.2117
 4958SOL    HW226337   0.945   1.491   7.574 -1.3601  2.0209 -1.0142
 4959SOL     OW26338   3.515   4.025   9.109 -0.2329 -0.3245 -0.2075
 4959SOL    HW126339   3.556   4.092   9.164  0.7413 -2.2011  1.3442
 4959SOL    HW226340   3.424   4.053   9.119  0.3230  1.0175  1.1455
 4960SOL     OW26341   4.638   0.213   4.319 -0.3258  0.2112  0.3997
 4960SOL    HW126342   4.550   0.231   4.352 -0.1505 -1.7427  1.9971
 4960SOL    HW226343   4.673   0.302   4.318  0.0427  0.0054 -3.8923
 4961SOL     OW26344   4.045   1.254   1.853  0.2027 -0.1557 -0.2015
 4961SOL    HW126345   4.103   1.270   1.778  1.3421 -1.3224  0.4304
 4961SOL    HW226346   4.084   1.304   1.925  0.4681  0.6946 -0.9292
 4962SOL     OW26347   2.022   1.262   9.713  0.5561 -0.1615  0.1979
 4962SOL    HW126348   2.024   1.223   9.625 -0.5037  1.4390 -0.5279
 4962SOL    HW226349   2.082   1.336   9.700  0.1280  0.0852 -0.3962
 4963SOL     OW26350   1.157   2.460   5.022  0.7028  0.0267  0.6096
 4963SOL    HW126351   1.192   2.540   5.062  0.5131 -0.7806  2.3320
 4963SOL    HW226352   1.140   2.506   4.939  2.0095  3.0060  2.0069
 4964SOL     OW26353   3.423   2.349  13.907  0.1225  0.2058  0.8918
 4964SOL    HW126354   3.404   2.280  13.971 -1.4297  1.3675  1.6755
 4964SOL    HW226355   3.519   2.346  13.913  0.3428  1.1856 -2.0738
 4965SOL     OW26356   4.565   3.638   9.249  0.1936  0.4261 -0.0492
 4965SOL    HW126357   4.565   3.543   9.247 -0.3713  0.3827  2.3744
 4965SOL    HW226358   4.586   3.654   9.341  0.8943  0.2694 -0.1829
 4966SOL     OW26359   4.636   1.786   3.244 -0.4171 -0.2775  0.3161
 4966SOL    HW126360   4.618   1.692   3.253 -1.1021 -0.0069  1.9417
 4966SOL    HW226361   4.624   1.794   3.150 -2.5050  0.6735  0.6520
 4967SOL     OW26362   0.528   0.847   5.171 -0.5995 -0.6824 -0.4788
 4967SOL    HW126363   0.576   0.796   5.106 -0.0367 -0.7219 -0.0282
 4967SOL    HW226364   0.436   0.820   5.165 -1.1400  1.2362 -0.9718
 4968SOL     OW26365   1.244   2.443   2.807 -0.0469  0.3727 -0.5463
 4968SOL    HW126366   1.281   2.386   2.739 -1.4482 -0.8362 -0.2839
 4968SOL    HW226367   1.166   2.471   2.759  0.7721 -0.2140 -2.2355
 4969SOL     OW26368   2.784   2.334   5.991 -0.2366 -0.2762 -0.5929
 4969SOL    HW126369   2.694   2.331   5.957 -0.2958 -0.1448 -0.4469
 4969SOL    HW226370   2.809   2.242   5.983  1.3669  0.2138 -1.0973
 4970SOL     OW26371   0.306   2.347   5.437  0.0377  0.1541 -0.8764
 4970SOL    HW126372   0.270   2.258   5.443 -0.4324  0.2669 -1.9946
 4970SOL    HW226373   0.249   2.398   5.380 -1.5165  0.5031  0.9788
 4971SOL     OW26374   3.954   3.391   6.388 -0.1757  0.6575 -0.0076
 4971SOL    HW126375   3.867   3.402   6.427  0.1931 -0.0953  1.0070
 4971SOL    HW226376   3.988   3.315   6.434 -0.9083  0.5682  0.3939
 4972SOL     OW26377   2.712   3.962   2.814 -0.1568  0.2372  0.0790
 4972SOL    HW126378   2.674   3.874   2.813 -3.4521  1.6586 -1.0953
 4972SOL    HW226379   2.700   3.990   2.723  0.0448  0.5653  0.1555
 4973SOL     OW26380   2.922   3.984   7.239 -0.3885  0.2152  0.3359
 4973SOL    HW126381   2.973   4.030   7.172 -0.7981 -1.4442 -1.1315
 4973SOL    HW226382   2.978   3.991   7.316 -1.6804  0.3607  1.2584
 4974SOL     OW26383   1.831   1.905   5.583  0.6125 -0.6149 -0.0891
 4974SOL    HW126384   1.782   1.985   5.565 -0.8683 -1.3710  0.5576
 4974SOL    HW226385   1.813   1.860   5.500  0.8148  2.1258 -1.6045
 4975SOL     OW26386   4.091   3.611   8.273 -0.3470  0.3061 -0.4044
 4975SOL    HW126387   4.146   3.687   8.293  2.5563 -1.6749 -0.9607
 4975SOL    HW226388   4.121   3.547   8.337  2.8239  0.6420 -1.5698
 4976SOL     OW26389   0.191   3.738   8.123 -0.2786 -0.5603 -0.1092
 4976SOL    HW126390   0.190   3.653   8.168 -0.3011 -0.7024 -0.3811
 4976SOL    HW226391   0.111   3.734   8.071 -0.2785  1.3134 -0.2710
 4977SOL     OW26392   2.840   3.047   4.845 -0.4477 -0.3845 -0.0308
 4977SOL    HW126393   2.793   3.090   4.917 -0.9432 -0.3812 -0.3521
 4977SOL    HW226394   2.787   3.074   4.769  0.7471  0.9406 -0.3942
 4978SOL     OW26395   0.041   4.608   7.307 -0.0074 -0.1765  0.1357
 4978SOL    HW126396   0.118   4.603   7.250  0.1579  0.2032  0.3301
 4978SOL    HW226397   0.038   4.521   7.347 -0.1883 -0.7871 -1.2341
 4979SOL     OW26398   4.505   4.152  12.663  0.1694 -0.2403  0.1919
 4979SOL    HW126399   4.482   4.216  12.596 -1.3548 -0.7998  0.1757
 4979SOL    HW226400   4.494   4.214  12.736 -2.9032 -1.2844  0.6293
 4980SOL     OW26401   3.237   3.110   3.627  0.3635  0.0645  0.4258
 4980SOL    HW126402   3.330   3.120   3.645  0.5751  1.0644 -1.2319
 4980SOL    HW226403   3.227   3.154   3.542  1.2141 -0.3031  0.1425
 4981SOL     OW26404   0.196   2.990   8.787  0.0908 -0.1737  0.3984
 4981SOL    HW126405   0.281   2.966   8.823  0.5163  1.5610  0.5907
 4981SOL    HW226406   0.180   2.927   8.717 -0.7773  0.4810 -0.0016
 4982SOL     OW26407   2.493   2.156   5.259  0.4411  0.4858 -0.8938
 4982SOL    HW126408   2.423   2.220   5.248 -0.7186 -0.4797  0.7354
 4982SOL    HW226409   2.564   2.205   5.299  2.0030 -1.7196 -0.9734
 4983SOL     OW26410   2.201   1.122   1.407  0.2148 -0.4761 -0.1589
 4983SOL    HW126411   2.109   1.144   1.398  0.4308 -0.5601 -2.6782
 4983SOL    HW226412   2.202   1.026   1.412  0.5450 -0.5015 -0.6365
 4984SOL     OW26413   2.048   4.069   4.037  0.3316  0.3863  0.6213
 4984SOL    HW126414   2.142   4.058   4.025  0.0095 -1.2703 -0.5474
 4984SOL    HW226415   2.044   4.159   4.005 -0.7367  0.8010  1.9275
 4985SOL     OW26416   3.215   3.832   6.929 -0.2596  0.0337 -0.0331
 4985SOL    HW126417   3.197   3.742   6.955  2.6770 -0.6786 -0.4140
 4985SOL    HW226418   3.303   3.844   6.967  0.4430  0.7602 -1.8992
 4986SOL     OW26419   2.367   4.212   7.813 -0.1590 -0.7789  0.3566
 4986SOL    HW126420   2.347   4.212   7.719  0.4519  1.8521  0.2519
 4986SOL    HW226421   2.305   4.278   7.845 -0.7436 -1.5274  0.7875
 4987SOL     OW26422   2.294   4.173   9.564  0.4137 -0.5077  0.5079
 4987SOL    HW126423   2.259   4.091   9.599  0.1998  0.0425  1.5626
 4987SOL    HW226424   2.319   4.222   9.642 -3.1606  2.6470 -0.3670
 4988SOL     OW26425   3.471   2.781   3.683 -0.1727  0.0132  0.2911
 4988SOL    HW126426   3.524   2.701   3.692 -0.3869  0.0358  1.7932
 4988SOL    HW226427   3.479   2.816   3.772 -0.9654 -0.8317  0.7007
 4989SOL     OW26428   3.769   3.246  17.380 -0.2878 -0.1549  0.7466
 4989SOL    HW126429   3.749   3.178  17.445  0.4524  0.5475  1.7133
 4989SOL    HW226430   3.725   3.319  17.425  0.4557  0.2726  0.7761
 4990SOL     OW26431   3.439   3.284   5.357  0.4528 -0.1501  0.1102
 4990SOL    HW126432   3.518   3.235   5.333  2.3127  2.4000  1.0259
 4990SOL    HW226433   3.423   3.319   5.269 -1.0798  2.6510  1.4989
 4991SOL     OW26434   3.094   2.306   8.280 -0.1392 -0.2538  0.6464
 4991SOL    HW126435   3.107   2.400   8.276 -0.0520 -0.3187 -0.6326
 4991SOL    HW226436   2.999   2.298   8.278 -0.2551  1.6026 -1.2751
 4992SOL     OW26437   2.703   3.474   7.226  0.3018  0.1869  0.3163
 4992SOL    HW126438   2.701   3.507   7.316  0.9376 -0.4579  0.5658
 4992SOL    HW226439   2.608   3.466   7.212  0.1891  2.4591 -0.3508
 4993SOL     OW26440   2.485   4.237   4.033 -0.2352  0.2790 -0.3595
 4993SOL    HW126441   2.493   4.295   3.958  1.1498  0.3401 -0.1721
 4993SOL    HW226442   2.462   4.306   4.095  1.8466  0.2089  0.4925
 4994SOL     OW26443   1.200   1.706   8.274 -0.4807 -0.0292 -0.1909
 4994SOL    HW126444   1.242   1.769   8.332 -0.0747  0.4112 -0.9724
 4994SOL    HW226445   1.227   1.622   8.310 -0.1347  0.9045  1.6944
 4995SOL     OW26446   0.028   3.115   1.599 -0.0432  0.2169  0.2101
 4995SOL    HW126447   0.024   3.030   1.642  1.4827  0.6248  1.1463
 4995SOL    HW226448   4.696   3.087   1.524  1.7852  0.2125 -1.0943
 4996SOL     OW26449   0.761   3.048   7.586  0.5798  0.0968  0.1998
 4996SOL    HW126450   0.675   3.031   7.548  0.2316  1.7375  0.2365
 4996SOL    HW226451   0.776   2.979   7.651  1.2856 -0.2466 -0.3257
 4997SOL     OW26452   4.097   0.964   7.010  0.1670  0.0401  0.0901
 4997SOL    HW126453   4.069   0.940   7.098 -1.0541  1.9093  0.2137
 4997SOL    HW226454   4.077   1.057   7.022 -2.4928 -0.5387  0.0282
 4998SOL     OW26455   3.306   3.646   5.266  0.0187 -0.0636 -0.2964
 4998SOL    HW126456   3.383   3.658   5.322  0.0056 -0.9533 -0.0917
 4998SOL    HW226457   3.265   3.731   5.251 -1.2689 -0.5678  0.3860
 4999SOL     OW26458   4.282   3.307   5.580  0.5993 -0.1791  0.7160
 4999SOL    HW126459   4.226   3.232   5.596  1.5817 -1.3118 -1.1902
 4999SOL    HW226460   4.249   3.349   5.501  0.2736 -1.3651  0.2322
 5000SOL     OW26461   3.038   0.895   0.149 -0.0320  0.6333  0.5747
 5000SOL    HW126462   3.056   0.989   0.145 -0.9556  0.8490  1.3889
 5000SOL    HW226463   3.093   0.876   0.225 -0.0954 -0.4951  0.3362
 5001SOL     OW26464   2.158   2.289   3.600 -0.5397  0.1057  0.0870
 5001SOL    HW126465   2.094   2.338   3.650  0.4634  0.7017  0.7801
 5001SOL    HW226466   2.211   2.367   3.584  0.6128 -0.5622  0.6288
 5002SOL     OW26467   2.563   0.534   2.300 -0.1334  0.4546  0.0385
 5002SOL    HW126468   2.527   0.517   2.387  1.7173  1.2354  0.9585
 5002SOL    HW226469   2.523   0.457   2.259  2.4228 -1.1005  0.4974
 5003SOL     OW26470   4.034   0.070   2.231 -0.0089  0.1589 -0.0643
 5003SOL    HW126471   4.021   4.703   2.199  0.3820 -0.0206  0.2705
 5003SOL    HW226472   3.947   0.110   2.227 -0.4173 -0.7172  0.0296
 5004SOL     OW26473   4.660   0.363   5.561 -0.5219  0.0122  0.0007
 5004SOL    HW126474   0.014   0.330   5.610  0.0705  1.5542  0.1349
 5004SOL    HW226475   4.696   0.351   5.474  1.1190  1.9149  0.4061
 5005SOL     OW26476   3.977   2.257  16.405  0.1634 -0.5953  0.0120
 5005SOL    HW126477   3.950   2.326  16.344  2.4813  0.4195  0.1633
 5005SOL    HW226478   3.895   2.224  16.443 -0.1076 -0.6179 -0.5872
 5006SOL     OW26479   2.181   4.137   5.370 -0.3697 -0.0805  0.9355
 5006SOL    HW126480   2.223   4.075   5.312  0.9997  0.9537  0.8275
 5006SOL    HW226481   2.180   4.092   5.455  2.4297  0.2066  1.1130
 5007SOL     OW26482   3.367   1.431  16.003  0.2224  0.3941  0.3215
 5007SOL    HW126483   3.298   1.451  15.940  0.1680 -1.7131 -0.2809
 5007SOL    HW226484   3.446   1.469  15.965 -0.9753  0.7433 -1.8238
 5008SOL     OW26485   0.251   1.147  14.015  0.1434  0.0683 -0.0229
 5008SOL    HW126486   0.195   1.161  13.938 -1.0728  2.2439  1.2689
 5008SOL    HW226487   0.320   1.213  14.009  1.5077 -1.2811  0.8279
 5009SOL     OW26488   0.272   3.936  11.636  0.3930  0.1218 -0.3748
 5009SOL    HW126489   0.334   3.895  11.695  1.8453 -0.5100 -2.3254
 5009SOL    HW226490   0.324   3.971  11.563 -0.2108  1.8957  0.0550
 5010SOL     OW26491   3.973   1.046  10.023 -0.6659 -0.2451  0.0352
 5010SOL    HW126492   4.010   1.058  10.110 -0.9918  0.5150  0.0718
 5010SOL    HW226493   3.984   0.954   9.998 -0.0264 -0.7529  2.2078
 5011SOL     OW26494   1.271   0.670  15.402 -0.1100  0.7193 -0.0669
 5011SOL    HW126495   1.336   0.737  15.383  0.2636 -0.2196 -2.0974
 5011SOL    HW226496   1.268   0.630  15.315  3.1445  0.5036 -0.0650
 5012SOL     OW26497   0.577   2.364   3.483  0.2806  0.6697  0.5598
 5012SOL    HW126498   0.647   2.321   3.533 -0.5696 -0.7893  0.4975
 5012SOL    HW226499   0.571   2.313   3.402 -0.0537 -2.4529  2.5522
 5013SOL     OW26500   4.282   0.583  10.470 -0.1891  0.3686 -0.0605
 5013SOL    HW126501   4.362   0.597  10.520 -0.3529  4.4722 -0.9311
 5013SOL    HW226502   4.240   0.517  10.524  3.5946 -1.4607  0.5641
 5014SOL     OW26503   3.922   0.650   2.473 -0.2853 -0.6441  0.2117
 5014SOL    HW126504   4.011   0.618   2.467  1.4711  4.4476 -1.4719
 5014SOL    HW226505   3.926   0.745   2.461  3.1751 -0.8388  0.0560
 5015SOL     OW26506   0.160   2.930   5.986 -0.3447 -0.1037 -0.1986
 5015SOL    HW126507   0.215   3.002   6.015 -0.2818 -0.2609  0.0765
 5015SOL    HW226508   0.075   2.960   6.018  0.7140  1.9353  0.7038
 5016SOL     OW26509   2.257   2.600   1.777 -0.2596 -0.4307 -0.2645
 5016SOL    HW126510   2.308   2.523   1.755  0.1816 -0.1989 -0.0446
 5016SOL    HW226511   2.275   2.651   1.698 -2.2953  0.4315 -0.1929
 5017SOL     OW26512   3.919   0.295   8.087  0.0413 -0.9236  0.0943
 5017SOL    HW126513   3.848   0.247   8.129  1.7930 -3.1033  0.5458
 5017SOL    HW226514   3.964   0.223   8.042  0.1875 -2.0107  1.9981
 5018SOL     OW26515   3.292   1.857  12.054 -0.3139  0.3607 -0.2625
 5018SOL    HW126516   3.381   1.842  12.021  0.2371  1.2049  0.8615
 5018SOL    HW226517   3.312   1.906  12.133  0.8392 -2.0106  0.9247
 5019SOL     OW26518   4.444   2.699   3.853  0.3187  0.3725  0.3398
 5019SOL    HW126519   4.454   2.717   3.947 -0.4489 -0.3221  0.5565
 5019SOL    HW226520   4.372   2.637   3.864  1.1120 -0.7930 -1.0411
 5020SOL     OW26521   4.114   2.931   5.166  0.3831  0.6896 -0.0207
 5020SOL    HW126522   4.205   2.942   5.195 -0.0794  0.4935  1.4824
 5020SOL    HW226523   4.121   2.981   5.084 -1.2256  0.4933 -0.2626
 5021SOL     OW26524   0.353   4.439   0.174 -0.1371 -0.3444 -0.7600
 5021SOL    HW126525   0.297   4.516   0.167 -0.5667 -0.5608  0.3005
 5021SOL    HW226526   0.428   4.469   0.124 -0.4237  2.4968  0.5602
 5022SOL     OW26527   1.334   2.522   6.801  1.0525  0.1196 -0.3076
 5022SOL    HW126528   1.243   2.550   6.811  0.7328 -0.6551 -1.0448
 5022SOL    HW226529   1.363   2.612   6.781 -0.2389  0.8654  1.1654
 5023SOL     OW26530   3.733   0.181   8.806 -0.2966 -0.1136  0.7047
 5023SOL    HW126531   3.640   0.185   8.785  0.6109  0.7328 -3.1531
 5023SOL    HW226532   3.743   0.263   8.854  1.1690 -0.0191  0.2416
 5024SOL     OW26533   1.238   1.828   9.172 -0.0801 -0.8622  0.3810
 5024SOL    HW126534   1.305   1.863   9.114 -0.8345 -0.5285 -0.2757
 5024SOL    HW226535   1.163   1.881   9.149  1.0117  0.6768  0.3559
 5025SOL     OW26536   0.958   0.808   2.671  0.0483  0.4284  0.5736
 5025SOL    HW126537   0.881   0.846   2.628 -1.0641 -2.0490  0.4043
 5025SOL    HW226538   1.011   0.888   2.674 -1.1996  1.3803 -2.1673
 5026SOL     OW26539   0.592   3.579   5.747  0.1169 -0.7543  0.4029
 5026SOL    HW126540   0.651   3.543   5.813  0.5481 -0.8757 -0.0451
 5026SOL    HW226541   0.531   3.509   5.725 -1.2498  0.7593 -0.6214
 5027SOL     OW26542   1.191   4.484   5.953  0.3764 -0.2724  0.1060
 5027SOL    HW126543   1.252   4.481   5.879  0.1793 -1.6898 -0.0055
 5027SOL    HW226544   1.169   4.577   5.956  0.3723 -0.3094  1.4231
 5028SOL     OW26545   0.618   1.918   2.880  0.7980 -0.4787 -0.2234
 5028SOL    HW126546   0.636   1.833   2.840 -0.6491  0.1111 -2.1674
 5028SOL    HW226547   0.699   1.965   2.862  0.5755  0.6228  1.6554
 5029SOL     OW26548   0.392   3.298   5.365  0.1834 -0.3403 -0.1633
 5029SOL    HW126549   0.471   3.330   5.322 -0.4466 -1.2010 -1.9627
 5029SOL    HW226550   0.424   3.209   5.358 -0.3488 -0.6112  0.8683
 5030SOL     OW26551   1.047   0.174   7.572 -0.5021 -0.2707  0.2193
 5030SOL    HW126552   1.046   0.088   7.613 -0.0931 -0.0753  0.6311
 5030SOL    HW226553   1.111   0.218   7.628 -0.1926 -2.8160  1.8114
 5031SOL     OW26554   0.274   1.537   0.418 -0.5056 -0.3360  0.1983
 5031SOL    HW126555   0.295   1.625   0.388  0.1435  0.4097  2.8884
 5031SOL    HW226556   0.188   1.547   0.459 -0.4673 -1.1273  0.4680
 5032SOL     OW26557   1.122   0.851   2.083 -0.8667  0.6591  0.0205
 5032SOL    HW126558   1.075   0.827   2.163 -1.3425 -0.7442 -0.6929
 5032SOL    HW226559   1.125   0.942   2.114  3.0168  0.1868  1.0360
 5033SOL     OW26560   1.921   4.470  12.168  0.2625  0.7813 -0.2325
 5033SOL    HW126561   1.961   4.534  12.110  0.3892 -0.0163 -1.0413
 5033SOL    HW226562   1.854   4.420  12.120 -1.2412  0.9342  1.7027
 5034SOL     OW26563   3.866   0.892   0.703 -0.3819 -0.0259  0.0325
 5034SOL    HW126564   3.935   0.914   0.641 -1.6966  2.9254 -0.3329
 5034SOL    HW226565   3.860   0.969   0.759 -0.4104 -1.4998  2.0887
 5035SOL     OW26566   2.955   0.395   4.387  0.3506  0.3774 -1.1684
 5035SOL    HW126567   2.997   0.313   4.361  1.2777  0.7014 -0.6982
 5035SOL    HW226568   2.888   0.370   4.451  1.1534  0.9266 -0.1118
 5036SOL     OW26569   1.131   0.033   8.261  0.2719  0.4345 -0.2127
 5036SOL    HW126570   1.191   0.081   8.203 -0.1351 -1.5645 -2.3180
 5036SOL    HW226571   1.047   0.045   8.217  0.5347  0.6679 -0.6521
 5037SOL     OW26572   2.633   0.610  14.438 -0.2743  0.1487  0.4084
 5037SOL    HW126573   2.552   0.624  14.389  0.2500 -0.1933 -0.5414
 5037SOL    HW226574   2.658   0.694  14.475  1.4802 -0.5983  0.9144
 5038SOL     OW26575   4.443   4.263  10.937  1.0961  0.6362  0.1993
 5038SOL    HW126576   4.489   4.316  11.002  0.1989 -0.2625  1.5743
 5038SOL    HW226577   4.469   4.294  10.851  0.5050 -1.5885 -0.7738
 5039SOL     OW26578   2.846   2.359  11.664 -0.2470 -0.3302  0.0921
 5039SOL    HW126579   2.793   2.283  11.640  0.1174 -0.7393  0.5773
 5039SOL    HW226580   2.912   2.328  11.726 -1.3775 -0.1978  1.3462
 5040SOL     OW26581   3.205   3.438  13.260  0.0365 -0.2996  0.2223
 5040SOL    HW126582   3.149   3.427  13.337  1.7985 -0.8970  1.4392
 5040SOL    HW226583   3.285   3.406  13.303 -0.0140 -1.0771 -0.2745
 5041SOL     OW26584   3.088   0.844   3.594 -0.0162 -0.3683  0.1196
 5041SOL    HW126585   3.001   0.882   3.606  0.9477  2.4325 -1.7150
 5041SOL    HW226586   3.065   0.751   3.591  1.7282 -0.7759 -0.4031
 5042SOL     OW26587   4.544   4.413   5.622 -0.2223 -0.3912 -0.4729
 5042SOL    HW126588   4.585   4.326   5.623  2.2105  0.7205 -2.1020
 5042SOL    HW226589   4.531   4.422   5.716  1.0542 -0.2953 -0.3017
 5043SOL     OW26590   2.492   4.298   5.017  0.0242 -0.6626 -0.5893
 5043SOL    HW126591   2.439   4.375   5.037  2.5047  1.1790 -1.0201
 5043SOL    HW226592   2.528   4.318   4.930  0.8295 -0.9145 -0.3173
 5044SOL     OW26593   2.144   3.984   7.510  0.6021 -0.1356  0.0031
 5044SOL    HW126594   2.123   4.010   7.599 -0.5055  1.3585 -0.6904
 5044SOL    HW226595   2.118   4.062   7.461  1.8310  0.2276 -0.0789
 5045SOL     OW26596   2.331   3.979   4.681 -0.0842  0.0532 -0.5524
 5045SOL    HW126597   2.308   4.000   4.591  1.2811  0.1477 -0.8855
 5045SOL    HW226598   2.351   3.887   4.668 -0.7937  0.2304 -2.8905
 5046SOL     OW26599   4.214   1.526   4.588  0.3620 -0.2664 -0.1975
 5046SOL    HW126600   4.241   1.531   4.679 -1.2138  0.8047  0.2128
 5046SOL    HW226601   4.161   1.446   4.579 -0.3914  0.3390 -1.0926
 5047SOL     OW26602   0.970   2.197   3.157 -0.1750 -0.1957 -0.1787
 5047SOL    HW126603   1.038   2.236   3.103  0.5822 -2.7612 -1.0942
 5047SOL    HW226604   0.929   2.278   3.188 -2.0634 -1.0070 -0.5525
 5048SOL     OW26605   1.177   4.270   8.290  0.3991 -0.1958  0.0784
 5048SOL    HW126606   1.220   4.287   8.374 -0.4576 -0.9929  0.6682
 5048SOL    HW226607   1.222   4.336   8.237  3.1576 -2.3054 -0.2116
 5049SOL     OW26608   3.277   2.029   5.814 -0.1910  0.1200 -0.5162
 5049SOL    HW126609   3.247   1.938   5.824  1.6253 -0.4040  0.0780
 5049SOL    HW226610   3.359   2.015   5.767 -0.8238 -0.2234 -1.5151
 5050SOL     OW26611   4.147   2.993   8.321  0.1891  0.3247 -0.0785
 5050SOL    HW126612   4.082   2.944   8.270 -2.0443 -0.0460  3.1409
 5050SOL    HW226613   4.096   3.060   8.367  0.1422 -0.5320  1.0982
 5051SOL     OW26614   1.203   1.933  10.994 -0.0701  0.1106  0.0347
 5051SOL    HW126615   1.167   1.948  10.907  0.1953 -0.6950 -0.2212
 5051SOL    HW226616   1.235   1.843  11.001  0.8480  0.3033 -1.7207
 5052SOL     OW26617   0.821   3.555   2.529 -0.1648 -0.2961 -0.5488
 5052SOL    HW126618   0.777   3.533   2.611 -1.6622 -0.7825 -1.5085
 5052SOL    HW226619   0.877   3.629   2.555 -1.7268  0.5538  0.4110
 5053SOL     OW26620   0.792   4.474  12.746  0.5394 -0.6271  0.3945
 5053SOL    HW126621   0.716   4.446  12.695 -0.7479  0.2294  1.8542
 5053SOL    HW226622   0.867   4.479  12.686 -0.7782  1.7929 -1.0514
 5054SOL     OW26623   2.249   2.348   5.860  0.2463 -0.0964  0.4305
 5054SOL    HW126624   2.236   2.431   5.905 -0.1501 -0.1886  0.4883
 5054SOL    HW226625   2.193   2.359   5.782  1.7748  1.7820 -0.3914
 5055SOL     OW26626   1.155   0.534  14.204  0.2339 -0.9103 -0.7719
 5055SOL    HW126627   1.060   0.543  14.196  0.2453  1.8909  2.7569
 5055SOL    HW226628   1.170   0.628  14.194 -0.2104 -0.7819 -0.1940
 5056SOL     OW26629   1.359   1.642   3.145 -0.6582  0.7886  0.6936
 5056SOL    HW126630   1.408   1.702   3.201 -0.6961  0.6245  0.9065
 5056SOL    HW226631   1.395   1.660   3.058 -1.3070  0.8877  0.4479
 5057SOL     OW26632   2.359   4.301   5.974  0.6461 -0.3792 -0.0271
 5057SOL    HW126633   2.325   4.213   5.991  1.0598 -0.3157  1.1095
 5057SOL    HW226634   2.399   4.333   6.055  0.5941 -1.3075  0.3623
 5058SOL     OW26635   2.226   1.215   8.622  0.3415  1.0090  0.8555
 5058SOL    HW126636   2.197   1.306   8.622  1.1059  1.2431  2.2955
 5058SOL    HW226637   2.320   1.218   8.608  0.2232  0.6503 -0.0029
 5059SOL     OW26638   4.009   3.098  17.493  0.2727  0.4005 -0.0125
 5059SOL    HW126639   3.917   3.120  17.479 -0.2950 -2.0441 -0.1205
 5059SOL    HW226640   3.998   3.003  17.493  1.1225  0.3045  1.1109
 5060SOL     OW26641   1.483   1.183   0.870  0.2961 -0.4065  0.6540
 5060SOL    HW126642   1.437   1.137   0.940  1.7610 -1.2064  1.0965
 5060SOL    HW226643   1.421   1.174   0.798  0.7330 -0.3938  0.2749
 5061SOL     OW26644   0.629   2.826  10.000 -0.4014  0.5709  0.7023
 5061SOL    HW126645   0.564   2.756  10.009  0.2962 -0.1342  0.2775
 5061SOL    HW226646   0.671   2.813  10.085 -0.3918  0.1382  0.6288
 5062SOL     OW26647   2.820   2.373   0.228  0.6282 -0.8164 -0.1712
 5062SOL    HW126648   2.903   2.383   0.180  0.9655 -3.5790 -0.1986
 5062SOL    HW226649   2.758   2.411   0.166 -1.3854 -0.6279  1.9620
 5063SOL     OW26650   1.947   2.976   8.894  0.0231  0.9297 -0.3588
 5063SOL    HW126651   2.016   3.029   8.856 -0.2829  1.8567  0.3892
 5063SOL    HW226652   1.997   2.916   8.950  1.3557  0.2179 -2.3009
 5064SOL     OW26653   4.334   1.103  14.302  0.0688  0.8133  0.2010
 5064SOL    HW126654   4.380   1.049  14.238 -0.7030  0.5727 -0.1493
 5064SOL    HW226655   4.268   1.149  14.250  0.2994  0.6438 -0.2468
 5065SOL     OW26656   3.928   1.405   2.172 -0.1888 -0.9766  0.3133
 5065SOL    HW126657   3.882   1.328   2.139  0.3404 -0.1327 -2.3990
 5065SOL    HW226658   3.865   1.464   2.213  2.5323  2.5443 -0.5629
 5066SOL     OW26659   1.932   1.066   7.843  0.4965  0.4503  0.5298
 5066SOL    HW126660   1.887   1.043   7.924 -0.3780 -1.2783 -0.4485
 5066SOL    HW226661   1.897   1.150   7.814  1.6576  1.4397  1.9697
 5067SOL     OW26662   3.930   0.963   5.178  0.2302 -0.3023  0.1796
 5067SOL    HW126663   3.976   0.895   5.128 -1.0954 -2.5346  1.9701
 5067SOL    HW226664   3.856   0.977   5.119  0.1710  3.0561  1.0433
 5068SOL     OW26665   0.692   3.367   4.772  0.7682  0.3833 -0.4423
 5068SOL    HW126666   0.597   3.373   4.767  0.6999 -1.8725 -1.9615
 5068SOL    HW226667   0.716   3.361   4.679  1.4109  2.6968 -0.4243
 5069SOL     OW26668   2.119   4.170   4.326  0.5153 -0.2797 -0.0007
 5069SOL    HW126669   2.199   4.123   4.348  0.6458  1.6491  3.5530
 5069SOL    HW226670   2.144   4.260   4.349  0.4036  0.0823 -1.2570
 5070SOL     OW26671   0.711   2.545   5.589 -0.2756  0.6664 -0.7458
 5070SOL    HW126672   0.636   2.536   5.648 -0.2437 -1.0622 -0.9524
 5070SOL    HW226673   0.693   2.474   5.528  1.8689 -1.3115  0.8863
 5071SOL     OW26674   4.073   1.859   1.279  0.0381 -0.8063 -0.2513
 5071SOL    HW126675   3.993   1.889   1.236 -0.3659  0.3230  1.2556
 5071SOL    HW226676   4.042   1.848   1.369  1.5077  2.4526  0.6306
 5072SOL     OW26677   2.935   4.117  12.275  0.1984 -0.3076  0.3170
 5072SOL    HW126678   2.886   4.086  12.352 -0.5690 -0.0378 -0.0579
 5072SOL    HW226679   2.943   4.209  12.300  1.0673 -0.4283  0.4743
 5073SOL     OW26680   1.826   3.225   5.119  0.3670  0.6425  0.0585
 5073SOL    HW126681   1.847   3.223   5.212 -0.2585 -2.2408  0.1583
 5073SOL    HW226682   1.893   3.282   5.080  1.1882  0.0746  0.6290
 5074SOL     OW26683   1.888   3.032   9.826  0.5010 -0.4801  0.1663
 5074SOL    HW126684   1.902   3.054   9.918  1.4462 -0.4788  0.0288
 5074SOL    HW226685   1.842   2.948   9.830 -0.1961 -0.0898  0.3540
 5075SOL     OW26686   0.483   3.026   9.909 -0.5556  0.2774  0.4428
 5075SOL    HW126687   0.459   3.013  10.001 -0.6422  2.1972  0.7004
 5075SOL    HW226688   0.530   2.944   9.893  3.2898  2.9581 -2.1428
 5076SOL     OW26689   2.904   4.335   4.546  0.4534  0.1589  0.2615
 5076SOL    HW126690   2.935   4.353   4.458  3.1533  0.7817  1.3514
 5076SOL    HW226691   2.871   4.245   4.552 -0.0701  0.3140 -0.2964
 5077SOL     OW26692   3.009   4.311   8.695  0.0937 -0.1943 -0.4524
 5077SOL    HW126693   3.075   4.320   8.764  0.7023 -0.5556 -0.9863
 5077SOL    HW226694   2.928   4.300   8.745  0.3646 -1.4751 -0.3145
 5078SOL     OW26695   0.212   1.851   7.120 -0.2362 -0.4356 -0.5293
 5078SOL    HW126696   0.174   1.836   7.034 -0.9300  0.9417 -0.4623
 5078SOL    HW226697   0.181   1.774   7.169  0.9673  0.6964  2.0456
 5079SOL     OW26698   1.375   3.890   6.146 -0.2593 -0.1732 -0.0887
 5079SOL    HW126699   1.328   3.806   6.144 -2.5052  1.0734  0.3508
 5079SOL    HW226700   1.335   3.928   6.068  0.8945  0.3022 -0.4433
 5080SOL     OW26701   4.577   3.015  16.083 -0.1372  0.1476  0.4467
 5080SOL    HW126702   4.572   3.072  16.160 -1.5990  1.2043 -0.4366
 5080SOL    HW226703   4.548   2.932  16.121 -0.3192 -0.5131 -1.1580
 5081SOL     OW26704   2.002   3.548   3.180 -0.0370  0.2934  0.0644
 5081SOL    HW126705   2.028   3.555   3.089 -0.0667  0.9468  0.1015
 5081SOL    HW226706   1.945   3.624   3.190  1.1881  1.1144  0.7980
 5082SOL     OW26707   4.401   2.335  10.965 -0.1104 -0.4166  0.0033
 5082SOL    HW126708   4.491   2.304  10.979  0.6590  2.4705  1.4866
 5082SOL    HW226709   4.422   2.412  10.912 -1.0706  0.0368  0.2764
 5083SOL     OW26710   2.216   0.412   7.628  0.3189 -0.2504 -0.0270
 5083SOL    HW126711   2.170   0.422   7.545  1.6612  0.3192 -0.7077
 5083SOL    HW226712   2.153   0.394   7.697 -0.6394  0.9093 -0.6165
 5084SOL     OW26713   0.064   3.977  17.437 -0.1900  0.2701  0.5285
 5084SOL    HW126714   0.064   4.070  17.457  0.0521  0.4722 -0.3908
 5084SOL    HW226715   0.145   3.948  17.479 -0.0256 -1.1110 -0.7502
 5085SOL     OW26716   0.974   3.198   8.182 -0.3158 -0.4067 -0.0519
 5085SOL    HW126717   0.976   3.137   8.256  2.7663  0.4915  0.6136
 5085SOL    HW226718   0.892   3.186   8.135  0.7797 -0.8485 -1.8816
 5086SOL     OW26719   3.691   2.752   5.225 -0.1424 -0.1008  0.5707
 5086SOL    HW126720   3.746   2.786   5.296  2.2650 -1.8880 -0.4537
 5086SOL    HW226721   3.619   2.810   5.252  1.5342  1.2176  2.2505
 5087SOL     OW26722   3.372   3.435   3.573  0.0516 -0.4218  0.3084
 5087SOL    HW126723   3.284   3.472   3.559  1.0013  1.7186 -0.0343
 5087SOL    HW226724   3.384   3.398   3.486  0.6601 -0.3297  0.3532
 5088SOL     OW26725   2.596   1.050   3.513  0.2480  0.3537  0.2301
 5088SOL    HW126726   2.528   0.985   3.495 -0.6546  1.1198  0.8766
 5088SOL    HW226727   2.575   1.118   3.449  0.7642  1.3799  1.1550
 5089SOL     OW26728   4.263   0.792   4.044  0.2200  0.1520 -0.4705
 5089SOL    HW126729   4.252   0.698   4.060 -0.4586  0.2077 -0.5721
 5089SOL    HW226730   4.305   0.785   3.958 -0.2787  1.8574 -0.8386
 5090SOL     OW26731   3.726   0.720  16.954 -0.2144 -0.8867  0.1659
 5090SOL    HW126732   3.657   0.703  17.018 -2.3788  1.9959 -1.3527
 5090SOL    HW226733   3.765   0.639  16.922  1.3688  0.2131 -0.7531
 5091SOL     OW26734   0.759   3.233   7.073  0.4065  0.7494  0.4644
 5091SOL    HW126735   0.760   3.169   7.145 -1.8739 -0.0208 -0.1973
 5091SOL    HW226736   0.767   3.176   6.996  0.0763  1.5159 -0.1273
 5092SOL     OW26737   0.251   3.085   4.514  0.2203 -0.8056  0.0236
 5092SOL    HW126738   0.189   3.019   4.486 -2.4675  1.5233  0.4630
 5092SOL    HW226739   0.191   3.156   4.537 -1.1384 -1.0180 -2.8699
 5093SOL     OW26740   4.290   3.969   0.453  0.2971  0.2295 -0.3689
 5093SOL    HW126741   4.260   4.013   0.373 -1.5779  0.1204  0.2840
 5093SOL    HW226742   4.375   3.944   0.414  0.4152 -0.7807  0.5411
 5094SOL     OW26743   3.597   0.253  14.216  0.0232  0.1568  0.2054
 5094SOL    HW126744   3.558   0.183  14.268  0.3261  0.1130  0.3707
 5094SOL    HW226745   3.519   0.308  14.216 -0.1299 -0.0597 -2.4053
 5095SOL     OW26746   1.178   0.958  15.538  0.0572  0.4481  0.1905
 5095SOL    HW126747   1.180   0.982  15.445  1.4035 -1.4931 -0.2905
 5095SOL    HW226748   1.125   1.021  15.585  0.5099  0.3276  0.8619
 5096SOL     OW26749   2.065   1.299   4.737 -1.0532 -0.0362 -0.5869
 5096SOL    HW126750   2.098   1.380   4.697  0.2003 -1.4410 -2.3954
 5096SOL    HW226751   2.145   1.261   4.771 -0.6979  0.4276 -0.9016
 5097SOL     OW26752   0.172   3.539   5.803 -0.1098  0.2682  0.2147
 5097SOL    HW126753   0.214   3.548   5.889 -1.1406  0.3028  0.7166
 5097SOL    HW226754   0.167   3.443   5.798 -1.1363  0.3527 -0.4002
 5098SOL     OW26755   2.934   1.426   7.800  0.7098 -0.3214  0.3993
 5098SOL    HW126756   2.986   1.451   7.876  1.2042  0.8059 -0.3128
 5098SOL    HW226757   2.990   1.354   7.773  0.8421  0.8356 -2.3829
 5099SOL     OW26758   0.430   4.411   5.616  0.0497  0.1321  0.2928
 5099SOL    HW126759   0.335   4.415   5.602 -0.2304  0.2798  2.2094
 5099SOL    HW226760   0.460   4.493   5.577 -0.3223 -0.9461 -2.2569
 5100SOL     OW26761   1.957   1.443  14.285 -0.8937 -0.1796  0.0905
 5100SOL    HW126762   2.002   1.524  14.309 -1.2707  0.1863 -0.4331
 5100SOL    HW226763   1.996   1.410  14.204  0.0584  3.6174 -0.9705
 5101SOL     OW26764   0.781   3.072   9.935 -0.3897 -0.0406 -0.4079
 5101SOL    HW126765   0.736   2.997   9.973 -1.3461  1.4880  1.4523
 5101SOL    HW226766   0.872   3.044   9.939 -0.8863 -1.7339 -1.0158
 5102SOL     OW26767   3.916   1.943   4.411  0.3384 -0.1769 -0.1687
 5102SOL    HW126768   3.906   1.873   4.347  0.2372  0.3669 -0.7454
 5102SOL    HW226769   3.929   2.021   4.358 -1.5620  0.2113 -0.0451
 5103SOL     OW26770   4.182   0.628  16.963  0.4253 -0.0188  0.0045
 5103SOL    HW126771   4.208   0.552  16.911  1.1043 -0.0449  0.3827
 5103SOL    HW226772   4.118   0.600  17.029 -0.3015  1.4195 -0.0913
 5104SOL     OW26773   0.570   1.981   6.403 -0.0119  0.0976 -0.1035
 5104SOL    HW126774   0.526   2.039   6.465  1.1265  0.9644 -0.1069
 5104SOL    HW226775   0.607   1.918   6.466 -2.1304 -0.8550  0.1950
 5105SOL     OW26776   2.317   4.020   6.075 -0.2811  0.1177 -0.2440
 5105SOL    HW126777   2.356   3.971   6.003  2.9899  1.9886  0.2454
 5105SOL    HW226778   2.325   3.957   6.147  1.2520  1.1282  0.4725
 5106SOL     OW26779   1.169   1.713   6.004  0.1107  0.3925 -0.2248
 5106SOL    HW126780   1.251   1.679   5.970 -1.0803 -1.8186 -0.9252
 5106SOL    HW226781   1.171   1.806   5.985 -0.8448  0.5179  0.2817
 5107SOL     OW26782   3.045   2.284   1.748 -0.4088 -0.3561  0.4804
 5107SOL    HW126783   3.123   2.324   1.787 -1.0931  0.1696  1.3135
 5107SOL    HW226784   2.999   2.239   1.818  1.7575  0.4392  2.3981
 5108SOL     OW26785   1.055   3.077  17.467 -0.5678 -0.2323 -0.2803
 5108SOL    HW126786   1.080   3.006  17.525  0.2507  0.1936 -0.1121
 5108SOL    HW226787   1.097   3.156  17.501 -1.6382  0.9779 -1.7114
 5109SOL     OW26788   0.633   4.094   5.688  0.1766  0.7437 -0.0426
 5109SOL    HW126789   0.655   4.021   5.745 -1.2391 -0.7478 -1.4115
 5109SOL    HW226790   0.556   4.139   5.724  0.4249 -0.4581  1.9561
 5110SOL     OW26791   3.452   3.921   8.799  0.2557  0.0430  0.6178
 5110SOL    HW126792   3.517   3.863   8.761  0.5368  0.4829  0.4253
 5110SOL    HW226793   3.394   3.868   8.854 -1.5619  0.7618 -0.6142
 5111SOL     OW26794   2.046   2.091   9.911 -0.1894 -0.4442 -0.2133
 5111SOL    HW126795   2.074   2.167   9.861  0.9629  1.0330  2.6924
 5111SOL    HW226796   2.048   2.133   9.997 -0.3022 -0.6247 -0.1227
 5112SOL     OW26797   4.287   2.132  10.329 -0.4426  0.0833  0.3746
 5112SOL    HW126798   4.244   2.160  10.409  0.6992  1.0034  0.6627
 5112SOL    HW226799   4.244   2.183  10.260  2.6209  3.0938  0.6974
 5113SOL     OW26800   2.737   0.328   7.461  0.0914 -0.1104 -0.0224
 5113SOL    HW126801   2.690   0.344   7.543 -0.4054  1.1721 -0.5542
 5113SOL    HW226802   2.664   0.351   7.403 -0.4568 -0.3103  0.5983
 5114SOL     OW26803   3.935   4.071   0.209  0.4846  0.0309 -0.5337
 5114SOL    HW126804   4.027   4.074   0.236  0.6621 -0.4725 -1.0972
 5114SOL    HW226805   3.918   4.165   0.221  0.1017  0.0504 -1.1980
 5115SOL     OW26806   3.805   3.845   6.041  0.5583  0.0770  0.4716
 5115SOL    HW126807   3.871   3.910   6.017 -0.3641  0.2913 -1.5108
 5115SOL    HW226808   3.832   3.769   5.989  2.1896  1.9456 -1.3841
 5116SOL     OW26809   2.633   3.135   4.665 -0.1306 -0.2987  0.2630
 5116SOL    HW126810   2.605   3.196   4.596 -0.4247 -0.7901 -0.0589
 5116SOL    HW226811   2.661   3.061   4.611 -0.9906 -0.2375 -0.2701
 5117SOL     OW26812   2.233   3.353  13.824  0.0930  0.5287 -0.3829
 5117SOL    HW126813   2.219   3.343  13.919  1.6531  2.4292  0.0526
 5117SOL    HW226814   2.159   3.408  13.799  0.6977  2.3770  1.8792
 5118SOL     OW26815   3.565   0.783  13.670  0.2597  0.0528 -0.1787
 5118SOL    HW126816   3.645   0.815  13.627 -0.3530  1.2514 -0.4381
 5118SOL    HW226817   3.575   0.825  13.756 -0.3748  0.5913 -0.3710
 5119SOL     OW26818   0.533   2.623   3.011  0.2703  0.6317 -0.1897
 5119SOL    HW126819   0.532   2.527   3.014 -0.9228  0.6553  0.3143
 5119SOL    HW226820   0.533   2.636   2.916  0.6933  0.2269 -0.2454
 5120SOL     OW26821   2.977   3.053  16.985 -0.1337 -0.5640 -0.5054
 5120SOL    HW126822   2.884   3.059  17.007 -0.4992 -1.8966 -1.7052
 5120SOL    HW226823   2.996   3.137  16.942  0.5440 -0.3597  0.2090
 5121SOL     OW26824   1.362   4.246  10.578  0.0518 -0.0430  1.0860
 5121SOL    HW126825   1.344   4.339  10.572  0.3257 -0.2701 -3.3262
 5121SOL    HW226826   1.454   4.237  10.602  0.0923 -0.5495  0.7573
 5122SOL     OW26827   0.548   2.892   7.544  0.5565  0.7585  0.2341
 5122SOL    HW126828   0.492   2.817   7.525  0.3432  0.4275  2.1534
 5122SOL    HW226829   0.529   2.915   7.635 -0.0473 -0.9113  0.5357
 5123SOL     OW26830   0.725   3.834   7.412  0.6379  0.5081 -0.2166
 5123SOL    HW126831   0.775   3.868   7.487  0.6422  1.7527 -0.7936
 5123SOL    HW226832   0.660   3.776   7.450 -0.6656  1.9237 -0.2881
 5124SOL     OW26833   0.199   2.808   3.214  0.2840  0.2090 -0.3747
 5124SOL    HW126834   0.151   2.772   3.289  0.4088 -0.3108 -0.5454
 5124SOL    HW226835   0.272   2.747   3.203 -0.8175 -1.3451  0.6988
 5125SOL     OW26836   0.511   1.769   3.446  0.9924 -0.3756  0.6130
 5125SOL    HW126837   0.560   1.780   3.365  1.6209 -0.1150  1.0251
 5125SOL    HW226838   0.426   1.803   3.417  1.3233 -1.3194 -1.3869
 5126SOL     OW26839   1.170   3.511   8.056  0.6238  0.3879 -0.0307
 5126SOL    HW126840   1.184   3.591   8.005  0.7740  1.2831  1.3927
 5126SOL    HW226841   1.091   3.479   8.014  2.4637  0.3028 -3.4057
 5127SOL     OW26842   2.074   3.347   8.236 -0.4252 -0.0981  0.0377
 5127SOL    HW126843   2.041   3.276   8.292  2.5801 -1.8358 -0.4109
 5127SOL    HW226844   1.995   3.367   8.186  0.0425  1.1298 -0.1908
 5128SOL     OW26845   2.486   3.806  13.304  0.2754 -0.0928  0.3308
 5128SOL    HW126846   2.448   3.734  13.254 -0.7788 -0.1437  1.2039
 5128SOL    HW226847   2.492   3.759  13.388  1.4673 -0.4497  0.0607
 5129SOL     OW26848   2.727   1.992   2.300 -0.3381  0.6159 -0.2554
 5129SOL    HW126849   2.799   2.055   2.294  0.6942 -0.4462  0.8764
 5129SOL    HW226850   2.740   1.942   2.220 -2.7343  1.4742 -1.1921
 5130SOL     OW26851   1.306   0.877   8.869 -0.2081  0.5133  0.3775
 5130SOL    HW126852   1.255   0.911   8.795  2.3405 -1.3908 -2.2321
 5130SOL    HW226853   1.292   0.946   8.934  0.1670 -0.9398  2.0156
 5131SOL     OW26854   1.299   0.444   3.785  0.1245 -0.4391  0.1877
 5131SOL    HW126855   1.235   0.490   3.732  2.8591  0.7742 -2.0638
 5131SOL    HW226856   1.376   0.494   3.757 -0.0660 -0.3937 -0.2485
 5132SOL     OW26857   1.068   4.268   2.735  0.1318 -0.2830  0.0148
 5132SOL    HW126858   1.039   4.197   2.679 -1.4665  0.4141 -0.0474
 5132SOL    HW226859   0.996   4.271   2.798 -0.0606 -2.0938 -0.1388
 5133SOL     OW26860   0.461   2.029   8.702  0.2161 -0.0531  0.0293
 5133SOL    HW126861   0.401   2.021   8.777  1.3214  1.4013  1.0585
 5133SOL    HW226862   0.535   2.053   8.758 -0.6727  1.0002  0.7765
 5134SOL     OW26863   1.320   4.027   6.920  0.0380  0.5858 -0.3618
 5134SOL    HW126864   1.311   3.938   6.886 -0.4448  0.6822 -0.4924
 5134SOL    HW226865   1.370   4.064   6.848  0.2722 -1.1235 -1.0706
 5135SOL     OW26866   3.275   4.442   4.115 -0.2383 -0.6195  0.2991
 5135SOL    HW126867   3.249   4.375   4.051  2.8179 -0.1601 -1.4326
 5135SOL    HW226868   3.258   4.527   4.074 -0.1457 -0.7018  0.0914
 5136SOL     OW26869   3.383   0.033  13.633 -0.0641  0.2156  0.2154
 5136SOL    HW126870   3.305   0.066  13.678 -0.6675 -1.0309  0.0872
 5136SOL    HW226871   3.438   0.012  13.709 -0.0115  4.2557  1.3050
 5137SOL     OW26872   3.404   3.436   8.605  0.2814 -0.5604  0.3973
 5137SOL    HW126873   3.450   3.502   8.553 -0.4218 -1.6856 -1.6675
 5137SOL    HW226874   3.329   3.486   8.637  1.0674  0.2905  0.8895
 5138SOL     OW26875   2.789   2.410   0.929 -0.0346 -0.1451  0.2023
 5138SOL    HW126876   2.742   2.418   0.846 -0.6428 -0.7852  0.4761
 5138SOL    HW226877   2.792   2.501   0.956  0.2865  0.7988 -3.1016
 5139SOL     OW26878   1.052   2.946   4.480 -0.4883 -0.9621 -0.2257
 5139SOL    HW126879   1.085   2.879   4.420  0.2165  0.1101 -1.0388
 5139SOL    HW226880   1.062   3.024   4.425  2.0690 -0.6971  0.6057
 5140SOL     OW26881   2.253   4.527   5.698 -0.1566  0.0504  0.3002
 5140SOL    HW126882   2.307   4.601   5.725  1.9072 -1.4559  0.3135
 5140SOL    HW226883   2.299   4.490   5.623  1.0322  0.6759  0.7215
 5141SOL     OW26884   1.601   1.709   6.797 -0.2155  0.6072 -0.7699
 5141SOL    HW126885   1.688   1.748   6.803 -0.1735  0.4757 -0.5254
 5141SOL    HW226886   1.582   1.719   6.890 -0.5957  1.7628 -0.9653
 5142SOL     OW26887   0.749   4.316   7.608  0.5072  0.0653  0.5351
 5142SOL    HW126888   0.712   4.251   7.549 -0.1183  1.6589 -0.8421
 5142SOL    HW226889   0.841   4.290   7.609  0.3677 -0.3722  2.1865
 5143SOL     OW26890   3.602   4.277   6.017  0.4134 -0.9672  0.2874
 5143SOL    HW126891   3.591   4.189   6.053 -0.2895  0.1103  2.7202
 5143SOL    HW226892   3.694   4.278   5.989  0.5944 -1.5848  0.8525
 5144SOL     OW26893   0.009   2.487  14.152 -0.2036  0.0983 -0.0952
 5144SOL    HW126894   0.006   2.552  14.223 -0.5512 -0.6479  0.5739
 5144SOL    HW226895   0.006   2.535  14.070  1.8613 -0.2311 -0.3584
 5145SOL     OW26896   1.605   2.627   6.309 -0.0939 -0.2637 -0.2118
 5145SOL    HW126897   1.604   2.533   6.292 -1.1014 -0.2560 -0.1769
 5145SOL    HW226898   1.576   2.659   6.224 -0.8122 -1.6477 -0.4927
 5146SOL     OW26899   4.140   3.058  12.463 -0.7057 -0.3466 -0.0759
 5146SOL    HW126900   4.168   3.143  12.428  0.9920 -1.3425 -1.1160
 5146SOL    HW226901   4.198   3.003  12.411  0.6218  0.3548  0.6562
 5147SOL     OW26902   2.856   0.721   3.352  0.5563 -0.1689 -0.3399
 5147SOL    HW126903   2.773   0.727   3.400  0.6102 -0.0767 -0.2567
 5147SOL    HW226904   2.869   0.814   3.335 -0.0007  0.0098  0.2170
 5148SOL     OW26905   1.472   4.117  11.747  0.9013 -0.6448  0.8202
 5148SOL    HW126906   1.465   4.161  11.832 -1.3999  1.7773 -0.5706
 5148SOL    HW226907   1.557   4.140  11.711 -0.7095 -0.6787 -3.0058
 5149SOL     OW26908   3.544   1.549   6.919  0.6223 -0.1729 -0.2009
 5149SOL    HW126909   3.511   1.633   6.889 -1.9773 -1.4937 -1.0809
 5149SOL    HW226910   3.466   1.492   6.922  1.0083 -0.6766  0.2319
 5150SOL     OW26911   0.010   0.042   3.974  1.2531  0.6758 -0.1517
 5150SOL    HW126912   4.710   0.038   3.880 -2.4620  1.4432  0.6553
 5150SOL    HW226913   4.683   0.120   4.002 -1.9233 -2.1522  2.1674
 5151SOL     OW26914   1.455   1.680   4.007 -0.0509  0.4071 -0.3237
 5151SOL    HW126915   1.550   1.691   4.014 -0.1472  1.2772 -0.3636
 5151SOL    HW226916   1.430   1.647   4.093 -2.3083  0.2683 -1.0319
 5152SOL     OW26917   1.247   1.550   6.980 -0.3143  0.2605 -0.2650
 5152SOL    HW126918   1.314   1.617   6.997 -0.9290  0.5409  1.0057
 5152SOL    HW226919   1.208   1.576   6.896  0.0111 -0.1964 -0.5597
 5153SOL     OW26920   4.564   3.526  13.934 -0.1189  0.5709 -0.3940
 5153SOL    HW126921   4.491   3.570  13.889 -2.5663 -1.7501  1.3559
 5153SOL    HW226922   4.505   3.507  14.007 -0.8420 -0.6811 -1.2913
 5154SOL     OW26923   2.299   2.081   3.501  0.0272  0.5065 -0.4889
 5154SOL    HW126924   2.241   2.006   3.513  0.3478  0.1780 -1.0273
 5154SOL    HW226925   2.247   2.145   3.551  1.5768  0.9254  0.5851
 5155SOL     OW26926   3.863   3.197   6.975 -0.2951 -0.0338 -0.1669
 5155SOL    HW126927   3.935   3.236   7.025  0.8274 -1.5586 -0.5780
 5155SOL    HW226928   3.798   3.204   7.045 -3.1929 -0.7954 -2.7832
 5156SOL     OW26929   1.908   0.483   8.827 -0.2996  0.5121 -0.1316
 5156SOL    HW126930   1.840   0.540   8.864 -0.0295  1.4316 -1.0521
 5156SOL    HW226931   1.880   0.395   8.852  0.4337  0.2866 -0.1158
 5157SOL     OW26932   1.161   4.073   3.372 -0.1473 -0.3494 -0.1898
 5157SOL    HW126933   1.225   4.108   3.434  0.5114 -1.4455 -0.2618
 5157SOL    HW226934   1.223   4.041   3.307  1.3508  2.2703 -0.0284
 5158SOL     OW26935   3.426   2.936   9.311 -0.4808  0.2070 -0.4444
 5158SOL    HW126936   3.376   2.977   9.382 -0.8138 -0.8390 -0.0638
 5158SOL    HW226937   3.419   2.844   9.337  1.7181  0.5660  1.4127
 5159SOL     OW26938   3.781   3.615   7.098 -0.2911  0.4984 -0.0984
 5159SOL    HW126939   3.721   3.542   7.114  0.1258 -0.0062 -0.8502
 5159SOL    HW226940   3.724   3.689   7.118 -0.5578  0.3090 -0.1582
 5160SOL     OW26941   3.174   0.051  12.457  0.5102  0.2947  1.0541
 5160SOL    HW126942   3.110   0.108  12.501  1.3979  2.9062 -1.0516
 5160SOL    HW226943   3.248   0.066  12.516  0.8979  1.9163  0.1492
 5161SOL     OW26944   1.678   0.761   4.621 -0.1365 -0.1987  0.2277
 5161SOL    HW126945   1.617   0.695   4.590  2.1742 -2.0389 -0.3664
 5161SOL    HW226946   1.725   0.717   4.691  0.2506  0.5843  0.4574
 5162SOL     OW26947   4.674   0.785   5.347 -0.2772  0.0072 -0.6450
 5162SOL    HW126948   4.709   0.723   5.411 -0.9312  0.2268 -0.0768
 5162SOL    HW226949   4.650   0.858   5.404  1.3047 -0.3784  0.5102
 5163SOL     OW26950   1.465   1.973   4.150  0.2533 -0.1082 -0.0396
 5163SOL    HW126951   1.530   2.001   4.085 -0.7687 -0.6988 -1.2992
 5163SOL    HW226952   1.443   1.894   4.102  2.0706  0.9961 -2.6912
 5164SOL     OW26953   2.806   3.604   5.382 -0.2228  0.3489 -0.1106
 5164SOL    HW126954   2.724   3.634   5.422  1.0425  1.6606  1.4892
 5164SOL    HW226955   2.847   3.551   5.451  3.5659  2.3081 -0.8484
 5165SOL     OW26956   3.829   2.530  10.672 -0.9195  0.0589  0.0076
 5165SOL    HW126957   3.779   2.611  10.667 -2.6389 -0.9878  0.2798
 5165SOL    HW226958   3.819   2.507  10.765  0.5933 -0.8547 -0.0504
 5166SOL     OW26959   4.433   1.041   9.475  0.2570  0.1423  0.0799
 5166SOL    HW126960   4.368   1.098   9.517 -0.2989 -1.1944  1.0450
 5166SOL    HW226961   4.394   1.017   9.391 -0.0797 -0.8612  0.5231
 5167SOL     OW26962   3.782   0.721  14.983  0.1608 -0.2382  0.0409
 5167SOL    HW126963   3.854   0.751  14.928  0.5913  0.6062  1.0886
 5167SOL    HW226964   3.747   0.802  15.020 -1.9638 -0.4044 -1.5558
 5168SOL     OW26965   1.199   2.393   3.375  0.8204 -0.6098  0.4916
 5168SOL    HW126966   1.110   2.427   3.381  1.0552 -0.1786  1.4673
 5168SOL    HW226967   1.190   2.316   3.431  0.0284 -0.8235  0.0705
 5169SOL     OW26968   2.761   3.855   9.918 -0.1765  0.1792  0.5107
 5169SOL    HW126969   2.825   3.826   9.853 -1.6778 -1.2563 -0.3671
 5169SOL    HW226970   2.796   3.813   9.996  0.6393 -1.9203 -0.9688
 5170SOL     OW26971   3.769   0.264   0.563  0.1324  0.6187 -0.3973
 5170SOL    HW126972   3.779   0.330   0.494  0.7800 -1.9803 -2.8194
 5170SOL    HW226973   3.812   0.301   0.639 -1.9496  0.9482  0.6337
 5171SOL     OW26974   3.503   1.514  13.974  0.2214 -0.3783  0.3338
 5171SOL    HW126975   3.488   1.426  13.939 -2.2582 -0.5143  1.7295
 5171SOL    HW226976   3.436   1.508  14.042  0.1627 -1.5221  0.1787
 5172SOL     OW26977   4.197   1.584   1.292  0.3656  0.5216  0.1323
 5172SOL    HW126978   4.292   1.579   1.277  0.5529  0.0622  1.5027
 5172SOL    HW226979   4.175   1.674   1.267  3.6994  1.4183  0.3769
 5173SOL     OW26980   0.505   2.954  16.420  0.4668  0.0561  0.0662
 5173SOL    HW126981   0.458   3.023  16.373  1.2829 -0.1100 -1.0029
 5173SOL    HW226982   0.532   3.005  16.497  2.5505  0.9452 -1.2409
 5174SOL     OW26983   2.464   3.498  15.659 -0.2207 -0.5804 -0.1624
 5174SOL    HW126984   2.527   3.564  15.630  0.3797 -1.3015 -0.5074
 5174SOL    HW226985   2.380   3.538  15.637  0.6746  2.0460  1.1587
 5175SOL     OW26986   1.863   2.760   7.987  0.6971 -0.0592 -0.3871
 5175SOL    HW126987   1.849   2.666   8.000  0.7693 -0.1951 -1.3185
 5175SOL    HW226988   1.863   2.769   7.892  1.1366  0.0385 -0.3807
 5176SOL     OW26989   0.124   0.655   8.017  0.1989 -0.1235 -0.0068
 5176SOL    HW126990   0.138   0.657   7.922  0.3226  1.0172  0.0347
 5176SOL    HW226991   0.205   0.615   8.050  0.0620 -1.5153 -1.3793
 5177SOL     OW26992   2.153   0.589   8.930  0.0636  0.1592 -0.1755
 5177SOL    HW126993   2.062   0.570   8.908 -0.2107  0.3342  0.7818
 5177SOL    HW226994   2.134   0.655   8.997  0.5652  0.5197 -0.3962
 5178SOL     OW26995   4.716   2.925   4.601  0.2728 -0.2913  0.4330
 5178SOL    HW126996   0.022   2.866   4.530 -2.6177 -1.7612  0.5720
 5178SOL    HW226997   4.676   2.864   4.662 -0.7707 -0.8805 -0.8428
 5179SOL     OW26998   4.498   4.290   1.118 -0.4805  0.4838  0.3058
 5179SOL    HW126999   4.476   4.210   1.072  0.5299 -0.7208  1.9247
 5179SOL    HW227000   4.412   4.325   1.141 -1.0331 -1.8328  1.7048
 5180SOL     OW27001   1.005   3.798   6.050 -0.3754  0.4246  0.6234
 5180SOL    HW127002   0.989   3.834   5.963  1.7680 -0.8540 -0.2911
 5180SOL    HW227003   1.004   3.873   6.110  0.4519 -2.2390  3.9332
 5181SOL     OW27004   0.879   1.101  14.327 -0.5160 -0.4885  0.0554
 5181SOL    HW127005   0.800   1.132  14.282 -0.4375 -1.3890 -0.6986
 5181SOL    HW227006   0.844   1.049  14.400  0.9624 -2.7267 -0.8392
 5182SOL     OW27007   4.710   3.351   6.020  0.0512 -0.3664 -0.4182
 5182SOL    HW127008   0.039   3.313   5.948  1.0665 -2.5748  1.4500
 5182SOL    HW227009   0.027   3.437   6.039 -2.9512  1.1970 -1.4505
 5183SOL     OW27010   2.148   0.795   0.287  0.0991 -0.3018  0.2319
 5183SOL    HW127011   2.211   0.785   0.216 -1.6326 -0.8194 -1.2296
 5183SOL    HW227012   2.209   0.814   0.358  0.6371 -1.4862  0.0851
 5184SOL     OW27013   0.833   0.770   7.660 -0.2628 -0.0812  0.4873
 5184SOL    HW127014   0.750   0.739   7.625  1.8290 -4.3471 -0.7050
 5184SOL    HW227015   0.860   0.838   7.598  2.4113 -0.8086  0.8609
 5185SOL     OW27016   0.447   2.033  11.473 -0.4829  0.2722  0.3652
 5185SOL    HW127017   0.417   2.107  11.527 -1.7435  0.1821 -0.1933
 5185SOL    HW227018   0.363   1.991  11.456  0.6072 -1.6105 -0.2968
 5186SOL     OW27019   2.436   0.228  15.792  0.5785 -0.2278 -0.2470
 5186SOL    HW127020   2.425   0.320  15.767  2.1367  0.7102  2.4182
 5186SOL    HW227021   2.370   0.186  15.737  0.5292  0.5647 -0.7908
 5187SOL     OW27022   2.544   4.502   7.100  0.2285  0.1835 -0.2290
 5187SOL    HW127023   2.548   4.593   7.127  2.2028  0.1960 -0.5514
 5187SOL    HW227024   2.499   4.460   7.173  0.8219  0.6846  0.4247
 5188SOL     OW27025   1.353   3.287   6.674 -0.3588 -0.5356 -0.5646
 5188SOL    HW127026   1.285   3.334   6.722  0.0465 -0.1117 -0.4127
 5188SOL    HW227027   1.301   3.206   6.672 -3.2666  1.3318 -1.6344
 5189SOL     OW27028   4.540   0.617  13.463 -0.4534 -0.6354  0.2159
 5189SOL    HW127029   4.473   0.614  13.394  0.4208 -0.9673 -0.6225
 5189SOL    HW227030   4.617   0.618  13.406 -0.6700 -0.3495 -0.0800
 5190SOL     OW27031   1.746   0.538   8.571  0.1050  0.2400  0.8573
 5190SOL    HW127032   1.793   0.510   8.650 -0.9081  0.3474  1.5154
 5190SOL    HW227033   1.667   0.484   8.571  0.4116 -0.2014 -0.2386
 5191SOL     OW27034   3.049   3.274   8.757  0.0558  0.1928  0.3807
 5191SOL    HW127035   3.046   3.242   8.848 -2.4334 -1.8329 -0.4039
 5191SOL    HW227036   3.039   3.191   8.710  0.2002 -0.1950  1.0197
 5192SOL     OW27037   1.873   3.771   6.418 -0.2235 -0.5930 -0.9556
 5192SOL    HW127038   1.925   3.793   6.341  2.3003 -0.5125  0.7850
 5192SOL    HW227039   1.862   3.858   6.457  3.3089 -0.5286 -0.1702
 5193SOL     OW27040   0.941   3.368   2.381 -0.2185 -0.2048 -0.0672
 5193SOL    HW127041   0.875   3.422   2.423  1.4410  1.7965 -0.0339
 5193SOL    HW227042   0.898   3.361   2.296 -0.7887 -0.0964  0.2125
 5194SOL     OW27043   0.146   0.449  13.820  0.1934 -0.0741 -0.5512
 5194SOL    HW127044   0.178   0.522  13.766 -0.3940  1.2474  0.8797
 5194SOL    HW227045   0.065   0.425  13.775 -0.2734 -0.1865  0.3616
 5195SOL     OW27046   1.325   0.373   6.639 -0.2449 -0.3753  0.0356
 5195SOL    HW127047   1.407   0.382   6.591 -0.4754  0.0633 -0.2681
 5195SOL    HW227048   1.308   0.463   6.665 -0.8452 -0.9313  1.5765
 5196SOL     OW27049   3.238   0.264   5.237  0.6470 -0.0961 -0.8375
 5196SOL    HW127050   3.227   0.277   5.331 -4.6560 -0.7459 -1.3239
 5196SOL    HW227051   3.292   0.185   5.231 -0.1802 -0.7171 -0.2279
 5197SOL     OW27052   2.537   3.373   3.352 -0.7227  0.3334 -0.0376
 5197SOL    HW127053   2.628   3.400   3.364  0.0709 -1.8831 -1.2463
 5197SOL    HW227054   2.528   3.359   3.258  2.2172  2.4362 -0.6306
 5198SOL     OW27055   3.258   3.614  13.983 -0.4360 -0.1720 -0.4883
 5198SOL    HW127056   3.350   3.589  13.991 -0.7187 -0.4349  1.9105
 5198SOL    HW227057   3.232   3.612  14.075  0.9211 -0.0638 -0.1046
 5199SOL     OW27058   0.795   2.790   8.114  0.1565  0.1800 -0.0506
 5199SOL    HW127059   0.886   2.818   8.127  0.4135 -0.2482 -0.9456
 5199SOL    HW227060   0.751   2.813   8.196  0.1037 -1.5260  0.3890
 5200SOL     OW27061   3.864   4.257   2.348  0.1607 -0.2362  0.2317
 5200SOL    HW127062   3.812   4.337   2.354 -0.7889 -0.7133 -1.7805
 5200SOL    HW227063   3.849   4.231   2.439  1.8477  0.2129  0.6372
 5201SOL     OW27064   4.016   1.332   5.476  0.0395 -0.1198  0.4821
 5201SOL    HW127065   4.007   1.306   5.384 -0.8771 -0.9257  0.7993
 5201SOL    HW227066   3.923   1.345   5.493 -0.1599 -0.3557 -0.4175
 5202SOL     OW27067   0.755   4.055   2.812  0.3217  0.1861  0.5163
 5202SOL    HW127068   0.819   4.080   2.879  0.6922 -0.2825  0.3371
 5202SOL    HW227069   0.817   4.038   2.741  0.6889  0.4253  0.7790
 5203SOL     OW27070   1.559   1.500   7.214  0.3356  0.0337  0.1980
 5203SOL    HW127071   1.546   1.413   7.253 -0.5683 -1.0570 -2.5348
 5203SOL    HW227072   1.654   1.507   7.223  0.6218 -2.4394 -1.0111
 5204SOL     OW27073   3.174   3.119  15.466 -0.3399  0.4376 -0.0218
 5204SOL    HW127074   3.251   3.077  15.504  0.7163  2.0677 -0.3873
 5204SOL    HW227075   3.181   3.100  15.373  0.1202  0.5987 -0.0167
 5205SOL     OW27076   3.818   3.755   1.484  0.4192 -0.1224 -0.7820
 5205SOL    HW127077   3.788   3.752   1.575 -0.5574  0.1223 -1.0904
 5205SOL    HW227078   3.774   3.835   1.454 -0.4113  0.4104  1.8358
 5206SOL     OW27079   0.745   0.520  13.366 -0.4674 -0.1047  0.0752
 5206SOL    HW127080   0.662   0.487  13.400  0.8342 -3.4173  0.1263
 5206SOL    HW227081   0.773   0.552  13.452  0.1875  1.1708 -0.6135
 5207SOL     OW27082   4.626   2.696   2.000 -1.0043 -0.3823  0.0414
 5207SOL    HW127083   4.587   2.619   2.041 -0.7957  0.3945  1.6932
 5207SOL    HW227084   4.558   2.754   2.034 -0.7069  0.9798 -1.6768
 5208SOL     OW27085   3.170   0.752   4.841 -0.1994  0.0184  0.1080
 5208SOL    HW127086   3.091   0.804   4.850 -0.0861  0.1813  0.1680
 5208SOL    HW227087   3.223   0.793   4.773  0.4976 -0.7117  0.2060
 5209SOL     OW27088   4.716   3.942  17.041 -0.3630 -0.1154  0.4199
 5209SOL    HW127089   4.654   3.956  17.112 -0.4206 -1.3317  0.5998
 5209SOL    HW227090   4.672   3.863  17.011  0.1249 -0.7106  1.2844
 5210SOL     OW27091   1.923   4.149   8.281 -0.0324 -0.4547 -0.0134
 5210SOL    HW127092   1.887   4.153   8.369 -1.6665  1.4828 -0.7521
 5210SOL    HW227093   1.917   4.057   8.258  0.6205 -1.2279  2.9621
 5211SOL     OW27094   2.556   3.942   2.073 -0.0860  0.2870  0.0746
 5211SOL    HW127095   2.481   3.947   2.133 -1.3958 -1.7351 -1.3966
 5211SOL    HW227096   2.602   3.860   2.093 -0.3082  0.0864 -0.2350
 5212SOL     OW27097   0.197   1.564   3.038 -0.1184 -0.1822  0.2805
 5212SOL    HW127098   0.222   1.620   2.965 -1.6919  0.9863  0.6246
 5212SOL    HW227099   0.175   1.480   2.998 -2.0553  1.3773 -1.9736
 5213SOL     OW27100   1.583   3.212   3.968 -0.8613  0.2638  0.0709
 5213SOL    HW127101   1.595   3.301   4.001 -0.3602 -0.2787  1.3452
 5213SOL    HW227102   1.511   3.230   3.907 -1.4680  1.8093  1.2463
 5214SOL     OW27103   1.688   4.068  10.026  0.2908  0.1502 -0.3276
 5214SOL    HW127104   1.640   4.033   9.951 -0.5087 -0.8703  0.6617
 5214SOL    HW227105   1.729   4.140   9.978 -0.0972  0.0507 -0.8082
 5215SOL     OW27106   1.028   3.127   5.645 -0.6476  0.2146 -0.0101
 5215SOL    HW127107   1.011   3.050   5.591 -0.5569  0.8807 -0.9889
 5215SOL    HW227108   1.122   3.108   5.654 -0.3905  1.7042  0.5277
 5216SOL     OW27109   0.356   3.101   0.583  0.1088  0.3559  0.1506
 5216SOL    HW127110   0.292   3.062   0.643 -0.1297 -1.9347 -1.6038
 5216SOL    HW227111   0.301   3.117   0.507  0.1859 -2.1064 -0.4142
 5217SOL     OW27112   0.043   0.250   8.926  0.2346 -0.1394 -0.0729
 5217SOL    HW127113   4.691   0.189   8.937 -0.2917  0.3449 -0.8786
 5217SOL    HW227114   0.036   0.303   9.006 -1.3614  1.3145 -1.1821
 5218SOL     OW27115   4.706   0.762   6.157 -0.3306 -0.5390 -0.0699
 5218SOL    HW127116   0.064   0.720   6.121  0.9980  1.6955  0.2305
 5218SOL    HW227117   4.654   0.690   6.192 -3.3005  0.3596 -2.6235
 5219SOL     OW27118   2.393   2.646   8.005  0.0860 -0.1528  0.1788
 5219SOL    HW127119   2.440   2.578   8.054 -2.6905 -0.7612  2.0299
 5219SOL    HW227120   2.442   2.728   8.013 -0.8778  0.3292  1.1902
 5220SOL     OW27121   3.233   2.908  11.656 -0.3523  0.6226 -0.2895
 5220SOL    HW127122   3.151   2.910  11.606 -1.1915 -0.1199  1.0555
 5220SOL    HW227123   3.247   2.814  11.660  3.8989  1.3427  1.3620
 5221SOL     OW27124   1.805   0.335   7.596  0.3234  0.0520 -0.4827
 5221SOL    HW127125   1.778   0.301   7.681  0.3382  1.1683 -0.0296
 5221SOL    HW227126   1.888   0.293   7.574  0.7497 -0.7127  2.5833
 5222SOL     OW27127   4.460   3.926  16.207  0.7248  0.3623 -0.1751
 5222SOL    HW127128   4.412   3.913  16.125 -0.5901  2.0023  0.3371
 5222SOL    HW227129   4.402   3.991  16.247 -0.1936 -1.4395  1.4052
 5223SOL     OW27130   3.416   3.229   7.846  0.2699  0.1277  0.7768
 5223SOL    HW127131   3.509   3.221   7.823  0.1354 -1.4971  0.8403
 5223SOL    HW227132   3.415   3.320   7.875 -1.5090 -0.2799  2.0052
 5224SOL     OW27133   0.314   3.267   8.518  0.1030  0.2773  0.0881
 5224SOL    HW127134   0.390   3.313   8.483  1.7981 -0.4986  2.7511
 5224SOL    HW227135   0.247   3.332   8.541 -0.1645  0.1912 -0.4346
 5225SOL     OW27136   3.506   0.936  17.215 -0.1914  1.0195 -0.1819
 5225SOL    HW127137   3.580   0.891  17.174  0.5890  0.5249  1.7509
 5225SOL    HW227138   3.518   0.914  17.308  2.7527 -0.4152 -0.9145
 5226SOL     OW27139   1.331   3.952  12.660  0.1584 -0.2135  0.2372
 5226SOL    HW127140   1.261   4.014  12.679  0.0485 -0.8837  1.9858
 5226SOL    HW227141   1.298   3.880  12.714 -0.0315  0.2704  0.7669
 5227SOL     OW27142   0.254   3.195  10.844 -0.2304  0.6239 -0.5333
 5227SOL    HW127143   0.205   3.167  10.767 -0.5475  1.0411 -0.4858
 5227SOL    HW227144   0.340   3.202  10.801 -0.4955  0.4772 -1.0886
 5228SOL     OW27145   0.372   0.718  13.304  0.0862 -0.1826 -0.6199
 5228SOL    HW127146   0.418   0.730  13.386 -0.9751  1.3950 -0.2666
 5228SOL    HW227147   0.283   0.737  13.332 -0.6685 -4.7253  0.1428
 5229SOL     OW27148   1.614   2.711   7.500  0.1136 -0.3552 -0.5052
 5229SOL    HW127149   1.535   2.740   7.545  0.7080 -0.2381  0.4758
 5229SOL    HW227150   1.595   2.722   7.407 -0.1263 -0.8875 -0.5166
 5230SOL     OW27151   1.573   1.176   2.321 -0.1191 -0.4551 -0.2039
 5230SOL    HW127152   1.484   1.145   2.308 -0.7068  0.9591  0.4408
 5230SOL    HW227153   1.595   1.172   2.228  1.6975  0.0840  0.1956
 5231SOL     OW27154   2.576   2.363   3.373  0.6755  0.4252  0.0876
 5231SOL    HW127155   2.585   2.275   3.408  1.3065  0.2495 -0.5198
 5231SOL    HW227156   2.481   2.365   3.368  0.6881 -2.2258 -1.0556
 5232SOL     OW27157   0.779   3.113  12.476  0.3101  0.6393  0.3705
 5232SOL    HW127158   0.804   3.068  12.556 -0.9460  0.8810  0.9033
 5232SOL    HW227159   0.705   3.060  12.445  1.2227 -1.4372  1.8103
 5233SOL     OW27160   0.154   4.113   7.084  0.0564 -0.0219 -0.0313
 5233SOL    HW127161   0.173   4.036   7.030 -0.8950  1.5756 -2.6374
 5233SOL    HW227162   0.144   4.071   7.170  1.9382  1.4123  0.8830
 5234SOL     OW27163   2.098   0.139  14.850 -0.1835  0.4236  0.1984
 5234SOL    HW127164   2.171   0.200  14.865  1.6386 -1.5053 -0.9471
 5234SOL    HW227165   2.071   0.113  14.939 -0.3470 -1.4565 -0.4182
 5235SOL     OW27166   3.927   3.531  11.765 -0.3901  0.3256 -0.3763
 5235SOL    HW127167   3.842   3.498  11.736 -0.0263 -2.1089  1.2332
 5235SOL    HW227168   3.913   3.533  11.860 -0.0291 -1.1243 -0.2953
 5236SOL     OW27169   1.074   2.014   1.540  1.1047  0.2687  0.5722
 5236SOL    HW127170   1.160   2.006   1.583  0.6499 -1.0992  1.2205
 5236SOL    HW227171   1.078   2.096   1.491  0.8510 -0.6912 -1.0281
 5237SOL     OW27172   1.809   3.735   3.144  0.3700  0.3411  0.3052
 5237SOL    HW127173   1.837   3.826   3.144  2.2965 -0.2471  0.5668
 5237SOL    HW227174   1.714   3.732   3.144  0.4214 -1.6100  1.4606
 5238SOL     OW27175   1.999   2.544  12.063  0.0795  0.1206  0.1829
 5238SOL    HW127176   2.084   2.502  12.050 -0.2297 -0.3125 -0.4395
 5238SOL    HW227177   1.995   2.607  11.992 -0.2974 -0.8957 -0.6998
 5239SOL     OW27178   0.096   1.831   6.478  0.1938  0.1113  0.2624
 5239SOL    HW127179   0.139   1.890   6.416  0.6745 -1.1574 -0.6214
 5239SOL    HW227180   0.008   1.866   6.464 -0.3768 -1.0000  1.0881
 5240SOL     OW27181   2.380   4.497   7.652  0.2840 -0.0109  0.1273
 5240SOL    HW127182   2.395   4.409   7.618  1.8088 -0.2522  1.4468
 5240SOL    HW227183   2.369   4.539   7.566  2.0717 -1.4729 -0.8229
 5241SOL     OW27184   0.464   1.677  14.021 -0.1031 -0.4177 -0.2948
 5241SOL    HW127185   0.478   1.769  14.046  1.2591 -1.2121  1.7962
 5241SOL    HW227186   0.523   1.675  13.945  0.2090 -1.1723 -0.0341
 5242SOL     OW27187   3.624   3.085  10.651 -0.3665  0.0262 -0.2934
 5242SOL    HW127188   3.640   3.009  10.707 -1.1138  0.6014  0.7073
 5242SOL    HW227189   3.712   3.121  10.663 -0.6665  0.4606  0.6226
 5243SOL     OW27190   3.953   2.339   6.634 -0.0589  0.0769 -0.1925
 5243SOL    HW127191   3.999   2.369   6.556  1.5021  0.0275  0.7152
 5243SOL    HW227192   3.890   2.410   6.648  0.8846  0.8011  0.3427
 5244SOL     OW27193   2.949   0.524   2.631 -0.0042  0.1945  0.0674
 5244SOL    HW127194   3.035   0.530   2.589  1.6353 -2.6100  2.9867
 5244SOL    HW227195   2.904   0.478   2.559  0.9619 -0.5369 -0.0766
 5245SOL     OW27196   4.523   1.373  13.309  0.0113  0.0946  0.0751
 5245SOL    HW127197   4.579   1.353  13.234 -1.4225 -0.6832 -0.7813
 5245SOL    HW227198   4.488   1.289  13.335 -0.9993  0.5132  0.0732
 5246SOL     OW27199   3.905   3.879   0.429  0.2677 -0.0335 -0.7529
 5246SOL    HW127200   3.921   3.945   0.361 -1.7150  0.9863 -0.2254
 5246SOL    HW227201   3.862   3.924   0.502  1.8448 -0.8353  0.6806
 5247SOL     OW27202   3.842   1.110  14.974 -0.1054  0.4938 -0.2814
 5247SOL    HW127203   3.800   1.091  14.891  1.6269  0.5065 -1.1578
 5247SOL    HW227204   3.890   1.190  14.951  0.6609 -0.2450 -1.2307
 5248SOL     OW27205   4.343   4.699   1.223  0.6165 -0.7056  0.2310
 5248SOL    HW127206   4.353   0.014   1.135 -0.4780 -3.3109 -0.9627
 5248SOL    HW227207   4.337   4.604   1.212  2.4484 -1.0758  2.5071
 5249SOL     OW27208   1.101   3.801  14.940  0.6360  0.3883  0.0478
 5249SOL    HW127209   1.014   3.790  14.900  0.2768  0.8159  0.6955
 5249SOL    HW227210   1.114   3.890  14.909  1.9489 -0.5284 -1.9991
 5250SOL     OW27211   3.188   1.378   3.120  0.3187  0.3006 -0.4031
 5250SOL    HW127212   3.282   1.363   3.125  0.5182  1.3746 -0.8758
 5250SOL    HW227213   3.173   1.339   3.033 -2.8047  0.2989  0.1522
 5251SOL     OW27214   0.948   3.675   3.728 -0.2608  0.2881  0.4122
 5251SOL    HW127215   0.992   3.758   3.712 -0.4988  0.2305 -0.5173
 5251SOL    HW227216   0.872   3.700   3.781  0.6563  2.0079  0.9097
 5252SOL     OW27217   0.703   2.243  16.098 -0.0342  0.1899  0.4816
 5252SOL    HW127218   0.646   2.318  16.082  0.1836  0.4089  0.7258
 5252SOL    HW227219   0.688   2.188  16.021 -1.2839 -0.7601  1.3899
 5253SOL     OW27220   2.900   3.187   1.900  0.1958 -0.3508  0.2280
 5253SOL    HW127221   2.886   3.113   1.958 -0.2047 -2.2019 -2.2359
 5253SOL    HW227222   2.821   3.234   1.926  1.8030  2.5553 -0.0621
 5254SOL     OW27223   1.954   1.238  12.364 -0.3397 -0.3997 -0.2689
 5254SOL    HW127224   1.938   1.249  12.457 -1.8981 -0.8452 -0.4890
 5254SOL    HW227225   1.864   1.251  12.335 -0.8527 -0.2300  1.3941
 5255SOL     OW27226   1.780   2.414   0.399 -0.1030  0.6434 -0.1624
 5255SOL    HW127227   1.724   2.399   0.475 -2.0996  1.0459 -1.5518
 5255SOL    HW227228   1.787   2.509   0.387 -0.1151  0.7259  0.5018
 5256SOL     OW27229   1.753   4.266   4.877  0.0640 -0.1846  0.2551
 5256SOL    HW127230   1.756   4.326   4.951  2.3310 -1.6770  1.3703
 5256SOL    HW227231   1.661   4.241   4.864 -0.4304  1.1343  1.2917
 5257SOL     OW27232   4.065   1.455  10.878 -0.5163  0.3633  0.0371
 5257SOL    HW127233   4.109   1.475  10.961  1.9622 -0.2421 -1.1243
 5257SOL    HW227234   4.051   1.546  10.855  2.6223  0.9991  0.6548
 5258SOL     OW27235   4.157   0.087   3.703 -1.0645  0.1302  0.5156
 5258SOL    HW127236   4.087   0.068   3.766  0.4525 -0.0990  2.1372
 5258SOL    HW227237   4.194   4.719   3.700 -2.5592 -0.4326 -0.9596
 5259SOL     OW27238   3.160   4.599   4.979 -0.1607  0.2627 -0.3647
 5259SOL    HW127239   3.112   4.530   4.934  1.5657  0.1364 -2.0088
 5259SOL    HW227240   3.090   4.657   5.011 -0.1741 -0.6691  1.3095
 5260SOL     OW27241   3.534   2.294   0.992  0.2315 -0.1219 -0.2327
 5260SOL    HW127242   3.616   2.245   0.989 -0.6090 -1.4394 -1.5274
 5260SOL    HW227243   3.555   2.383   0.964  3.6875 -1.9134 -3.2574
 5261SOL     OW27244   2.003   1.252   3.376 -0.2649  0.1739 -0.7092
 5261SOL    HW127245   2.037   1.287   3.458 -3.6189  2.9377 -0.5255
 5261SOL    HW227246   2.076   1.281   3.321  1.2032 -0.4825  0.8747
 5262SOL     OW27247   1.592   0.060   3.797 -0.1906 -0.0238 -0.2927
 5262SOL    HW127248   1.599   0.146   3.838  1.0725  1.8508 -4.4205
 5262SOL    HW227249   1.561   0.071   3.707  0.0013  0.3643 -0.3080
 5263SOL     OW27250   4.392   0.256   8.667  0.3097  0.4630 -0.5237
 5263SOL    HW127251   4.454   0.211   8.611  2.1947  1.3962  0.8314
 5263SOL    HW227252   4.320   0.247   8.604 -0.2116  0.2050  0.1065
 5264SOL     OW27253   4.420   1.246  13.857  0.2798 -0.0960 -0.0827
 5264SOL    HW127254   4.472   1.243  13.937 -0.9343  0.5778  0.7270
 5264SOL    HW227255   4.479   1.305  13.810  3.2097 -2.1817  0.9823
 5265SOL     OW27256   1.332   3.575   2.208 -1.0309  0.0353 -0.3658
 5265SOL    HW127257   1.263   3.641   2.203 -0.8447  0.3250  0.9496
 5265SOL    HW227258   1.351   3.569   2.114 -1.8237 -1.7669 -0.3957
 5266SOL     OW27259   1.683   1.819   2.150 -0.2580 -0.4206 -0.1395
 5266SOL    HW127260   1.597   1.861   2.148 -0.0640 -0.0061  0.2303
 5266SOL    HW227261   1.670   1.729   2.179  1.0351 -0.4445  0.3456
 5267SOL     OW27262   0.124   2.454   6.490 -0.1155  0.0860  0.0047
 5267SOL    HW127263   0.111   2.362   6.465  0.6115 -0.3226  1.1416
 5267SOL    HW227264   0.072   2.483   6.416 -1.7423 -0.3097  0.9812
 5268SOL     OW27265   3.659   0.452   2.445  0.0639  0.3907  0.6986
 5268SOL    HW127266   3.730   0.390   2.427  1.0661  2.1140 -1.2150
 5268SOL    HW227267   3.628   0.470   2.357  1.3025  1.9107  0.5670
 5269SOL     OW27268   3.459   3.097   4.309  0.1647 -0.7958  0.2042
 5269SOL    HW127269   3.543   3.106   4.264 -1.2989  1.0845 -2.1088
 5269SOL    HW227270   3.406   3.060   4.240  0.0696 -2.0824  0.9717
 5270SOL     OW27271   0.730   0.943   3.300 -0.3011  0.2106 -0.0966
 5270SOL    HW127272   0.717   0.873   3.365  0.3160 -1.6338 -1.9747
 5270SOL    HW227273   0.661   0.923   3.237 -0.4558 -3.2419  1.1398
 5271SOL     OW27274   3.919   2.537  16.182 -0.4140 -0.8089 -0.1680
 5271SOL    HW127275   3.894   2.447  16.162 -2.6808 -0.7773  2.6018
 5271SOL    HW227276   3.835   2.579  16.200  0.8890  1.4411  0.6582
 5272SOL     OW27277   2.282   3.297   8.070  0.2332 -0.3870  0.1439
 5272SOL    HW127278   2.314   3.229   8.129 -2.4438 -1.4582  0.3542
 5272SOL    HW227279   2.202   3.319   8.118  0.7869  0.8373  0.5186
 5273SOL     OW27280   0.991   0.284   6.952 -0.4242  0.3699  0.3226
 5273SOL    HW127281   1.040   0.365   6.964 -0.3154  0.1966  0.9961
 5273SOL    HW227282   1.034   0.217   7.005 -0.9058  0.0065  0.2605
 5274SOL     OW27283   1.269   2.517   3.611  0.6452 -0.8298 -0.5545
 5274SOL    HW127284   1.238   2.476   3.530 -1.0786  1.0110 -0.8390
 5274SOL    HW227285   1.213   2.593   3.596  1.8337  0.4326  1.4414
 5275SOL     OW27286   3.958   2.500  15.274  0.4318 -0.5050 -0.4534
 5275SOL    HW127287   3.992   2.448  15.347  1.0125 -0.3084 -0.5876
 5275SOL    HW227288   4.000   2.449  15.205  1.4387 -0.2249 -0.0487
 5276SOL     OW27289   1.906   4.377   9.446  0.5065  0.2045  0.2854
 5276SOL    HW127290   1.864   4.407   9.527  0.6860 -0.3691  0.5902
 5276SOL    HW227291   1.999   4.369   9.468  0.5967 -0.5324 -0.3500
 5277SOL     OW27292   1.666   4.466   3.009 -0.3781  0.1874  0.5644
 5277SOL    HW127293   1.667   4.381   2.965  0.8891 -0.2107  1.3574
 5277SOL    HW227294   1.584   4.465   3.059 -0.6042  1.6104  0.2239
 5278SOL     OW27295   0.886   2.244   5.513  0.3560 -0.1772  0.1620
 5278SOL    HW127296   0.930   2.161   5.499 -1.0095 -0.6399 -1.3781
 5278SOL    HW227297   0.959   2.298   5.484 -0.7337  1.2518  0.0797
 5279SOL     OW27298   4.219   4.254  10.565 -0.3949  0.2869 -0.7653
 5279SOL    HW127299   4.278   4.185  10.535 -1.1078 -0.5401 -0.2854
 5279SOL    HW227300   4.241   4.241  10.657 -0.6225  0.3555 -0.7010
 5280SOL     OW27301   1.463   4.074   3.743 -0.9260  0.4370  0.0932
 5280SOL    HW127302   1.407   4.141   3.704 -2.2753 -1.1131 -0.5810
 5280SOL    HW227303   1.529   4.134   3.779 -3.1389  1.0540  3.1156
 5281SOL     OW27304   3.631   4.177   3.805 -0.1096  0.7824 -0.3623
 5281SOL    HW127305   3.673   4.223   3.732 -0.8831 -2.7503 -3.0397
 5281SOL    HW227306   3.664   4.232   3.876  2.2753 -0.0486 -0.8170
 5282SOL     OW27307   0.815   4.370  12.984 -0.0287  0.4024  0.3208
 5282SOL    HW127308   0.809   4.411  12.897 -0.4618 -0.2238  0.0621
 5282SOL    HW227309   0.727   4.335  12.992  0.3898 -0.1745  2.3158
 5283SOL     OW27310   4.201   3.948  14.732  0.4435 -0.0234  0.1865
 5283SOL    HW127311   4.196   3.895  14.812  1.9924  1.2781  1.1435
 5283SOL    HW227312   4.162   4.030  14.763 -0.9053 -0.9638  0.9689
 5284SOL     OW27313   3.635   2.435  10.008  0.2441  0.0198  0.3405
 5284SOL    HW127314   3.617   2.351   9.965 -0.1538 -0.0176  0.5767
 5284SOL    HW227315   3.552   2.482   9.999 -0.5673 -1.3834  0.5546
 5285SOL     OW27316   4.065   2.508  16.876  0.7395 -0.4418 -0.2195
 5285SOL    HW127317   4.052   2.546  16.789 -2.6818  0.0544  0.4996
 5285SOL    HW227318   3.972   2.511  16.895  0.5254 -1.6615 -1.0192
 5286SOL     OW27319   3.638   1.749  13.870 -0.4610 -0.2731 -0.0180
 5286SOL    HW127320   3.599   1.665  13.892 -2.2410  0.6635  0.4237
 5286SOL    HW227321   3.562   1.805  13.889 -0.3436 -0.5564  1.3057
 5287SOL     OW27322   1.620   0.117  16.489  0.2505 -0.1386 -0.4739
 5287SOL    HW127323   1.566   0.054  16.442 -0.3831  0.5284 -0.6426
 5287SOL    HW227324   1.692   0.059  16.514  1.2106  1.0939 -0.3955
 5288SOL     OW27325   0.379   1.170   6.499  0.2764 -0.0910  0.0049
 5288SOL    HW127326   0.373   1.091   6.445 -2.9912 -0.3168  0.6859
 5288SOL    HW227327   0.325   1.142   6.573 -1.0707  1.6168 -0.3406
 5289SOL     OW27328   1.001   0.328   6.173  0.3606  0.1110  0.0207
 5289SOL    HW127329   0.953   0.252   6.141  2.2246 -1.7652  1.7071
 5289SOL    HW227330   1.090   0.320   6.138  0.9741  0.8716  1.4284
 5290SOL     OW27331   4.505   2.055  15.278 -0.3422 -0.2112 -0.2546
 5290SOL    HW127332   4.528   2.094  15.362  2.0925 -0.6352 -0.7242
 5290SOL    HW227333   4.580   2.094  15.233  0.4783 -1.2948  0.1754
 5291SOL     OW27334   0.842   1.446   7.699  0.4210 -0.1065 -0.1104
 5291SOL    HW127335   0.785   1.372   7.676 -1.7463  1.3121  0.6775
 5291SOL    HW227336   0.888   1.412   7.776 -0.8047  2.9264  1.9451
 5292SOL     OW27337   3.000   0.648   6.560  0.1083 -0.0501 -0.4033
 5292SOL    HW127338   3.075   0.658   6.619  1.5831  1.0167 -2.4646
 5292SOL    HW227339   2.936   0.698   6.612  0.0959 -0.7563  0.2681
 5293SOL     OW27340   0.933   1.781  14.392 -0.2530  0.0134  0.6314
 5293SOL    HW127341   0.913   1.820  14.477 -0.8787 -1.2723  1.0790
 5293SOL    HW227342   0.936   1.687  14.411  0.4066  0.0307  0.6238
 5294SOL     OW27343   2.996   1.975  10.061  0.3937 -0.1662  0.7502
 5294SOL    HW127344   2.991   2.010   9.972 -0.2948 -0.5866  0.6203
 5294SOL    HW227345   3.074   2.022  10.092  0.1904  0.5227  0.2255
 5295SOL     OW27346   0.323   4.562   9.030  0.0080 -0.0442  0.3780
 5295SOL    HW127347   0.418   4.556   9.039  0.4020  3.3772 -1.5191
 5295SOL    HW227348   0.305   4.637   9.086 -0.1725  2.7329 -3.4261
 5296SOL     OW27349   1.797   1.378  13.298  0.0938 -0.0256  0.0584
 5296SOL    HW127350   1.728   1.388  13.362  1.2030  2.3221  0.8959
 5296SOL    HW227351   1.757   1.419  13.221 -1.8130 -1.8305  0.1012
 5297SOL     OW27352   2.442   3.674   8.957 -0.3775 -0.8304  0.7357
 5297SOL    HW127353   2.519   3.681   9.014 -0.2828  0.5078  0.4397
 5297SOL    HW227354   2.441   3.763   8.920  1.0580 -1.1803 -0.1584
 5298SOL     OW27355   2.533   1.057   1.835  0.0632 -0.0720  0.3354
 5298SOL    HW127356   2.481   1.049   1.755 -0.6610  0.0077  0.7894
 5298SOL    HW227357   2.557   0.965   1.836  2.0894  0.4723  1.7831
 5299SOL     OW27358   2.231   0.181   8.069  0.2550  0.1084 -0.3768
 5299SOL    HW127359   2.243   0.255   8.128 -0.7827  0.4202 -0.5476
 5299SOL    HW227360   2.301   0.204   8.008 -1.3333  0.9906 -1.8600
 5300SOL     OW27361   3.057   3.719  14.435  0.0266  0.0041 -0.0580
 5300SOL    HW127362   3.069   3.809  14.465 -4.4932  0.6659 -0.1549
 5300SOL    HW227363   3.143   3.703  14.396  0.8308 -1.9810  2.5661
 5301SOL     OW27364   1.389   0.455   4.267  0.7416 -0.1623  0.5420
 5301SOL    HW127365   1.294   0.465   4.257  1.0124  0.1826 -1.6551
 5301SOL    HW227366   1.412   0.408   4.186 -1.7630  0.9841 -0.8330
 5302SOL     OW27367   2.978   2.043   6.212 -0.0766  0.2890  0.6198
 5302SOL    HW127368   2.917   1.993   6.159 -0.2572  0.1943  0.9179
 5302SOL    HW227369   3.054   2.054   6.154 -0.1237 -1.0676  0.2986
 5303SOL     OW27370   4.291   3.705   5.007  0.3355 -0.0975  0.5016
 5303SOL    HW127371   4.354   3.741   5.069  4.5451 -4.0958 -1.4811
 5303SOL    HW227372   4.339   3.645   4.951 -0.0480 -1.1034  1.2474
 5304SOL     OW27373   2.686   0.509   3.955  0.7244 -0.4559 -0.5910
 5304SOL    HW127374   2.739   0.468   4.023  0.5041  0.4236  0.1105
 5304SOL    HW227375   2.731   0.593   3.961 -1.1695  0.5631 -0.7105
 5305SOL     OW27376   4.677   4.325  14.356  0.2298 -0.2427 -0.1676
 5305SOL    HW127377   0.029   4.306  14.297  0.0223 -0.0608 -0.4787
 5305SOL    HW227378   4.606   4.312  14.294  1.1133 -1.1354 -0.9961
 5306SOL     OW27379   0.199   0.368   5.916  0.5470 -0.0688  0.3068
 5306SOL    HW127380   0.252   0.347   5.994  1.2237  0.5789  0.0186
 5306SOL    HW227381   0.116   0.327   5.940  1.4357 -1.6452  0.7668
 5307SOL     OW27382   3.647   2.558   0.149  0.4932  0.4488 -0.2542
 5307SOL    HW127383   3.566   2.524   0.186  1.1346 -0.0498  0.7098
 5307SOL    HW227384   3.708   2.500   0.195  0.1838  2.0896  2.2423
 5308SOL     OW27385   3.204   2.979   5.425  0.1861  0.0773 -0.4814
 5308SOL    HW127386   3.179   3.066   5.394 -1.3490  0.2025  1.1040
 5308SOL    HW227387   3.226   2.995   5.517  0.3880 -1.4148 -0.2611
 5309SOL     OW27388   2.447   2.278   6.354 -0.1031 -0.1510  0.1285
 5309SOL    HW127389   2.396   2.322   6.422  1.3690  1.0138  0.4754
 5309SOL    HW227390   2.387   2.212   6.318 -1.6825  0.5748  1.4588
 5310SOL     OW27391   0.672   1.726   4.495 -0.0183 -0.6304 -0.6718
 5310SOL    HW127392   0.585   1.758   4.472  0.3615 -0.5484 -2.0209
 5310SOL    HW227393   0.668   1.705   4.588  0.1631 -0.6342 -0.6634
 5311SOL     OW27394   4.483   1.627  17.174 -0.7144  0.5238  0.1996
 5311SOL    HW127395   4.511   1.692  17.110  0.1458  0.3386  0.3904
 5311SOL    HW227396   4.389   1.645  17.181 -1.3708 -2.9521  0.3863
 5312SOL     OW27397   3.830   1.088   4.130 -0.2661 -0.1940 -0.6115
 5312SOL    HW127398   3.817   1.182   4.137 -0.3935 -0.1371 -1.5712
 5312SOL    HW227399   3.888   1.089   4.054  1.2580 -0.1108  0.5716
 5313SOL     OW27400   3.026   1.083   2.705  0.0372  0.1246  0.1188
 5313SOL    HW127401   2.944   1.036   2.690  1.9308 -2.2302 -2.7526
 5313SOL    HW227402   3.073   1.021   2.761 -1.5599 -1.1117  0.0972
 5314SOL     OW27403   2.788   2.012   3.297  0.1160 -0.3148  0.9158
 5314SOL    HW127404   2.854   1.994   3.364  1.7177  0.4773 -0.4308
 5314SOL    HW227405   2.709   2.024   3.349 -0.2223  0.0820  0.3133
 5315SOL     OW27406   2.744   0.586   6.336  0.1609 -0.1654  0.4153
 5315SOL    HW127407   2.754   0.505   6.285  1.6843 -1.2704  2.4848
 5315SOL    HW227408   2.696   0.634   6.268 -0.5391 -1.2610  0.1337
 5316SOL     OW27409   3.950   4.686   5.107  0.7720 -0.4754  0.0307
 5316SOL    HW127410   3.858   4.669   5.088  1.1734 -0.5330 -1.9022
 5316SOL    HW227411   3.937   0.026   5.179 -0.7896  0.3640 -0.9475
 5317SOL     OW27412   1.217   1.398   8.809  0.1099  0.7362  0.5519
 5317SOL    HW127413   1.125   1.371   8.809  1.4619 -3.7828  0.2892
 5317SOL    HW227414   1.251   1.341   8.740 -2.4981 -0.8512  0.5627
 5318SOL     OW27415   2.136   1.643   9.401 -0.6753  0.0094 -0.2379
 5318SOL    HW127416   2.191   1.712   9.440 -1.9360 -0.6572  2.7522
 5318SOL    HW227417   2.123   1.683   9.315  0.4257 -1.7656 -1.2134
 5319SOL     OW27418   3.547   0.517   3.017  0.7312 -0.2009 -0.5495
 5319SOL    HW127419   3.502   0.519   2.932 -1.5109 -0.4281  0.6543
 5319SOL    HW227420   3.615   0.452   2.996  2.3123  1.0898  0.5553
 5320SOL     OW27421   0.166   4.386  14.727  0.0914  0.1057  0.6463
 5320SOL    HW127422   0.086   4.415  14.683  0.2908  0.8322  0.7682
 5320SOL    HW227423   0.184   4.438  14.805  1.9498  0.6685 -0.1441
 5321SOL     OW27424   3.460   0.999   5.771  0.1160  0.5775  0.2949
 5321SOL    HW127425   3.430   1.038   5.689 -0.1758 -0.0154  0.1246
 5321SOL    HW227426   3.480   1.075   5.826  0.9652  0.0696  0.6913
 5322SOL     OW27427   0.974   1.420   2.503 -0.2590  0.0491 -0.0088
 5322SOL    HW127428   1.035   1.465   2.444  2.7772 -1.6676  1.8285
 5322SOL    HW227429   0.993   1.331   2.473  0.4788  0.4094 -0.6130
 5323SOL     OW27430   2.878   0.284   8.176  0.0279  0.0239 -0.0903
 5323SOL    HW127431   2.947   0.264   8.113  0.7133  2.8074 -0.2184
 5323SOL    HW227432   2.911   0.245   8.257 -1.6850  1.7662  1.4538
 5324SOL     OW27433   0.353   3.645  10.338 -0.4829  0.2552 -0.1734
 5324SOL    HW127434   0.430   3.690  10.373  1.5884 -2.2897 -1.5741
 5324SOL    HW227435   0.378   3.633  10.247 -0.6681 -1.5993  0.0331
 5325SOL     OW27436   2.320   2.389   6.560  0.7066  0.5323 -0.2334
 5325SOL    HW127437   2.364   2.412   6.641 -1.2149 -0.1894  1.0298
 5325SOL    HW227438   2.340   2.468   6.509  0.8674  0.8912  0.3860
 5326SOL     OW27439   2.391   3.203   6.052  0.0483 -0.6808  0.0103
 5326SOL    HW127440   2.485   3.211   6.036  0.7279 -1.4267  3.5803
 5326SOL    HW227441   2.380   3.109   6.065  3.0552 -0.7533  2.1045
 5327SOL     OW27442   0.599   4.636  14.108 -0.3904 -0.1554 -0.0317
 5327SOL    HW127443   0.639   4.720  14.131 -0.5452 -0.4220  1.2103
 5327SOL    HW227444   0.547   4.666  14.033  0.6947  0.0643 -0.6999
 5328SOL     OW27445   0.509   3.246   9.772 -0.2451  0.4932 -0.7307
 5328SOL    HW127446   0.602   3.259   9.753  0.2275 -0.1148  1.2303
 5328SOL    HW227447   0.512   3.191   9.850 -5.5218  1.0959 -0.1464
 5329SOL     OW27448   0.694   4.080  13.067  0.5282 -0.1452  0.4540
 5329SOL    HW127449   0.674   4.036  13.149 -0.3515  0.9661  0.8327
 5329SOL    HW227450   0.627   4.148  13.071  0.0697 -0.7719  3.2532
 5330SOL     OW27451   1.150   0.087   7.075  0.2969 -0.3108  0.2682
 5330SOL    HW127452   1.084   0.020   7.059 -1.5868  1.2241  1.5605
 5330SOL    HW227453   1.162   0.079   7.170 -2.4044  2.1245  0.8318
 5331SOL     OW27454   2.968   4.022  16.602 -0.3123 -0.5228 -0.5513
 5331SOL    HW127455   3.038   3.958  16.613 -0.8885 -0.9488  0.5846
 5331SOL    HW227456   2.985   4.083  16.674  0.0643 -0.5026 -0.6548
 5332SOL     OW27457   1.874   1.668  11.262  0.5082  0.5384  0.0596
 5332SOL    HW127458   1.783   1.643  11.245  1.4207 -2.0708 -0.9064
 5332SOL    HW227459   1.903   1.677  11.171  0.3429 -3.4086 -0.3736
 5333SOL     OW27460   3.842   0.222  17.485  0.1173  0.1540 -0.0322
 5333SOL    HW127461   3.846   0.234  17.390  1.5962  1.4169  0.1864
 5333SOL    HW227462   3.933   0.237  17.511  0.0797  0.6037 -0.1710
 5334SOL     OW27463   2.064   3.131   0.620 -0.6429  0.4326  0.2888
 5334SOL    HW127464   2.130   3.170   0.678  0.6534  0.3379 -1.0970
 5334SOL    HW227465   1.988   3.138   0.677  1.2177  0.3995  2.7371
 5335SOL     OW27466   4.646   4.407  17.229 -0.0501 -0.0948  0.3926
 5335SOL    HW127467   4.565   4.442  17.267 -0.0143  0.0780  0.3057
 5335SOL    HW227468   4.614   4.322  17.199  4.1463 -1.1519 -1.0567
 5336SOL     OW27469   1.803   0.102   3.023  0.5669  0.3077 -0.1859
 5336SOL    HW127470   1.842   0.116   3.109 -2.4332  0.6701  1.0868
 5336SOL    HW227471   1.761   0.187   3.012 -1.6114 -0.9601 -1.8008
 5337SOL     OW27472   0.737   3.703   3.913  0.1653  0.0159 -0.1372
 5337SOL    HW127473   0.688   3.706   3.830  0.0454 -0.5548 -0.0905
 5337SOL    HW227474   0.672   3.662   3.970 -1.0038  0.8977 -0.8125
 5338SOL     OW27475   0.831   4.576   2.880 -0.0920 -0.0178 -0.0019
 5338SOL    HW127476   0.810   4.587   2.787  1.7937  1.6509 -0.2297
 5338SOL    HW227477   0.841   4.482   2.893  2.6870  0.4119  0.9086
 5339SOL     OW27478   2.330   1.823   5.890  0.2384  0.5252  0.8617
 5339SOL    HW127479   2.316   1.840   5.983  0.8381 -2.2776  1.4776
 5339SOL    HW227480   2.406   1.870   5.857  0.2460 -0.6039 -0.7718
 5340SOL     OW27481   3.357   2.233   7.651 -0.6541  0.0916 -0.0913
 5340SOL    HW127482   3.379   2.152   7.696 -0.5047 -0.1284 -0.5621
 5340SOL    HW227483   3.419   2.236   7.577 -0.1981  1.3160  0.3305
 5341SOL     OW27484   2.623   0.841   3.795  0.5964  0.4583  0.5260
 5341SOL    HW127485   2.687   0.795   3.741 -1.6986 -1.2760 -0.7258
 5341SOL    HW227486   2.537   0.828   3.755  1.1631 -1.2055 -0.1379
 5342SOL     OW27487   3.843   3.452   5.295  0.4152  0.0508 -0.0274
 5342SOL    HW127488   3.842   3.538   5.254 -1.1532 -0.2347 -0.6016
 5342SOL    HW227489   3.892   3.388   5.243  0.3060  0.8850 -1.1698
 5343SOL     OW27490   0.282   3.027   8.210 -0.3848  0.1987  0.1861
 5343SOL    HW127491   0.231   2.947   8.198  2.4986 -1.0803 -3.2427
 5343SOL    HW227492   0.218   3.079   8.260  0.8485  1.7100  0.1784
 5344SOL     OW27493   3.761   0.907   7.188 -0.5636  0.1269  0.6290
 5344SOL    HW127494   3.713   0.976   7.142 -2.5682 -0.8867  1.1963
 5344SOL    HW227495   3.736   0.929   7.278 -0.4108 -2.9660  1.4260
 5345SOL     OW27496   3.712   0.588  14.528 -0.3620  0.0907  0.3253
 5345SOL    HW127497   3.743   0.665  14.479  1.7624  0.3191  1.9956
 5345SOL    HW227498   3.638   0.561  14.474  0.2560 -1.2300  0.1325
 5346SOL     OW27499   2.296   2.905   7.693  0.0038  0.1792 -0.2086
 5346SOL    HW127500   2.303   2.942   7.781  2.1928 -1.6626  0.3933
 5346SOL    HW227501   2.388   2.887   7.674  0.4926 -0.0699  2.4390
 5347SOL     OW27502   1.624   3.267   1.455 -0.4048 -0.2712  0.0254
 5347SOL    HW127503   1.576   3.247   1.374  1.1673 -1.2605 -0.6709
 5347SOL    HW227504   1.690   3.198   1.447 -0.2030 -0.3438  2.4419
 5348SOL     OW27505   3.210   2.623   3.080 -0.3492  0.0803  0.1860
 5348SOL    HW127506   3.119   2.642   3.060 -0.7330  0.8175  2.6362
 5348SOL    HW227507   3.251   2.680   3.015 -1.0437  1.1290  0.6692
 5349SOL     OW27508   4.678   1.789  15.497  0.6355  0.1785  0.0070
 5349SOL    HW127509   4.687   1.882  15.518  0.3260  0.5837 -1.6090
 5349SOL    HW227510   0.049   1.766  15.493  0.3521 -0.9083 -0.3460
 5350SOL     OW27511   1.432   4.542   3.664 -0.5474 -0.4789  0.4705
 5350SOL    HW127512   1.499   4.599   3.627 -2.5130 -0.0686 -2.4295
 5350SOL    HW227513   1.378   4.531   3.585 -0.7009  0.8724  0.3961
 5351SOL     OW27514   3.888   0.368   2.683 -0.1891 -0.1464 -0.3076
 5351SOL    HW127515   3.980   0.346   2.671 -0.6967 -2.8494  0.9811
 5351SOL    HW227516   3.854   0.355   2.594  1.7583  1.0523 -1.2357
 5352SOL     OW27517   1.783   1.428   3.798 -0.2151  0.1105 -0.6223
 5352SOL    HW127518   1.704   1.426   3.852  0.3350 -0.2630  0.1783
 5352SOL    HW227519   1.809   1.517   3.823  0.8184 -0.3968  0.0942
 5353SOL     OW27520   0.102   2.662   2.247 -0.3448 -0.0046 -0.1558
 5353SOL    HW127521   0.165   2.606   2.202 -1.5225 -0.1907 -1.5609
 5353SOL    HW227522   0.053   2.706   2.178  2.0769  1.3779 -0.9961
 5354SOL     OW27523   1.181   2.494  16.329 -0.0346  0.1167 -0.4183
 5354SOL    HW127524   1.270   2.470  16.356  0.0355 -0.9195 -1.5777
 5354SOL    HW227525   1.185   2.589  16.336 -2.7494  0.3070 -1.3718
 5355SOL     OW27526   2.489   0.158   4.576  0.4983  0.4212 -0.1956
 5355SOL    HW127527   2.542   0.097   4.525 -0.2579  0.0762 -0.5651
 5355SOL    HW227528   2.430   0.191   4.508 -0.5574  1.6981  1.3300
 5356SOL     OW27529   4.237   3.995   3.212  0.7234  1.0420  0.3648
 5356SOL    HW127530   4.239   4.084   3.248  2.4990  1.7895 -1.5389
 5356SOL    HW227531   4.291   3.995   3.133 -1.5785  0.2582 -1.1911
 5357SOL     OW27532   0.685   3.483   6.312  0.3459 -0.0611 -0.0096
 5357SOL    HW127533   0.654   3.404   6.357 -3.1449  1.0053 -0.4913
 5357SOL    HW227534   0.745   3.441   6.250  1.5067 -1.5180  2.1026
 5358SOL     OW27535   0.690   3.410   5.511 -0.4348  0.1199 -0.7618
 5358SOL    HW127536   0.703   3.341   5.576 -2.0613 -1.2645 -1.8872
 5358SOL    HW227537   0.634   3.463   5.568 -0.6458  0.5324 -1.3634
 5359SOL     OW27538   0.605   4.358   8.580  0.3715 -0.0224  0.1510
 5359SOL    HW127539   0.519   4.326   8.608  0.4454 -1.6769 -1.4782
 5359SOL    HW227540   0.607   4.425   8.648  0.9509 -0.8049  0.9127
 5360SOL     OW27541   4.039   2.011  12.780 -0.6056  1.0052  0.4239
 5360SOL    HW127542   4.035   1.917  12.797 -0.9888  0.4356 -2.7953
 5360SOL    HW227543   4.061   1.999  12.688 -0.3199  3.0665  0.2209
 5361SOL     OW27544   4.557   1.791   7.488 -0.6971 -0.1483  0.3965
 5361SOL    HW127545   4.489   1.812   7.552 -0.7670 -1.6319  0.8060
 5361SOL    HW227546   4.614   1.746   7.551 -0.3968 -1.3121 -0.7027
 5362SOL     OW27547   3.840   3.578   0.261 -0.1670 -0.0093 -0.0298
 5362SOL    HW127548   3.767   3.628   0.298 -0.0353 -1.5705  2.3187
 5362SOL    HW227549   3.859   3.521   0.335 -1.5271 -0.6706 -0.1998
 5363SOL     OW27550   2.348   0.928  10.510 -0.7171 -0.2305  0.0432
 5363SOL    HW127551   2.288   0.965  10.575  1.3059 -0.1632  1.8633
 5363SOL    HW227552   2.306   0.845  10.489 -0.5756  0.2004 -1.9647
 5364SOL     OW27553   0.502   1.736   6.123  0.1719  0.0929 -0.0477
 5364SOL    HW127554   0.596   1.721   6.112  0.2946  2.3951 -2.1209
 5364SOL    HW227555   0.503   1.829   6.145 -0.4020  0.2733 -0.7740
 5365SOL     OW27556   0.184   0.756   4.344  0.9004  0.2204  0.2397
 5365SOL    HW127557   0.248   0.687   4.325 -1.5097 -2.3823  1.5049
 5365SOL    HW227558   0.179   0.766   4.439  0.3844 -0.6407  0.3048
 5366SOL     OW27559   4.657   4.411   8.186  0.3059  0.1205  0.2629
 5366SOL    HW127560   4.595   4.405   8.260 -1.2108 -0.4898 -1.0598
 5366SOL    HW227561   0.017   4.441   8.226  0.4929 -0.8100  0.5778
 5367SOL     OW27562   3.091   2.357   7.438  0.2906 -0.4108 -0.6009
 5367SOL    HW127563   3.101   2.419   7.510 -0.3441 -1.2759  0.2294
 5367SOL    HW227564   3.051   2.408   7.368  1.2772  0.1589 -0.7472
 5368SOL     OW27565   0.026   2.363   3.230  0.0530  0.1091  0.1061
 5368SOL    HW127566   0.028   2.458   3.240  0.9008  0.1351 -0.2785
 5368SOL    HW227567   0.093   2.323   3.284 -1.1825 -2.8605 -0.5329
 5369SOL     OW27568   3.065   1.280   7.145  0.0890 -0.2228 -0.0108
 5369SOL    HW127569   3.089   1.367   7.115  1.0610 -0.7031 -0.6029
 5369SOL    HW227570   3.031   1.241   7.064 -1.7153 -0.2760  0.7535
 5370SOL     OW27571   0.764   3.017   8.601 -0.3413 -0.0132  0.3372
 5370SOL    HW127572   0.669   3.026   8.609 -0.3411  1.2687 -1.0624
 5370SOL    HW227573   0.774   2.922   8.613 -1.3284 -0.4051 -2.0219
 5371SOL     OW27574   4.419   2.467  14.124 -0.7877  0.2084 -0.2184
 5371SOL    HW127575   4.497   2.519  14.103 -2.0809  0.7215 -3.7521
 5371SOL    HW227576   4.383   2.441  14.040 -0.0549  1.6435 -0.9812
 5372SOL     OW27577   2.420   3.612  16.177 -0.1052 -0.3382 -0.0616
 5372SOL    HW127578   2.413   3.528  16.222 -1.8392 -0.7493 -1.1088
 5372SOL    HW227579   2.500   3.597  16.127  1.0352  0.1854  1.5961
 5373SOL     OW27580   3.978   2.629   7.944  0.3059  0.0639 -0.4630
 5373SOL    HW127581   4.000   2.635   7.851  1.2392  0.0905 -0.2379
 5373SOL    HW227582   3.892   2.586   7.941 -0.0500  0.7976 -0.7557
 5374SOL     OW27583   0.100   3.639   2.924  0.1656 -0.1190 -0.4144
 5374SOL    HW127584   0.056   3.707   2.974  0.6792  0.2919 -0.5158
 5374SOL    HW227585   0.048   3.561   2.942  0.1857 -0.4895 -1.9362
 5375SOL     OW27586   1.238   3.341   0.321 -0.5523 -0.2516 -0.3055
 5375SOL    HW127587   1.301   3.344   0.394 -1.0992  1.1606  0.1054
 5375SOL    HW227588   1.188   3.418   0.349  0.0835  1.3891 -3.7352
 5376SOL     OW27589   4.340   3.268   9.286 -0.0373  0.0999  0.0664
 5376SOL    HW127590   4.343   3.172   9.277  1.9269  0.0487  1.0760
 5376SOL    HW227591   4.257   3.273   9.333 -1.1455 -0.7669 -1.8061
 5377SOL     OW27592   3.573   0.366   4.513 -0.0992 -0.1961 -0.4183
 5377SOL    HW127593   3.567   0.270   4.514  0.0039 -0.2179 -1.6618
 5377SOL    HW227594   3.591   0.385   4.421  0.6208 -0.4355 -0.3289
 5378SOL     OW27595   2.030   0.889  17.330 -0.1078  0.3333  0.1314
 5378SOL    HW127596   1.958   0.933  17.376 -1.1246  0.8222 -1.9143
 5378SOL    HW227597   2.045   0.810  17.382 -0.1607  0.2525  0.0271
 5379SOL     OW27598   1.419   1.552   9.399 -0.5587  0.3880 -0.0718
 5379SOL    HW127599   1.503   1.576   9.438 -1.1966 -1.7035  2.6198
 5379SOL    HW227600   1.360   1.565   9.474  1.3439  0.6631  1.3843
 5380SOL     OW27601   2.390   4.259  15.657  0.2920 -0.1674 -0.1050
 5380SOL    HW127602   2.404   4.303  15.573 -1.1522 -1.0546 -0.8059
 5380SOL    HW227603   2.330   4.193  15.622 -0.3152 -0.0660  0.7396
 5381SOL     OW27604   0.531   4.071   2.951 -0.1349 -0.4461 -0.4419
 5381SOL    HW127605   0.499   3.987   2.918  1.2476 -0.3934 -1.9318
 5381SOL    HW227606   0.616   4.075   2.908  0.4572 -3.1344  0.4602
 5382SOL     OW27607   0.788   3.112   4.254 -0.4536 -0.1675  0.9424
 5382SOL    HW127608   0.723   3.083   4.318 -0.1103  1.0799  1.8559
 5382SOL    HW227609   0.868   3.133   4.303 -0.1652  1.8665 -0.3892
 5383SOL     OW27610   0.973   4.184   8.078 -0.0216  0.2226 -0.2438
 5383SOL    HW127611   0.980   4.099   8.120  1.0837  0.0327 -0.7997
 5383SOL    HW227612   1.033   4.241   8.126 -0.7182  1.1335 -0.4520
 5384SOL     OW27613   1.778   3.108  14.206  0.0635 -0.2832 -0.3829
 5384SOL    HW127614   1.726   3.046  14.156  0.2429 -0.3717 -0.4625
 5384SOL    HW227615   1.863   3.101  14.161  0.0290 -0.0623 -0.4803
 5385SOL     OW27616   0.995   2.380   1.430 -0.2783 -0.5152  0.2933
 5385SOL    HW127617   0.965   2.386   1.521  2.2179 -3.5351  1.3451
 5385SOL    HW227618   1.064   2.446   1.440  1.5571 -2.5893  1.4191
 5386SOL     OW27619   2.540   1.645  12.369 -0.1084  0.3803 -0.7743
 5386SOL    HW127620   2.565   1.704  12.440  1.5157  0.3160 -1.2853
 5386SOL    HW227621   2.491   1.711  12.320 -1.3196 -0.3287 -0.5174
 5387SOL     OW27622   3.563   4.263   7.883  0.1334  0.7027  0.7448
 5387SOL    HW127623   3.519   4.283   7.966  1.6378  0.4785  1.5857
 5387SOL    HW227624   3.636   4.325   7.876 -1.0046  1.8212 -1.4670
 5388SOL     OW27625   1.965   3.113  16.618 -0.0138 -0.7640  0.6601
 5388SOL    HW127626   1.986   3.036  16.565  0.4652  0.3957 -0.8292
 5388SOL    HW227627   1.969   3.069  16.703  0.9330  0.1075  1.0604
 5389SOL     OW27628   3.535   0.183   2.447 -0.1260 -0.3203  0.0868
 5389SOL    HW127629   3.542   0.088   2.439  3.1280  0.0297 -1.0526
 5389SOL    HW227630   3.598   0.203   2.516 -0.1222  2.1984 -0.6378
 5390SOL     OW27631   2.399   4.577   6.188  0.2545 -0.1118  0.1395
 5390SOL    HW127632   2.397   4.613   6.276  1.6276  0.4911 -0.0758
 5390SOL    HW227633   2.307   4.554   6.176  0.0889  0.3470  0.5185
 5391SOL     OW27634   2.984   1.831  15.816  0.0434  0.0926  0.2156
 5391SOL    HW127635   2.956   1.905  15.870  3.1308  0.7300  0.9418
 5391SOL    HW227636   2.954   1.851  15.727 -1.0618  2.2121  1.0803
 5392SOL     OW27637   0.121   2.392   1.889  0.1303  0.3353  0.4746
 5392SOL    HW127638   0.072   2.328   1.940  1.3896 -0.6511  0.4483
 5392SOL    HW227639   0.158   2.338   1.819  1.7402  2.9284 -0.7142
 5393SOL     OW27640   2.289   4.388   4.332 -0.4914  1.2937  0.0495
 5393SOL    HW127641   2.350   4.432   4.273  1.3524 -2.3899 -0.7971
 5393SOL    HW227642   2.336   4.373   4.415  1.1288  0.5630 -1.0004
 5394SOL     OW27643   0.233   2.162   5.854  0.2125  0.1612  0.1151
 5394SOL    HW127644   0.313   2.211   5.836  1.0500 -1.3496 -0.3722
 5394SOL    HW227645   0.267   2.072   5.858 -1.0492 -0.4757 -2.8095
 5395SOL     OW27646   0.594   0.134   5.141 -0.5126  0.1949 -0.4001
 5395SOL    HW127647   0.525   0.194   5.111  1.8528  2.3332 -1.5894
 5395SOL    HW227648   0.570   0.045   5.118 -0.8976 -0.5348  2.8079
 5396SOL     OW27649   3.079   0.176  14.063 -0.1228  0.6015 -0.9874
 5396SOL    HW127650   3.051   0.234  14.133 -1.4191  2.9296 -3.4442
 5396SOL    HW227651   2.997   0.126  14.052  1.4102 -1.9799 -0.7495
 5397SOL     OW27652   4.080   1.979   0.321  0.1411  0.1555  0.9569
 5397SOL    HW127653   4.135   1.931   0.260  0.0920 -0.1230  1.1276
 5397SOL    HW227654   4.138   1.965   0.396 -1.9786  2.2693  2.9928
 5398SOL     OW27655   0.469   0.514   2.224  0.3502 -0.4725  0.5196
 5398SOL    HW127656   0.419   0.438   2.253 -1.0032  0.3833  0.4173
 5398SOL    HW227657   0.412   0.560   2.163  2.1799  1.2042  0.0820
 5399SOL     OW27658   2.307   1.754   2.327  0.1636  1.0701 -0.0113
 5399SOL    HW127659   2.367   1.810   2.377  0.4065 -0.3443  1.2759
 5399SOL    HW227660   2.315   1.671   2.374 -0.8575  2.1248  2.0207
 5400SOL     OW27661   1.040   3.150  16.604  0.4859  0.0654  0.2094
 5400SOL    HW127662   1.128   3.187  16.601  1.2884 -1.7127  1.9213
 5400SOL    HW227663   1.032   3.102  16.686  0.3518  0.9824  0.7276
 5401SOL     OW27664   1.292   3.865   5.422 -0.5186  0.3646 -0.5490
 5401SOL    HW127665   1.232   3.805   5.378 -0.5065 -1.7270  2.2552
 5401SOL    HW227666   1.286   3.843   5.515  1.1360  1.3329 -0.2079
 5402SOL     OW27667   1.034   4.598   4.474 -0.1148 -0.0982  0.0760
 5402SOL    HW127668   1.020   4.567   4.563 -0.9671  1.0213  0.3262
 5402SOL    HW227669   0.994   4.528   4.422 -1.0672 -0.3288  1.1331
 5403SOL     OW27670   0.408   2.629  16.143  0.2238  0.2914  0.2406
 5403SOL    HW127671   0.489   2.679  16.153 -1.0962  2.6228 -0.7402
 5403SOL    HW227672   0.339   2.688  16.175  0.2676  2.0992 -3.0153
 5404SOL     OW27673   3.888   0.978  10.283 -0.0256  0.1046 -0.2439
 5404SOL    HW127674   3.898   1.069  10.312 -0.1484  0.3449 -0.9546
 5404SOL    HW227675   3.801   0.967  10.246 -0.4598 -0.2278  0.8845
 5405SOL     OW27676   2.646   3.259   3.104 -0.6222 -0.3674 -0.5886
 5405SOL    HW127677   2.699   3.218   3.036  2.6380  2.1107  0.4518
 5405SOL    HW227678   2.639   3.198   3.177  0.7456  1.0651  0.7239
 5406SOL     OW27679   4.192   4.405   5.886 -0.0957 -0.6565 -0.1049
 5406SOL    HW127680   4.284   4.386   5.867 -0.2326 -1.8311  0.3980
 5406SOL    HW227681   4.158   4.342   5.822 -3.2044  1.5580 -0.6370
 5407SOL     OW27682   2.678   3.126   5.551 -0.8109 -0.0134 -0.3239
 5407SOL    HW127683   2.661   3.191   5.619 -0.1394  0.4017 -0.5578
 5407SOL    HW227684   2.654   3.040   5.587  2.0750 -2.3193 -3.8907
 5408SOL     OW27685   2.259   0.394  13.959  0.6029  0.1630  0.1980
 5408SOL    HW127686   2.292   0.436  14.038 -2.5714  1.1844  0.9825
 5408SOL    HW227687   2.195   0.336  14.001 -1.1143  1.0190 -1.2549
 5409SOL     OW27688   0.833   4.219  13.283  0.1242 -0.5957 -0.1044
 5409SOL    HW127689   0.747   4.208  13.325  0.5821  0.7697  1.1880
 5409SOL    HW227690   0.816   4.303  13.239  1.4491 -0.5211 -0.4766
 5410SOL     OW27691   2.382   0.633   3.561 -0.2424  0.0662 -0.1867
 5410SOL    HW127692   2.460   0.654   3.509 -0.3204  2.2506  0.5795
 5410SOL    HW227693   2.322   0.671   3.496  2.1872  1.4152 -1.6409
 5411SOL     OW27694   1.807   0.688   4.853 -0.2341 -0.3558  0.8050
 5411SOL    HW127695   1.870   0.637   4.903  0.1750  0.5487  1.2139
 5411SOL    HW227696   1.858   0.767   4.836 -0.2318 -0.5397 -0.0599
 5412SOL     OW27697   1.170   1.008   3.562 -0.7728  0.2014  0.2518
 5412SOL    HW127698   1.137   1.091   3.528  0.9012  1.3884  1.5376
 5412SOL    HW227699   1.122   0.940   3.515 -0.2287 -0.3789  0.5421
 5413SOL     OW27700   2.550   2.818   4.665 -0.1017  0.5000 -0.3879
 5413SOL    HW127701   2.595   2.879   4.606  2.5106  0.2701  1.3602
 5413SOL    HW227702   2.626   2.805   4.722  1.4312  1.4305 -2.2150
 5414SOL     OW27703   0.434   2.247  11.235  0.0419  0.0880 -1.1381
 5414SOL    HW127704   0.488   2.222  11.160  0.8327  2.7348 -1.4415
 5414SOL    HW227705   0.342   2.242  11.210 -0.4381  1.7932  0.3292
 5415SOL     OW27706   4.116   4.362  12.287 -0.1759  0.1147 -0.0587
 5415SOL    HW127707   4.025   4.381  12.311 -0.3880 -2.4978  1.2375
 5415SOL    HW227708   4.162   4.377  12.369  0.6884 -0.2712 -0.4737
 5416SOL     OW27709   3.115   3.613   2.757  1.0542  0.4032 -0.4143
 5416SOL    HW127710   3.171   3.548   2.715 -0.2290 -0.6538 -0.4809
 5416SOL    HW227711   3.107   3.669   2.680  0.2101 -0.6496 -1.0884
 5417SOL     OW27712   0.915   2.698  10.583  0.3021 -0.5583  0.1128
 5417SOL    HW127713   0.952   2.711  10.495 -0.7473  0.7363 -0.1391
 5417SOL    HW227714   0.838   2.755  10.580 -0.7183 -1.9159  0.6805
 5418SOL     OW27715   4.200   1.423   5.176 -0.5006  0.7887  0.4950
 5418SOL    HW127716   4.248   1.340   5.168 -0.5184  0.8825 -0.4690
 5418SOL    HW227717   4.117   1.384   5.148  0.6153 -1.6123  0.5357
 5419SOL     OW27718   2.145   0.686   6.040  0.2124  0.1572  0.5380
 5419SOL    HW127719   2.062   0.723   6.070  0.1878 -0.3982  1.1471
 5419SOL    HW227720   2.196   0.762   6.013 -1.1415  0.6755 -0.5485
 5420SOL     OW27721   0.840   2.346   1.076 -0.0006 -0.0129  0.2030
 5420SOL    HW127722   0.758   2.339   1.027  0.4160  1.1912 -0.6692
 5420SOL    HW227723   0.897   2.382   1.007  0.6312 -2.0706 -0.3389
 5421SOL     OW27724   1.544   1.266   7.352  0.2156 -0.2505  0.6775
 5421SOL    HW127725   1.620   1.208   7.345  1.1828  1.1331 -0.0569
 5421SOL    HW227726   1.465   1.213   7.369  0.3502 -0.9275 -0.8134
 5422SOL     OW27727   4.228   3.604   9.366  0.0600 -0.9158  0.2710
 5422SOL    HW127728   4.211   3.679   9.308  0.3495 -1.1139 -0.0739
 5422SOL    HW227729   4.187   3.529   9.323  3.5704 -1.1498 -2.7440
 5423SOL     OW27730   4.094   1.635   3.892  0.6403 -0.0778 -0.3078
 5423SOL    HW127731   4.125   1.596   3.811 -0.0029  1.1442 -1.1488
 5423SOL    HW227732   4.177   1.651   3.938 -0.9748 -0.9696  2.9471
 5424SOL     OW27733   2.479   1.571   6.620 -0.2361  0.3074  0.2606
 5424SOL    HW127734   2.403   1.551   6.675  0.7992 -0.5348  1.3846
 5424SOL    HW227735   2.491   1.664   6.640 -0.1307 -0.1729  2.4121
 5425SOL     OW27736   3.304   2.393   1.869 -0.2140  0.2751  0.0227
 5425SOL    HW127737   3.337   2.481   1.851 -2.0220  1.2307  1.4378
 5425SOL    HW227738   3.247   2.407   1.944  1.3484 -0.6927  1.3833
 5426SOL     OW27739   3.818   1.582   7.210  0.1855 -0.0238 -0.3641
 5426SOL    HW127740   3.859   1.567   7.296 -1.0475  1.0506  0.3903
 5426SOL    HW227741   3.875   1.649   7.173 -0.8910 -0.0599 -2.0733
 5427SOL     OW27742   2.706   1.963   7.267  0.1641  0.3018 -0.9702
 5427SOL    HW127743   2.788   1.916   7.275 -0.2934 -0.1356  1.1788
 5427SOL    HW227744   2.732   2.034   7.326 -0.0535 -1.9406  1.8358
 5428SOL     OW27745   2.647   3.097   7.260 -0.5841 -0.4553  0.0177
 5428SOL    HW127746   2.719   3.118   7.319 -1.3389  1.1616  0.3627
 5428SOL    HW227747   2.683   3.134   7.180 -1.3860  1.1871  0.4087
 5429SOL     OW27748   2.477   0.112   5.509  0.7538 -0.6279  0.2527
 5429SOL    HW127749   2.391   0.113   5.551 -0.8579 -0.9019 -2.9767
 5429SOL    HW227750   2.468   0.024   5.473 -0.2003 -0.1712 -0.6188
 5430SOL     OW27751   3.481   1.528   8.339 -0.3186 -1.1248 -0.0659
 5430SOL    HW127752   3.532   1.588   8.285 -2.0364  0.6989  0.3452
 5430SOL    HW227753   3.517   1.541   8.426 -1.5916 -0.4540  0.3560
 5431SOL     OW27754   1.113   1.546  16.038  0.0103 -0.4680 -0.2979
 5431SOL    HW127755   1.150   1.457  16.033  0.2025 -0.4166  0.2508
 5431SOL    HW227756   1.173   1.609  15.999  1.5703 -0.9923  1.2852
 5432SOL     OW27757   1.208   3.970   8.948 -0.5422  0.7333  0.3425
 5432SOL    HW127758   1.163   3.886   8.952 -2.4049  1.7573  0.9487
 5432SOL    HW227759   1.223   3.984   8.855 -0.6092  1.2359  0.4028
 5433SOL     OW27760   4.653   0.987   5.877  0.3774  0.7425  0.1829
 5433SOL    HW127761   4.571   0.952   5.912  0.3938  1.1762  0.6561
 5433SOL    HW227762   4.694   1.023   5.956  2.1916 -0.0758 -0.3829
 5434SOL     OW27763   4.416   2.751  17.134  0.3973  0.2487  0.2580
 5434SOL    HW127764   4.341   2.697  17.113 -0.3459  0.4987  2.2266
 5434SOL    HW227765   4.466   2.672  17.155 -0.2035 -0.9277 -2.7962
 5435SOL     OW27766   2.911   2.017   0.752 -0.1695 -0.3635 -0.9109
 5435SOL    HW127767   2.837   2.054   0.703 -0.0527  0.0655 -0.7614
 5435SOL    HW227768   2.888   2.042   0.841  1.4277 -2.7922  0.1666
 5436SOL     OW27769   3.061   0.636  12.453 -0.5317  0.0316 -0.2776
 5436SOL    HW127770   3.045   0.710  12.513  0.6806 -0.9713  1.2838
 5436SOL    HW227771   2.997   0.656  12.385  1.4740  3.4415 -1.1466
 5437SOL     OW27772   4.036   1.191  13.880  0.3030 -0.1257  0.6707
 5437SOL    HW127773   4.045   1.178  13.974 -2.3283 -0.5257  0.8550
 5437SOL    HW227774   3.990   1.112  13.853 -1.7303  1.9712 -2.0325
 5438SOL     OW27775   3.196   2.115  16.207  0.0673  1.0995 -0.3797
 5438SOL    HW127776   3.107   2.097  16.237  0.2274 -0.2231 -0.7082
 5438SOL    HW227777   3.214   2.043  16.147 -1.1141  0.0549  0.5242
 5439SOL     OW27778   0.722   1.311  14.799  0.4158  0.1545 -0.6807
 5439SOL    HW127779   0.691   1.399  14.778 -2.1044 -0.8904 -1.4343
 5439SOL    HW227780   0.648   1.263  14.838  0.2588  0.1369 -0.9965
 5440SOL     OW27781   3.717   3.722  10.347  0.2585  0.6483 -0.1152
 5440SOL    HW127782   3.682   3.633  10.350 -1.4717  1.3135 -0.5192
 5440SOL    HW227783   3.683   3.769  10.423 -1.7502  0.9546 -1.1926
 5441SOL     OW27784   3.685   1.200   5.355 -0.0038  0.2929 -0.0710
 5441SOL    HW127785   3.590   1.209   5.344 -0.4731 -1.8447  2.3501
 5441SOL    HW227786   3.715   1.261   5.288  1.1863  0.3190  0.4817
 5442SOL     OW27787   4.187   3.345  14.686  0.1979  0.0858  0.7118
 5442SOL    HW127788   4.209   3.380  14.600  0.8704 -0.3171  0.7221
 5442SOL    HW227789   4.271   3.358  14.731 -0.3672 -0.5652  1.9482
 5443SOL     OW27790   4.692   3.281   2.706  0.5609 -0.0337 -0.8671
 5443SOL    HW127791   4.700   3.334   2.626 -1.1090  1.2664 -0.1811
 5443SOL    HW227792   4.670   3.194   2.672 -1.5755 -0.3817  1.3606
 5444SOL     OW27793   0.798   3.176  17.463  0.1934  0.1168  0.4150
 5444SOL    HW127794   0.885   3.137  17.466 -0.9284 -2.0503  4.7002
 5444SOL    HW227795   0.756   3.117  17.401 -0.3056  0.0364  0.8281
 5445SOL     OW27796   4.025   1.736  10.807  0.2557  0.1925 -0.1936
 5445SOL    HW127797   3.944   1.780  10.783 -0.3900 -2.2529 -2.5249
 5445SOL    HW227798   4.058   1.768  10.891 -0.9579  1.2448 -0.1277
 5446SOL     OW27799   4.338   0.550   8.053  0.5273 -0.0327  0.2879
 5446SOL    HW127800   4.428   0.534   8.081 -0.2711  0.2742  3.0710
 5446SOL    HW227801   4.301   0.582   8.136 -1.7335 -1.8038 -0.0302
 5447SOL     OW27802   4.299   0.159   2.249  0.0492  0.2485 -0.0967
 5447SOL    HW127803   4.285   0.240   2.200  1.1367  0.3626 -0.2328
 5447SOL    HW227804   4.207   0.135   2.242  0.3070 -0.5743 -0.6552
 5448SOL     OW27805   0.821   2.866   0.551  0.3333 -0.1012 -0.3930
 5448SOL    HW127806   0.786   2.905   0.470  1.1096  0.4790 -0.4444
 5448SOL    HW227807   0.758   2.899   0.615 -0.4576 -0.2473 -1.0848
 5449SOL     OW27808   0.266   2.802   1.661 -0.0814  0.0724  0.3699
 5449SOL    HW127809   0.229   2.788   1.573 -1.0934  1.6529  0.5485
 5449SOL    HW227810   0.215   2.735   1.707  0.5957  0.6794  2.0042
 5450SOL     OW27811   1.860   1.457  12.877  0.1115  0.3178  0.1278
 5450SOL    HW127812   1.850   1.513  12.800  0.5464  0.0910 -0.0933
 5450SOL    HW227813   1.774   1.452  12.918  0.8884  1.7401  1.9215
 5451SOL     OW27814   0.439   0.702   5.873  0.5471 -0.5216 -0.7473
 5451SOL    HW127815   0.480   0.616   5.879 -2.0760 -1.7689 -0.5112
 5451SOL    HW227816   0.389   0.692   5.791  3.9327 -0.2917 -2.8197
 5452SOL     OW27817   3.842   0.310   4.170 -0.1246 -0.1414  0.1244
 5452SOL    HW127818   3.864   0.392   4.126 -0.8133  0.2393  0.4905
 5452SOL    HW227819   3.904   0.314   4.243 -1.8639 -0.3428  1.6259
 5453SOL     OW27820   2.904   3.675  17.330  0.5257  0.4783  0.6382
 5453SOL    HW127821   2.860   3.751  17.293 -1.1200 -1.1669 -0.8367
 5453SOL    HW227822   2.900   3.685  17.425  0.7550  1.3161  0.5501
 5454SOL     OW27823   3.793   1.311   2.767 -0.1369 -0.0525 -0.3129
 5454SOL    HW127824   3.752   1.351   2.690 -0.3623  1.3575  0.5428
 5454SOL    HW227825   3.744   1.230   2.776 -1.2131  0.6988  0.5385
 5455SOL     OW27826   2.274   0.839   1.392  0.1894  0.0899  0.0327
 5455SOL    HW127827   2.205   0.823   1.456 -0.4975 -1.4597 -1.0860
 5455SOL    HW227828   2.287   0.751   1.356 -0.9205  0.9025 -2.3448
 5456SOL     OW27829   4.053   1.009   0.410 -0.3554  0.1999 -0.5708
 5456SOL    HW127830   4.059   0.984   0.317  1.5216 -0.4255 -0.2715
 5456SOL    HW227831   3.973   1.062   0.406 -0.6706 -0.2146  0.2628
 5457SOL     OW27832   4.021   0.468  13.506 -0.4034  0.3630  0.1156
 5457SOL    HW127833   4.056   0.499  13.423  2.4413 -1.2434  0.6883
 5457SOL    HW227834   3.938   0.434  13.474  0.1380 -0.0263 -0.8766
 5458SOL     OW27835   4.293   2.570   8.443 -0.9793  0.5485 -0.0554
 5458SOL    HW127836   4.283   2.572   8.538 -2.7414 -0.3729 -0.2165
 5458SOL    HW227837   4.234   2.498   8.423 -1.8717  1.3358 -0.2093
 5459SOL     OW27838   1.554   3.978   9.816  0.2377 -0.2523  0.1728
 5459SOL    HW127839   1.586   3.889   9.831  3.2771  0.5338 -1.6420
 5459SOL    HW227840   1.469   3.975   9.771  0.3994 -0.7625 -0.0998
 5460SOL     OW27841   0.744   0.570  14.559  0.6406  0.4891 -0.0683
 5460SOL    HW127842   0.770   0.623  14.635 -1.7419 -2.5469  2.8720
 5460SOL    HW227843   0.677   0.627  14.520 -0.2929 -0.9510 -0.5607
 5461SOL     OW27844   4.691   3.345   5.452 -0.0150 -0.2855  0.7636
 5461SOL    HW127845   4.643   3.337   5.535  1.0772 -0.2379  1.4065
 5461SOL    HW227846   0.054   3.308   5.481  0.9223 -1.4985 -3.5309
 5462SOL     OW27847   3.761   0.553   5.499  0.1086  0.1593 -0.0725
 5462SOL    HW127848   3.687   0.508   5.459  0.8046  0.8669 -2.1655
 5462SOL    HW227849   3.752   0.639   5.458  2.2981  1.0397  1.2992
 5463SOL     OW27850   3.895   1.420  13.816 -0.2872  0.0266  0.0082
 5463SOL    HW127851   3.939   1.341  13.848  1.6391  0.7742 -0.8303
 5463SOL    HW227852   3.968   1.472  13.783 -0.5411  0.5618  0.2791
 5464SOL     OW27853   3.202   3.744   4.722 -0.5182 -0.0047 -0.4167
 5464SOL    HW127854   3.162   3.822   4.684 -1.3484 -0.5733 -0.6975
 5464SOL    HW227855   3.220   3.683   4.651 -2.9855  1.0569 -1.9533
 5465SOL     OW27856   1.206   1.090   1.377  0.1959  0.2216 -0.0991
 5465SOL    HW127857   1.273   1.086   1.310 -0.8827 -2.0089 -1.0375
 5465SOL    HW227858   1.256   1.070   1.456 -1.6360  1.0531  1.2948
 5466SOL     OW27859   1.786   2.957   2.875  0.2170  0.4470  0.2765
 5466SOL    HW127860   1.742   3.018   2.815 -1.0244 -0.7325 -0.0185
 5466SOL    HW227861   1.710   2.937   2.931  0.1423 -0.7326 -0.2427
 5467SOL     OW27862   4.718   0.752  12.983 -0.1863 -0.4883 -0.3490
 5467SOL    HW127863   0.018   0.664  12.954  1.9537 -0.0503 -0.0817
 5467SOL    HW227864   4.646   0.743  13.047 -0.3732 -0.4061 -0.5473
 5468SOL     OW27865   1.669   3.036   8.811 -0.3122  0.0159  0.0932
 5468SOL    HW127866   1.760   3.060   8.830  0.0862 -0.4954 -1.2068
 5468SOL    HW227867   1.691   2.962   8.754 -0.5433 -0.1971  0.2837
 5469SOL     OW27868   0.104   1.816  16.709 -0.2254  0.5204  0.2604
 5469SOL    HW127869   0.194   1.833  16.736 -0.4313  3.1714 -0.7140
 5469SOL    HW227870   0.092   1.754  16.780  2.1060 -0.0751  0.1277
 5470SOL     OW27871   3.669   4.087  17.435  0.0211 -0.2510 -0.0002
 5470SOL    HW127872   3.739   4.067  17.373 -0.9693  1.8237 -1.7842
 5470SOL    HW227873   3.652   4.181  17.425 -1.2316 -0.3745  1.1159
 5471SOL     OW27874   1.671   1.848   4.701 -0.7301  0.5707 -0.3138
 5471SOL    HW127875   1.576   1.842   4.705 -0.7429  0.0691 -1.7268
 5471SOL    HW227876   1.700   1.816   4.787  0.1022  0.1016 -0.7680
 5472SOL     OW27877   2.233   0.449   1.536  0.1730  0.1037  0.2695
 5472SOL    HW127878   2.143   0.467   1.561  0.4172  1.8131 -0.0540
 5472SOL    HW227879   2.286   0.456   1.616  3.1371 -0.9867 -1.5764
 5473SOL     OW27880   0.568   1.206   4.045 -0.4582  0.3161  0.5493
 5473SOL    HW127881   0.648   1.164   4.013  0.4980  2.1856  0.5041
 5473SOL    HW227882   0.604   1.262   4.114 -0.0033  0.2287  0.3879
 5474SOL     OW27883   3.345   4.108   3.726 -0.4067  0.0088 -0.8227
 5474SOL    HW127884   3.438   4.088   3.736 -0.5534 -0.9314 -1.4031
 5474SOL    HW227885   3.335   4.187   3.780  1.3343  0.0609 -0.5812
 5475SOL     OW27886   1.932   1.835   7.395 -0.2256  0.4768  0.3728
 5475SOL    HW127887   1.991   1.811   7.466  0.7626 -1.0666 -0.9466
 5475SOL    HW227888   1.992   1.840   7.320 -1.6552  2.1918 -0.6654
 5476SOL     OW27889   4.374   3.476   2.399 -0.0060  0.3026 -0.3686
 5476SOL    HW127890   4.390   3.527   2.320 -0.1423  0.3508 -0.3653
 5476SOL    HW227891   4.425   3.395   2.402 -0.2765  0.1650  0.5928
 5477SOL     OW27892   1.769   1.816   7.082 -0.3208 -0.1049  0.3837
 5477SOL    HW127893   1.851   1.816   7.032 -1.0144  0.1657 -0.7522
 5477SOL    HW227894   1.767   1.909   7.101  1.2413  0.1646 -0.7513
 5478SOL     OW27895   3.973   1.633  12.672 -0.1921 -0.6827  0.4635
 5478SOL    HW127896   3.932   1.569  12.730 -0.7533  1.2248  2.1890
 5478SOL    HW227897   4.031   1.683  12.730  2.7115 -1.8942 -1.4428
 5479SOL     OW27898   2.147   2.722   6.188 -0.3841 -0.2447  0.0859
 5479SOL    HW127899   2.054   2.738   6.205 -0.1764 -0.8222  1.8241
 5479SOL    HW227900   2.185   2.720   6.276  0.4904  2.1837 -0.2395
 5480SOL     OW27901   0.667   0.048   5.588  0.1909  0.1705 -0.6231
 5480SOL    HW127902   0.608   4.705   5.549  0.3248 -0.3868  0.0734
 5480SOL    HW227903   0.646   0.126   5.537  2.5025  0.8391 -0.5787
 5481SOL     OW27904   3.915   1.060  16.940 -0.0334  0.2267  0.3126
 5481SOL    HW127905   3.975   0.990  16.967 -0.7035 -0.7073 -0.6077
 5481SOL    HW227906   3.923   1.113  17.019 -0.7154  0.0315  0.5086
 5482SOL     OW27907   3.995   0.676  15.674 -0.5343  0.2297 -0.6014
 5482SOL    HW127908   3.924   0.649  15.616  0.0193 -1.9347 -0.2651
 5482SOL    HW227909   3.979   0.621  15.751  2.7996 -1.2141 -0.8843
 5483SOL     OW27910   1.900   2.992  17.515  0.3856 -0.0623  0.1154
 5483SOL    HW127911   1.915   2.899  17.526  3.0378  0.5104  1.2753
 5483SOL    HW227912   1.815   2.982  17.472  0.7743  2.2597 -1.2155
 5484SOL     OW27913   2.933   0.333   7.236  0.1877 -0.1046  0.0894
 5484SOL    HW127914   2.879   0.305   7.310  1.5216 -1.9235  0.3638
 5484SOL    HW227915   3.000   0.266   7.243  0.5248  0.2325  0.1144
 5485SOL     OW27916   0.867   0.423  12.650 -0.2649  0.1596  0.0099
 5485SOL    HW127917   0.792   0.368  12.671 -0.8467  0.8142 -0.3515
 5485SOL    HW227918   0.922   0.349  12.624 -0.3344  0.5882 -1.3660
 5486SOL     OW27919   0.126   3.769   4.554 -0.1686 -0.6367 -0.6009
 5486SOL    HW127920   0.204   3.755   4.501  1.0375 -1.3283  1.3751
 5486SOL    HW227921   0.092   3.681   4.542 -0.4729 -0.4901 -0.8333
 5487SOL     OW27922   0.366   2.708  17.344  0.1198 -0.2739  0.1423
 5487SOL    HW127923   0.342   2.794  17.308 -3.0375 -1.1474  0.1384
 5487SOL    HW227924   0.456   2.725  17.373 -0.4279  0.2611  1.5514
 5488SOL     OW27925   0.254   0.483   9.527 -0.3887  0.7707  0.6977
 5488SOL    HW127926   0.309   0.535   9.586  2.3998 -2.2760  0.7586
 5488SOL    HW227927   0.279   0.520   9.442 -0.4373  2.5348  1.4488
 5489SOL     OW27928   2.765   3.669  14.074  0.1564  0.2288  0.1187
 5489SOL    HW127929   2.769   3.764  14.088 -0.0697  0.1965  0.3802
 5489SOL    HW227930   2.851   3.653  14.034  0.1254 -0.0200  0.1578
 5490SOL     OW27931   0.157   0.695  13.731  0.7526 -0.0046 -0.0233
 5490SOL    HW127932   0.073   0.734  13.753  0.9770  0.4822 -0.0157
 5490SOL    HW227933   0.167   0.738  13.645 -0.5790 -0.7523 -0.5384
 5491SOL     OW27934   2.466   0.633   7.775 -0.2453 -0.3887 -0.1807
 5491SOL    HW127935   2.532   0.702   7.787 -1.1245  0.1323  1.7173
 5491SOL    HW227936   2.390   0.690   7.787  1.4818  1.9324 -0.0553
 5492SOL     OW27937   0.692   1.083   7.193  0.3124  0.6924 -0.9334
 5492SOL    HW127938   0.756   1.015   7.212  0.2720  0.8747 -0.1172
 5492SOL    HW227939   0.736   1.154   7.147  0.5703 -0.4222 -2.3866
 5493SOL     OW27940   1.383   3.255   5.193  0.5867  0.4141 -0.0957
 5493SOL    HW127941   1.456   3.244   5.132 -0.4181  0.7483 -1.3741
 5493SOL    HW227942   1.358   3.345   5.171 -2.8163 -0.4078  0.4295
 5494SOL     OW27943   2.485   0.887   6.856  0.2317  0.1861 -0.3270
 5494SOL    HW127944   2.553   0.839   6.904 -1.1771 -0.7363  0.7604
 5494SOL    HW227945   2.523   0.969   6.826 -1.0432  0.2103 -1.8971
 5495SOL     OW27946   0.246   2.072  11.837  0.3810 -0.2208  0.6287
 5495SOL    HW127947   0.281   2.084  11.926  1.5898  1.1107 -0.0191
 5495SOL    HW227948   0.266   2.152  11.789 -0.2847 -0.9780 -0.9034
 5496SOL     OW27949   1.234   2.065  17.410 -0.1348  0.3364  0.5827
 5496SOL    HW127950   1.182   2.137  17.374 -2.2124 -2.5150 -2.1926
 5496SOL    HW227951   1.316   2.091  17.367  0.4737  0.1481  1.6252
 5497SOL     OW27952   2.173   4.075   9.012  0.0629 -0.0761 -0.0681
 5497SOL    HW127953   2.143   4.095   9.100 -2.3450  1.3943 -1.2207
 5497SOL    HW227954   2.102   4.110   8.959 -1.8162 -2.8884  0.5928
 5498SOL     OW27955   0.070   3.680   1.699  0.4287 -0.4988  0.1010
 5498SOL    HW127956   0.009   3.667   1.626  0.6312  1.6405 -0.4373
 5498SOL    HW227957   0.089   3.773   1.690  0.3844 -0.4319  0.7073
 5499SOL     OW27958   4.245   3.498   5.389 -0.7712 -0.0904  0.0045
 5499SOL    HW127959   4.257   3.589   5.415  1.4339 -0.0958 -0.9677
 5499SOL    HW227960   4.191   3.511   5.312  1.0837 -1.7077 -1.5520
 5500SOL     OW27961   0.779   4.541   6.046 -0.2149 -0.2906 -0.0710
 5500SOL    HW127962   0.775   4.565   5.953  1.0746 -3.0521 -0.8470
 5500SOL    HW227963   0.868   4.504   6.047  0.1621  0.4097 -4.0796
 5501SOL     OW27964   4.315   0.124  12.041 -0.1423 -0.3945  0.1021
 5501SOL    HW127965   4.348   0.152  11.956 -0.7311 -0.3618 -0.1157
 5501SOL    HW227966   4.307   0.029  12.029 -2.6128 -0.3014  0.9405
 5502SOL     OW27967   1.899   2.920  10.896 -0.1170 -0.1508  0.3935
 5502SOL    HW127968   1.977   2.883  10.938  0.5660 -0.0964 -0.8225
 5502SOL    HW227969   1.907   3.008  10.933  1.2947  0.5137 -1.4964
 5503SOL     OW27970   1.729   4.460   5.080 -0.1748  0.6942 -0.1681
 5503SOL    HW127971   1.738   4.530   5.146  0.7612  1.0517 -0.6818
 5503SOL    HW227972   1.672   4.507   5.019  0.2116 -0.7232 -1.6113
 5504SOL     OW27973   0.837   3.586   4.659 -0.0212 -0.0979 -0.1792
 5504SOL    HW127974   0.821   3.518   4.725 -2.2048  0.0041 -0.6103
 5504SOL    HW227975   0.790   3.662   4.693 -1.1137 -0.6168 -0.5222
 5505SOL     OW27976   4.410   3.300   5.309 -0.1760  0.3858 -0.3002
 5505SOL    HW127977   4.502   3.327   5.317 -0.4295  0.7691  1.3790
 5505SOL    HW227978   4.366   3.371   5.355  0.0007  1.6168 -2.0353
 5506SOL     OW27979   4.551   0.934   3.441  0.6726 -0.0522  0.2132
 5506SOL    HW127980   4.470   0.920   3.392  0.2169 -0.9234  1.1863
 5506SOL    HW227981   4.615   0.894   3.382  1.0911 -2.3614  2.2035
 5507SOL     OW27982   0.609   1.526  13.469 -0.2716  0.1628 -0.4811
 5507SOL    HW127983   0.603   1.483  13.384  1.6298  2.6884 -1.9027
 5507SOL    HW227984   0.698   1.494  13.486 -0.4206  0.4538  0.8906
 5508SOL     OW27985   4.077   1.221   7.731  0.5723 -0.4074 -0.0016
 5508SOL    HW127986   4.164   1.181   7.722 -0.0786 -1.7140 -0.3525
 5508SOL    HW227987   4.019   1.149   7.708 -0.1232  0.7410 -1.8230
 5509SOL     OW27988   2.204   3.625   5.683  0.2481 -0.6821  0.1996
 5509SOL    HW127989   2.198   3.560   5.754  0.7613  0.3036  1.1424
 5509SOL    HW227990   2.164   3.697   5.732  2.4446  0.5261  0.2226
 5510SOL     OW27991   1.973   0.112  14.248 -0.8782  0.1469 -0.1922
 5510SOL    HW127992   2.051   0.141  14.295 -1.5807  1.9758 -0.1459
 5510SOL    HW227993   1.924   0.078  14.323  0.9369 -0.5561  0.6709
 5511SOL     OW27994   1.004   0.817   3.947 -0.1303 -0.0177 -0.2476
 5511SOL    HW127995   0.979   0.731   3.979 -2.4000  0.4972 -0.6083
 5511SOL    HW227996   1.085   0.831   3.996 -1.2459 -0.4811  1.7033
 5512SOL     OW27997   0.762   1.150  16.742 -0.3929  0.4169 -0.2293
 5512SOL    HW127998   0.673   1.184  16.750 -0.8904 -1.1065  0.6660
 5512SOL    HW227999   0.744   1.066  16.700  0.9909  0.5159 -1.0529
 5513SOL     OW28000   3.118   4.055   1.930 -0.4605 -0.9198  0.1136
 5513SOL    HW128001   3.051   4.030   1.867  0.9458 -3.2294 -0.4748
 5513SOL    HW228002   3.129   3.978   1.986 -1.9121  0.1751  1.9165
 5514SOL     OW28003   4.031   2.869   8.077  0.5132 -0.2590  0.0973
 5514SOL    HW128004   4.005   2.797   8.019  0.3585 -0.1793  0.0685
 5514SOL    HW228005   3.946   2.911   8.090 -0.0897 -0.7374 -2.1480
 5515SOL     OW28006   1.226   1.740   1.425  0.1722  0.3387  0.3050
 5515SOL    HW128007   1.304   1.791   1.445  0.1433  0.8946 -0.9832
 5515SOL    HW228008   1.158   1.796   1.462 -2.3900 -2.8188  0.3912
 5516SOL     OW28009   4.277   0.039   2.933  0.1905  0.4265  0.0284
 5516SOL    HW128010   4.292   0.103   3.002 -1.3974  1.4549 -0.5907
 5516SOL    HW228011   4.316   0.081   2.856 -0.6880 -0.9722 -1.1885
 5517SOL     OW28012   4.102   4.455  14.534 -0.3480 -0.3724 -0.1993
 5517SOL    HW128013   4.106   4.390  14.604  0.1919  0.5749  0.6451
 5517SOL    HW228014   4.016   4.491  14.557  0.4961  0.3121  1.9112
 5518SOL     OW28015   1.545   0.409   5.982  0.1167  0.2232  0.2374
 5518SOL    HW128016   1.610   0.473   6.012  0.7542 -1.3380  2.1833
 5518SOL    HW228017   1.581   0.322   5.998  1.2998  0.8124  0.7821
 5519SOL     OW28018   4.363   3.056   1.640  0.4337  0.8679  0.4752
 5519SOL    HW128019   4.435   3.041   1.702  1.2385  0.5232 -0.5571
 5519SOL    HW228020   4.403   3.102   1.567  1.6946  0.6715  1.0476
 5520SOL     OW28021   0.463   4.468   2.657 -0.1879  0.3427 -0.3112
 5520SOL    HW128022   0.461   4.465   2.561 -0.1998  3.7897 -0.4438
 5520SOL    HW228023   0.540   4.414   2.676 -0.0964  0.6771  0.2868
 5521SOL     OW28024   4.492   1.856  17.025 -0.8833  0.5742 -0.3458
 5521SOL    HW128025   4.525   1.937  16.988  0.6484 -0.7603 -1.8552
 5521SOL    HW228026   4.424   1.842  16.959 -1.5890  2.3262  0.0060
 5522SOL     OW28027   3.523   2.352   0.611 -0.0256 -0.3821  0.0963
 5522SOL    HW128028   3.448   2.381   0.664 -0.6092  1.5517 -1.7970
 5522SOL    HW228029   3.558   2.440   0.599  1.0044 -0.9486 -1.1177
 5523SOL     OW28030   2.702   4.516   1.613  0.1449  0.6010  0.5690
 5523SOL    HW128031   2.772   4.544   1.672  1.4644  0.8002 -1.0833
 5523SOL    HW228032   2.743   4.558   1.538  0.6693  0.3077  0.6831
 5524SOL     OW28033   2.776   3.435  14.983 -0.1500  0.4858  0.0270
 5524SOL    HW128034   2.806   3.373  14.917  0.5529 -0.5769  1.3710
 5524SOL    HW228035   2.710   3.482  14.933 -0.5651 -1.8496 -1.6158
 5525SOL     OW28036   1.063   2.615  13.642 -0.3082  0.4282 -0.7615
 5525SOL    HW128037   1.077   2.544  13.580 -2.9054 -2.5312  2.0715
 5525SOL    HW228038   1.032   2.574  13.722  0.4315  1.8667  0.2524
 5526SOL     OW28039   2.348   4.497   9.132 -0.3630 -0.1923 -0.1474
 5526SOL    HW128040   2.282   4.441   9.174  1.8539 -3.2244 -0.6554
 5526SOL    HW228041   2.328   4.576   9.182  1.1556  0.4468 -0.5398
 5527SOL     OW28042   4.109   0.529   1.107 -0.3201  0.5826  0.0114
 5527SOL    HW128043   4.026   0.501   1.144  0.1511 -1.3119 -0.3525
 5527SOL    HW228044   4.074   0.579   1.034 -0.7590 -0.6092 -0.5859
 5528SOL     OW28045   2.864   1.150   2.932 -0.2171 -0.0714 -0.2723
 5528SOL    HW128046   2.833   1.157   2.842  0.1578  1.8946 -0.2495
 5528SOL    HW228047   2.868   1.241   2.961  3.1782  0.5130 -2.5582
 5529SOL     OW28048   1.183   1.053   8.083  0.1764  0.3571 -0.1980
 5529SOL    HW128049   1.192   1.032   8.176  2.9021  2.0447 -0.0773
 5529SOL    HW228050   1.170   1.148   8.086  0.9476  0.4416  0.3552
 5530SOL     OW28051   1.527   4.203   7.774 -0.2656  0.5147 -0.4069
 5530SOL    HW128052   1.581   4.132   7.810 -0.7583  0.0444 -0.5854
 5530SOL    HW228053   1.455   4.150   7.739  1.2511 -2.3997  0.8427
 5531SOL     OW28054   3.437   2.501   3.821 -0.4078  0.0263 -0.3794
 5531SOL    HW128055   3.426   2.579   3.877  2.0790 -1.2736  1.8966
 5531SOL    HW228056   3.527   2.499   3.791 -0.5636  1.1029 -0.9245
 5532SOL     OW28057   2.341   1.080  12.446 -0.1268  0.1393  0.0935
 5532SOL    HW128058   2.257   1.046  12.476 -0.2489  0.4431  0.1011
 5532SOL    HW228059   2.403   1.009  12.462 -0.3294  0.2250  1.2564
 5533SOL     OW28060   0.736   4.010   5.421 -0.0086  0.7469 -0.4113
 5533SOL    HW128061   0.717   4.062   5.500 -2.4496 -0.1727 -0.4058
 5533SOL    HW228062   0.831   4.020   5.418  0.1091 -1.2104 -2.8777
 5534SOL     OW28063   1.630   0.594   3.257 -0.6044 -0.2712 -0.6532
 5534SOL    HW128064   1.563   0.650   3.219 -0.1994  1.2884  0.9093
 5534SOL    HW228065   1.687   0.656   3.303  0.0209 -0.8307 -0.6776
 5535SOL     OW28066   2.057   2.536   1.968  0.1539  0.1045 -0.4994
 5535SOL    HW128067   2.127   2.564   1.910  0.7313 -0.1285  0.0811
 5535SOL    HW228068   2.049   2.441   1.963  1.7192 -0.0546 -0.0627
 5536SOL     OW28069   0.700   0.991   6.384 -0.2983  0.4378  0.0091
 5536SOL    HW128070   0.691   1.070   6.437  1.8784 -0.7903  2.2191
 5536SOL    HW228071   0.648   0.932   6.439  2.0963 -2.3333 -0.7159
 5537SOL     OW28072   3.280   0.296   6.305 -0.1956  0.4479  0.2279
 5537SOL    HW128073   3.190   0.319   6.330 -1.4276 -2.5915 -1.3034
 5537SOL    HW228074   3.276   0.204   6.277  0.2468 -0.4027  2.9611
 5538SOL     OW28075   3.149   3.052  10.895  0.1103  0.1854  0.1832
 5538SOL    HW128076   3.232   3.026  10.856  0.8123 -1.0200  2.4669
 5538SOL    HW228077   3.153   3.146  10.879 -1.2771  0.3792  0.9030
 5539SOL     OW28078   1.488   2.335  15.384  0.3814 -0.0981  0.4329
 5539SOL    HW128079   1.557   2.328  15.450  0.0270  1.1417  0.9535
 5539SOL    HW228080   1.473   2.242  15.370 -1.6694  0.2701  0.0722
 5540SOL     OW28081   0.370   1.591  14.635  0.5898 -0.0357 -0.4342
 5540SOL    HW128082   0.319   1.658  14.589 -0.2270 -0.2904  0.0897
 5540SOL    HW228083   0.299   1.526  14.645 -0.6286  1.2324 -0.8096
 5541SOL     OW28084   0.497   2.266   7.414 -0.6151 -0.2763 -0.0568
 5541SOL    HW128085   0.558   2.195   7.393 -0.7655 -0.6446  0.7537
 5541SOL    HW228086   0.417   2.214   7.404 -0.1030 -0.8727 -1.0458
 5542SOL     OW28087   1.893   2.810   6.284  0.7300 -0.0632  0.3749
 5542SOL    HW128088   1.830   2.798   6.355 -0.7696  0.1260 -0.9219
 5542SOL    HW228089   1.860   2.894   6.255 -2.3868 -2.0018 -1.6675
 5543SOL     OW28090   3.360   1.145   5.555 -0.1210  0.4369 -0.0992
 5543SOL    HW128091   3.266   1.159   5.564 -0.6292 -1.6950 -2.0711
 5543SOL    HW228092   3.373   1.171   5.464  0.8544  1.4941  0.3332
 5544SOL     OW28093   4.240   4.171  14.217 -0.0784 -0.8767 -0.4128
 5544SOL    HW128094   4.227   4.099  14.280  1.3868  1.0329  2.0886
 5544SOL    HW228095   4.151   4.186  14.185  0.3367  0.4196 -0.9313
 5545SOL     OW28096   4.214   2.539   1.468 -0.3383 -0.3145  0.1415
 5545SOL    HW128097   4.213   2.556   1.562 -1.2277 -0.2236  0.1215
 5545SOL    HW228098   4.260   2.455   1.469  1.6309  0.7598 -0.3736
 5546SOL     OW28099   0.763   4.265  15.090 -0.0395 -0.3489  0.2009
 5546SOL    HW128100   0.728   4.294  15.007 -0.3404  1.0733  0.8333
 5546SOL    HW228101   0.692   4.292  15.148 -0.7967 -0.5222 -0.6506
 5547SOL     OW28102   3.220   2.242   7.964  0.2396 -0.0334 -0.0151
 5547SOL    HW128103   3.212   2.332   7.996  0.6044  0.7530 -2.1001
 5547SOL    HW228104   3.129   2.227   7.939  0.2130 -1.4900  0.9608
 5548SOL     OW28105   2.755   1.896  16.874 -0.2469 -0.0356  0.2637
 5548SOL    HW128106   2.805   1.825  16.916  0.0743 -0.1704 -0.3432
 5548SOL    HW228107   2.794   1.979  16.902 -0.9903 -0.5140  2.7319
 5549SOL     OW28108   4.390   2.111  11.320  0.3200 -0.5017  0.0038
 5549SOL    HW128109   4.367   2.026  11.282  1.3673 -0.7574 -0.0819
 5549SOL    HW228110   4.449   2.144  11.253  2.5761 -1.3980  1.5403
 5550SOL     OW28111   1.347   4.517  12.628  0.2589  0.1512 -0.4349
 5550SOL    HW128112   1.390   4.573  12.693  2.5215 -0.1755 -1.6702
 5550SOL    HW228113   1.289   4.455  12.673  0.8728 -0.0691  0.0497
 5551SOL     OW28114   1.027   2.041   3.740  0.4858  0.0866  0.2590
 5551SOL    HW128115   1.058   1.967   3.687  3.2342  0.1344  1.7756
 5551SOL    HW228116   0.941   2.006   3.764 -0.0017  0.9545 -0.2592
 5552SOL     OW28117   3.300   1.952   2.624  0.2621  0.0414 -0.2009
 5552SOL    HW128118   3.229   2.006   2.591 -0.6427 -0.7120  0.5151
 5552SOL    HW228119   3.332   1.901   2.550 -0.7238 -0.9569  0.0775
 5553SOL     OW28120   3.739   1.251   2.026  0.2169 -0.3396  0.3544
 5553SOL    HW128121   3.658   1.257   2.075  0.4240 -0.5933  0.7260
 5553SOL    HW228122   3.712   1.265   1.935  1.4986 -1.3773 -0.1945
 5554SOL     OW28123   0.869   3.641   6.577  0.1441 -0.4188 -0.2274
 5554SOL    HW128124   0.880   3.547   6.563  1.4001 -0.5020  1.2820
 5554SOL    HW228125   0.779   3.654   6.605  0.5292  0.3892  0.6390
 5555SOL     OW28126   2.782   3.637  16.263  0.2865 -0.0170  0.1711
 5555SOL    HW128127   2.752   3.727  16.256  0.7109  0.1457  0.4709
 5555SOL    HW228128   2.740   3.595  16.188 -0.2450 -0.3050  0.6268
 5556SOL     OW28129   0.413   4.385  11.779 -0.1259 -0.1248 -0.3038
 5556SOL    HW128130   0.340   4.420  11.830  0.9576 -0.4933  1.5024
 5556SOL    HW228131   0.483   4.446  11.802 -0.3542 -0.0503  0.2160
 5557SOL     OW28132   0.577   1.600   8.297  0.0293 -0.0624 -0.6140
 5557SOL    HW128133   0.634   1.526   8.276  2.4766  1.0716  2.0117
 5557SOL    HW228134   0.636   1.675   8.294 -0.9138  0.6624 -1.2348
 5558SOL     OW28135   3.133   3.904   5.243  0.0578  0.0516  0.7697
 5558SOL    HW128136   3.042   3.903   5.213 -0.2614 -0.7162  1.7696
 5558SOL    HW228137   3.167   3.960   5.174  1.3356 -2.2754 -0.4665
 5559SOL     OW28138   1.323   0.088   1.872  0.0233 -0.7500 -0.1122
 5559SOL    HW128139   1.251   0.036   1.908 -0.3756  0.0927  0.3076
 5559SOL    HW228140   1.338   0.156   1.938 -0.6590 -0.3341 -0.3835
 5560SOL     OW28141   3.706   3.473  15.440 -0.1465 -0.0708 -0.4891
 5560SOL    HW128142   3.656   3.529  15.500 -2.6948  0.6894 -3.3084
 5560SOL    HW228143   3.758   3.425  15.505 -0.0412  0.3352 -0.2736
 5561SOL     OW28144   0.844   0.465   8.567  1.1974  0.4964  0.1166
 5561SOL    HW128145   0.886   0.417   8.638  0.4806 -0.5360 -0.1573
 5561SOL    HW228146   0.832   0.394   8.504  2.9936 -0.6669  1.0920
 5562SOL     OW28147   0.262   2.961  13.891  0.1542 -0.4845 -0.1617
 5562SOL    HW128148   0.329   3.029  13.887 -1.7984  1.3081 -2.2816
 5562SOL    HW228149   0.198   3.015  13.937 -0.3730 -0.5765 -0.7931
 5563SOL     OW28150   1.701   3.156   2.690 -0.2339 -0.5893  0.5079
 5563SOL    HW128151   1.770   3.221   2.703  1.6868 -2.0820 -2.3480
 5563SOL    HW228152   1.722   3.123   2.602  0.9976 -0.5750  0.7971
 5564SOL     OW28153   4.473   2.332  16.923 -0.0909  0.5716 -0.2055
 5564SOL    HW128154   4.397   2.371  16.968 -0.2530  1.2320 -1.0595
 5564SOL    HW228155   4.430   2.326  16.838  0.6864  0.2662 -0.5714
 5565SOL     OW28156   3.907   2.623   4.459 -0.0099  0.1799  0.2630
 5565SOL    HW128157   3.858   2.619   4.377 -3.2080 -2.8699  2.2958
 5565SOL    HW228158   3.848   2.675   4.513 -2.4479 -2.1655 -0.0962
 5566SOL     OW28159   4.537   0.049   8.543 -0.4786 -0.2065  0.6702
 5566SOL    HW128160   4.450   0.011   8.530 -0.7187  0.8525 -0.7730
 5566SOL    HW228161   4.595   4.694   8.540  1.3149  1.0946  1.9144
 5567SOL     OW28162   0.410   0.825   6.141  0.2693 -0.0031  1.0243
 5567SOL    HW128163   0.465   0.903   6.152  0.0626  0.6537 -2.5241
 5567SOL    HW228164   0.405   0.793   6.051  0.2253 -1.3343  1.5138
 5568SOL     OW28165   4.027   1.601   7.371 -0.4491 -0.1290 -0.0016
 5568SOL    HW128166   4.090   1.672   7.382  1.9172 -1.9040 -2.1746
 5568SOL    HW228167   4.036   1.552   7.452  2.5462 -0.1578 -0.3588
 5569SOL     OW28168   2.424   3.905   3.645  0.1217  0.2685  0.4701
 5569SOL    HW128169   2.451   3.858   3.566  1.6773 -0.5456  1.4965
 5569SOL    HW228170   2.338   3.868   3.665 -0.8585  0.8365 -2.6634
 5570SOL     OW28171   3.245   2.150   7.253 -0.2634 -0.3426 -0.2140
 5570SOL    HW128172   3.235   2.202   7.174 -1.0908 -0.9492 -0.5049
 5570SOL    HW228173   3.189   2.194   7.318  0.4731  0.4046 -0.0788
 5571SOL     OW28174   3.206   2.064   6.090 -0.0292  0.1824  0.2564
 5571SOL    HW128175   3.232   2.063   5.998  2.8269  1.2558  1.0596
 5571SOL    HW228176   3.284   2.021   6.127 -0.4497 -0.7939 -0.0015
 5572SOL     OW28177   1.838   3.325  16.675 -0.0910 -0.0063  0.1784
 5572SOL    HW128178   1.883   3.245  16.651 -2.1291 -1.3030  0.6749
 5572SOL    HW228179   1.846   3.312  16.770  2.3208 -3.2504 -0.4815
 5573SOL     OW28180   4.613   4.628   2.882  0.0721  0.8030 -0.2056
 5573SOL    HW128181   4.573   4.688   2.819  1.6796  0.7484 -1.2940
 5573SOL    HW228182   4.621   4.550   2.828 -0.4348  0.5662  0.0699
 5574SOL     OW28183   1.060   1.495   5.678 -1.2157 -0.1442 -0.4596
 5574SOL    HW128184   1.119   1.461   5.745  0.5329  0.9194 -1.4778
 5574SOL    HW228185   1.014   1.564   5.725 -0.0226 -0.3999  1.0750
 5575SOL     OW28186   2.487   3.685  13.997 -0.0577  0.3490  0.1201
 5575SOL    HW128187   2.568   3.647  14.030  0.5429  2.1723  0.7675
 5575SOL    HW228188   2.506   3.779  13.999 -0.4074  0.3911  1.3470
 5576SOL     OW28189   4.497   0.897  13.204 -0.1815  0.1849  0.1750
 5576SOL    HW128190   4.468   0.901  13.113  0.9086 -1.2379 -0.2223
 5576SOL    HW228191   4.442   0.825  13.235  2.4326 -0.7381  2.6927
 5577SOL     OW28192   4.401   0.481  16.207 -0.0122 -0.5155  0.5422
 5577SOL    HW128193   4.436   0.451  16.123  0.5044 -1.7199  1.2015
 5577SOL    HW228194   4.379   0.397  16.246 -2.1555 -0.1138  0.1983
 5578SOL     OW28195   0.193   1.881   3.793 -0.3321 -0.3418  0.4654
 5578SOL    HW128196   0.144   1.940   3.851 -0.1961 -0.4240  0.6613
 5578SOL    HW228197   0.203   1.804   3.849 -1.7221 -1.0471 -0.2258
 5579SOL     OW28198   2.255   1.798  16.703 -0.2074  0.1594  0.5943
 5579SOL    HW128199   2.333   1.779  16.755 -0.3699 -1.9289  0.0695
 5579SOL    HW228200   2.192   1.740  16.745  0.8226  0.1829  2.1668
 5580SOL     OW28201   3.950   1.219   6.581 -0.0559  0.2166 -0.0405
 5580SOL    HW128202   3.945   1.142   6.524  0.2294  0.2268 -0.0792
 5580SOL    HW228203   3.975   1.279   6.511 -0.5008  0.1970 -0.2138
 5581SOL     OW28204   0.396   4.242   8.771  0.2491 -0.2301 -0.3002
 5581SOL    HW128205   0.432   4.265   8.857  2.3998  1.8675 -1.7570
 5581SOL    HW228206   0.391   4.147   8.784  1.1670 -0.4365 -1.4691
 5582SOL     OW28207   2.191   2.963   3.325 -0.0412 -0.4501 -0.1948
 5582SOL    HW128208   2.178   2.962   3.231  0.4119 -1.3050 -0.2523
 5582SOL    HW228209   2.190   3.057   3.341 -0.0444 -0.1160 -2.2884
 5583SOL     OW28210   2.938   2.315   6.295 -0.2987  0.0764  0.4387
 5583SOL    HW128211   2.976   2.229   6.314 -0.6483 -0.0217  0.6933
 5583SOL    HW228212   2.915   2.294   6.204  1.0115  1.5048 -0.2193
 5584SOL     OW28213   1.489   0.649   5.177 -0.1494  0.3255  0.2708
 5584SOL    HW128214   1.395   0.668   5.168  0.0767  1.3510  0.0355
 5584SOL    HW228215   1.519   0.670   5.089  0.3790 -1.7769 -0.0382
 5585SOL     OW28216   1.407   2.008  15.033 -0.0768  0.4296  0.0934
 5585SOL    HW128217   1.447   1.923  15.015 -0.5645  0.1612  0.2708
 5585SOL    HW228218   1.312   1.998  15.036  0.0620 -1.2675 -1.0518
 5586SOL     OW28219   2.092   2.034  16.790 -0.2275  0.3918 -0.8325
 5586SOL    HW128220   2.025   1.979  16.749 -0.2481 -0.1013 -0.1367
 5586SOL    HW228221   2.164   1.979  16.758  0.5850  2.2787 -2.2550
 5587SOL     OW28222   1.424   4.358   2.844  0.2993  0.1928 -0.1750
 5587SOL    HW128223   1.519   4.362   2.861  0.3245 -2.1799  0.3106
 5587SOL    HW228224   1.419   4.379   2.751 -4.7656 -0.3824 -0.0362
 5588SOL     OW28225   2.859   3.492   8.942 -0.1231 -0.4379 -0.1186
 5588SOL    HW128226   2.953   3.487   8.957 -0.1022  1.1172  0.3208
 5588SOL    HW228227   2.842   3.414   8.890  1.3026 -0.2309 -0.8956
 5589SOL     OW28228   3.626   2.222   4.169  0.1792  1.1452 -0.0017
 5589SOL    HW128229   3.630   2.130   4.143  0.0278  1.5973 -1.6359
 5589SOL    HW228230   3.551   2.244   4.113  0.8759 -0.2824 -1.5267
 5590SOL     OW28231   0.591   4.461   0.433 -0.0004  0.2239  0.2078
 5590SOL    HW128232   0.531   4.521   0.389 -1.4796 -1.8980 -0.6409
 5590SOL    HW228233   0.530   4.405   0.481  1.0684 -1.8173 -0.8108
 5591SOL     OW28234   4.184   4.097   5.077  0.3139 -1.0394 -0.4961
 5591SOL    HW128235   4.192   4.043   5.156  1.2989 -1.3825 -0.8292
 5591SOL    HW228236   4.115   4.052   5.028 -0.2692 -2.9186  2.0285
 5592SOL     OW28237   1.382   3.221   7.756  0.4228 -0.2749 -0.6007
 5592SOL    HW128238   1.350   3.304   7.720 -0.1740 -0.4359 -0.4392
 5592SOL    HW228239   1.307   3.165   7.735  0.7789 -1.0382  0.1805
 5593SOL     OW28240   0.355   3.011   2.502 -0.2695 -0.4307 -0.2154
 5593SOL    HW128241   0.300   2.983   2.428  0.2925 -1.9721 -0.0396
 5593SOL    HW228242   0.389   3.094   2.468  1.5843 -1.1123 -0.0308
 5594SOL     OW28243   3.762   3.915   2.003 -0.4347  0.6037  0.0394
 5594SOL    HW128244   3.855   3.917   2.024  0.0004 -1.6439 -1.6945
 5594SOL    HW228245   3.718   3.956   2.077 -2.9431  0.6378 -1.4401
 5595SOL     OW28246   3.427   4.116   6.766 -0.0279  0.6488 -0.3186
 5595SOL    HW128247   3.426   4.071   6.850 -0.3596 -1.7634 -1.6026
 5595SOL    HW228248   3.422   4.042   6.705  1.6241 -0.1896  0.5759
 5596SOL     OW28249   2.859   2.246   5.083  0.1715 -0.6299 -0.0230
 5596SOL    HW128250   2.893   2.192   5.155 -0.3521  0.2265  0.8681
 5596SOL    HW228251   2.920   2.320   5.080 -1.4521  0.7299  0.8877
 5597SOL     OW28252   2.728   0.887   2.440 -0.4572  0.2125  0.1260
 5597SOL    HW128253   2.749   0.977   2.414 -2.3981  1.5227  3.0997
 5597SOL    HW228254   2.759   0.891   2.531 -0.7767 -0.0140  0.2443
 5598SOL     OW28255   4.305   1.405   3.810 -0.1218  0.5241 -0.3583
 5598SOL    HW128256   4.348   1.320   3.799 -2.7833 -0.9089  0.3065
 5598SOL    HW228257   4.340   1.427   3.897 -1.4943  0.5200  0.1995
 5599SOL     OW28258   3.260   4.050   7.767  0.4420 -0.0558 -0.3392
 5599SOL    HW128259   3.181   4.104   7.772  0.1990 -0.4110 -0.4013
 5599SOL    HW228260   3.310   4.099   7.702  0.5687 -0.4493 -0.5401
 5600SOL     OW28261   0.945   2.071   7.063 -0.4002 -0.3554 -1.0429
 5600SOL    HW128262   0.938   2.142   6.999 -1.0615  1.3435  0.9266
 5600SOL    HW228263   0.974   2.006   6.999  0.8965 -1.2048  0.3873
 5601SOL     OW28264   3.490   0.048  14.374 -0.4499  0.2745 -0.8669
 5601SOL    HW128265   3.395   0.039  14.364 -0.7271 -0.1146  2.1093
 5601SOL    HW228266   3.507   0.050  14.468  1.2751 -1.5496 -1.1208
 5602SOL     OW28267   4.508   3.713  17.033 -0.3989 -0.4459  0.6207
 5602SOL    HW128268   4.548   3.634  16.997  1.4759  0.4256  0.7748
 5602SOL    HW228269   4.428   3.712  16.980  0.1046  1.4782 -0.1646
 5603SOL     OW28270   4.372   1.600   2.181 -0.9694 -0.3807  0.7542
 5603SOL    HW128271   4.300   1.567   2.235  0.1408 -0.9346  1.8760
 5603SOL    HW228272   4.441   1.571   2.239 -0.5323 -1.6002 -0.3622
 5604SOL     OW28273   4.605   2.748   3.654  0.2689 -0.1575  0.3447
 5604SOL    HW128274   4.617   2.654   3.641 -0.2940 -0.2648  0.6067
 5604SOL    HW228275   4.548   2.734   3.730 -0.0530 -1.3317 -0.1129
 5605SOL     OW28276   4.346   1.644   8.629 -0.6225 -0.0941 -1.2620
 5605SOL    HW128277   4.433   1.611   8.651 -1.0151 -0.0714  0.3070
 5605SOL    HW228278   4.289   1.573   8.659  0.3156 -0.1714  0.3457
 5606SOL     OW28279   1.174   3.190  12.169 -0.1245 -1.0977 -0.1336
 5606SOL    HW128280   1.238   3.226  12.107 -0.9696  2.0123  0.8118
 5606SOL    HW228281   1.222   3.214  12.248  0.3301  0.7697 -0.9771
 5607SOL     OW28282   3.610   0.373   8.427  0.1934  0.5361  0.0012
 5607SOL    HW128283   3.529   0.419   8.409 -0.0367 -0.2087 -0.8583
 5607SOL    HW228284   3.619   0.392   8.521 -1.0473 -2.5154  0.7372
 5608SOL     OW28285   3.424   0.558   6.099  0.3426  0.4497 -0.1980
 5608SOL    HW128286   3.424   0.654   6.100  1.4672  0.4576 -0.9873
 5608SOL    HW228287   3.354   0.542   6.163 -0.0033 -1.8301 -1.1580
 5609SOL     OW28288   1.121   3.692   5.301  0.1430 -0.8920 -0.6622
 5609SOL    HW128289   1.103   3.600   5.317 -0.2507 -0.7596 -0.3371
 5609SOL    HW228290   1.033   3.730   5.308  1.1036  1.2026 -0.0278
 5610SOL     OW28291   0.947   0.187   5.431  0.4953 -0.6526 -0.5416
 5610SOL    HW128292   1.029   0.141   5.450  0.2773  0.5539  3.3422
 5610SOL    HW228293   0.901   0.125   5.375 -2.7145  0.6529  0.6301
 5611SOL     OW28294   4.214   1.765  13.143 -0.0409 -0.5938  0.3659
 5611SOL    HW128295   4.188   1.727  13.228 -0.5706 -0.1490  0.4046
 5611SOL    HW228296   4.218   1.854  13.178  2.4096 -0.0264 -1.4424
 5612SOL     OW28297   2.900   1.971  13.107 -0.4738 -0.0780 -0.4058
 5612SOL    HW128298   2.957   2.022  13.050  3.4026 -2.0573  1.6540
 5612SOL    HW228299   2.961   1.911  13.150 -1.6998 -1.3005 -0.3655
 5613SOL     OW28300   3.471   2.739   1.569  0.1169  0.3690  0.0769
 5613SOL    HW128301   3.427   2.805   1.516  2.2462  0.2017 -1.8927
 5613SOL    HW228302   3.452   2.769   1.658 -0.6764  2.0368 -0.6514
 5614SOL     OW28303   4.213   4.196   0.621  0.1312 -0.2026 -0.2188
 5614SOL    HW128304   4.259   4.190   0.705 -1.0884  3.2829  0.6995
 5614SOL    HW228305   4.206   4.106   0.592  4.0859 -0.4204 -0.5687
 5615SOL     OW28306   1.522   3.831   8.813  0.0429  0.3550  0.9092
 5615SOL    HW128307   1.514   3.887   8.891 -1.6309 -0.1202  1.0929
 5615SOL    HW228308   1.444   3.775   8.821  0.2417 -0.2014 -0.9153
 5616SOL     OW28309   3.349   4.710   5.243 -0.2279  0.4821 -0.3882
 5616SOL    HW128310   3.364   4.720   5.149  1.6097  0.7444 -0.0682
 5616SOL    HW228311   3.297   4.629   5.240  0.6622 -0.0483 -1.3005
 5617SOL     OW28312   2.626   3.590   7.765 -0.5216 -0.5362  0.5053
 5617SOL    HW128313   2.551   3.574   7.822  0.2008 -2.0707  1.0226
 5617SOL    HW228314   2.643   3.500   7.737 -0.8326 -0.3057 -0.4318
 5618SOL     OW28315   3.462   1.800   5.020 -0.2081  0.4945  0.0918
 5618SOL    HW128316   3.390   1.840   4.971  0.9246  1.6570 -0.6425
 5618SOL    HW228317   3.424   1.714   5.036 -1.3888  0.5808 -2.2687
 5619SOL     OW28318   0.058   4.045   5.762  0.1031 -0.0070 -0.0621
 5619SOL    HW128319   0.125   4.041   5.694 -0.2334  0.2876 -0.4153
 5619SOL    HW228320   4.698   4.047   5.711  0.4783  0.7347 -0.6321
 5620SOL     OW28321   2.139   4.708  10.170  0.0003 -0.2154 -0.0103
 5620SOL    HW128322   2.094   0.064  10.135 -0.4126  0.4836  2.1025
 5620SOL    HW228323   2.105   4.710  10.259 -1.8347 -0.2839 -0.7039
 5621SOL     OW28324   3.922   0.867  14.789  0.6411 -0.2606  0.1858
 5621SOL    HW128325   3.881   0.943  14.749  0.5235 -0.3675  0.1053
 5621SOL    HW228326   3.960   0.819  14.716  2.4667  1.0229  0.2949
 5622SOL     OW28327   3.099   4.232  11.214  0.0553 -0.1811  0.3053
 5622SOL    HW128328   3.120   4.140  11.230 -1.7840 -0.5192  0.7046
 5622SOL    HW228329   3.148   4.233  11.131  1.2257  1.5098  1.0271
 5623SOL     OW28330   2.013   1.685   4.907 -0.1180  0.3707 -0.3651
 5623SOL    HW128331   2.052   1.771   4.921 -1.5130  1.0216 -0.5479
 5623SOL    HW228332   1.989   1.695   4.815 -0.7164 -1.3167 -0.4079
 5624SOL     OW28333   3.883   0.209  16.724 -0.0354 -0.5579 -0.2003
 5624SOL    HW128334   3.850   0.173  16.642  0.6861  0.6514 -1.0190
 5624SOL    HW228335   3.977   0.204  16.707 -0.3262 -2.4749 -1.2303
 5625SOL     OW28336   0.969   3.895   0.240  0.3450  0.3522 -0.4709
 5625SOL    HW128337   0.971   3.983   0.279  1.8135  0.2671 -0.3490
 5625SOL    HW228338   1.030   3.851   0.300  0.9068  0.0203 -1.2845
 5626SOL     OW28339   0.492   1.969   4.571 -0.3351  0.2597  0.5266
 5626SOL    HW128340   0.545   2.040   4.608 -2.2426  1.7209  0.4958
 5626SOL    HW228341   0.449   1.942   4.652 -1.6579  3.2072  0.8122
 5627SOL     OW28342   0.413   0.625   3.364  0.0051  0.1866  0.5173
 5627SOL    HW128343   0.383   0.702   3.412 -0.9583 -0.9523  1.7495
 5627SOL    HW228344   0.346   0.557   3.357  0.2888 -0.1755  1.2819
 5628SOL     OW28345   2.149   1.109   2.850 -0.1288 -1.2119 -0.0623
 5628SOL    HW128346   2.119   1.139   2.764 -0.4085 -0.0652  0.4286
 5628SOL    HW228347   2.089   1.163   2.901  0.4444  0.6299 -1.3081
 5629SOL     OW28348   1.057   4.631   7.955  0.4111  0.1876 -0.5381
 5629SOL    HW128349   1.042   4.718   7.991  2.8380 -0.1220  1.2171
 5629SOL    HW228350   0.995   4.579   8.008  0.0876  0.8535 -0.2688
 5630SOL     OW28351   0.101   2.539   2.765  0.5697 -0.2622 -0.1458
 5630SOL    HW128352   0.068   2.482   2.835  1.4699 -0.5139  0.0802
 5630SOL    HW228353   0.176   2.575   2.812 -1.0390  1.0395  1.4159
 5631SOL     OW28354   4.695   0.526  16.510  0.4944  0.4050  0.3344
 5631SOL    HW128355   4.682   0.601  16.567 -1.5459 -0.2532  0.7126
 5631SOL    HW228356   0.055   0.549  16.464  0.0515 -0.8576 -1.0730
 5632SOL     OW28357   0.712   4.209  15.441  0.4385  0.2705 -0.2105
 5632SOL    HW128358   0.718   4.114  15.425  3.4204  0.3446  0.4029
 5632SOL    HW228359   0.656   4.239  15.370  1.6812 -3.8055 -2.9244
 5633SOL     OW28360   1.390   0.453  14.361 -0.4724  0.3847 -0.9947
 5633SOL    HW128361   1.300   0.463  14.329 -0.5189 -1.6619 -1.5082
 5633SOL    HW228362   1.372   0.443  14.454  0.8198 -2.6472 -1.0596
 5634SOL     OW28363   2.398   3.377   5.164  0.3102 -0.7301 -0.0400
 5634SOL    HW128364   2.387   3.314   5.094 -1.6578 -1.0156  0.5302
 5634SOL    HW228365   2.458   3.440   5.124 -1.1536  1.4187  1.1677
 5635SOL     OW28366   1.171   2.988   6.710 -0.7885  0.4397  0.0869
 5635SOL    HW128367   1.211   2.994   6.797 -2.9870 -0.1087  1.1535
 5635SOL    HW228368   1.103   2.922   6.725  0.3274 -0.4921  1.0713
 5636SOL     OW28369   3.238   2.806   9.079  0.2712  0.4281  0.1519
 5636SOL    HW128370   3.246   2.876   9.145  1.5986  1.2718 -0.8998
 5636SOL    HW228371   3.298   2.845   9.015 -0.9861  0.1956 -1.1506
 5637SOL     OW28372   1.416   2.818   7.875  0.4638 -0.1264  0.3872
 5637SOL    HW128373   1.483   2.861   7.823  1.4207 -0.3258  1.4581
 5637SOL    HW228374   1.420   2.730   7.839 -0.2739 -0.4341  1.0542
 5638SOL     OW28375   2.220   2.151   7.384  0.0438  0.1108  0.1966
 5638SOL    HW128376   2.237   2.139   7.478  1.6974 -3.5840 -0.5762
 5638SOL    HW228377   2.127   2.170   7.393  0.0152 -0.2837  0.7129
 5639SOL     OW28378   4.522   0.958   8.790 -0.0847 -0.3242 -0.4478
 5639SOL    HW128379   4.523   0.863   8.778 -3.6094 -0.4720  0.4624
 5639SOL    HW228380   4.466   0.957   8.867 -1.7632  1.5216 -1.6425
 5640SOL     OW28381   1.820   4.073   4.604 -0.1255  0.3000  0.4359
 5640SOL    HW128382   1.879   4.148   4.602 -1.1319  1.1090  0.7470
 5640SOL    HW228383   1.809   4.061   4.510 -0.6900 -0.7555  0.6310
 5641SOL     OW28384   1.494   0.426   7.604 -0.2479 -0.7162  0.1120
 5641SOL    HW128385   1.517   0.455   7.692  0.8453  2.5005 -1.2186
 5641SOL    HW228386   1.463   0.336   7.616  1.5002 -1.5156 -1.2964
 5642SOL     OW28387   1.951   4.061   0.964  0.0557 -0.3478  0.3932
 5642SOL    HW128388   1.997   3.979   0.979  0.9857 -0.2677 -2.0775
 5642SOL    HW228389   1.937   4.079   1.057  2.2255  0.6690  0.5171
 5643SOL     OW28390   2.720   3.926   8.072 -0.1618 -0.5716 -0.0711
 5643SOL    HW128391   2.689   3.977   7.997 -1.9872  0.3483  1.3245
 5643SOL    HW228392   2.751   3.848   8.026 -0.3618 -1.3542  1.1371
 5644SOL     OW28393   3.883   1.905   4.703  0.3445  0.1910  0.2995
 5644SOL    HW128394   3.789   1.922   4.697  0.2839  1.2614  3.7244
 5644SOL    HW228395   3.912   1.943   4.620  1.9728  1.7821  1.5780
 5645SOL     OW28396   1.702   3.212   8.609 -0.5230  0.0949  0.2585
 5645SOL    HW128397   1.796   3.208   8.625 -0.8867 -1.7294  1.9284
 5645SOL    HW228398   1.679   3.183   8.698  1.0214 -2.2184 -0.1000
 5646SOL     OW28399   1.034   2.871   3.394  0.2951 -0.3159  0.4197
 5646SOL    HW128400   0.981   2.936   3.348  0.5326 -0.2860  0.1871
 5646SOL    HW228401   1.114   2.920   3.410  0.1902  0.1586 -0.4997
 5647SOL     OW28402   0.330   1.110   4.046  0.1242 -0.2694  0.0136
 5647SOL    HW128403   0.410   1.155   4.018 -0.0538  0.2147  0.2712
 5647SOL    HW228404   0.335   1.029   3.996  0.9195  1.1047 -2.1448
 5648SOL     OW28405   1.116   2.746  12.637  0.4556  0.0150  0.1059
 5648SOL    HW128406   1.122   2.755  12.542  2.6923 -0.7374  0.1830
 5648SOL    HW228407   1.109   2.839  12.658  3.1472  0.1829  0.2978
 5649SOL     OW28408   0.231   1.738   5.333 -0.3845  0.0951 -0.0669
 5649SOL    HW128409   0.150   1.737   5.282 -0.7378  0.2383  0.4959
 5649SOL    HW228410   0.255   1.647   5.349 -0.8731  0.0185  0.2197
 5650SOL     OW28411   2.104   3.107   4.316 -0.0300  0.8729  0.4579
 5650SOL    HW128412   2.069   3.113   4.227 -0.4771  1.4813  0.6697
 5650SOL    HW228413   2.116   3.013   4.324 -0.3156  0.8844  0.9941
 5651SOL     OW28414   0.409   1.507   4.413 -0.3185 -0.4385  0.2483
 5651SOL    HW128415   0.482   1.547   4.366 -1.8267  1.3825 -0.5550
 5651SOL    HW228416   0.334   1.511   4.355 -0.3327 -0.3669  0.2706
 5652SOL     OW28417   1.757   2.209  17.639 -0.0631  0.2397  0.3829
 5652SOL    HW128418   1.840   2.253  17.658  1.6127 -3.0215  0.7158
 5652SOL    HW228419   1.695   2.251   0.011 -0.7876  0.7807 -0.7727
 5653SOL     OW28420   3.281   1.517   5.454  0.0898 -0.4959 -0.2503
 5653SOL    HW128421   3.276   1.500   5.548  0.7657  1.7033  0.1847
 5653SOL    HW228422   3.207   1.576   5.436 -1.0754 -1.8289  0.1461
 5654SOL     OW28423   3.893   3.413   9.351  0.6554 -0.1926  0.1064
 5654SOL    HW128424   3.984   3.390   9.330 -0.2681 -1.8816 -2.1143
 5654SOL    HW228425   3.845   3.378   9.276 -0.3093  1.6337 -0.1083
 5655SOL     OW28426   2.039   2.389   5.647  0.1064  0.0428 -0.4068
 5655SOL    HW128427   2.112   2.412   5.590 -0.7997 -0.0790 -1.6228
 5655SOL    HW228428   2.028   2.475   5.688  1.0549 -0.9225  1.8790
 5656SOL     OW28429   4.617   2.936   5.340  0.1078  0.7327  0.0045
 5656SOL    HW128430   4.632   2.851   5.299 -0.6756  0.3747  0.4691
 5656SOL    HW228431   4.633   2.925   5.434 -1.1541 -0.0722  0.1248
 5657SOL     OW28432   1.222   1.985   6.103 -0.1025 -0.4118  0.1550
 5657SOL    HW128433   1.277   2.055   6.067 -0.4142 -0.0236  0.4227
 5657SOL    HW228434   1.248   1.990   6.195  1.6180 -3.8209 -0.1890
 5658SOL     OW28435   3.230   3.630   7.114 -0.1003 -0.0116 -0.4441
 5658SOL    HW128436   3.283   3.640   7.193 -0.7030  0.2918 -0.0720
 5658SOL    HW228437   3.153   3.589   7.154 -1.4011  1.2178 -1.6822
 5659SOL     OW28438   1.108   1.194   3.340 -0.4604  0.5879  0.1478
 5659SOL    HW128439   1.076   1.170   3.254 -1.7213 -0.5741  0.9434
 5659SOL    HW228440   1.137   1.284   3.330 -0.3812  0.8550  2.7214
 5660SOL     OW28441   1.838   4.569   9.263  0.0113  0.3821 -0.1400
 5660SOL    HW128442   1.858   4.500   9.327  0.0244  0.0892 -0.4539
 5660SOL    HW228443   1.913   4.629   9.267  0.1999  0.1712 -0.4567
 5661SOL     OW28444   1.912   3.104  16.174 -0.3185  0.1986 -0.0239
 5661SOL    HW128445   1.874   3.033  16.226  0.8168 -0.2290  0.2196
 5661SOL    HW228446   1.907   3.177  16.236 -1.2361 -0.7409  1.0005
 5662SOL     OW28447   0.193   2.043  14.948  0.3522  0.2112 -0.5069
 5662SOL    HW128448   0.284   2.067  14.966 -0.0687  0.8289  0.8176
 5662SOL    HW228449   0.193   2.041  14.853 -1.2305  1.3717 -0.5261
 5663SOL     OW28450   4.106   2.796   2.036  0.5873  0.2615  0.1928
 5663SOL    HW128451   4.141   2.857   2.102  0.9957 -0.1579  0.3653
 5663SOL    HW228452   4.010   2.797   2.033  0.5421  0.9591  1.7593
 5664SOL     OW28453   0.282   2.961   2.004 -0.2633  0.2295 -0.4988
 5664SOL    HW128454   0.236   3.039   1.973  2.4030  1.6341 -0.9492
 5664SOL    HW228455   0.349   2.955   1.936  0.7456  0.1597  0.5096
 5665SOL     OW28456   2.195   2.810   5.541  0.1431  0.0084  0.3195
 5665SOL    HW128457   2.157   2.884   5.493 -1.6729 -0.7555  0.5752
 5665SOL    HW228458   2.265   2.779   5.484 -1.0577  0.9972 -1.6915
 5666SOL     OW28459   2.427   4.676   3.923  0.2670 -0.0873 -0.1013
 5666SOL    HW128460   2.396   0.001   4.001 -2.5793  0.1802 -1.3919
 5666SOL    HW228461   2.424   0.030   3.864  0.5082 -0.5544 -0.7078
 5667SOL     OW28462   4.185   0.516   8.278 -0.7165 -0.0832 -0.7193
 5667SOL    HW128463   4.093   0.516   8.253 -0.6995  0.6152 -0.7798
 5667SOL    HW228464   4.188   0.590   8.339 -1.1266 -0.0902 -0.6926
 5668SOL     OW28465   0.666   1.503   6.841 -0.1911 -0.1436 -0.1863
 5668SOL    HW128466   0.667   1.486   6.747  0.9184 -1.0407 -0.0152
 5668SOL    HW228467   0.571   1.512   6.844  0.0801  2.6154  0.1685
 5669SOL     OW28468   1.939   3.510   2.380 -0.0575 -0.4543  0.6309
 5669SOL    HW128469   2.013   3.518   2.320 -0.8844 -0.2731 -0.3646
 5669SOL    HW228470   1.883   3.439   2.350 -2.9894  0.7500  3.1488
 5670SOL     OW28471   4.590   2.956   8.559  0.2083  0.1378  0.1103
 5670SOL    HW128472   4.651   2.885   8.581 -2.0096 -1.5901  0.6970
 5670SOL    HW228473   4.546   2.917   8.483  0.8114 -1.4129  0.5504
 5671SOL     OW28474   3.175   0.087  13.810 -0.0989  0.8439 -0.1261
 5671SOL    HW128475   3.158   0.134  13.892  1.0260  0.2979  0.4214
 5671SOL    HW228476   3.187   4.721  13.847  0.7735  0.8708 -0.3553
 5672SOL     OW28477   1.395   3.473   5.582 -0.4077 -0.0586  0.2145
 5672SOL    HW128478   1.452   3.546   5.555 -0.6617 -0.1148 -0.4761
 5672SOL    HW228479   1.430   3.406   5.523  0.7717 -0.3774  1.2634
 5673SOL     OW28480   0.169   0.934   6.725  0.3845 -0.1923  0.2696
 5673SOL    HW128481   0.184   0.903   6.635  1.4630 -1.1517  0.7824
 5673SOL    HW228482   0.076   0.953   6.732  0.4128  0.9588 -2.3173
 5674SOL     OW28483   3.507   1.757   5.316 -0.4478  0.6736 -0.0318
 5674SOL    HW128484   3.508   1.679   5.372 -1.1408  0.5542 -0.1834
 5674SOL    HW228485   3.447   1.728   5.247  1.1712  1.3355 -1.7265
 5675SOL     OW28486   1.279   4.472   7.736 -0.4440  0.5139 -0.1669
 5675SOL    HW128487   1.278   4.389   7.782 -1.8677  0.3696 -0.4278
 5675SOL    HW228488   1.285   4.541   7.802 -0.4605 -0.2312  0.5954
 5676SOL     OW28489   4.391   1.648   5.251  0.2322  0.7091  0.8166
 5676SOL    HW128490   4.387   1.563   5.207  0.6745  1.9152 -1.5765
 5676SOL    HW228491   4.357   1.714   5.189  0.7347  2.5896  2.5559
 5677SOL     OW28492   2.378   1.984   6.249 -0.6363 -0.0453 -0.3511
 5677SOL    HW128493   2.446   1.992   6.183 -0.5405  2.0314 -0.0133
 5677SOL    HW228494   2.300   1.963   6.196 -0.9165 -0.7170  0.3287
 5678SOL     OW28495   2.256   0.255  17.229 -0.0401  0.2061 -0.6875
 5678SOL    HW128496   2.188   0.303  17.277 -1.4351  0.0594 -2.4936
 5678SOL    HW228497   2.208   0.236  17.149  1.1578 -0.5530 -1.2250
 5679SOL     OW28498   2.250   3.930   3.354 -0.5318 -0.0629  0.5026
 5679SOL    HW128499   2.325   3.880   3.386 -0.5098  1.6573  3.0761
 5679SOL    HW228500   2.187   3.883   3.408 -1.6219  0.6278 -0.1685
 5680SOL     OW28501   3.784   1.878   6.209 -0.6695  0.4500  0.2276
 5680SOL    HW128502   3.726   1.817   6.255 -0.2393 -0.4977 -0.5050
 5680SOL    HW228503   3.868   1.868   6.253 -0.7542 -1.4540 -0.0640
 5681SOL     OW28504   0.800   2.757   7.114 -0.4364  0.2717  0.5918
 5681SOL    HW128505   0.715   2.784   7.078  0.2862  0.8576 -0.6599
 5681SOL    HW228506   0.776   2.665   7.130  2.3769 -0.6533 -0.5996
 5682SOL     OW28507   2.448   2.946   5.322  0.3689 -0.2341  0.1007
 5682SOL    HW128508   2.411   2.894   5.250 -2.6440 -0.8457  2.1056
 5682SOL    HW228509   2.511   2.882   5.355  2.4081  2.3005  1.0472
 5683SOL     OW28510   1.425   3.210   5.465 -0.6062 -0.4215 -0.3853
 5683SOL    HW128511   1.486   3.137   5.473  0.5546  0.4534 -1.2902
 5683SOL    HW228512   1.403   3.211   5.372 -1.7558 -1.6122 -0.1236
 5684SOL     OW28513   1.275   4.642   5.573  0.3553 -0.1093  0.0228
 5684SOL    HW128514   1.247   0.013   5.572 -2.8022 -1.0820 -1.5677
 5684SOL    HW228515   1.349   4.652   5.513 -0.8779 -0.1167 -1.5248
 5685SOL     OW28516   1.428   4.202   4.777 -0.7249 -0.2737  0.4673
 5685SOL    HW128517   1.476   4.120   4.784 -1.6193 -0.9271 -1.0864
 5685SOL    HW228518   1.368   4.180   4.705 -1.1002 -2.4761  1.4583
 5686SOL     OW28519   1.851   3.214   5.957 -0.0691 -0.4973  0.0672
 5686SOL    HW128520   1.942   3.233   5.935 -0.7976  1.9208 -0.8652
 5686SOL    HW228521   1.803   3.221   5.875 -2.2647  0.5237  1.4322
 5687SOL     OW28522   4.482   3.934   8.419  0.5936 -0.4449  0.3654
 5687SOL    HW128523   4.512   3.969   8.336  0.9913 -1.5481  0.0436
 5687SOL    HW228524   4.538   3.981   8.481  0.1657  0.5661 -0.0218
 5688SOL     OW28525   3.054   2.126   7.639  0.3968 -0.2157 -0.1417
 5688SOL    HW128526   3.053   2.156   7.730  1.0955  1.1596 -0.5975
 5688SOL    HW228527   3.114   2.183   7.592  1.4657 -0.1360  1.3170
 5689SOL     OW28528   4.182   1.963  14.410 -0.0169 -0.2559  0.5889
 5689SOL    HW128529   4.120   2.036  14.413  0.1777  0.0159 -1.8865
 5689SOL    HW228530   4.244   1.984  14.341 -0.6586 -0.2630  0.0142
 5690SOL     OW28531   3.882   4.543   4.071 -0.1109  0.0932 -0.2005
 5690SOL    HW128532   3.892   4.514   4.161 -1.4787  1.6161  0.4487
 5690SOL    HW228533   3.959   4.493   4.044  1.2543  2.0435  0.0536
 5691SOL     OW28534   2.382   3.751   7.186  0.2219 -0.3097 -0.0018
 5691SOL    HW128535   2.458   3.808   7.177  0.1191 -0.2334 -0.3791
 5691SOL    HW228536   2.376   3.710   7.100  2.5179  1.8495 -1.1748
 5692SOL     OW28537   1.465   4.039   8.254 -0.6551  0.3487 -0.3698
 5692SOL    HW128538   1.389   4.010   8.304 -0.3474 -1.5405 -1.0237
 5692SOL    HW228539   1.481   3.959   8.204  1.8097 -0.5326  1.8247
 5693SOL     OW28540   3.129   4.190   9.362  0.0635 -0.0893  0.8395
 5693SOL    HW128541   3.097   4.100   9.366  1.3336 -0.6222 -1.2694
 5693SOL    HW228542   3.098   4.203   9.272  1.7763 -0.6790  0.1827
 5694SOL     OW28543   3.937   3.206   0.616  0.5868 -0.5097 -0.1640
 5694SOL    HW128544   3.852   3.164   0.601  0.8271 -0.8132 -0.6731
 5694SOL    HW228545   3.946   3.219   0.710 -0.5817 -1.1180  0.0366
 5695SOL     OW28546   2.126   3.962   8.722  0.7466  0.1264 -0.3456
 5695SOL    HW128547   2.044   4.003   8.749  0.0424 -2.9628  2.3126
 5695SOL    HW228548   2.146   4.009   8.642 -0.5698 -1.3986 -1.5653
 5696SOL     OW28549   0.835   1.734   7.665 -0.1468 -0.2522  0.3539
 5696SOL    HW128550   0.844   1.641   7.688 -1.9202 -0.7950 -1.1669
 5696SOL    HW228551   0.923   1.772   7.673 -0.4288  0.0820  2.0483
 5697SOL     OW28552   1.404   0.245   7.244  0.5291  0.8166  0.2826
 5697SOL    HW128553   1.496   0.231   7.267  0.6862  0.9003 -0.2924
 5697SOL    HW228554   1.358   0.185   7.303 -0.5948  1.0694 -0.3277
 5698SOL     OW28555   4.476   3.700   2.218 -0.2941  0.4856 -0.1250
 5698SOL    HW128556   4.506   3.767   2.280  0.4741 -1.5367  1.7037
 5698SOL    HW228557   4.513   3.731   2.135  1.1660 -1.2548 -0.1302
 5699SOL     OW28558   3.320   0.901   7.552 -0.0313 -0.0923 -0.3911
 5699SOL    HW128559   3.228   0.874   7.562  0.0837 -1.3458 -2.6574
 5699SOL    HW228560   3.318   0.992   7.523 -1.3553 -0.7788 -2.4790
 5700SOL     OW28561   0.981   4.260   4.710  0.3558 -0.6427  0.4809
 5700SOL    HW128562   0.903   4.256   4.655 -0.7152  2.0896  1.8047
 5700SOL    HW228563   0.968   4.199   4.782  0.7652 -0.0945  1.0247
 5701SOL     OW28564   1.515   3.386   9.324 -0.5517 -0.2097 -0.2386
 5701SOL    HW128565   1.506   3.467   9.275  0.6545  0.5667  0.8306
 5701SOL    HW228566   1.560   3.331   9.260  0.0772  0.1622 -0.1086
 5702SOL     OW28567   3.664   0.687  12.923  0.3383 -0.0588  0.7111
 5702SOL    HW128568   3.708   0.771  12.907  1.0998 -0.7189 -0.7262
 5702SOL    HW228569   3.603   0.685  12.849  0.9993 -1.8495  0.2178
 5703SOL     OW28570   1.901   1.968  12.334 -0.2054  0.1302  0.1282
 5703SOL    HW128571   1.963   2.040  12.326  0.6512 -0.6275 -0.0075
 5703SOL    HW228572   1.890   1.940  12.243 -0.6012 -0.6430  0.4130
 5704SOL     OW28573   1.661   2.487  16.686 -0.2319 -0.2001  0.3545
 5704SOL    HW128574   1.714   2.416  16.648 -1.4141 -1.4604  1.0610
 5704SOL    HW228575   1.573   2.461  16.659 -0.1413 -1.1314  0.9649
 5705SOL     OW28576   3.907   2.913   5.703  0.7608  0.4632  0.3162
 5705SOL    HW128577   3.891   2.955   5.787  0.1928 -0.0409  0.4626
 5705SOL    HW228578   3.975   2.850   5.726  0.2901 -0.2323 -0.2039
 5706SOL     OW28579   2.252   0.747   2.330  0.4243 -0.1142  0.3435
 5706SOL    HW128580   2.199   0.752   2.410  0.7091  1.0064  0.4586
 5706SOL    HW228581   2.343   0.754   2.359  0.1584  0.5957  1.0392
 5707SOL     OW28582   3.758   0.815  12.462 -0.5291  0.3278  0.1692
 5707SOL    HW128583   3.769   0.807  12.556  3.2446 -1.4488 -0.4136
 5707SOL    HW228584   3.672   0.781  12.434 -0.4219  0.2810 -0.1038
 5708SOL     OW28585   2.010   1.079   5.035 -0.2663 -0.3764  0.7271
 5708SOL    HW128586   2.100   1.086   5.003  0.1392  0.2163  1.9915
 5708SOL    HW228587   1.997   1.162   5.082  1.2232 -0.3685  1.1137
 5709SOL     OW28588   0.071   2.412   3.844 -0.2898 -0.4409 -0.0402
 5709SOL    HW128589   0.007   2.343   3.860 -0.6652 -0.5135 -1.8440
 5709SOL    HW228590   0.057   2.470   3.919  0.0613 -1.1908  0.5993
 5710SOL     OW28591   4.004   1.579  13.376 -0.0103 -0.8176 -0.0294
 5710SOL    HW128592   4.050   1.649  13.422 -1.3055  0.0571 -0.0808
 5710SOL    HW228593   4.063   1.504  13.389 -0.7354 -1.5078 -0.7263
 5711SOL     OW28594   4.554   3.750  10.016  0.0130 -0.2218 -0.6585
 5711SOL    HW128595   4.504   3.799  10.082  1.1654  0.6230 -0.4097
 5711SOL    HW228596   4.492   3.748   9.943  0.0998  0.1713 -0.7420
 5712SOL     OW28597   0.574   2.981  10.320  0.1866  0.3285 -0.3520
 5712SOL    HW128598   0.660   2.970  10.361 -1.1052 -0.8338  2.0784
 5712SOL    HW228599   0.522   3.012  10.394 -1.4206 -1.5614 -0.6844
 5713SOL     OW28600   1.679   2.315   4.152  0.0848  0.0437 -0.3859
 5713SOL    HW128601   1.718   2.304   4.065  1.2608  1.1744 -0.0042
 5713SOL    HW228602   1.625   2.393   4.139  2.4975  1.6739 -0.8304
 5714SOL     OW28603   1.438   1.726   5.905  0.3194 -0.5120 -0.1724
 5714SOL    HW128604   1.469   1.745   5.994 -1.1518 -3.0087  0.8634
 5714SOL    HW228605   1.509   1.675   5.865  1.4185  0.0629  1.0116
 5715SOL     OW28606   3.232   0.517   7.269  0.2564 -0.7157 -0.5560
 5715SOL    HW128607   3.327   0.509   7.267  0.4232  1.0491 -0.0251
 5715SOL    HW228608   3.207   0.470   7.189 -0.1243 -1.0348 -0.2510
 5716SOL     OW28609   3.069   3.275   9.021 -0.1547 -0.3641 -0.0364
 5716SOL    HW128610   3.076   3.207   9.087  0.7275 -0.8065 -0.5870
 5716SOL    HW228611   3.160   3.304   9.017  0.0430 -0.8822  0.6335
 5717SOL     OW28612   0.863   2.534   4.486  0.1474  0.7233 -0.0977
 5717SOL    HW128613   0.874   2.467   4.419  1.2762  1.0131 -0.2151
 5717SOL    HW228614   0.803   2.583   4.430  0.0743 -0.2269 -0.8463
 5718SOL     OW28615   0.817   3.318   4.528  0.2202 -0.2812  0.3591
 5718SOL    HW128616   0.865   3.267   4.594 -0.4808 -3.2013 -1.3891
 5718SOL    HW228617   0.888   3.325   4.464 -1.2618  0.9309 -1.1461
 5719SOL     OW28618   3.333   4.173   0.850  0.2861 -0.3657  0.0104
 5719SOL    HW128619   3.400   4.131   0.797 -0.4089 -1.4749 -0.0066
 5719SOL    HW228620   3.252   4.123   0.835  0.9724 -1.0203 -1.4664
 5720SOL     OW28621   2.344   3.211  15.599  0.3091  0.1422  0.0692
 5720SOL    HW128622   2.371   3.290  15.553  0.3435 -0.0374 -0.2200
 5720SOL    HW228623   2.275   3.167  15.549 -0.4186  2.5345 -1.0065
 5721SOL     OW28624   3.833   4.224   4.873 -0.0017 -0.2541 -0.2699
 5721SOL    HW128625   3.767   4.224   4.804 -0.6584 -0.7165  0.3621
 5721SOL    HW228626   3.796   4.165   4.938  0.6033  0.5280  0.7829
 5722SOL     OW28627   4.689   2.229   3.580  0.3207 -0.0007 -0.2509
 5722SOL    HW128628   4.698   2.193   3.491 -0.2110  1.2039 -0.7945
 5722SOL    HW228629   4.630   2.161   3.611  0.5110  0.2565  0.6855
 5723SOL     OW28630   3.130   2.026  17.048  0.9226 -0.1069  0.2829
 5723SOL    HW128631   3.112   2.010  17.141 -0.4400 -0.6269 -0.0696
 5723SOL    HW228632   3.054   2.065  17.005 -0.1218 -1.3871  0.9574
 5724SOL     OW28633   3.318   2.145   3.245  0.2117  0.0247 -0.3791
 5724SOL    HW128634   3.402   2.098   3.244  0.2154  0.0448 -0.8709
 5724SOL    HW228635   3.267   2.092   3.308  0.5742  0.0184 -0.0895
 5725SOL     OW28636   2.213   1.956  13.651 -0.3244  0.2173 -0.1127
 5725SOL    HW128637   2.241   1.931  13.563  1.3469  2.1325 -0.1167
 5725SOL    HW228638   2.263   2.035  13.669 -0.5498  0.1436  0.8496
 5726SOL     OW28639   4.339   1.811   5.646  0.4594 -0.0853  0.6948
 5726SOL    HW128640   4.363   1.831   5.737  0.3676 -1.0605  0.9416
 5726SOL    HW228641   4.270   1.875   5.630  0.7556 -0.1447 -0.7629
 5727SOL     OW28642   0.856   3.044   6.337  0.2884 -0.3981 -0.3000
 5727SOL    HW128643   0.898   3.124   6.304 -0.6073 -0.2345 -1.0278
 5727SOL    HW228644   0.860   2.984   6.262  0.4647 -1.5450  0.6176
 5728SOL     OW28645   4.478   3.544  10.281 -0.2032 -0.1502 -0.2547
 5728SOL    HW128646   4.489   3.609  10.211 -1.2472  0.5132  0.1977
 5728SOL    HW228647   4.536   3.583  10.346 -0.4855  0.0371 -0.1167
 5729SOL     OW28648   1.941   0.501   1.508  0.7711  0.1523 -0.4696
 5729SOL    HW128649   1.857   0.467   1.539  0.8457  2.2321  1.9427
 5729SOL    HW228650   1.916   0.593   1.501 -2.6908 -0.7041  1.0204
 5730SOL     OW28651   4.700   3.002   5.061 -0.1214  0.5734  0.7393
 5730SOL    HW128652   0.051   2.947   5.091 -1.2579 -1.8476 -0.9666
 5730SOL    HW228653   4.653   3.025   5.141  1.8046  2.1739  1.4100
 5731SOL     OW28654   2.912   2.838  10.403  0.1445 -0.0088 -0.4064
 5731SOL    HW128655   2.862   2.920  10.398 -0.0701 -0.1752 -0.9845
 5731SOL    HW228656   2.881   2.795  10.323 -1.6293 -0.7487  0.6811
 5732SOL     OW28657   4.079   0.671  10.072 -0.1845  0.0052 -0.3306
 5732SOL    HW128658   4.013   0.616  10.030 -0.4500  0.4343 -0.4737
 5732SOL    HW228659   4.126   0.719  10.004  1.0336  1.9933  1.9220
 5733SOL     OW28660   1.802   3.638   2.555  0.1429  0.0284  0.0175
 5733SOL    HW128661   1.716   3.650   2.517  0.8723 -0.0236 -1.6294
 5733SOL    HW228662   1.861   3.605   2.487 -0.4337 -1.1136  0.0829
 5734SOL     OW28663   1.231   2.000  15.360  0.3178 -0.4158 -0.1669
 5734SOL    HW128664   1.283   2.058  15.305  0.5418  0.8604  1.4275
 5734SOL    HW228665   1.254   1.917  15.317  0.1128 -0.4547 -0.2069
 5735SOL     OW28666   1.342   1.575   0.253  0.0272  0.6358 -0.1128
 5735SOL    HW128667   1.266   1.623   0.286  0.9725  2.2330 -0.2242
 5735SOL    HW228668   1.413   1.626   0.294  0.8070  1.3750 -2.3742
 5736SOL     OW28669   1.789   4.137   7.023 -0.7556 -0.2222 -0.5464
 5736SOL    HW128670   1.711   4.191   7.035 -0.3712 -0.3249  2.3187
 5736SOL    HW228671   1.756   4.077   6.955 -0.4322 -0.3946 -0.5533
 5737SOL     OW28672   0.934   2.671   5.482 -0.2484 -0.3604  0.3472
 5737SOL    HW128673   0.918   2.730   5.556 -2.7119 -0.9263  0.2863
 5737SOL    HW228674   0.861   2.611   5.503 -0.1527 -0.8931 -0.8325
 5738SOL     OW28675   2.139   3.253  11.437  0.3003  0.3665  0.5915
 5738SOL    HW128676   2.056   3.271  11.481 -0.8257 -1.4541 -0.7863
 5738SOL    HW228677   2.154   3.337  11.394  0.1195  0.6015  0.9861
 5739SOL     OW28678   1.336   4.499  10.240  0.3639  0.3244 -0.2834
 5739SOL    HW128679   1.314   4.412  10.207 -2.7046 -0.1025  2.8180
 5739SOL    HW228680   1.336   4.486  10.335  0.4991  2.6981  0.0411
 5740SOL     OW28681   1.455   1.876   1.442  0.3135  0.3015 -0.1966
 5740SOL    HW128682   1.501   1.908   1.363 -0.2850  2.3660  0.2966
 5740SOL    HW228683   1.458   1.949   1.503 -3.5964  1.1715 -1.0726
 5741SOL     OW28684   2.651   1.199  16.887 -0.2387 -0.4051 -0.0135
 5741SOL    HW128685   2.673   1.275  16.941  0.8215 -0.3800 -0.4792
 5741SOL    HW228686   2.705   1.140  16.939  1.4275  1.2914  0.1592
 5742SOL     OW28687   1.591   3.561   9.128  0.2438  0.0542 -0.5001
 5742SOL    HW128688   1.681   3.549   9.099  0.6711 -0.9283  1.2082
 5742SOL    HW228689   1.551   3.628   9.074 -2.0195 -0.4875  0.4913
 5743SOL     OW28690   4.392   0.069   9.149 -0.0237 -0.3732 -0.2405
 5743SOL    HW128691   4.416   0.051   9.057 -0.5977 -0.9297 -0.2832
 5743SOL    HW228692   4.421   0.159   9.158  0.3263 -0.2431 -2.6288
 5744SOL     OW28693   4.592   3.924   7.177  0.0327 -0.2737 -0.0803
 5744SOL    HW128694   4.597   3.908   7.082 -0.0508  0.0315 -0.1360
 5744SOL    HW228695   4.627   3.841   7.208  1.6290  0.9854  1.5172
 5745SOL     OW28696   1.458   2.288   8.725  0.1044  0.1202 -0.5724
 5745SOL    HW128697   1.474   2.227   8.797  0.8842 -0.1090 -0.9340
 5745SOL    HW228698   1.487   2.238   8.649 -0.9419 -1.0924 -0.1651
 5746SOL     OW28699   2.181   3.652   4.088 -0.4700  0.2665  0.0184
 5746SOL    HW128700   2.238   3.721   4.122 -0.5930  0.4152 -0.0803
 5746SOL    HW228701   2.235   3.608   4.022 -2.8847 -0.4046 -1.4998
 5747SOL     OW28702   0.399   1.393   4.685 -0.5243  0.1232 -0.1504
 5747SOL    HW128703   0.411   1.299   4.671  0.7252  0.1876  0.4678
 5747SOL    HW228704   0.396   1.432   4.597  0.7910 -0.5355 -0.4760
 5748SOL     OW28705   1.174   1.368  13.925 -0.1443  0.7769  0.7029
 5748SOL    HW128706   1.132   1.454  13.926  0.2660  0.9858  0.2863
 5748SOL    HW228707   1.248   1.386  13.867 -0.5305 -0.3985 -0.1540
 5749SOL     OW28708   2.144   2.658  11.512  0.0477 -0.1582  0.1864
 5749SOL    HW128709   2.160   2.752  11.504 -2.2374  0.2739  0.7077
 5749SOL    HW228710   2.205   2.619  11.450  1.3214 -0.4776  1.6397
 5750SOL     OW28711   0.208   1.896   0.214 -0.3053  0.5432 -0.0940
 5750SOL    HW128712   0.272   1.884   0.284 -0.2963 -0.8015 -0.3439
 5750SOL    HW228713   0.198   1.812   0.170  0.1943 -0.4713  1.7421
 5751SOL     OW28714   1.384   2.050   7.019 -0.1995  0.5328  0.1312
 5751SOL    HW128715   1.347   2.122   6.968 -1.5693 -0.0740  0.2676
 5751SOL    HW228716   1.475   2.075   7.037  0.7748 -1.6418 -1.6937
 5752SOL     OW28717   0.725   0.451   7.750 -0.6473  0.1334 -0.1185
 5752SOL    HW128718   0.733   0.397   7.671 -0.6216  2.7380 -1.9233
 5752SOL    HW228719   0.636   0.483   7.735 -1.1371 -1.2810 -0.2332
 5753SOL     OW28720   3.400   1.035   8.315  0.4614  0.2743 -0.3089
 5753SOL    HW128721   3.453   1.090   8.372 -1.0145  1.9397 -0.5399
 5753SOL    HW228722   3.433   1.077   8.236 -0.3567  0.5085 -0.5299
 5754SOL     OW28723   4.689   3.636   7.974 -0.3624 -0.4385  0.0181
 5754SOL    HW128724   4.615   3.581   7.999 -0.4039 -0.6489 -0.5716
 5754SOL    HW228725   4.651   3.683   7.900 -2.6114 -0.1397  1.3595
 5755SOL     OW28726   1.237   4.458   3.433  0.1169  0.4578  0.5936
 5755SOL    HW128727   1.197   4.500   3.357 -0.7151  0.7981  1.2172
 5755SOL    HW228728   1.207   4.524   3.495  1.9609  2.7117 -0.9075
 5756SOL     OW28729   4.368   3.461   0.640  0.0605 -0.6235 -0.2823
 5756SOL    HW128730   4.355   3.482   0.548  0.1068  0.0022 -0.1457
 5756SOL    HW228731   4.281   3.485   0.671  1.0668  0.4072  1.7949
 5757SOL     OW28732   1.467   4.708   8.550 -0.1223  0.1229 -0.5212
 5757SOL    HW128733   1.526   0.063   8.546 -0.8599  0.7268  0.1068
 5757SOL    HW228734   1.497   4.662   8.471  1.5085  0.2231  0.0279
 5758SOL     OW28735   0.754   3.897   9.732 -0.0967  0.2244  0.8092
 5758SOL    HW128736   0.740   3.898   9.638  2.7649 -0.3312  0.3606
 5758SOL    HW228737   0.843   3.931   9.744  0.8214 -2.7019  2.1707
 5759SOL     OW28738   1.953   1.953  14.259  0.4238 -0.2545  0.5157
 5759SOL    HW128739   2.033   2.000  14.234  0.4333 -0.7248 -0.3365
 5759SOL    HW228740   1.884   2.004  14.217  1.0386  1.2694  1.3699
 5760SOL     OW28741   0.284   2.122  12.119  0.1084  0.8193 -0.5730
 5760SOL    HW128742   0.335   2.156  12.193  1.4859 -0.5816 -0.8752
 5760SOL    HW228743   0.212   2.185  12.128  0.1050  0.9716 -1.7867
 5761SOL     OW28744   1.309   4.434   4.279 -0.2256  0.2312 -0.2990
 5761SOL    HW128745   1.232   4.377   4.277  0.2249 -0.4353  1.5063
 5761SOL    HW228746   1.383   4.373   4.273 -0.6528 -0.0025 -3.0841
 5762SOL     OW28747   3.430   2.064   8.304 -0.3517 -0.2907 -0.0726
 5762SOL    HW128748   3.465   2.018   8.380  0.0050 -3.1671 -1.9726
 5762SOL    HW228749   3.367   2.113   8.357 -0.3317 -0.5523  0.1904
 5763SOL     OW28750   1.040   0.664  13.916 -0.3412  0.3166  0.1043
 5763SOL    HW128751   1.043   0.578  13.874 -2.0300 -0.6881  1.9913
 5763SOL    HW228752   1.128   0.699  13.906 -0.4639  1.1426  1.7654
 5764SOL     OW28753   4.076   0.274   0.973  0.1388 -0.1974  0.4315
 5764SOL    HW128754   4.067   0.333   1.049  2.5441 -0.9435  1.2927
 5764SOL    HW228755   4.171   0.262   0.968  0.0936 -0.5882  0.5284
 5765SOL     OW28756   3.899   4.501   5.927  0.5849 -0.1528  0.0543
 5765SOL    HW128757   3.921   4.528   6.017  1.8290  0.7952 -0.5300
 5765SOL    HW228758   3.893   4.406   5.939 -1.7610  0.1100  0.9469
 5766SOL     OW28759   0.716   0.259   8.967  0.5295 -0.1145  1.0864
 5766SOL    HW128760   0.799   0.225   8.999  0.9279  0.7556  0.9626
 5766SOL    HW228761   0.660   0.265   9.045 -0.6212 -0.5292  0.2962
 5767SOL     OW28762   0.991   2.840   2.002 -0.6173 -0.1217 -0.9462
 5767SOL    HW128763   0.989   2.851   2.097  4.2015  3.8627 -1.3280
 5767SOL    HW228764   0.979   2.932   1.977  3.4195  0.3780 -0.9632
 5768SOL     OW28765   2.327   0.068   4.164 -0.2025  0.0339  0.2950
 5768SOL    HW128766   2.259   0.129   4.134  0.4280  0.1843 -0.8072
 5768SOL    HW228767   2.299   0.043   4.252 -0.4149  0.5445  0.3767
 5769SOL     OW28768   1.543   2.385   4.549  0.1308 -0.4136 -0.5891
 5769SOL    HW128769   1.610   2.451   4.534 -0.1568  0.1332  0.5752
 5769SOL    HW228770   1.527   2.389   4.643 -0.2227 -1.3310 -0.6085
 5770SOL     OW28771   0.953   2.509   9.787  0.2792  0.3004  0.4533
 5770SOL    HW128772   0.895   2.480   9.858 -1.7320 -1.1267 -1.7538
 5770SOL    HW228773   0.946   2.603   9.802  1.0204  1.0036 -3.7444
 5771SOL     OW28774   3.437   0.362  10.923 -0.7527  0.0787  0.0440
 5771SOL    HW128775   3.438   0.334  11.014 -1.5607  0.0928  0.0600
 5771SOL    HW228776   3.450   0.456  10.938  2.2627 -0.9004  3.5163
 5772SOL     OW28777   4.127   4.205   8.539 -0.2128 -0.1962  0.6881
 5772SOL    HW128778   4.089   4.240   8.620  0.3625 -0.3627  1.0296
 5772SOL    HW228779   4.214   4.170   8.560  0.1204  0.9325  1.1914
 5773SOL     OW28780   2.042   3.905   5.201 -0.0445  0.2300 -0.1540
 5773SOL    HW128781   2.132   3.922   5.230  0.4968 -3.1234  0.1791
 5773SOL    HW228782   2.037   3.981   5.144  2.9274  0.3795 -0.2148
 5774SOL     OW28783   4.066   2.291   5.446 -0.7227  0.5585 -0.3258
 5774SOL    HW128784   4.149   2.289   5.493  0.0594 -0.9458 -1.7802
 5774SOL    HW228785   4.047   2.200   5.423  3.8399  0.1553 -2.3045
 5775SOL     OW28786   1.013   4.360   1.233 -0.0156 -0.2054 -0.1007
 5775SOL    HW128787   0.986   4.335   1.145 -0.1255 -0.3469 -0.0258
 5775SOL    HW228788   1.009   4.455   1.225 -1.0152 -0.0901  1.7334
 5776SOL     OW28789   2.781   1.367  14.898 -0.4462  0.0241  0.2395
 5776SOL    HW128790   2.831   1.381  14.818 -0.4704 -1.6836 -0.0717
 5776SOL    HW228791   2.706   1.316  14.868 -0.0428  0.2516 -1.1646
 5777SOL     OW28792   2.759   2.006   7.972  0.3921  0.5760  0.4452
 5777SOL    HW128793   2.750   2.004   7.877  0.2238 -0.1395  0.4803
 5777SOL    HW228794   2.787   1.916   7.986  3.1783  1.1002 -1.7730
 5778SOL     OW28795   0.844   3.042   5.214  0.1854  0.0389  0.1796
 5778SOL    HW128796   0.922   3.044   5.270  0.1607  0.1568  0.2076
 5778SOL    HW228797   0.790   2.967   5.238  1.0727 -0.5354  0.4004
 5779SOL     OW28798   1.047   0.657   3.587 -0.5508  0.4450 -0.1769
 5779SOL    HW128799   1.142   0.649   3.591 -0.6948 -1.6201 -1.1392
 5779SOL    HW228800   1.045   0.711   3.508  0.7052 -1.4722 -1.5004
 5780SOL     OW28801   3.830   1.168   2.442  0.1544  0.1660  0.5863
 5780SOL    HW128802   3.801   1.252   2.477 -1.6247 -0.0613 -0.3498
 5780SOL    HW228803   3.790   1.167   2.355  0.3363 -2.3201  0.5445
 5781SOL     OW28804   0.456   1.918   7.031 -0.1144  0.1048  0.3490
 5781SOL    HW128805   0.516   1.871   7.089 -1.0843 -0.6771  0.7157
 5781SOL    HW228806   0.369   1.896   7.064 -0.4044 -1.5064 -1.4726
 5782SOL     OW28807   3.006   1.527   2.836  0.3951  0.0176 -0.1459
 5782SOL    HW128808   3.065   1.602   2.833  0.4149  0.0443  1.0276
 5782SOL    HW228809   2.986   1.521   2.742  1.7195  0.5424 -0.4671
 5783SOL     OW28810   2.019   0.349   2.456  0.1467 -0.1764  0.1304
 5783SOL    HW128811   1.961   0.387   2.522 -0.5733  2.4372 -2.0366
 5783SOL    HW228812   1.951   0.338   2.390  0.1231 -1.3360  0.3485
 5784SOL     OW28813   4.402   2.470   4.157  0.1083 -0.4063 -0.9941
 5784SOL    HW128814   4.393   2.442   4.248 -4.5159  1.6978 -0.8039
 5784SOL    HW228815   4.310   2.488   4.136  0.0469  1.9889  1.3558
 5785SOL     OW28816   0.567   4.661   2.464  0.2265 -0.2925  0.3541
 5785SOL    HW128817   0.495   0.002   2.476  0.0547 -0.5585  0.7019
 5785SOL    HW228818   0.554   4.630   2.375 -0.0159  2.4856 -0.5826
 5786SOL     OW28819   1.131   3.444   5.449  0.7514  0.0908 -0.4782
 5786SOL    HW128820   1.216   3.413   5.481 -0.9008 -3.8628  0.1822
 5786SOL    HW228821   1.074   3.381   5.494 -0.5342 -0.3428 -2.7236
 5787SOL     OW28822   0.409   3.153   6.929  0.0498 -0.4899  0.2092
 5787SOL    HW128823   0.406   3.198   7.014  0.5819 -1.4725  0.7526
 5787SOL    HW228824   0.420   3.230   6.873  0.4659 -2.6800 -2.6986
 5788SOL     OW28825   0.093   0.403   1.404  0.7412  0.3939  0.3975
 5788SOL    HW128826   0.035   0.327   1.410 -0.4931  1.2995 -0.0505
 5788SOL    HW228827   0.056   0.457   1.334  0.2985  0.7541  0.9150
 5789SOL     OW28828   4.270   2.514   6.857  0.1494 -0.3382  0.1685
 5789SOL    HW128829   4.255   2.423   6.884  1.6531 -1.0184 -1.3097
 5789SOL    HW228830   4.360   2.521   6.889  0.1614  0.0699  0.0396
 5790SOL     OW28831   1.310   3.406  16.709  0.4805 -0.1073 -0.1132
 5790SOL    HW128832   1.341   3.376  16.624 -2.0294 -1.3166 -0.6093
 5790SOL    HW228833   1.383   3.371  16.760  0.0269  2.1352  2.0649
 5791SOL     OW28834   4.579   3.785  14.440  0.0175  0.2317  0.2665
 5791SOL    HW128835   4.522   3.813  14.368 -0.0710 -1.8993 -0.4899
 5791SOL    HW228836   4.518   3.778  14.513 -0.6846 -2.0874 -0.5281
 5792SOL     OW28837   3.892   1.390   8.521 -0.3780  0.1311  1.0359
 5792SOL    HW128838   3.863   1.307   8.559 -4.9662  1.2914  0.1160
 5792SOL    HW228839   3.963   1.404   8.583 -1.0650  1.8871  1.4361
 5793SOL     OW28840   3.064   3.946   6.466 -0.3561 -0.3224 -0.1217
 5793SOL    HW128841   3.129   3.916   6.403  1.5767  2.5603  0.4648
 5793SOL    HW228842   3.037   4.026   6.421 -1.0742  0.5168  1.7920
 5794SOL     OW28843   3.086   3.784   2.017 -0.2741  0.1073  0.4392
 5794SOL    HW128844   3.135   3.704   1.999  0.8601  0.8578  0.1523
 5794SOL    HW228845   2.998   3.756   2.043 -1.3019  2.7767 -0.1488
 5795SOL     OW28846   3.420   3.324  13.377 -0.6153 -0.7716 -0.5013
 5795SOL    HW128847   3.513   3.302  13.389  0.1719  2.9570  0.3333
 5795SOL    HW228848   3.391   3.338  13.466 -0.4390 -0.8896 -0.4245
 5796SOL     OW28849   2.568   2.288   7.072  0.0610 -0.4835  0.0181
 5796SOL    HW128850   2.494   2.232   7.097 -0.8909  1.3935  1.3250
 5796SOL    HW228851   2.543   2.292   6.979  1.3869 -0.0095 -0.3130
 5797SOL     OW28852   3.995   0.779  14.519  0.1170 -0.1839 -0.1084
 5797SOL    HW128853   4.069   0.787  14.458  1.6691 -0.6324  1.7179
 5797SOL    HW228854   3.969   0.692  14.488  1.1370 -0.3564 -0.4916
 5798SOL     OW28855   0.953   3.338   3.352  0.2368  0.4246  0.4723
 5798SOL    HW128856   1.013   3.330   3.427 -0.2059  0.9784  0.8822
 5798SOL    HW228857   0.946   3.433   3.344  2.0866  0.7661  2.7183
 5799SOL     OW28858   0.680   0.306   7.520 -0.1021 -0.5339  0.3145
 5799SOL    HW128859   0.683   0.350   7.435  1.0030 -0.5215  0.3594
 5799SOL    HW228860   0.628   0.230   7.494 -1.5807  0.5627  0.0492
 5800SOL     OW28861   4.629   3.336   2.150  0.6664 -0.1354  0.6225
 5800SOL    HW128862   4.546   3.312   2.109  0.9641 -0.6944  0.3548
 5800SOL    HW228863   4.633   3.273   2.222  2.5950  1.0076  1.5211
 5801SOL     OW28864   2.925   0.871   8.750  0.1913 -0.2365  0.0818
 5801SOL    HW128865   2.888   0.793   8.792  1.0447  1.3977  3.8520
 5801SOL    HW228866   2.940   0.846   8.659 -2.6194  0.2676 -0.5495
 5802SOL     OW28867   2.063   3.079  14.167  0.4808  0.0046  0.4959
 5802SOL    HW128868   2.088   3.108  14.255  0.0325  2.1560 -0.0808
 5802SOL    HW228869   2.101   3.153  14.120 -1.1354 -0.2918 -1.2498
 5803SOL     OW28870   2.882   4.572   9.884  0.4311 -0.2342 -0.0914
 5803SOL    HW128871   2.857   4.518   9.959 -1.0426  1.6253  0.7556
 5803SOL    HW228872   2.830   4.652   9.892 -0.7632 -0.9434 -0.7357
 5804SOL     OW28873   0.534   2.960   5.987  0.1600  0.2926  0.7301
 5804SOL    HW128874   0.534   3.047   6.027  1.2440  1.8755 -2.6568
 5804SOL    HW228875   0.461   2.974   5.925 -0.6364 -0.2616  1.5505
 5805SOL     OW28876   2.817   2.237   7.084  0.1008  0.4428  0.1366
 5805SOL    HW128877   2.723   2.249   7.081  0.1910  1.4593  1.1872
 5805SOL    HW228878   2.818   2.212   7.177 -1.8615  0.5437  0.1807
 5806SOL     OW28879   2.358   2.806   5.123 -0.1743 -0.3727  0.3515
 5806SOL    HW128880   2.281   2.772   5.077  0.2236  0.2756 -0.7698
 5806SOL    HW228881   2.393   2.872   5.065 -3.5718  0.6333 -0.5565
 5807SOL     OW28882   2.839   1.382   2.106  0.2927  0.2953 -0.2390
 5807SOL    HW128883   2.758   1.427   2.081 -0.3517 -1.3125 -1.0732
 5807SOL    HW228884   2.834   1.307   2.047  3.1502 -0.3419  0.3277
 5808SOL     OW28885   4.539   1.627   1.950 -0.8830 -0.1014  0.2474
 5808SOL    HW128886   4.586   1.699   1.990 -3.9384  2.6016 -0.9879
 5808SOL    HW228887   4.474   1.609   2.018 -0.5363  1.8765  1.0928
 5809SOL     OW28888   1.720   2.599   8.265  0.0571 -0.3042 -0.0442
 5809SOL    HW128889   1.665   2.609   8.188  1.1440 -1.3933 -0.9596
 5809SOL    HW228890   1.806   2.565   8.241 -0.6019 -1.4018 -0.8482
 5810SOL     OW28891   1.161   2.620   5.348 -0.3147  0.0340 -0.0577
 5810SOL    HW128892   1.071   2.624   5.380 -0.7229  0.8642 -1.3206
 5810SOL    HW228893   1.163   2.525   5.334 -1.0943 -0.2885  1.9815
 5811SOL     OW28894   0.402   2.644   3.533 -0.0140 -0.1150  0.4065
 5811SOL    HW128895   0.374   2.593   3.457 -0.5687  0.2430  0.3699
 5811SOL    HW228896   0.383   2.734   3.510 -2.4484 -0.6774  0.2219
 5812SOL     OW28897   0.092   0.240   5.342 -0.2357 -0.3525  0.0451
 5812SOL    HW128898   0.115   0.178   5.411 -0.6734 -0.2371  0.2938
 5812SOL    HW228899   0.092   0.183   5.264 -2.2285  0.5477 -0.6332
 5813SOL     OW28900   3.140   3.000  13.818 -0.0465 -0.1148 -0.3198
 5813SOL    HW128901   3.082   2.931  13.849  1.8925 -2.4020 -1.7679
 5813SOL    HW228902   3.077   3.062  13.781 -1.1123 -0.1200  1.4723
 5814SOL     OW28903   0.673   2.469   0.530 -0.2093 -0.6067  0.0767
 5814SOL    HW128904   0.644   2.548   0.576  0.0250  0.3559 -1.4194
 5814SOL    HW228905   0.661   2.401   0.596  1.4228 -0.8096  0.1562
 5815SOL     OW28906   1.267   1.165   6.031  0.3808  0.8035  0.5508
 5815SOL    HW128907   1.269   1.128   6.119  1.6784 -1.2091 -0.3128
 5815SOL    HW228908   1.187   1.133   5.990  1.4921  0.4668 -1.3803
 5816SOL     OW28909   2.390   2.746  11.061 -0.3557 -0.5277  0.3647
 5816SOL    HW128910   2.454   2.757  11.132  0.0273 -0.2043 -0.0284
 5816SOL    HW228911   2.445   2.740  10.982  1.1681  2.1390  1.2061
 5817SOL     OW28912   0.484   0.071  13.371  0.5878  0.0157 -0.5316
 5817SOL    HW128913   0.476   0.078  13.466  0.8475  0.0912 -0.5144
 5817SOL    HW228914   0.436   4.711  13.358  0.2031  0.2758 -0.7596
 5818SOL     OW28915   0.019   1.958   8.284 -0.1834 -0.0296  0.0360
 5818SOL    HW128916   0.089   1.981   8.346  1.2274 -0.9766 -1.1924
 5818SOL    HW228917   4.687   2.037   8.289  0.9659  0.6977  1.0438
 5819SOL     OW28918   4.412   3.291  10.678  0.6260 -0.2957  0.2873
 5819SOL    HW128919   4.322   3.260  10.689  0.6420  0.1549  1.6245
 5819SOL    HW228920   4.410   3.304  10.583 -2.1057  0.7532  0.4886
 5820SOL     OW28921   1.143   2.149   8.038  0.2300 -0.3422  0.0387
 5820SOL    HW128922   1.225   2.196   8.055  1.2948 -2.0362 -0.3798
 5820SOL    HW228923   1.142   2.153   7.942 -0.1584 -2.2308 -0.0281
 5821SOL     OW28924   2.699   4.068  16.964 -0.3616  0.2690 -0.0173
 5821SOL    HW128925   2.605   4.053  16.962  0.0407 -2.2139 -0.1002
 5821SOL    HW228926   2.714   4.159  16.939  0.5716  1.0362  3.3294
 5822SOL     OW28927   4.695   3.786  13.939  0.1322 -0.1291 -0.4272
 5822SOL    HW128928   4.644   3.825  14.009 -2.2233 -3.5725 -0.2072
 5822SOL    HW228929   4.684   3.699  13.978 -1.5471  0.6546  0.8245
 5823SOL     OW28930   2.430   0.199   1.607  0.2047  0.3650  0.0302
 5823SOL    HW128931   2.498   0.149   1.562  1.2008 -2.2821  4.5039
 5823SOL    HW228932   2.358   0.136   1.600 -0.0521  0.7781 -0.9857
 5824SOL     OW28933   2.950   1.786  17.037 -0.4693 -0.0321  0.3529
 5824SOL    HW128934   2.978   1.699  17.009  0.6698  0.7528 -0.9434
 5824SOL    HW228935   2.997   1.848  16.982 -2.1530 -0.7513 -1.9026
 5825SOL     OW28936   3.829   0.952   8.050  0.0893  0.2707 -0.2192
 5825SOL    HW128937   3.849   1.045   8.036 -0.4371  0.3784 -0.2541
 5825SOL    HW228938   3.799   0.953   8.141 -0.6536 -0.9028 -0.4664
 5826SOL     OW28939   1.814   2.198  15.182 -0.4972 -0.6528 -0.0741
 5826SOL    HW128940   1.867   2.203  15.102 -0.7303  1.1133 -0.1004
 5826SOL    HW228941   1.857   2.260  15.241 -0.8329 -1.0937  0.6450
 5827SOL     OW28942   2.137   0.269  12.842 -0.0840  0.1731 -0.0239
 5827SOL    HW128943   2.174   0.239  12.759 -0.7780  1.8227 -0.9437
 5827SOL    HW228944   2.130   0.362  12.821 -0.8373  0.6659  2.4234
 5828SOL     OW28945   0.805   1.983   1.458 -0.0719  0.1508  0.7647
 5828SOL    HW128946   0.823   2.037   1.381  0.6068 -0.5345  0.4384
 5828SOL    HW228947   0.890   1.991   1.503 -0.0187  1.7200  0.3658
 5829SOL     OW28948   1.780   2.439   4.885 -0.4298 -0.3228  0.1052
 5829SOL    HW128949   1.698   2.389   4.885 -0.8848  0.4102 -1.6760
 5829SOL    HW228950   1.799   2.414   4.794  0.5776 -0.7442  0.4276
 5830SOL     OW28951   2.466   3.219  13.359  0.0302 -0.2203  0.0265
 5830SOL    HW128952   2.416   3.239  13.438 -0.3389 -2.6203  0.4167
 5830SOL    HW228953   2.544   3.268  13.385 -0.1212  0.1297 -0.1822
 5831SOL     OW28954   0.216   0.550  12.920 -0.1467 -0.6400 -0.7089
 5831SOL    HW128955   0.191   0.471  12.967 -1.5765 -0.0989 -0.5508
 5831SOL    HW228956   0.188   0.534  12.830 -0.3776 -1.5534 -0.4723
 5832SOL     OW28957   4.031   3.350   7.130  0.1917 -0.7188 -0.1324
 5832SOL    HW128958   4.047   3.445   7.136 -0.5568 -0.6936  1.3335
 5832SOL    HW228959   4.117   3.315   7.107  1.1365  0.1806  2.0622
 5833SOL     OW28960   3.573   3.569   3.697 -0.1577  0.8005 -0.2241
 5833SOL    HW128961   3.585   3.510   3.772  0.6357 -0.2193 -1.1423
 5833SOL    HW228962   3.517   3.514   3.642 -0.3215  0.3597  0.3898
 5834SOL     OW28963   0.140   4.515   4.010 -0.6278  0.5606 -0.0579
 5834SOL    HW128964   0.201   4.578   4.048 -1.4806  1.1155  0.3693
 5834SOL    HW228965   0.054   4.546   4.037  0.1191  0.6115  2.2662
 5835SOL     OW28966   0.144   4.041   3.052  0.9070  0.0805  0.2719
 5835SOL    HW128967   0.170   4.133   3.049 -2.2944  0.8864 -3.2524
 5835SOL    HW228968   0.133   4.008   2.963  0.3713  1.4256 -0.1635
 5836SOL     OW28969   3.775   2.197   1.186 -0.5474 -0.0560 -0.5088
 5836SOL    HW128970   3.759   2.285   1.219 -3.7013 -0.5661 -0.6634
 5836SOL    HW228971   3.781   2.203   1.090  1.7129  0.8027 -0.2997
 5837SOL     OW28972   4.640   3.726  16.316  0.0541 -0.1113  0.0029
 5837SOL    HW128973   0.010   3.755  16.312  0.3113 -0.5303  2.8961
 5837SOL    HW228974   4.606   3.814  16.297  2.3137  0.8137  0.2831
 5838SOL     OW28975   3.692   0.379   3.461  0.2717 -0.1787  0.5153
 5838SOL    HW128976   3.785   0.399   3.453  0.0428 -0.0744 -1.9042
 5838SOL    HW228977   3.701   0.292   3.500  0.0976 -0.3378  0.1972
 5839SOL     OW28978   3.310   2.851   6.012 -0.2640 -0.2180  0.6785
 5839SOL    HW128979   3.283   2.916   5.947 -0.6288 -0.6931  0.3549
 5839SOL    HW228980   3.384   2.815   5.964 -0.7373  2.0185 -1.7379
 5840SOL     OW28981   1.167   0.898   7.649 -0.2831 -0.0272  0.3450
 5840SOL    HW128982   1.105   0.929   7.583  1.1407  0.0975 -0.9406
 5840SOL    HW228983   1.244   0.943   7.615 -1.2629 -0.2826 -2.2542
 5841SOL     OW28984   2.137   1.960  15.498 -0.2536 -0.1770 -0.1660
 5841SOL    HW128985   2.202   2.020  15.462 -0.2962  0.4304  0.7585
 5841SOL    HW228986   2.093   2.020  15.558 -1.0770 -3.2696  2.3650
 5842SOL     OW28987   2.284   3.113   3.872 -0.2910 -0.3800 -0.3733
 5842SOL    HW128988   2.306   3.023   3.898 -1.3263 -0.7570 -0.7715
 5842SOL    HW228989   2.206   3.127   3.925 -0.5890  0.2706 -0.9930
 5843SOL     OW28990   0.453   3.371   5.655 -0.8472  0.3517  0.4828
 5843SOL    HW128991   0.479   3.289   5.613  2.7630  1.9927 -0.4572
 5843SOL    HW228992   0.358   3.367   5.651 -0.9150 -0.9574  2.8574
 5844SOL     OW28993   2.246   2.431  12.125  0.2101  0.1926  0.4956
 5844SOL    HW128994   2.275   2.394  12.042  2.4119  1.2466  0.8215
 5844SOL    HW228995   2.327   2.448  12.172 -0.2995 -0.5630  1.6430
 5845SOL     OW28996   4.011   3.573   3.377  1.1077  0.0159  0.3629
 5845SOL    HW128997   4.046   3.486   3.394  0.9293  0.3124  2.2366
 5845SOL    HW228998   3.919   3.557   3.399  1.5323 -2.4012  0.4139
 5846SOL     OW28999   1.693   4.623   6.040 -0.2406 -0.1802 -0.0637
 5846SOL    HW129000   1.645   4.558   5.988 -1.0212  1.0774 -0.9131
 5846SOL    HW229001   1.784   4.597   6.029 -0.1109  0.3047 -0.1265
 5847SOL     OW29002   3.032   4.488   0.152 -0.4911 -0.2658  0.6617
 5847SOL    HW129003   2.938   4.473   0.162 -0.7126  0.9321  0.3443
 5847SOL    HW229004   3.043   4.527   0.066 -0.6343  0.9849  1.2091
 5848SOL     OW29005   1.506   4.219   6.043  0.1606 -0.7202 -0.1286
 5848SOL    HW129006   1.440   4.284   6.068 -1.0016 -2.3765  1.1089
 5848SOL    HW229007   1.545   4.210   6.130 -2.1474 -1.6426  0.8017
 5849SOL     OW29008   3.658   3.915   4.635  0.1201 -0.2824 -0.2717
 5849SOL    HW129009   3.725   3.947   4.695 -2.0344 -1.1308  2.5666
 5849SOL    HW229010   3.586   3.978   4.643  0.1010 -0.5332  1.4719
 5850SOL     OW29011   1.128   1.028   2.734  0.1707 -0.4998  0.2000
 5850SOL    HW129012   1.166   1.077   2.661 -0.3987  1.7117  1.3899
 5850SOL    HW229013   1.077   1.103   2.765 -0.3659 -0.6532 -0.3084
 5851SOL     OW29014   4.334   2.643   7.945  0.0458 -0.8510  0.2534
 5851SOL    HW129015   4.274   2.575   7.916 -0.2942 -0.3058 -0.3198
 5851SOL    HW229016   4.362   2.598   8.025  1.7047  0.2597  0.3178
 5852SOL     OW29017   4.349   3.838  10.190  0.4604 -0.5401  0.3223
 5852SOL    HW129018   4.335   3.857  10.283 -0.6034  0.9994 -0.1582
 5852SOL    HW229019   4.272   3.794  10.156  0.7713  0.6016 -1.8325
 5853SOL     OW29020   1.800   1.038   8.094  0.7029  0.1078  0.5122
 5853SOL    HW129021   1.822   1.041   8.187  1.1477  2.0027  0.3420
 5853SOL    HW229022   1.717   1.085   8.094 -0.4578 -1.9487  1.6746
 5854SOL     OW29023   3.775   0.517   6.589 -0.1728  0.1457  0.1088
 5854SOL    HW129024   3.808   0.461   6.518 -0.4064 -1.1580  1.0186
 5854SOL    HW229025   3.703   0.461   6.619  1.3257 -1.2915  1.0618
 5855SOL     OW29026   2.510   0.421   9.354  0.2411  0.0363  0.5947
 5855SOL    HW129027   2.488   0.332   9.328  2.2655 -0.1218 -0.5740
 5855SOL    HW229028   2.606   0.416   9.350  0.0493 -2.1513 -0.7216
 5856SOL     OW29029   4.156   1.350  13.444 -0.4302 -0.3351  0.6438
 5856SOL    HW129030   4.191   1.310  13.524  0.2208  1.7028  1.3844
 5856SOL    HW229031   4.155   1.270  13.391 -1.7995  0.8124 -1.0369
 5857SOL     OW29032   3.476   2.953   6.435 -0.2378  0.3425  0.3488
 5857SOL    HW129033   3.568   2.964   6.459 -0.4797 -1.6915  2.1635
 5857SOL    HW229034   3.483   2.987   6.346  1.0905  0.4653  0.5018
 5858SOL     OW29035   0.041   3.100   7.505  0.0860  0.0108  0.0523
 5858SOL    HW129036   0.054   3.038   7.433  1.3277 -1.3851  1.4933
 5858SOL    HW229037   4.673   3.090   7.538 -0.7362  0.0267 -2.1246
 5859SOL     OW29038   4.350   2.176   4.607 -0.1139  0.5556  0.0296
 5859SOL    HW129039   4.340   2.082   4.619 -0.4841  0.2767 -2.3638
 5859SOL    HW229040   4.417   2.206   4.668  1.0923 -1.9710 -0.0630
 5860SOL     OW29041   1.463   1.849  16.202 -0.1095 -0.2683  0.4546
 5860SOL    HW129042   1.540   1.793  16.191  1.5102  2.3585 -1.6912
 5860SOL    HW229043   1.502   1.935  16.212  0.2646 -0.3488 -0.2857
 5861SOL     OW29044   1.055   4.562   9.271  0.0461 -0.4852  0.0098
 5861SOL    HW129045   1.045   4.520   9.186  1.6615 -1.7911  0.4675
 5861SOL    HW229046   1.118   4.501   9.310  0.1747 -0.7791 -0.6600
 5862SOL     OW29047   3.192   1.528  11.955 -0.0770  0.4064  0.2146
 5862SOL    HW129048   3.200   1.433  11.948  1.6831  0.7442 -2.1785
 5862SOL    HW229049   3.234   1.557  12.036  2.0628  0.3822 -0.8688
 5863SOL     OW29050   0.696   2.916   4.886  0.4373  0.0130  0.0458
 5863SOL    HW129051   0.707   2.824   4.911 -1.9106  0.0334  1.1264
 5863SOL    HW229052   0.724   2.910   4.794 -1.4004 -1.1699 -0.4241
 5864SOL     OW29053   1.674   1.339  12.437  0.5881 -0.3066 -0.1511
 5864SOL    HW129054   1.716   1.404  12.381 -0.6269  0.8620  0.3149
 5864SOL    HW229055   1.624   1.288  12.374  0.3714 -0.7230  0.3612
 5865SOL     OW29056   2.039   3.649   0.975  0.2457  0.5009  0.1577
 5865SOL    HW129057   1.951   3.647   1.011  0.7710 -1.7724  1.3052
 5865SOL    HW229058   2.092   3.659   1.054 -1.1057  1.3127  0.9564
 5866SOL     OW29059   4.116   3.404   2.463  0.1177 -0.4813 -0.0658
 5866SOL    HW129060   4.092   3.377   2.552  3.4574 -0.6802  0.7835
 5866SOL    HW229061   4.208   3.432   2.469 -0.0609 -0.0260  0.6249
 5867SOL     OW29062   3.689   1.698   1.401 -0.2260  0.2391  0.4765
 5867SOL    HW129063   3.705   1.605   1.414 -2.9353  0.1460  3.2622
 5867SOL    HW229064   3.647   1.725   1.483 -1.5837  0.7168 -0.3814
 5868SOL     OW29065   4.473   2.980  12.539 -0.1483 -0.2393  0.3207
 5868SOL    HW129066   4.567   2.973  12.525 -0.1557 -1.0394  0.6589
 5868SOL    HW229067   4.441   3.032  12.466  1.2817 -0.8862 -0.7607
 5869SOL     OW29068   2.878   2.055   1.840 -0.2159 -0.5435 -0.1673
 5869SOL    HW129069   2.798   2.098   1.869  0.6875  1.6201 -0.8892
 5869SOL    HW229070   2.849   2.009   1.761  0.8900 -1.1648 -0.2190
 5870SOL     OW29071   0.963   4.641  12.396 -0.2586 -0.3431 -0.0959
 5870SOL    HW129072   0.987   4.564  12.448  0.6321  1.1441  1.7176
 5870SOL    HW229073   0.910   4.692  12.458  1.3503  1.6761 -0.3625
 5871SOL     OW29074   0.676   3.149   3.821  0.7052  0.2360 -0.6576
 5871SOL    HW129075   0.746   3.111   3.768  0.8482 -1.1957  0.5508
 5871SOL    HW229076   0.656   3.225   3.767 -0.0071 -0.0934 -0.8534
 5872SOL     OW29077   2.238   2.772   4.568 -0.3113 -0.4961  0.0765
 5872SOL    HW129078   2.263   2.859   4.597  0.9760 -0.7941 -0.1145
 5872SOL    HW229079   2.290   2.716   4.627 -0.4604 -0.2426  0.4435
 5873SOL     OW29080   0.693   0.502   6.775  0.2779  0.3696  0.1497
 5873SOL    HW129081   0.663   0.483   6.686  2.8750  0.1619 -0.6742
 5873SOL    HW229082   0.752   0.576   6.761 -0.5334 -0.0021 -5.3043
 5874SOL     OW29083   0.102   2.280   4.832  0.3196  0.0355 -0.2729
 5874SOL    HW129084   0.162   2.296   4.759 -1.6078 -1.3684 -2.1847
 5874SOL    HW229085   0.111   2.186   4.846  2.6586  0.3745  0.5354
 5875SOL     OW29086   3.754   0.680  17.379 -0.0366  0.1558  0.2598
 5875SOL    HW129087   3.667   0.643  17.367  0.4405 -0.1199 -2.3550
 5875SOL    HW229088   3.725   0.765  17.412  0.5549  0.7845 -0.8326
 5876SOL     OW29089   4.674   0.508   8.476 -0.4792 -0.0598 -0.1800
 5876SOL    HW129090   0.027   0.513   8.416 -0.7260  2.0093 -0.3258
 5876SOL    HW229091   0.008   0.517   8.554 -1.0032  1.1557  0.0497
 5877SOL     OW29092   1.759   0.762   9.401 -0.5007 -0.0540  0.7415
 5877SOL    HW129093   1.769   0.707   9.479 -1.8550  1.8378  2.2511
 5877SOL    HW229094   1.680   0.808   9.428 -0.1770  1.2361 -0.5125
 5878SOL     OW29095   4.132   2.620   5.570  0.5133  0.0881 -0.0366
 5878SOL    HW129096   4.133   2.716   5.570  1.9669  0.0818  1.4395
 5878SOL    HW229097   4.140   2.608   5.476  1.2108 -1.5425  0.2302
 5879SOL     OW29098   1.371   3.508   1.367 -0.4235  0.0715  0.4562
 5879SOL    HW129099   1.361   3.455   1.445 -0.3727 -1.0540 -0.3044
 5879SOL    HW229100   1.462   3.487   1.344 -0.1290  1.2566  0.5041
 5880SOL     OW29101   4.478   1.243   8.592  0.8057 -0.0254  0.0393
 5880SOL    HW129102   4.520   1.187   8.657  0.8567 -1.0460 -0.8670
 5880SOL    HW229103   4.505   1.333   8.611 -0.5879  0.4584 -0.2842
 5881SOL     OW29104   4.021   4.680   2.608 -0.0233  0.8610  0.1244
 5881SOL    HW129105   4.002   4.666   2.701  0.0868  1.8742  0.3017
 5881SOL    HW229106   4.085   0.030   2.611  0.4365  0.5464 -2.5739
 5882SOL     OW29107   3.212   2.638  11.650  0.5848 -0.2751  0.1250
 5882SOL    HW129108   3.156   2.589  11.589  0.5461  1.8126 -1.5238
 5882SOL    HW229109   3.238   2.564  11.705 -2.7340 -0.8964  0.8642
 5883SOL     OW29110   0.234   0.535   4.993 -0.3826  0.3015 -1.1894
 5883SOL    HW129111   0.169   0.603   4.975 -1.8029 -0.6235  0.4843
 5883SOL    HW229112   0.246   0.498   4.906  0.5835 -1.9531 -0.0890
 5884SOL     OW29113   2.251   0.312   4.935 -0.1638 -0.3683  0.4261
 5884SOL    HW129114   2.255   0.407   4.946 -1.1595 -0.4723  1.6417
 5884SOL    HW229115   2.252   0.300   4.839  2.3410 -1.6971  0.6148
 5885SOL     OW29116   2.452   4.683  15.580  0.1213 -0.1871  0.4622
 5885SOL    HW129117   2.438   0.051  15.549 -0.4111 -0.2663  0.4716
 5885SOL    HW229118   2.360   4.658  15.575  0.2664 -0.5219 -0.5183
 5886SOL     OW29119   2.867   1.734  12.335 -0.0421 -0.0056  0.0110
 5886SOL    HW129120   2.841   1.679  12.409 -2.5957 -0.9215 -1.5340
 5886SOL    HW229121   2.962   1.726  12.331  0.0449  1.2264 -0.5959
 5887SOL     OW29122   1.891   3.524   8.445 -0.5276  0.3222 -0.4257
 5887SOL    HW129123   1.859   3.537   8.535 -1.1903 -1.1051 -0.4567
 5887SOL    HW229124   1.968   3.468   8.445 -0.8393 -0.0999 -1.1430
 5888SOL     OW29125   4.641   3.180  10.812  0.0865  0.4095  0.4932
 5888SOL    HW129126   4.672   3.267  10.787 -0.2252  0.6115  0.8038
 5888SOL    HW229127   4.566   3.170  10.754 -0.1352  1.4367  0.6070
 5889SOL     OW29128   2.692   0.365   2.551  0.2719  0.2080  0.1126
 5889SOL    HW129129   2.617   0.414   2.585 -0.4947 -1.7909  1.3791
 5889SOL    HW229130   2.647   0.293   2.505  1.6727  0.6745 -1.9708
 5890SOL     OW29131   1.972   0.691   3.488 -0.1008 -0.6714  0.2928
 5890SOL    HW129132   1.923   0.769   3.467  0.3789 -0.7333 -1.0364
 5890SOL    HW229133   2.060   0.727   3.476 -0.1174 -0.3116  1.2133
 5891SOL     OW29134   4.665   2.464  17.537  0.4711 -0.2055  0.3999
 5891SOL    HW129135   4.609   2.452  17.614 -0.0553 -1.5315 -0.1803
 5891SOL    HW229136   4.719   2.385  17.545 -0.0759 -0.5773  0.4447
 5892SOL     OW29137   0.508   0.190   1.101 -0.2219 -0.1312 -0.1282
 5892SOL    HW129138   0.471   0.246   1.169  1.1863 -0.9625  1.3146
 5892SOL    HW229139   0.540   0.257   1.040  0.9794  1.5831  2.4171
 5893SOL     OW29140   1.012   4.617   8.490 -0.3038 -0.0934 -0.1352
 5893SOL    HW129141   0.919   4.604   8.475 -0.5950  0.6339  1.0927
 5893SOL    HW229142   1.038   4.657   8.407  1.4379 -3.2669 -1.1257
 5894SOL     OW29143   3.226   2.976   5.079  0.1352  0.2335 -0.4564
 5894SOL    HW129144   3.194   3.065   5.100  1.1227  0.4238  0.2309
 5894SOL    HW229145   3.316   2.986   5.109 -0.7457  0.1779  2.2320
 5895SOL     OW29146   1.584   1.413   4.203 -0.3395 -0.2876  0.0440
 5895SOL    HW129147   1.603   1.400   4.296  0.4483 -1.9549 -0.3543
 5895SOL    HW229148   1.532   1.338   4.177 -0.9712 -0.6793  2.4465
 5896SOL     OW29149   1.548   3.319   6.350  0.3312 -0.4853 -0.1784
 5896SOL    HW129150   1.584   3.242   6.305  0.0548  0.5753 -2.1880
 5896SOL    HW229151   1.458   3.330   6.319 -0.0537 -1.5875  0.5245
 5897SOL     OW29152   3.719   0.788  10.138  0.8988 -0.2721 -0.3684
 5897SOL    HW129153   3.769   0.706  10.134 -0.9893 -1.4666  0.2951
 5897SOL    HW229154   3.747   0.829  10.056 -0.3713  0.0351 -0.6518
 5898SOL     OW29155   0.538   3.967   8.467  0.8427 -0.7278 -0.0840
 5898SOL    HW129156   0.586   4.039   8.427 -0.3831 -0.1969 -0.6053
 5898SOL    HW229157   0.523   3.907   8.394  0.0587 -0.6574  0.0186
 5899SOL     OW29158   1.977   2.489   8.182 -0.2979 -0.2829 -0.0935
 5899SOL    HW129159   2.055   2.451   8.223  1.4575  2.9933 -0.3836
 5899SOL    HW229160   2.025   2.536   8.114 -0.6871 -0.4734 -0.4949
 5900SOL     OW29161   4.210   0.826  14.351 -0.3201  0.0223 -0.8764
 5900SOL    HW129162   4.298   0.851  14.378 -0.5565  1.1718 -1.1620
 5900SOL    HW229163   4.199   0.883  14.276  1.4504 -0.1192 -1.2360
 5901SOL     OW29164   0.064   4.372   7.418  0.0946  0.9387  0.0574
 5901SOL    HW129165   0.005   4.299   7.396  0.8458  0.0573  0.9564
 5901SOL    HW229166   0.078   4.349   7.510 -1.2198  1.5485  0.3993
 5902SOL     OW29167   0.790   1.171   4.853  0.0258  0.0014  0.8851
 5902SOL    HW129168   0.830   1.092   4.890  0.8976  0.7860  1.6039
 5902SOL    HW229169   0.699   1.148   4.872  0.2955 -0.8067  1.1960
 5903SOL     OW29170   3.503   1.232  16.126 -0.1347  0.1314 -0.5197
 5903SOL    HW129171   3.473   1.202  16.212 -0.1769 -0.5409 -0.7639
 5903SOL    HW229172   3.446   1.308  16.115 -2.3158 -1.3144  0.6472
 5904SOL     OW29173   1.396   0.091   2.675 -0.3436  0.1117  0.0532
 5904SOL    HW129174   1.485   0.124   2.660 -0.2442  0.0534  0.4957
 5904SOL    HW229175   1.369   0.083   2.584  0.2104 -1.7625  0.0628
 5905SOL     OW29176   2.703   3.529  13.790  0.6813  0.3830 -0.3579
 5905SOL    HW129177   2.650   3.552  13.866 -1.5829 -0.9487 -1.5016
 5905SOL    HW229178   2.790   3.561  13.811  1.0903 -0.0961 -1.3095
 5906SOL     OW29179   2.842   1.168   0.160 -0.1212 -0.1953  0.3920
 5906SOL    HW129180   2.937   1.182   0.169 -0.3956  2.3553 -0.7411
 5906SOL    HW229181   2.818   1.108   0.230 -0.9256 -0.0340  0.2468
 5907SOL     OW29182   4.393   1.901   6.963  0.7601  0.3817 -0.0786
 5907SOL    HW129183   4.397   1.813   7.000 -0.6926 -0.5260 -2.0547
 5907SOL    HW229184   4.454   1.937   7.026 -1.1789  2.7721  0.4141
 5908SOL     OW29185   3.731   3.314   3.578 -0.0081 -0.2011  0.1070
 5908SOL    HW129186   3.715   3.223   3.552 -1.9701 -0.8161  3.3887
 5908SOL    HW229187   3.701   3.313   3.669  1.2494  0.8287  0.5409
 5909SOL     OW29188   0.012   1.663   7.908 -0.6027 -0.1707  0.5146
 5909SOL    HW129189   0.087   1.709   7.946  0.7034 -2.5202  0.7146
 5909SOL    HW229190   4.690   1.626   7.985 -2.4558  1.2015  0.1570
 5910SOL     OW29191   2.257   4.595   8.418  0.0578 -0.0735  0.2767
 5910SOL    HW129192   2.215   4.642   8.345  1.8427  1.3148  0.1339
 5910SOL    HW229193   2.288   4.674   8.462 -1.5379  1.1235 -0.7230
 5911SOL     OW29194   2.166   4.159   2.504 -0.0852 -0.4442 -0.0284
 5911SOL    HW129195   2.131   4.244   2.530  2.8391  0.9343 -0.6053
 5911SOL    HW229196   2.161   4.172   2.409 -1.0263 -1.0229 -0.0602
 5912SOL     OW29197   0.698   2.549   3.716 -0.1848  0.0046 -0.0149
 5912SOL    HW129198   0.706   2.624   3.658 -3.5812 -0.5521 -1.2139
 5912SOL    HW229199   0.602   2.549   3.721 -0.2168 -2.7760 -0.6943
 5913SOL     OW29200   1.068   4.247   6.771 -0.2179  0.0006  0.1398
 5913SOL    HW129201   1.019   4.176   6.813 -0.4066  0.4172  0.6297
 5913SOL    HW229202   1.052   4.312   6.839  1.1723  1.5354 -0.9923
 5914SOL     OW29203   1.303   4.086   6.622 -0.2431  0.2959 -0.4550
 5914SOL    HW129204   1.280   4.036   6.544  1.7797 -1.2286 -0.0620
 5914SOL    HW229205   1.225   4.126   6.662 -0.5066 -0.2835 -0.3993
 5915SOL     OW29206   3.645   0.109   5.404  0.4768  0.1565  0.0959
 5915SOL    HW129207   3.615   0.154   5.484  1.6465 -1.0303  1.1896
 5915SOL    HW229208   3.604   0.024   5.418  3.3015 -1.1191  0.4715
 5916SOL     OW29209   4.493   3.197  12.731 -0.1648  0.1852  0.3642
 5916SOL    HW129210   4.498   3.120  12.673  1.0236 -0.2699  1.0610
 5916SOL    HW229211   4.453   3.259  12.670 -0.5653 -0.1516  0.2854
 5917SOL     OW29212   2.503   0.098   8.751 -0.3677 -0.2208  0.3636
 5917SOL    HW129213   2.557   0.174   8.731  1.9215 -2.1426 -0.7624
 5917SOL    HW229214   2.481   0.108   8.844  0.0185  3.0139  0.0945
 5918SOL     OW29215   1.371   1.031  12.203 -0.3404 -0.1923  0.0097
 5918SOL    HW129216   1.448   1.070  12.244  2.2703 -2.5866 -2.5338
 5918SOL    HW229217   1.304   1.076  12.255 -0.6198 -0.4791 -0.1035
 5919SOL     OW29218   0.532   0.001  10.393  0.6470  0.0445 -0.2287
 5919SOL    HW129219   0.529   4.633  10.426  1.9299  0.5507  1.2755
 5919SOL    HW229220   0.552   0.041  10.478  1.5604  0.3903 -0.6005
 5920SOL     OW29221   0.436   0.932   9.086  0.2800 -0.2141 -0.4562
 5920SOL    HW129222   0.498   0.859   9.086  1.2526  0.6208 -0.2831
 5920SOL    HW229223   0.369   0.888   9.033  1.4352 -0.2567 -1.8731
 5921SOL     OW29224   3.104   2.591   9.899  0.0393  0.6781  0.2494
 5921SOL    HW129225   3.020   2.613   9.938 -0.2637 -0.1858  0.0770
 5921SOL    HW229226   3.093   2.497   9.906 -0.5511  0.6776 -0.8232
 5922SOL     OW29227   0.887   0.747   5.155 -0.3881  0.0118 -0.5164
 5922SOL    HW129228   0.808   0.693   5.150 -1.3484  1.4827 -1.3238
 5922SOL    HW229229   0.951   0.677   5.166 -0.8095 -0.4245 -0.8396
 5923SOL     OW29230   1.203   3.261  12.965 -0.1135 -0.2096  0.1941
 5923SOL    HW129231   1.281   3.234  13.012 -0.4397 -0.9379  0.3117
 5923SOL    HW229232   1.149   3.311  13.026 -0.8404  2.1256 -2.3606
 5924SOL     OW29233   3.409   4.135   3.367  0.4981 -0.3565 -0.8137
 5924SOL    HW129234   3.392   4.140   3.461  1.3284  2.2209 -0.8041
 5924SOL    HW229235   3.345   4.197   3.333 -1.1361 -0.9271  1.2210
 5925SOL     OW29236   1.327   3.490   8.268 -0.0127  0.1896 -0.0959
 5925SOL    HW129237   1.274   3.494   8.189 -0.6444 -0.0634  0.3163
 5925SOL    HW229238   1.407   3.451   8.234 -0.8780 -0.6919 -1.1256
 5926SOL     OW29239   1.785   3.393   5.491 -0.6405  0.1722  0.7904
 5926SOL    HW129240   1.869   3.438   5.504  0.5676 -1.4149 -1.3819
 5926SOL    HW229241   1.775   3.417   5.399  1.6491 -1.6665  0.0461
 5927SOL     OW29242   2.028   1.277  13.171 -0.4122 -0.3255 -0.2395
 5927SOL    HW129243   2.012   1.224  13.092  0.8209 -0.5780 -0.3273
 5927SOL    HW229244   1.946   1.285  13.219  0.4914  1.5641  0.9404
 5928SOL     OW29245   0.296   2.527   3.972  0.3037 -0.5045  0.5036
 5928SOL    HW129246   0.323   2.509   3.882 -2.6206  0.1376 -0.4887
 5928SOL    HW229247   0.212   2.570   3.963  0.2399 -1.1411 -1.8694
 5929SOL     OW29248   3.159   0.004   8.470  0.4575 -0.1177 -0.0610
 5929SOL    HW129249   3.136   4.634   8.453 -0.9056  0.1040  0.6049
 5929SOL    HW229250   3.254   0.010   8.481  0.4851 -1.2394  0.2464
 5930SOL     OW29251   1.236   1.398   3.267  0.2521 -0.1608 -0.6144
 5930SOL    HW129252   1.226   1.492   3.252  0.5773  0.2887  1.8448
 5930SOL    HW229253   1.308   1.410   3.329 -1.3807  0.4780  1.1700
 5931SOL     OW29254   1.149   0.202   2.465 -0.2354 -0.7965 -0.2913
 5931SOL    HW129255   1.209   0.262   2.420  0.5376 -0.6012  1.0079
 5931SOL    HW229256   1.118   0.141   2.397 -1.3824  1.1797 -1.5232
 5932SOL     OW29257   2.156   0.072   1.168 -0.1213 -0.6791 -0.1469
 5932SOL    HW129258   2.187   0.127   1.097  1.3829 -0.7468  0.4741
 5932SOL    HW229259   2.218   0.103   1.234  0.5613 -0.3775 -0.9404
 5933SOL     OW29260   4.107   3.979   6.663  0.0488 -0.4796 -0.2202
 5933SOL    HW129261   4.022   4.022   6.657 -0.5436 -1.5884  0.1562
 5933SOL    HW229262   4.166   4.053   6.646 -0.2447 -0.5893 -1.7023
 5934SOL     OW29263   1.575   3.745   4.930  0.3976  0.4067 -0.7103
 5934SOL    HW129264   1.580   3.827   4.880 -0.6853  1.1349  0.3714
 5934SOL    HW229265   1.503   3.773   4.986  0.2934 -0.3174 -0.4792
 5935SOL     OW29266   1.244   3.978  13.129 -0.8411 -0.1546  0.6261
 5935SOL    HW129267   1.306   3.986  13.201 -1.0555  1.8550  0.5946
 5935SOL    HW229268   1.163   3.977  13.180 -0.2954 -1.1611  1.4681
 5936SOL     OW29269   3.053   2.649   8.190  0.5578 -0.6679  0.2546
 5936SOL    HW129270   3.109   2.722   8.164 -1.4230  0.6714 -0.2972
 5936SOL    HW229271   3.021   2.689   8.272  2.3887  1.7657 -0.2196
 5937SOL     OW29272   4.447   4.279   2.969  0.1487  0.3647  0.3328
 5937SOL    HW129273   4.496   4.308   3.046 -0.5194  2.6403 -0.0971
 5937SOL    HW229274   4.512   4.302   2.902  0.1368  0.0369  0.2088
 5938SOL     OW29275   4.521   2.421  12.160 -0.3268  0.2258  0.4685
 5938SOL    HW129276   4.487   2.459  12.240  3.0436  0.0482  2.0140
 5938SOL    HW229277   4.472   2.339  12.158 -0.2528  0.2045 -0.4648
 5939SOL     OW29278   1.619   0.338   3.423  0.4669 -0.1041 -0.2577
 5939SOL    HW129279   1.667   0.400   3.478 -0.4515 -0.9268  1.4788
 5939SOL    HW229280   1.657   0.375   3.344  2.5854 -2.0815 -0.1682
 5940SOL     OW29281   4.023   4.505   7.050 -0.1018  0.1614  0.6042
 5940SOL    HW129282   4.061   4.575   6.997  0.6276 -0.8773 -0.2601
 5940SOL    HW229283   4.080   4.513   7.126  0.0858 -3.1895  0.8041
 5941SOL     OW29284   0.210   3.912   8.965 -0.2915 -0.0090  0.1219
 5941SOL    HW129285   0.117   3.899   8.981  0.1157 -0.6806  2.0338
 5941SOL    HW229286   0.208   4.007   8.956  0.7891 -0.0097 -0.2345
 5942SOL     OW29287   1.209   3.471   4.899  0.1424 -0.1817 -0.2247
 5942SOL    HW129288   1.300   3.479   4.868 -0.4611  0.0052 -1.9717
 5942SOL    HW229289   1.166   3.435   4.821 -0.4841 -0.1221  0.0963
 5943SOL     OW29290   2.429   2.967   4.192  0.3702 -0.1535 -0.4026
 5943SOL    HW129291   2.355   2.948   4.249 -1.0427 -0.7995 -2.4223
 5943SOL    HW229292   2.396   2.919   4.115 -0.1091 -0.4293 -0.0224
 5944SOL     OW29293   4.437   4.702   4.415  0.8777  0.6323 -0.0727
 5944SOL    HW129294   4.412   0.072   4.433 -1.0850  0.2702 -0.9100
 5944SOL    HW229295   4.484   4.674   4.493  0.1715 -1.1817 -0.3076
 5945SOL     OW29296   3.295   0.180   3.653 -0.4295 -0.2708  0.6588
 5945SOL    HW129297   3.294   0.216   3.564 -1.3218 -1.2500  0.2612
 5945SOL    HW229298   3.201   0.165   3.664 -0.9169  0.7159 -2.1417
 5946SOL     OW29299   0.777   0.453   5.307 -0.2143 -0.0646  1.3250
 5946SOL    HW129300   0.746   0.368   5.339 -0.1703 -0.4190  0.4304
 5946SOL    HW229301   0.724   0.514   5.359 -0.8891  2.4074 -2.2750
 5947SOL     OW29302   2.935   0.248   5.764 -0.1725  0.2575 -0.1894
 5947SOL    HW129303   2.914   0.168   5.811 -0.7904 -0.3683 -1.5587
 5947SOL    HW229304   2.989   0.293   5.830  0.5226 -0.4494 -0.2745
 5948SOL     OW29305   2.263   1.443  15.911  0.2528  0.1458  0.4297
 5948SOL    HW129306   2.304   1.357  15.900  2.1892  1.0407  0.5701
 5948SOL    HW229307   2.207   1.458  15.834  0.6418  1.8711  0.4670
 5949SOL     OW29308   2.002   2.771   7.677  0.1374 -0.0457 -0.4928
 5949SOL    HW129309   2.095   2.779   7.655  0.4358  0.0409  0.8435
 5949SOL    HW229310   1.981   2.686   7.639 -1.9579  0.4818 -0.5374
 5950SOL     OW29311   3.665   0.539   2.114 -0.5104  0.5183 -0.4278
 5950SOL    HW129312   3.608   0.464   2.134 -0.2025  0.8938  1.9121
 5950SOL    HW229313   3.609   0.616   2.107  1.1055  1.5595 -1.6775
 5951SOL     OW29314   3.155   3.524   2.006 -0.0559 -0.0905  0.1899
 5951SOL    HW129315   3.118   3.487   1.926 -2.4098  2.7205 -0.0185
 5951SOL    HW229316   3.095   3.485   2.070 -3.5373  0.4686 -2.7489
 5952SOL     OW29317   3.240   0.985   9.688 -0.4730 -0.1827  0.2368
 5952SOL    HW129318   3.314   0.926   9.668  0.0307 -0.4717  2.9689
 5952SOL    HW229319   3.173   0.924   9.718 -1.9594  1.7546  0.8093
 5953SOL     OW29320   1.387   3.701   3.174  0.1501 -0.2280 -0.0924
 5953SOL    HW129321   1.461   3.732   3.121  0.5124  3.2913  2.4927
 5953SOL    HW229322   1.343   3.780   3.206  0.3192 -1.6218  3.6184
 5954SOL     OW29323   2.083   1.518  15.688  0.2464 -0.1622  0.2744
 5954SOL    HW129324   2.024   1.592  15.698 -2.1677 -2.1598  1.0149
 5954SOL    HW229325   2.027   1.459  15.637 -0.5558 -0.0998  1.0710
 5955SOL     OW29326   3.465   3.777   4.908  0.2726 -0.5527 -0.5004
 5955SOL    HW129327   3.427   3.796   4.823 -0.6395 -1.0768 -0.2076
 5955SOL    HW229328   3.491   3.868   4.922 -0.2563 -0.3069 -1.1469
 5956SOL     OW29329   1.763   2.937   9.147  0.1270  0.5243  0.2389
 5956SOL    HW129330   1.855   2.932   9.172  0.1303 -0.9966 -0.1089
 5956SOL    HW229331   1.752   2.905   9.058 -2.5179  0.7803  0.4864
 5957SOL     OW29332   0.179   2.165   0.241 -0.1305 -0.0249 -0.1098
 5957SOL    HW129333   0.188   2.070   0.250  0.4845 -0.0390 -0.8090
 5957SOL    HW229334   0.122   2.183   0.316 -1.8058 -1.4317 -1.0433
 5958SOL     OW29335   2.252   1.533   2.488 -0.3205 -0.3580  0.0825
 5958SOL    HW129336   2.268   1.451   2.443  1.2139 -0.0662  0.1217
 5958SOL    HW229337   2.156   1.540   2.482 -0.2240  0.9426 -0.0113
 5959SOL     OW29338   2.890   0.419   4.118  0.4058  0.2475 -0.3351
 5959SOL    HW129339   2.914   0.335   4.158  1.1222  0.5982 -0.0276
 5959SOL    HW229340   2.899   0.469   4.198 -0.3244  2.1986 -1.4680
 5960SOL     OW29341   4.020   4.281   8.775 -0.7297 -0.8703 -0.2649
 5960SOL    HW129342   4.001   4.357   8.830 -2.0114 -0.5663 -1.1280
 5960SOL    HW229343   4.087   4.234   8.825  0.2032  0.8734  0.1255
 5961SOL     OW29344   4.239   4.090   0.210  0.2085 -0.1195 -0.5156
 5961SOL    HW129345   4.212   4.048   0.128  0.7294 -1.2000 -0.1327
 5961SOL    HW229346   4.223   4.182   0.188 -0.7492 -0.1311  0.1176
 5962SOL     OW29347   0.599   2.768   6.250 -0.4694  0.0877 -0.1210
 5962SOL    HW129348   0.672   2.830   6.253  0.4762 -1.0479  0.0153
 5962SOL    HW229349   0.558   2.798   6.168 -0.3485  1.4952  0.3313
 5963SOL     OW29350   0.087   2.782   8.281 -0.4139  0.3285 -0.2842
 5963SOL    HW129351   0.067   2.738   8.198 -1.0422  1.7231 -0.8652
 5963SOL    HW229352   0.025   2.855   8.279  0.0345  0.6534 -2.1480
 5964SOL     OW29353   3.066   4.006   7.466  0.6388 -0.3956  0.3008
 5964SOL    HW129354   3.026   3.942   7.524 -0.3060  1.5813  1.7918
 5964SOL    HW229355   3.150   4.029   7.506  0.5257  1.2578 -0.3904
 5965SOL     OW29356   4.278   3.391   4.115 -0.3316 -0.1710 -0.3248
 5965SOL    HW129357   4.374   3.395   4.114 -0.3420  0.2308  0.0134
 5965SOL    HW229358   4.252   3.318   4.171 -2.3020 -0.4715 -1.6411
 5966SOL     OW29359   0.477   2.188  10.304  0.8535 -0.8131 -0.5142
 5966SOL    HW129360   0.437   2.125  10.364 -1.3530 -0.6222 -1.7787
 5966SOL    HW229361   0.548   2.227  10.354  0.2298  0.5078 -0.6547
 5967SOL     OW29362   4.599   0.798   6.554  1.0317 -0.2688 -0.4502
 5967SOL    HW129363   4.588   0.846   6.637  1.6757  0.0321 -0.5399
 5967SOL    HW229364   4.634   0.861   6.492  0.2898  1.3728  0.7839
 5968SOL     OW29365   4.423   0.882   0.803 -0.1116 -0.0943  0.2538
 5968SOL    HW129366   4.515   0.911   0.807  0.2707 -1.5888  2.4182
 5968SOL    HW229367   4.376   0.965   0.809  1.5257  0.8591 -0.0730
 5969SOL     OW29368   3.179   1.349  16.776  0.3367 -0.2616  0.5587
 5969SOL    HW129369   3.136   1.271  16.741  1.2021 -0.3539 -0.3347
 5969SOL    HW229370   3.109   1.412  16.791 -0.4130 -1.1200  0.6318
 5970SOL     OW29371   4.464   0.827  13.637  0.1510 -0.5466 -0.5648
 5970SOL    HW129372   4.525   0.792  13.702 -0.9393 -0.2579  0.6160
 5970SOL    HW229373   4.472   0.762  13.567  1.3257 -0.1254 -0.8156
 5971SOL     OW29374   1.711   2.399   8.788  0.3436  0.0601  0.1357
 5971SOL    HW129375   1.726   2.305   8.787  1.1946  0.1999  0.9975
 5971SOL    HW229376   1.622   2.387   8.754  0.8912 -0.6715 -1.0530
 5972SOL     OW29377   0.572   3.447  12.603 -0.0897 -0.3230  0.0313
 5972SOL    HW129378   0.656   3.418  12.567 -1.6864 -0.3535 -3.6879
 5972SOL    HW229379   0.620   3.505  12.663  0.2932 -0.4388 -0.1588
 5973SOL     OW29380   1.035   1.149   9.855 -0.0084 -0.7223  0.0737
 5973SOL    HW129381   0.948   1.132   9.820 -0.0393 -0.7466  0.1613
 5973SOL    HW229382   1.082   1.066   9.859  0.8898 -0.1484  1.7748
 5974SOL     OW29383   0.042   4.281   1.310  0.3230 -0.2721 -0.3357
 5974SOL    HW129384   0.116   4.324   1.267 -0.5368 -1.5265 -3.0359
 5974SOL    HW229385   0.039   4.201   1.258 -0.9586 -0.7313  0.4542
 5975SOL     OW29386   0.289   1.150   9.384 -0.6927 -0.8167  0.8113
 5975SOL    HW129387   0.345   1.227   9.386  1.2679 -2.1423 -2.5062
 5975SOL    HW229388   0.361   1.089   9.368 -0.0472 -0.1175  1.0726
 5976SOL     OW29389   2.532   0.633   9.609 -0.3024 -0.1106  0.2600
 5976SOL    HW129390   2.510   0.719   9.644 -1.7398 -0.4965  0.2967
 5976SOL    HW229391   2.602   0.601   9.667  1.0035  3.2358  0.5508
 5977SOL     OW29392   0.404   4.274  14.859  0.2875 -0.3271 -0.1923
 5977SOL    HW129393   0.326   4.291  14.805 -1.6173  0.6817  2.8734
 5977SOL    HW229394   0.405   4.182  14.834 -1.2234 -0.1968 -0.7676
 5978SOL     OW29395   1.788   4.600   0.097  0.5583  0.2476 -0.4778
 5978SOL    HW129396   1.759   4.567   0.012 -0.0989 -0.3394 -0.0331
 5978SOL    HW229397   1.876   4.631   0.077  0.1117  0.7846 -1.6380
 5979SOL     OW29398   3.176   0.379   7.017 -0.4515 -0.2663  0.0683
 5979SOL    HW129399   3.198   0.329   6.938  0.0748  1.1998 -0.7143
 5979SOL    HW229400   3.155   0.303   7.071  1.3163 -1.7937 -1.3783
 5980SOL     OW29401   2.542   3.706  10.959 -0.1231  0.5099 -0.9013
 5980SOL    HW129402   2.547   3.630  11.017 -3.4246  1.3062  0.4398
 5980SOL    HW229403   2.511   3.663  10.879 -0.5894  1.9099 -1.4853
 5981SOL     OW29404   4.411   0.849  11.324  0.2526 -0.2258  0.3328
 5981SOL    HW129405   4.480   0.807  11.376  0.5607  1.1516  1.0518
 5981SOL    HW229406   4.355   0.890  11.391 -0.1382 -3.4275  1.9553
 5982SOL     OW29407   3.167   4.587   1.772  0.3854 -0.3114 -0.0078
 5982SOL    HW129408   3.179   4.497   1.801 -0.5655 -0.4855 -0.1566
 5982SOL    HW229409   3.180   4.632   1.856 -0.9569  1.3294 -0.6727
 5983SOL     OW29410   2.110   0.223  10.643  0.6467 -0.5859 -0.0506
 5983SOL    HW129411   2.074   0.219  10.554 -0.6117  2.0890  0.3380
 5983SOL    HW229412   2.198   0.253  10.621  0.4849 -1.1938 -1.5029
 5984SOL     OW29413   1.658   0.860   2.224  0.2846  0.0481 -0.1854
 5984SOL    HW129414   1.590   0.895   2.282 -0.3938 -0.2078 -0.8298
 5984SOL    HW229415   1.618   0.795   2.167  0.6252 -0.0711 -0.2870
 5985SOL     OW29416   2.166   2.345  10.453 -0.2879  0.1026  0.0285
 5985SOL    HW129417   2.168   2.424  10.508  1.1966 -0.2935  0.5448
 5985SOL    HW229418   2.184   2.279  10.519  3.1059 -0.8324 -1.8655
 5986SOL     OW29419   1.879   1.754  14.413  0.0193  0.1014  0.0053
 5986SOL    HW129420   1.809   1.747  14.349  0.9771 -2.4723 -0.7505
 5986SOL    HW229421   1.932   1.817  14.365  0.3156 -0.6077 -0.5996
 5987SOL     OW29422   1.459   0.148   6.982  0.2401 -0.0125  0.1934
 5987SOL    HW129423   1.397   0.099   7.036  1.0293  0.5351  1.5896
 5987SOL    HW229424   1.425   0.235   7.002 -0.7436 -0.2610 -0.4290
 5988SOL     OW29425   1.695   0.143   8.443  0.2673  0.2305  0.0248
 5988SOL    HW129426   1.757   0.216   8.444 -0.9673  1.3115 -1.4748
 5988SOL    HW229427   1.726   0.081   8.378 -1.8025 -0.7572 -0.0200
 5989SOL     OW29428   1.312   1.230  13.020 -0.2792  0.0372  0.1741
 5989SOL    HW129429   1.402   1.248  12.993 -0.3310  2.1481  1.3866
 5989SOL    HW229430   1.303   1.272  13.106 -0.0011 -1.3082  0.8726
 5990SOL     OW29431   4.232   3.730   1.377 -0.2148  0.3410  0.6518
 5990SOL    HW129432   4.183   3.659   1.335 -1.3369  0.4899  1.7117
 5990SOL    HW229433   4.320   3.699   1.356 -0.1693  0.1535  1.1153
 5991SOL     OW29434   3.011   0.999   4.291 -0.3452  0.3100  0.3883
 5991SOL    HW129435   3.080   0.934   4.298  0.0820  0.6720 -0.4231
 5991SOL    HW229436   2.932   0.969   4.336  0.5401 -1.3492  0.7986
 5992SOL     OW29437   1.012   3.739   5.016 -0.6938 -0.7938 -0.2846
 5992SOL    HW129438   0.939   3.791   4.983 -0.4008  0.5130  1.1464
 5992SOL    HW229439   0.981   3.738   5.106  0.0018  2.3076 -0.0345
 5993SOL     OW29440   3.613   3.830  10.585  0.2761 -0.1884  0.2394
 5993SOL    HW129441   3.540   3.891  10.574  1.5461  1.0148 -1.5442
 5993SOL    HW229442   3.564   3.752  10.611 -2.9958  0.9647 -2.5476
 5994SOL     OW29443   1.978   1.381  13.724  0.0028  0.0075  0.1328
 5994SOL    HW129444   2.030   1.458  13.700  0.1250  0.3940  1.6177
 5994SOL    HW229445   1.894   1.397  13.681 -1.1161 -0.2061  2.2211
 5995SOL     OW29446   3.448   1.835   4.686  0.4588  0.3628  0.5388
 5995SOL    HW129447   3.463   1.917   4.735 -1.6449  0.8092  0.4481
 5995SOL    HW229448   3.524   1.838   4.628 -0.5164 -0.2034 -0.7512
 5996SOL     OW29449   1.914   0.785   8.956  0.3254  0.3521 -0.1001
 5996SOL    HW129450   1.871   0.842   9.019  0.6417 -0.8619  1.2170
 5996SOL    HW229451   1.870   0.815   8.877 -0.7769 -1.8669 -0.3098
 5997SOL     OW29452   1.206   1.030  15.270 -0.6556  0.6076  0.0468
 5997SOL    HW129453   1.175   1.095  15.207  2.3382  2.0089 -0.0000
 5997SOL    HW229454   1.165   0.956  15.225  0.5152  0.2151 -0.3856
 5998SOL     OW29455   2.789   0.893   4.425 -0.8724 -0.0347  0.2480
 5998SOL    HW129456   2.807   0.818   4.369 -0.9261 -0.0914  0.3062
 5998SOL    HW229457   2.693   0.887   4.424 -0.8508 -0.4797  0.5439
 5999SOL     OW29458   3.536   2.943   0.136 -0.2953 -0.0229  0.2900
 5999SOL    HW129459   3.572   2.872   0.083 -0.8245 -1.7786  2.2906
 5999SOL    HW229460   3.618   2.989   0.152  0.1566 -0.0824 -1.9259
 6000SOL     OW29461   3.860   2.847   7.780 -0.5003  0.0170 -0.7427
 6000SOL    HW129462   3.940   2.894   7.805 -1.3054  0.7343  0.4890
 6000SOL    HW229463   3.900   2.778   7.728  0.1943 -1.3743  1.6096
 6001SOL     OW29464   1.207   0.738  13.617  0.5097  0.2489 -0.3435
 6001SOL    HW129465   1.218   0.738  13.712  0.5673  0.6334 -0.3486
 6001SOL    HW229466   1.299   0.723  13.593  1.4095  1.6625  2.1264
 6002SOL     OW29467   3.087   3.087   9.266  0.7365 -0.1168 -0.1926
 6002SOL    HW129468   3.134   3.170   9.271 -0.6019  0.6171  0.2676
 6002SOL    HW229469   3.124   3.041   9.341 -1.6999 -0.7160  0.6378
 6003SOL     OW29470   0.738   1.291   3.628 -0.4183 -0.0399 -0.2239
 6003SOL    HW129471   0.827   1.323   3.647 -0.5046  0.7485 -1.1785
 6003SOL    HW229472   0.706   1.362   3.573 -0.0096 -1.5669 -2.4361
 6004SOL     OW29473   3.091   0.907  12.591 -1.0024 -0.0484  0.1995
 6004SOL    HW129474   3.085   0.948  12.505 -0.2600 -0.5411 -0.0817
 6004SOL    HW229475   3.000   0.880  12.606  0.6522 -4.8068  1.6705
 6005SOL     OW29476   3.231   4.220   8.537 -0.5669 -0.1438 -0.2608
 6005SOL    HW129477   3.254   4.128   8.545 -1.9366 -0.5726 -1.1331
 6005SOL    HW229478   3.169   4.213   8.609  2.6477 -1.6044  2.3299
 6006SOL     OW29479   4.502   4.484   9.068 -0.2986 -0.2194 -0.3097
 6006SOL    HW129480   4.565   4.549   9.099  0.4818 -0.9610 -0.3603
 6006SOL    HW229481   4.480   4.436   9.148 -1.4627  2.4461  0.9879
 6007SOL     OW29482   3.452   1.883   1.831 -0.1895 -0.5090  0.5133
 6007SOL    HW129483   3.521   1.943   1.860  0.4686 -1.4921  1.0005
 6007SOL    HW229484   3.382   1.948   1.839 -0.0399 -0.1360 -1.2085
 6008SOL     OW29485   3.811   3.882   8.546 -0.2309 -0.4413 -0.2749
 6008SOL    HW129486   3.854   3.961   8.514  1.9559 -1.6362 -0.2666
 6008SOL    HW229487   3.799   3.833   8.465  2.3544  0.5373 -1.2244
 6009SOL     OW29488   3.920   0.980  13.774 -0.1240 -0.3439  0.7003
 6009SOL    HW129489   3.953   0.928  13.701 -0.6847 -0.5937  0.6269
 6009SOL    HW229490   3.855   0.923  13.815  0.6370 -1.4301  0.3846
 6010SOL     OW29491   1.502   3.859   4.443  0.3387  0.0032  0.3231
 6010SOL    HW129492   1.595   3.839   4.440  0.6159  1.2179  0.8548
 6010SOL    HW229493   1.480   3.834   4.532 -2.6552 -2.5244 -1.1368
 6011SOL     OW29494   4.383   3.959   9.392 -0.0171 -0.1932  0.1003
 6011SOL    HW129495   4.382   3.867   9.421  1.2617 -0.2974 -0.1916
 6011SOL    HW229496   4.296   3.955   9.352  0.0717  1.4122 -0.2345
 6012SOL     OW29497   4.001   3.341   4.435  0.4589  0.3396 -0.0508
 6012SOL    HW129498   3.911   3.359   4.460  1.2412  2.7964  1.0125
 6012SOL    HW229499   4.057   3.391   4.495  0.3721  0.0217  0.2912
 6013SOL     OW29500   4.350   3.819   7.229 -0.1358 -0.1544 -0.1338
 6013SOL    HW129501   4.428   3.873   7.213 -1.3069  1.4616 -0.3262
 6013SOL    HW229502   4.285   3.855   7.169  0.9513 -0.3630 -1.4389
 6014SOL     OW29503   3.116   0.459  12.101  0.0159  0.4631  0.2216
 6014SOL    HW129504   3.043   0.448  12.162 -0.1862  0.4203 -0.0263
 6014SOL    HW229505   3.154   0.372  12.115 -1.8993 -0.8316 -2.5604
 6015SOL     OW29506   2.549   1.179  12.776  0.2147  0.2130  0.7508
 6015SOL    HW129507   2.552   1.234  12.854 -1.1343 -0.1320  1.0517
 6015SOL    HW229508   2.608   1.217  12.710 -0.5075  0.9467  0.5199
 6016SOL     OW29509   1.649   0.338  11.534  0.6311  0.4551  0.1710
 6016SOL    HW129510   1.627   0.336  11.628 -0.1367 -0.5753 -0.0246
 6016SOL    HW229511   1.698   0.256  11.521 -0.7975 -0.1305 -1.4413
 6017SOL     OW29512   4.009   1.236   7.035  0.4762  0.1468 -0.1406
 6017SOL    HW129513   3.926   1.232   7.083  0.4921 -1.1401 -0.2183
 6017SOL    HW229514   3.971   1.303   6.978  0.9462  0.6167  0.0980
 6018SOL     OW29515   0.409   3.362  11.052 -0.1664 -0.0940  0.5108
 6018SOL    HW129516   0.365   3.394  10.974 -1.1122 -1.7729  0.3544
 6018SOL    HW229517   0.366   3.277  11.063  1.1897 -0.6983  1.1909
 6019SOL     OW29518   2.009   1.093   6.616 -0.1877 -0.4452 -0.3999
 6019SOL    HW129519   1.995   1.135   6.701 -0.6833 -1.7584  0.1747
 6019SOL    HW229520   2.072   1.143   6.564  2.9707 -2.8286  1.1868
 6020SOL     OW29521   1.895   2.784  14.841 -0.1179 -0.1655 -0.7290
 6020SOL    HW129522   1.838   2.758  14.914  0.4821  1.1673  0.2103
 6020SOL    HW229523   1.896   2.706  14.785 -1.7047 -0.3233 -0.5512
 6021SOL     OW29524   4.627   0.333   6.308 -0.0107 -0.4394  0.3834
 6021SOL    HW129525   4.566   0.267   6.343 -0.6561  1.2099  2.3478
 6021SOL    HW229526   4.704   0.330   6.365  0.6096 -0.5713 -0.4575
 6022SOL     OW29527   1.206   2.875   2.964  0.1298  0.1337  0.0099
 6022SOL    HW129528   1.146   2.936   2.922  0.2138  0.5855  0.5480
 6022SOL    HW229529   1.177   2.847   3.051  1.1284 -1.7881 -0.2864
 6023SOL     OW29530   0.045   0.439  10.001  0.0840 -0.2932  0.0131
 6023SOL    HW129531   0.067   0.388   9.923 -3.4302  0.7759 -1.6487
 6023SOL    HW229532   0.089   0.388  10.069  0.9474 -0.5290 -0.7190
 6024SOL     OW29533   3.438   0.973  13.945 -0.3924  0.2056  0.3193
 6024SOL    HW129534   3.357   0.992  13.899  1.5738  1.1986 -2.7523
 6024SOL    HW229535   3.424   1.029  14.022 -0.2025  1.9087 -0.8964
 6025SOL     OW29536   3.159   0.297   8.888  0.2553  0.2016  0.2159
 6025SOL    HW129537   3.196   0.212   8.911  0.4365  0.3349  0.4254
 6025SOL    HW229538   3.178   0.349   8.966 -0.0590  3.0697 -1.6041
 6026SOL     OW29539   1.160   3.250   7.029 -1.1042 -0.2068 -0.2323
 6026SOL    HW129540   1.204   3.165   7.017 -0.6005  0.0616 -0.2848
 6026SOL    HW229541   1.133   3.243   7.120 -3.6668 -2.2052 -1.1433
 6027SOL     OW29542   0.207   2.256   6.100  0.2269 -0.4491  0.6067
 6027SOL    HW129543   0.191   2.206   6.020  3.5481 -1.1901  0.3996
 6027SOL    HW229544   0.284   2.216   6.140  0.9394 -1.0473 -1.3617
 6028SOL     OW29545   2.032   0.663  10.271  0.1648 -0.1299  1.1645
 6028SOL    HW129546   2.016   0.740  10.216 -0.3860 -1.0541  0.0414
 6028SOL    HW229547   2.093   0.689  10.340  1.0052 -0.4643  0.5478
 6029SOL     OW29548   0.739   2.736   8.608  0.1842  0.6317  0.1573
 6029SOL    HW129549   0.682   2.732   8.685  1.9372  1.1505  1.4752
 6029SOL    HW229550   0.828   2.731   8.643  0.0775 -1.2098  0.1827
 6030SOL     OW29551   1.829   1.288   7.756 -0.5286 -0.2584  0.4095
 6030SOL    HW129552   1.763   1.239   7.706 -0.2465 -1.7595  1.5389
 6030SOL    HW229553   1.824   1.374   7.714 -2.3541 -0.5261  0.0673
 6031SOL     OW29554   4.645   1.481   5.377  0.1188 -0.9875  0.0639
 6031SOL    HW129555   4.661   1.406   5.434  2.9363 -1.0669 -0.8351
 6031SOL    HW229556   4.582   1.521   5.438 -0.6979 -2.9082  0.4606
 6032SOL     OW29557   1.819   0.141   3.553  0.2072 -0.2018  0.5985
 6032SOL    HW129558   1.845   0.170   3.640  2.7490  1.2831 -0.6675
 6032SOL    HW229559   1.735   0.185   3.540  0.0655 -0.9274 -0.9026
 6033SOL     OW29560   2.737   3.696   0.012  0.3398  0.3325  0.1203
 6033SOL    HW129561   2.687   3.778   0.006 -1.3115 -0.6428  0.4627
 6033SOL    HW229562   2.811   3.723  17.645  0.6766 -0.0623  0.3843
 6034SOL     OW29563   4.455   1.388   6.209 -0.0548 -0.1796  1.2034
 6034SOL    HW129564   4.518   1.373   6.279 -1.6235 -1.1710  2.3763
 6034SOL    HW229565   4.514   1.418   6.139 -0.0750 -0.3012  1.1343
 6035SOL     OW29566   1.423   0.117   6.685 -0.2037  0.1868  0.4289
 6035SOL    HW129567   1.426   0.093   6.778 -0.2111 -0.2863  0.3105
 6035SOL    HW229568   1.382   0.203   6.678  0.4311  0.5902  1.7592
 6036SOL     OW29569   3.835   2.963  12.574 -0.4816  0.2343 -0.2556
 6036SOL    HW129570   3.799   2.982  12.488  0.1954  0.6555 -0.4431
 6036SOL    HW229571   3.875   2.887  12.531  0.3830  0.0224  0.9187
 6037SOL     OW29572   0.088   0.549   8.712  0.0053 -0.1379 -0.2276
 6037SOL    HW129573   0.144   0.502   8.775 -1.9742 -2.7766 -0.4369
 6037SOL    HW229574   0.087   0.641   8.737 -2.4114  0.0210 -0.9070
 6038SOL     OW29575   4.712   2.139  15.093  0.0285 -0.3969 -0.3257
 6038SOL    HW129576   0.061   2.094  15.046 -0.4067  1.6263 -2.8557
 6038SOL    HW229577   0.013   2.230  15.077 -2.6742  0.2216 -0.5845
 6039SOL     OW29578   2.252   3.544  10.882 -0.0711 -0.1594 -0.1294
 6039SOL    HW129579   2.173   3.547  10.935 -0.0341 -1.0194 -0.0261
 6039SOL    HW229580   2.241   3.458  10.840 -0.0411 -1.2558  2.1335
 6040SOL     OW29581   0.916   2.371   5.123  0.3630 -0.6527 -0.1971
 6040SOL    HW129582   0.941   2.279   5.116  0.3048 -0.7443  0.8027
 6040SOL    HW229583   0.986   2.415   5.075  1.0072 -0.5044  0.8860
 6041SOL     OW29584   2.141   0.315   3.267 -0.3263 -0.1384 -0.4947
 6041SOL    HW129585   2.069   0.369   3.234 -1.6966 -0.7564  1.5117
 6041SOL    HW229586   2.082   0.241   3.281 -1.2308  0.4233 -1.3010
 6042SOL     OW29587   1.736   3.555  11.024  0.2381  0.1892 -0.3183
 6042SOL    HW129588   1.673   3.492  10.989  0.3374 -0.2182  0.2305
 6042SOL    HW229589   1.730   3.620  10.954  1.0604 -0.0892 -0.6439
 6043SOL     OW29590   3.820   1.801   1.783 -0.3391  0.0392 -0.4124
 6043SOL    HW129591   3.905   1.805   1.828 -0.0094  0.0992 -1.0381
 6043SOL    HW229592   3.787   1.717   1.813 -0.2413  0.5281  1.0906
 6044SOL     OW29593   0.834   0.588   7.266 -0.0052 -0.7344  0.0336
 6044SOL    HW129594   0.799   0.534   7.195  0.8718  1.6217 -2.1404
 6044SOL    HW229595   0.902   0.531   7.303  1.2609  0.1289 -0.9954
 6045SOL     OW29596   2.059   1.537  13.042 -0.4364  0.3245 -0.4251
 6045SOL    HW129597   2.003   1.514  12.968 -1.0814  1.9018 -0.4244
 6045SOL    HW229598   2.025   1.480  13.111 -0.5452  1.5606  0.5410
 6046SOL     OW29599   4.711   4.487   5.284  0.1929 -0.6085  0.1427
 6046SOL    HW129600   4.675   4.424   5.220  0.5261  0.1625 -0.7999
 6046SOL    HW229601   4.639   4.549   5.278 -1.7205 -2.6686  1.9647
 6047SOL     OW29602   3.964   2.829  17.524 -0.2041 -0.6965 -0.2525
 6047SOL    HW129603   3.945   2.775  17.447 -2.6583 -1.1686  0.7244
 6047SOL    HW229604   3.912   2.785  17.590 -1.1641  1.3464  0.3381
 6048SOL     OW29605   0.849   1.005   5.205 -0.2427  0.4390 -0.1180
 6048SOL    HW129606   0.872   0.913   5.213  2.3105  0.7562 -3.8450
 6048SOL    HW229607   0.845   1.011   5.110  2.4347  0.2215 -0.2539
 6049SOL     OW29608   4.549   3.705  11.582 -0.2614  0.6004 -0.4497
 6049SOL    HW129609   4.528   3.615  11.557 -0.5305  0.5236  0.0585
 6049SOL    HW229610   4.458   3.719  11.609  0.3238 -2.4598  3.1306
 6050SOL     OW29611   0.329   0.728   8.481 -0.5541  0.3844  0.2796
 6050SOL    HW129612   0.381   0.690   8.552 -0.9387  0.3292  0.5283
 6050SOL    HW229613   0.270   0.659   8.453 -2.2588  1.4100  1.3330
 6051SOL     OW29614   3.678   3.745   0.361 -0.3286  0.5235 -0.5212
 6051SOL    HW129615   3.647   3.798   0.287  1.1907  2.4903  0.2721
 6051SOL    HW229616   3.762   3.786   0.381  0.1817 -1.2077  0.9083
 6052SOL     OW29617   2.298   4.435   6.564  0.4409  0.6155 -0.6854
 6052SOL    HW129618   2.302   4.518   6.516  0.6386  1.5259  0.9330
 6052SOL    HW229619   2.389   4.421   6.589  0.1241  0.9190  0.6231
 6053SOL     OW29620   1.875   1.176  17.666 -0.3045  0.1084  0.5046
 6053SOL    HW129621   1.942   1.121   0.019  0.0423  1.1968  1.4261
 6053SOL    HW229622   1.935   1.239  17.626 -3.1373  1.9374 -0.8963
 6054SOL     OW29623   0.605   2.013   5.885  0.2592 -0.4378 -0.2681
 6054SOL    HW129624   0.598   1.953   5.811 -0.1141 -1.1131  0.3025
 6054SOL    HW229625   0.699   2.025   5.896  0.2189  2.0121 -2.6351
 6055SOL     OW29626   1.304   3.998   3.149 -0.0069  0.1321 -0.4766
 6055SOL    HW129627   1.285   4.025   3.059 -0.7947  0.2977 -0.2574
 6055SOL    HW229628   1.397   4.018   3.149 -0.1539  0.7902 -0.1580
 6056SOL     OW29629   3.532   0.440   0.256  0.6817 -0.4286 -0.1942
 6056SOL    HW129630   3.533   0.527   0.215 -2.9334  0.1735  0.9478
 6056SOL    HW229631   3.475   0.390   0.197  0.2952 -2.3187  1.8022
 6057SOL     OW29632   3.470   3.731  12.578 -0.0970 -0.6275 -0.0951
 6057SOL    HW129633   3.376   3.740  12.566 -0.1949  2.1072  2.6702
 6057SOL    HW229634   3.483   3.672  12.652  1.6103 -1.1608 -0.8350
 6058SOL     OW29635   2.067   3.634   5.277 -1.0361  0.0387 -0.2608
 6058SOL    HW129636   2.141   3.650   5.336 -0.4373 -1.8208 -0.5295
 6058SOL    HW229637   2.093   3.697   5.209  1.6557  1.0806  1.6758
 6059SOL     OW29638   2.775   3.757   4.434 -0.2124 -0.5469  0.2937
 6059SOL    HW129639   2.864   3.722   4.433 -0.6507 -1.6233 -0.5006
 6059SOL    HW229640   2.721   3.683   4.410 -0.3794 -0.7384  1.2485
 6060SOL     OW29641   3.676   4.559   6.764  0.4476  0.5222  0.4209
 6060SOL    HW129642   3.703   4.508   6.841  0.3696 -0.3683 -0.1332
 6060SOL    HW229643   3.622   4.493   6.721  1.0865 -0.3159  0.9039
 6061SOL     OW29644   0.657   0.436  10.695 -0.5663  0.0309  0.2729
 6061SOL    HW129645   0.730   0.404  10.748 -1.0181 -2.1961 -0.4856
 6061SOL    HW229646   0.589   0.461  10.758 -0.1663 -0.0720  0.7366
 6062SOL     OW29647   4.698   2.268   0.427 -0.8909 -0.7447  0.4597
 6062SOL    HW129648   0.014   2.280   0.514  2.8694  1.0687 -1.3682
 6062SOL    HW229649   4.626   2.207   0.444  0.2658 -2.4123 -0.5767
 6063SOL     OW29650   2.501   3.843   1.804  0.0809 -0.6390 -0.0664
 6063SOL    HW129651   2.505   3.919   1.863  0.4282  0.5930 -1.6581
 6063SOL    HW229652   2.410   3.819   1.817  0.0711 -1.1272 -1.0518
 6064SOL     OW29653   1.634   2.192  14.356  0.2080 -0.2125 -0.3798
 6064SOL    HW129654   1.579   2.265  14.329  1.2997  1.2355  1.3086
 6064SOL    HW229655   1.687   2.178  14.278  1.2086  1.0594  0.0793
 6065SOL     OW29656   2.114   1.913   7.794  0.2142  0.4325 -0.0636
 6065SOL    HW129657   2.051   1.913   7.866  0.8437 -1.8384  0.5118
 6065SOL    HW229658   2.196   1.919   7.842 -0.7990 -2.4605  2.0269
 6066SOL     OW29659   0.680   2.642   4.953  0.1268  0.3417 -0.3577
 6066SOL    HW129660   0.700   2.594   5.034  2.6168 -0.6491 -1.5688
 6066SOL    HW229661   0.747   2.601   4.899  1.4273  1.5933  0.3390
 6067SOL     OW29662   3.462   2.318   5.723  0.7775 -0.9046  0.2277
 6067SOL    HW129663   3.538   2.368   5.753  0.6258 -0.1799 -0.6078
 6067SOL    HW229664   3.503   2.233   5.739  2.0087 -0.3491  0.0017
 6068SOL     OW29665   0.180   3.147   6.289  0.4273  0.2997 -0.4086
 6068SOL    HW129666   0.087   3.168   6.302  0.2812  1.2977 -3.0743
 6068SOL    HW229667   0.179   3.059   6.326 -0.6126 -0.2131 -1.6697
 6069SOL     OW29668   0.684   0.445   8.172 -0.1521  0.9295  0.2098
 6069SOL    HW129669   0.627   0.425   8.098  0.3557  2.1079 -0.4983
 6069SOL    HW229670   0.619   0.490   8.225  1.4867  2.2643  1.0925
 6070SOL     OW29671   3.565   0.651   1.564 -0.3276  0.1881 -0.6734
 6070SOL    HW129672   3.594   0.732   1.523 -0.7016 -0.6957 -2.7000
 6070SOL    HW229673   3.647   0.603   1.558  0.1208  1.0733 -1.5792
 6071SOL     OW29674   4.624   3.629   0.277  0.1194 -0.2970 -0.8321
 6071SOL    HW129675   4.536   3.603   0.303  0.7768 -2.0778 -0.3607
 6071SOL    HW229676   4.649   3.539   0.258 -0.1720 -0.3062 -1.1632
 6072SOL     OW29677   2.187   1.038   7.768  0.0573 -0.5342  0.6436
 6072SOL    HW129678   2.102   1.050   7.812 -0.5132  1.0523 -0.9038
 6072SOL    HW229679   2.221   1.121   7.735 -0.6744 -0.8742 -0.9400
 6073SOL     OW29680   4.415   4.402  14.506  0.2741 -0.5742  0.0980
 6073SOL    HW129681   4.435   4.380  14.415 -0.5589  0.5267 -0.3421
 6073SOL    HW229682   4.324   4.428  14.513  1.4960  3.5117  0.9938
 6074SOL     OW29683   3.713   1.336  10.135 -0.0400 -0.2928 -0.0844
 6074SOL    HW129684   3.771   1.314  10.208  0.5178 -0.4515 -0.5772
 6074SOL    HW229685   3.775   1.388  10.084 -0.3386 -0.6452 -0.8227
 6075SOL     OW29686   2.651   4.699   8.418 -0.6418  0.1513 -0.1294
 6075SOL    HW129687   2.733   4.713   8.464  0.3181 -0.2310 -1.7361
 6075SOL    HW229688   2.603   4.649   8.484 -1.8088  1.0596 -0.2718
 6076SOL     OW29689   2.268   2.230  11.275  0.8689 -0.0075 -0.4552
 6076SOL    HW129690   2.212   2.307  11.269 -0.7639 -1.0348  1.7376
 6076SOL    HW229691   2.201   2.162  11.279  1.3723 -0.4593  0.2167
 6077SOL     OW29692   1.675   1.836   1.792  0.1725  0.6473 -0.6258
 6077SOL    HW129693   1.662   1.794   1.878  3.8560  0.1402 -0.3080
 6077SOL    HW229694   1.710   1.757   1.750  1.2368  1.3456 -1.0438
 6078SOL     OW29695   2.007   0.359  17.254 -0.0077 -0.0876 -0.3340
 6078SOL    HW129696   1.974   0.353  17.164  1.7869 -1.5040 -0.9001
 6078SOL    HW229697   1.967   0.284  17.297 -2.1404  0.2128 -1.8152
 6079SOL     OW29698   3.801   0.334   6.407 -0.1336 -0.0457  0.4535
 6079SOL    HW129699   3.706   0.326   6.398  0.0068 -0.4263 -0.7285
 6079SOL    HW229700   3.812   0.349   6.313  0.4493  0.0525  0.5400
 6080SOL     OW29701   0.544   4.307  13.073 -0.1376 -0.3240  0.3553
 6080SOL    HW129702   0.455   4.319  13.105 -0.0129  1.1812  0.1431
 6080SOL    HW229703   0.587   4.345  13.149  0.8465  2.0926 -1.3798
 6081SOL     OW29704   0.862   1.936  13.872 -0.7628  0.1211  0.5499
 6081SOL    HW129705   0.790   1.921  13.811  0.6852 -0.4619 -1.0471
 6081SOL    HW229706   0.929   1.911  13.808 -2.0733 -1.1112 -0.3153
 6082SOL     OW29707   2.500   3.934  10.017 -0.0485 -0.0450 -0.3396
 6082SOL    HW129708   2.483   3.962  10.107 -2.8973  0.8347 -1.1536
 6082SOL    HW229709   2.593   3.958  10.016 -0.2430  0.7967  1.1502
 6083SOL     OW29710   2.133   1.600  17.511  0.1217 -0.2342 -0.2856
 6083SOL    HW129711   2.086   1.518  17.521 -0.2342  0.0265  0.2183
 6083SOL    HW229712   2.067   1.667  17.494  1.4164  0.9954 -0.4668
 6084SOL     OW29713   0.593   1.800   6.646  0.2184  0.5111  0.3878
 6084SOL    HW129714   0.505   1.794   6.682  0.6935 -0.8633  1.3330
 6084SOL    HW229715   0.653   1.799   6.721  2.1853 -1.3324 -1.1938
 6085SOL     OW29716   1.858   4.193   8.542 -0.6163 -0.3319  0.0527
 6085SOL    HW129717   1.831   4.113   8.586 -0.0417  0.3936  1.7141
 6085SOL    HW229718   1.836   4.260   8.607  2.2154  0.4684  0.2148
 6086SOL     OW29719   3.675   2.191   7.813  0.2149  0.2145 -0.0650
 6086SOL    HW129720   3.600   2.241   7.845 -0.3564 -0.9077  0.3047
 6086SOL    HW229721   3.702   2.252   7.744 -1.3380 -0.2342 -1.0479
 6087SOL     OW29722   3.123   0.137   7.148 -0.0901 -0.2569 -0.5421
 6087SOL    HW129723   3.188   0.083   7.193  0.0597  1.7788  1.6509
 6087SOL    HW229724   3.049   0.076   7.155 -1.3729  1.2459 -1.2143
 6088SOL     OW29725   1.443   3.871  16.078  0.3138 -0.4535  0.4917
 6088SOL    HW129726   1.390   3.792  16.090  1.3745 -1.3302 -0.5688
 6088SOL    HW229727   1.474   3.867  15.987  0.8510 -2.5077  0.7756
 6089SOL     OW29728   2.501   1.619   3.796  0.0869 -0.0811 -0.5626
 6089SOL    HW129729   2.572   1.560   3.773  0.2911  0.2005 -0.6583
 6089SOL    HW229730   2.521   1.630   3.889 -0.1810 -2.0940 -0.2792
 6090SOL     OW29731   1.140   2.319   5.378  0.1953 -0.0454  0.2054
 6090SOL    HW129732   1.205   2.254   5.406  1.1214 -0.0847 -2.0609
 6090SOL    HW229733   1.083   2.268   5.320  0.1227 -0.6986  0.8445
 6091SOL     OW29734   0.551   3.512  13.013 -1.0285 -0.4576  0.0434
 6091SOL    HW129735   0.615   3.467  12.959  0.6164  1.4894  0.3826
 6091SOL    HW229736   0.572   3.605  13.006  0.0927 -0.6126  1.4050
 6092SOL     OW29737   4.683   0.847   1.910 -0.1740  0.4310 -0.0763
 6092SOL    HW129738   0.029   0.915   1.912 -0.5673  0.8358 -0.8314
 6092SOL    HW229739   0.019   0.778   1.877 -1.8121 -0.6142 -0.7117
 6093SOL     OW29740   1.272   1.993   1.732  0.0206 -0.1272 -0.4977
 6093SOL    HW129741   1.354   2.031   1.700  0.9271 -1.0652  0.6900
 6093SOL    HW229742   1.264   2.045   1.812  2.6070  0.3904 -0.5593
 6094SOL     OW29743   4.032   2.646   1.719 -0.5606 -0.1508 -0.1339
 6094SOL    HW129744   4.078   2.564   1.735 -0.4630 -0.0938 -0.1235
 6094SOL    HW229745   4.068   2.695   1.793 -0.0053 -1.2075  0.2936
 6095SOL     OW29746   0.425   2.490   8.156 -0.5122  0.8392  0.2175
 6095SOL    HW129747   0.399   2.581   8.171  1.8536  1.3147  1.4613
 6095SOL    HW229748   0.471   2.498   8.072 -0.8413  0.3229 -0.0116
 6096SOL     OW29749   2.778   3.289   0.199  0.6957  0.1236  0.0518
 6096SOL    HW129750   2.732   3.344   0.135  2.4428  0.7781 -0.6325
 6096SOL    HW229751   2.716   3.216   0.204 -2.5792  2.9500  1.1122
 6097SOL     OW29752   2.290   0.413   8.223 -0.1059 -0.3007 -0.3287
 6097SOL    HW129753   2.288   0.509   8.213  0.4307  0.0443  2.6980
 6097SOL    HW229754   2.276   0.396   8.316  1.9666  2.0522  0.4331
 6098SOL     OW29755   1.218   2.759   1.014 -0.0741 -0.3501 -0.4389
 6098SOL    HW129756   1.242   2.769   0.922 -0.7028  0.3786 -0.5164
 6098SOL    HW229757   1.125   2.742   0.996 -0.4071 -0.8755  1.7343
 6099SOL     OW29758   2.962   4.035   2.438  0.0058  0.0096 -0.2252
 6099SOL    HW129759   2.900   3.962   2.446  0.3232 -0.2707 -0.3055
 6099SOL    HW229760   2.972   4.049   2.344  1.0715  0.4952 -0.0418
 6100SOL     OW29761   4.030   4.426   8.396  0.1936  0.6199  0.1447
 6100SOL    HW129762   3.954   4.392   8.444  0.4896 -1.2126 -0.6716
 6100SOL    HW229763   4.096   4.356   8.394 -1.1273 -0.6587  1.0577
 6101SOL     OW29764   0.989   3.022   9.042 -0.1827 -0.2745  0.1160
 6101SOL    HW129765   1.058   3.086   9.026 -0.3314  1.2693  5.7723
 6101SOL    HW229766   1.017   2.935   9.015  3.3044  0.7556  0.4036
 6102SOL     OW29767   1.859   1.684   8.277 -0.1201 -0.5961  0.7049
 6102SOL    HW129768   1.883   1.606   8.229 -1.9004 -0.9123  0.3461
 6102SOL    HW229769   1.910   1.668   8.357  0.5468 -0.7268  0.2532
 6103SOL     OW29770   2.771   3.445   2.749 -0.2492  0.5404 -0.2327
 6103SOL    HW129771   2.711   3.371   2.734  0.8584 -0.2110 -0.9861
 6103SOL    HW229772   2.745   3.482   2.833  0.5302 -0.5278  0.4727
 6104SOL     OW29773   0.554   1.584   3.006 -0.1718  0.0473  0.1248
 6104SOL    HW129774   0.469   1.562   2.967 -1.5123  4.7115  0.3998
 6104SOL    HW229775   0.593   1.636   2.936 -1.8441  0.7744 -0.2613
 6105SOL     OW29776   4.275   4.712   6.335 -0.7029 -0.2454 -0.4883
 6105SOL    HW129777   4.331   0.026   6.266  2.2848  1.4578  2.8126
 6105SOL    HW229778   4.261   4.621   6.307 -1.1143  0.0848 -1.3484
 6106SOL     OW29779   0.255   1.431   3.923  0.5681 -0.1891 -0.0806
 6106SOL    HW129780   0.190   1.361   3.915  1.1510 -1.1085  3.1687
 6106SOL    HW229781   0.315   1.397   3.856  2.0722  1.9249  0.1685
 6107SOL     OW29782   0.933   2.871   6.565  0.3720 -0.0647  0.2811
 6107SOL    HW129783   0.852   2.902   6.524  0.4739 -0.4467 -0.2153
 6107SOL    HW229784   0.976   2.956   6.571 -3.2619  1.8778 -1.1490
 6108SOL     OW29785   0.690   3.858   7.969  0.1097 -0.1349 -0.0920
 6108SOL    HW129786   0.759   3.804   8.006  1.1770  0.9101 -0.5503
 6108SOL    HW229787   0.611   3.822   8.010  0.5649 -1.4439 -0.3735
 6109SOL     OW29788   4.608   2.309   6.140  0.2384  0.4168  0.4118
 6109SOL    HW129789   4.549   2.341   6.072 -0.0717 -1.1170 -0.0309
 6109SOL    HW229790   4.682   2.369   6.133  0.1074  0.6303  0.7847
 6110SOL     OW29791   4.295   1.179   5.147 -0.2493  0.0363  0.2467
 6110SOL    HW129792   4.226   1.143   5.202  1.4549 -0.5445  1.9878
 6110SOL    HW229793   4.354   1.106   5.169  0.1166  0.0480 -0.6940
 6111SOL     OW29794   1.494   0.000  13.807 -0.6212 -0.8076  0.1040
 6111SOL    HW129795   1.467   0.075  13.860  3.5107  1.7573 -1.4125
 6111SOL    HW229796   1.566   4.692  13.863  0.2318  1.3678  0.1556
 6112SOL     OW29797   0.622   2.188   5.569  0.5950 -0.0259 -0.2506
 6112SOL    HW129798   0.714   2.209   5.549  0.6764 -0.7252 -0.6354
 6112SOL    HW229799   0.614   2.094   5.551  0.7177 -0.0365 -0.2515
 6113SOL     OW29800   0.071   2.250   2.944  0.0913 -0.3865  0.1744
 6113SOL    HW129801   4.696   2.253   2.943  0.1704  0.6759 -2.3552
 6113SOL    HW229802   0.079   2.235   3.039  2.1311 -1.4228 -0.1725
 6114SOL     OW29803   4.547   3.242   6.849  0.0919  0.3108  0.0635
 6114SOL    HW129804   4.618   3.271   6.906 -0.3632 -1.5226  1.5559
 6114SOL    HW229805   4.562   3.149   6.831 -1.0462  0.1292  0.0625
 6115SOL     OW29806   4.242   2.246   6.261  0.2414  0.9690  0.5987
 6115SOL    HW129807   4.231   2.228   6.168 -0.9128 -0.7691  1.0748
 6115SOL    HW229808   4.234   2.341   6.252  0.3549  1.0282  1.0881
 6116SOL     OW29809   3.259   2.662   0.251 -0.6088  0.2510  0.3128
 6116SOL    HW129810   3.167   2.676   0.227 -0.2899  2.7834  0.6462
 6116SOL    HW229811   3.279   2.576   0.213  2.4034  1.2385 -0.2847
 6117SOL     OW29812   2.298   2.605  11.288  0.0080 -0.2559  0.1595
 6117SOL    HW129813   2.380   2.637  11.325  0.3227  0.6446 -1.3340
 6117SOL    HW229814   2.313   2.629  11.197  2.2315  0.2259  0.6733
 6118SOL     OW29815   1.136   3.326   6.449  0.2547  0.2692  0.0209
 6118SOL    HW129816   1.135   3.419   6.474 -0.5611  1.4811 -4.6633
 6118SOL    HW229817   1.184   3.338   6.368  1.9692 -2.6694  0.6223
 6119SOL     OW29818   2.019   2.208   4.756  0.3907 -0.4104 -0.3569
 6119SOL    HW129819   2.002   2.229   4.664 -1.1574 -2.8224 -0.6216
 6119SOL    HW229820   2.068   2.288   4.777  0.3478 -0.2287 -0.9465
 6120SOL     OW29821   4.591   4.262  10.442 -0.1589 -0.0715  0.5979
 6120SOL    HW129822   4.650   4.207  10.389 -0.6206  1.1464 -1.1882
 6120SOL    HW229823   4.515   4.205  10.454 -0.8264  0.4960 -0.9789
 6121SOL     OW29824   0.045   3.815   2.570  1.1508  0.0372 -0.0953
 6121SOL    HW129825   4.673   3.837   2.567  0.7426 -1.5264  1.1339
 6121SOL    HW229826   0.079   3.846   2.486  0.0210  3.3257  0.6324
 6122SOL     OW29827   2.073   2.393   9.819  0.3172 -0.1186  0.0915
 6122SOL    HW129828   2.161   2.424   9.841  1.1399 -0.5086 -2.7473
 6122SOL    HW229829   2.034   2.366   9.902  0.9124 -0.6396  0.2028
 6123SOL     OW29830   2.771   1.375   5.272 -0.3248  0.2867  0.1051
 6123SOL    HW129831   2.796   1.285   5.295 -0.9601 -0.0124 -0.3678
 6123SOL    HW229832   2.720   1.359   5.193 -1.9495 -2.3465  1.6906
 6124SOL     OW29833   1.871   2.936   3.501  0.0909 -1.0423 -0.3020
 6124SOL    HW129834   1.904   2.866   3.444  2.1089 -0.3752  0.0417
 6124SOL    HW229835   1.871   3.008   3.437  0.0513 -1.6496 -0.9913
 6125SOL     OW29836   1.587   3.590   5.886  0.1412  0.3935  0.4346
 6125SOL    HW129837   1.665   3.618   5.838  0.6011  0.8767  1.4826
 6125SOL    HW229838   1.593   3.618   5.977  2.2303 -0.5026  0.5809
 6126SOL     OW29839   0.365   2.722   1.185  0.3290  0.4691  0.6796
 6126SOL    HW129840   0.345   2.641   1.232 -0.6986  0.8105  0.8423
 6126SOL    HW229841   0.299   2.781   1.220  0.6737  1.2713 -0.0308
 6127SOL     OW29842   0.639   2.477   5.900 -0.4537  0.1108  0.1172
 6127SOL    HW129843   0.574   2.482   5.970 -0.8850 -1.5892 -0.1627
 6127SOL    HW229844   0.619   2.390   5.866  1.3699 -0.1992 -0.1688
 6128SOL     OW29845   1.109   1.484   5.422  0.2320  0.1562  0.1373
 6128SOL    HW129846   1.022   1.454   5.394  1.1041 -0.3069 -2.0302
 6128SOL    HW229847   1.089   1.497   5.515 -1.2681 -0.6171 -0.0645
 6129SOL     OW29848   3.362   3.779   1.872 -0.1526  0.6342 -0.2594
 6129SOL    HW129849   3.377   3.872   1.888  3.1945 -0.4495  2.9441
 6129SOL    HW229850   3.422   3.769   1.798 -0.3116 -1.1072 -0.1627
 6130SOL     OW29851   4.679   1.837   2.070  0.0554  0.0150  0.2172
 6130SOL    HW129852   4.703   1.823   2.161 -0.1262  1.9106  0.5543
 6130SOL    HW229853   0.032   1.894   2.048  0.7156 -1.0373 -0.3102
 6131SOL     OW29854   3.461   1.548   4.684  0.0219  0.5650 -0.0662
 6131SOL    HW129855   3.430   1.631   4.719 -1.0615  0.4113 -0.6736
 6131SOL    HW229856   3.406   1.483   4.728  0.4187  0.2821  0.0167
 6132SOL     OW29857   2.352   0.548   1.768 -0.0944 -0.4920  0.7329
 6132SOL    HW129858   2.366   0.486   1.840  0.0061 -1.7048 -0.3318
 6132SOL    HW229859   2.272   0.594   1.792 -0.6500 -1.8665  1.5365
 6133SOL     OW29860   4.319   1.038  12.320  0.5679 -0.0819  0.5241
 6133SOL    HW129861   4.315   1.044  12.224  2.1425 -0.1020  0.4571
 6133SOL    HW229862   4.282   0.955  12.351  0.1431  0.1607  0.6614
 6134SOL     OW29863   1.309   4.269   4.017  0.0197 -0.1398 -0.1845
 6134SOL    HW129864   1.246   4.340   4.014 -1.6245 -1.5839  0.2473
 6134SOL    HW229865   1.259   4.204   3.968 -0.1269  1.1184 -1.7157
 6135SOL     OW29866   0.824   4.473   4.138 -0.6593 -0.0815 -0.1323
 6135SOL    HW129867   0.843   4.559   4.174 -1.1496  0.7561 -1.8885
 6135SOL    HW229868   0.847   4.415   4.211 -3.1473  1.4185  1.8350
 6136SOL     OW29869   3.393   2.549   9.930  0.2253 -0.2765  0.2552
 6136SOL    HW129870   3.358   2.550   9.841  0.8802 -1.3376 -0.0187
 6136SOL    HW229871   3.312   2.567   9.976  0.3548 -1.1096  0.8180
 6137SOL     OW29872   2.273   4.694   1.648  0.4688  0.0469  0.7629
 6137SOL    HW129873   2.195   4.691   1.703 -1.0868  1.0109 -1.3739
 6137SOL    HW229874   2.233   4.674   1.564 -0.1192  1.7978  0.6337
 6138SOL     OW29875   2.952   0.147   6.189 -0.0317 -0.0790  0.1684
 6138SOL    HW129876   2.922   0.147   6.280 -0.3149  2.8985  0.0694
 6138SOL    HW229877   2.955   0.055   6.161  2.5916 -0.0926  0.4777
 6139SOL     OW29878   0.830   1.107   3.973  0.2526  0.1039  0.4380
 6139SOL    HW129879   0.918   1.113   3.935 -1.0156 -1.0182 -2.6855
 6139SOL    HW229880   0.845   1.037   4.036 -0.2461  0.7643  1.2973
 6140SOL     OW29881   3.351   1.861  13.833  0.1780  0.1293  0.3985
 6140SOL    HW129882   3.298   1.805  13.777  1.1877 -0.9564  0.5381
 6140SOL    HW229883   3.377   1.930  13.771  2.5919 -0.4956  0.7390
 6141SOL     OW29884   2.700   2.403   0.657 -0.2531 -0.1869 -0.5071
 6141SOL    HW129885   2.640   2.421   0.585 -1.0253  0.9684  0.4167
 6141SOL    HW229886   2.780   2.388   0.607 -0.4299 -2.5753 -0.0693
 6142SOL     OW29887   0.960   0.172   7.988 -0.3096  0.3958 -0.5363
 6142SOL    HW129888   0.963   0.262   7.954  1.9743  1.0259  1.3574
 6142SOL    HW229889   0.874   0.183   8.028 -0.1481  0.0775 -0.1113
 6143SOL     OW29890   4.432   1.782  10.766  0.1195  0.1193 -0.1768
 6143SOL    HW129891   4.477   1.825  10.693  2.3387  1.4449  2.0010
 6143SOL    HW229892   4.345   1.821  10.765  0.1026  0.0854  0.3612
 6144SOL     OW29893   1.341   3.875   3.585  0.2187 -0.3640 -0.2549
 6144SOL    HW129894   1.398   3.938   3.629  0.1458  0.8380 -1.8639
 6144SOL    HW229895   1.392   3.794   3.592 -0.5626 -0.7906  0.5100
 6145SOL     OW29896   2.318   0.834  10.950  0.2971  0.4331  0.0432
 6145SOL    HW129897   2.275   0.749  10.964  1.7884 -0.3263  0.0150
 6145SOL    HW229898   2.252   0.874  10.893  0.6729 -0.7993 -1.2836
 6146SOL     OW29899   1.633   0.561  14.370  0.1020 -0.0590  0.1729
 6146SOL    HW129900   1.679   0.513  14.439  0.6338  1.8054  1.1057
 6146SOL    HW229901   1.546   0.521  14.364  0.4630 -0.3636 -2.6666
 6147SOL     OW29902   1.429   4.383   2.556  0.3729 -0.2077 -0.3890
 6147SOL    HW129903   1.422   4.324   2.481 -0.6436 -0.9073  0.2661
 6147SOL    HW229904   1.337   4.410   2.557  0.0754 -1.1810 -1.7199
 6148SOL     OW29905   3.752   0.890   9.890 -0.4307 -0.6363 -0.5754
 6148SOL    HW129906   3.834   0.930   9.864 -0.3592 -2.1065 -2.6377
 6148SOL    HW229907   3.689   0.961   9.903 -0.2997 -0.3490 -1.4925
 6149SOL     OW29908   4.231   3.448   6.506 -0.3679 -0.4896  0.4163
 6149SOL    HW129909   4.223   3.372   6.564 -0.2661  1.2732  2.7258
 6149SOL    HW229910   4.152   3.447   6.453 -0.0763 -2.0043 -0.0110
 6150SOL     OW29911   3.039   2.885   8.867 -0.2248  0.8147  0.3192
 6150SOL    HW129912   2.978   2.900   8.939 -0.2432  1.6380  0.1264
 6150SOL    HW229913   3.120   2.920   8.905  0.3606 -1.1968  0.9832
 6151SOL     OW29914   3.381   3.612   2.387 -0.3473  0.7454  0.1701
 6151SOL    HW129915   3.457   3.669   2.392 -0.1628  0.2780  2.4758
 6151SOL    HW229916   3.376   3.607   2.292 -3.1195 -1.8736  0.4589
 6152SOL     OW29917   2.313   2.179   7.125  0.2457 -0.1170  0.0752
 6152SOL    HW129918   2.269   2.207   7.205  0.1861 -1.4873  0.5268
 6152SOL    HW229919   2.266   2.230   7.060 -0.0725 -2.0227 -1.2053
 6153SOL     OW29920   1.724   3.185   0.159  0.0571 -0.1461 -0.4916
 6153SOL    HW129921   1.689   3.256   0.212 -2.0550 -1.4302 -0.1815
 6153SOL    HW229922   1.685   3.208   0.074 -0.3847 -2.8918 -1.0313
 6154SOL     OW29923   1.932   0.852   2.177 -0.0573 -0.2102  0.0305
 6154SOL    HW129924   1.898   0.764   2.187 -1.6637  0.3119 -0.7644
 6154SOL    HW229925   1.867   0.895   2.233 -0.5493 -0.3803 -0.4187
 6155SOL     OW29926   4.264   4.699   8.737  0.1427 -0.0721 -0.4056
 6155SOL    HW129927   4.207   4.673   8.665 -2.5962  1.4037  1.2580
 6155SOL    HW229928   4.216   0.057   8.759  1.0686  0.4984 -0.4296
 6156SOL     OW29929   3.026   2.298  11.854  0.1708 -0.0723  0.4122
 6156SOL    HW129930   2.983   2.235  11.912 -0.2322  0.3683  0.5963
 6156SOL    HW229931   3.041   2.362  11.924 -1.2877  1.2820 -0.4912
 6157SOL     OW29932   1.430   2.889   8.653  0.6856  0.0586 -0.1360
 6157SOL    HW129933   1.414   2.834   8.730  1.6086  0.2779  0.2098
 6157SOL    HW229934   1.524   2.870   8.641  0.3131 -0.9073 -1.5942
 6158SOL     OW29935   3.003   2.707  15.589  0.2742  0.1325 -0.0879
 6158SOL    HW129936   3.046   2.673  15.667  1.5422  2.5677  0.2763
 6158SOL    HW229937   3.069   2.706  15.520  0.5277  1.6979  0.1260
 6159SOL     OW29938   1.753   4.051   5.887 -0.1182  0.2826  0.5778
 6159SOL    HW129939   1.723   4.142   5.886  0.1149  0.3605  0.3906
 6159SOL    HW229940   1.679   4.011   5.843 -0.5883  0.2684  1.3902
 6160SOL     OW29941   3.033   4.574  12.768 -0.2508  0.2621  0.4245
 6160SOL    HW129942   2.964   4.582  12.835 -0.5784  2.6659 -0.2256
 6160SOL    HW229943   3.107   4.602  12.821 -0.4121  3.3655 -0.9932
 6161SOL     OW29944   3.887   0.805   6.038  0.4433 -0.1868  0.4892
 6161SOL    HW129945   3.815   0.838   5.984  0.2296 -1.2851  0.0902
 6161SOL    HW229946   3.888   0.865   6.113  1.7400  1.2940 -0.7114
 6162SOL     OW29947   4.031   2.562  10.980  0.5015 -0.5782  0.3807
 6162SOL    HW129948   4.053   2.625  10.912 -1.0202 -1.1101 -0.6053
 6162SOL    HW229949   3.960   2.523  10.928  0.8000  0.5892 -0.8841
 6163SOL     OW29950   1.048   0.756   4.353 -0.1008 -0.4927  0.0355
 6163SOL    HW129951   1.065   0.663   4.334  0.8740 -0.6794  1.8467
 6163SOL    HW229952   1.117   0.768   4.418 -0.5803 -0.3945  0.5204
 6164SOL     OW29953   3.904   0.368   5.366 -0.7603 -0.4666  0.6150
 6164SOL    HW129954   3.856   0.432   5.418 -1.9540  1.4676 -2.9073
 6164SOL    HW229955   3.949   0.319   5.435  2.1150 -0.5491 -1.3198
 6165SOL     OW29956   1.690   3.482   6.783  0.4078 -0.3270 -0.1730
 6165SOL    HW129957   1.670   3.410   6.723 -0.9961  0.3158 -0.4676
 6165SOL    HW229958   1.638   3.449   6.856 -0.3061  0.8739 -0.1423
 6166SOL     OW29959   1.201   2.491   7.388  0.3471 -0.3150  0.0131
 6166SOL    HW129960   1.198   2.470   7.482 -0.0218  0.1086  0.0988
 6166SOL    HW229961   1.110   2.510   7.366  0.9116  0.6224 -1.4891
 6167SOL     OW29962   2.686   3.919   6.509  0.2612  0.3550  0.4454
 6167SOL    HW129963   2.654   3.925   6.419  0.5352  1.6572  0.4289
 6167SOL    HW229964   2.613   3.962   6.553 -0.5964 -1.1568  0.4674
 6168SOL     OW29965   2.923   4.261   1.829 -0.7235  0.7799 -0.0806
 6168SOL    HW129966   3.003   4.270   1.778 -0.9793  1.2080 -0.4028
 6168SOL    HW229967   2.953   4.292   1.915  1.5489 -0.2817 -0.4752
 6169SOL     OW29968   1.954   1.604   6.717  0.4187  0.4711  0.0597
 6169SOL    HW129969   1.884   1.540   6.710 -1.4750  2.3209  2.2091
 6169SOL    HW229970   1.910   1.687   6.701 -3.5811 -1.8019 -0.5844
 6170SOL     OW29971   3.306   0.496   9.366 -0.0947 -0.4678  0.2953
 6170SOL    HW129972   3.370   0.447   9.418 -0.0623 -1.1938 -0.4328
 6170SOL    HW229973   3.373   0.554   9.328  0.5833 -1.4647 -0.0299
 6171SOL     OW29974   4.598   0.776   2.762 -0.3360  0.0300 -0.3291
 6171SOL    HW129975   4.618   0.820   2.845 -0.1595  0.7289 -0.7409
 6171SOL    HW229976   4.507   0.750   2.769 -0.6316  0.8438 -1.0964
 6172SOL     OW29977   2.143   2.789  10.971 -0.2800 -0.0141  0.2416
 6172SOL    HW129978   2.231   2.780  11.007 -0.8369 -0.9488  1.3628
 6172SOL    HW229979   2.162   2.786  10.877  0.4433  0.9100  0.3529
 6173SOL     OW29980   0.756   0.037  12.826  0.4021  0.6975 -0.1078
 6173SOL    HW129981   0.755   4.664  12.841 -1.0653  0.6537 -0.5040
 6173SOL    HW229982   0.770   0.077  12.912 -2.2326 -2.8546  1.9822
 6174SOL     OW29983   1.289   3.602   9.743  0.5441  0.9173  0.3084
 6174SOL    HW129984   1.247   3.584   9.660  0.4623  1.5178  0.2194
 6174SOL    HW229985   1.224   3.558   9.798 -0.4484  1.7672 -0.1808
 6175SOL     OW29986   0.700   1.314   7.038  0.2718 -0.0515  0.0427
 6175SOL    HW129987   0.624   1.344   7.088  0.1840 -0.7125  0.2997
 6175SOL    HW229988   0.688   1.374   6.964  0.7914 -0.6154 -0.4950
 6176SOL     OW29989   1.836   4.207  10.323  0.4895  0.1963 -0.0132
 6176SOL    HW129990   1.793   4.122  10.320  0.8309 -0.0425  1.8732
 6176SOL    HW229991   1.902   4.217  10.254  2.0784 -0.1110  1.4614
 6177SOL     OW29992   2.397   3.613   4.798  0.8299  0.2120 -0.5646
 6177SOL    HW129993   2.458   3.545   4.767  0.8251  1.0785 -2.4539
 6177SOL    HW229994   2.451   3.640   4.872 -0.8842 -0.3355  0.8791
 6178SOL     OW29995   1.687   0.944  15.925  0.2033 -0.0542  0.5616
 6178SOL    HW129996   1.649   1.030  15.944 -0.1171 -0.7633  3.1687
 6178SOL    HW229997   1.608   0.906  15.888 -0.7228  1.8391  0.6078
 6179SOL     OW29998   0.223   4.720   3.295 -0.2255 -0.1662  0.1460
 6179SOL    HW129999   0.214   0.036   3.207 -1.9281 -0.0680  0.3457
 6179SOL    HW230000   0.166   4.644   3.304 -1.9914  1.1827  0.4167
 6180SOL     OW30001   2.100   3.099  15.313  0.2015 -0.0379 -0.1302
 6180SOL    HW130002   2.176   3.065  15.266  0.6259 -0.2583  0.7179
 6180SOL    HW230003   2.067   3.148  15.237  0.6094 -2.1605 -1.6706
 6181SOL     OW30004   1.936   3.693  17.384  0.4328 -0.0545 -0.1589
 6181SOL    HW130005   1.845   3.724  17.389  1.0458  1.3638  2.0355
 6181SOL    HW230006   1.963   3.723  17.471  1.4159 -0.1815 -0.4202
 6182SOL     OW30007   1.161   4.295   5.407 -0.5761 -0.0561  0.3641
 6182SOL    HW130008   1.179   4.385   5.379  1.0700 -0.0360  1.5075
 6182SOL    HW230009   1.163   4.247   5.324  1.2173  1.6369 -0.5872
 6183SOL     OW30010   0.550   0.632   8.324  0.2283 -0.1376  0.0231
 6183SOL    HW130011   0.532   0.723   8.299 -0.9792 -0.2426  0.4918
 6183SOL    HW230012   0.531   0.622   8.418 -1.2664 -0.4270 -0.3121
 6184SOL     OW30013   2.733   3.114   5.862  0.1460 -0.2410  0.2117
 6184SOL    HW130014   2.729   3.043   5.926  1.8051  0.0489  0.6408
 6184SOL    HW230015   2.827   3.130   5.868 -0.3759  2.5771  0.7345
 6185SOL     OW30016   3.135   3.073   8.362 -0.7534 -0.2740 -0.2166
 6185SOL    HW130017   3.209   3.021   8.332  0.8306  2.0024 -0.2087
 6185SOL    HW230018   3.170   3.159   8.342 -2.0374  0.8498  2.3127
 6186SOL     OW30019   3.379   0.148   9.283 -0.2257  0.0571  0.2512
 6186SOL    HW130020   3.435   0.205   9.335  0.0124 -0.8732  1.0157
 6186SOL    HW230021   3.359   0.083   9.351 -0.4274  1.9508  2.0084
 6187SOL     OW30022   3.314   2.108   1.818 -0.0863 -0.4691 -0.1407
 6187SOL    HW130023   3.303   2.197   1.851 -0.1352 -0.7506  0.5916
 6187SOL    HW230024   3.313   2.133   1.725 -1.4210  1.0559  0.2801
 6188SOL     OW30025   4.139   0.339   7.039  0.1643  0.0701 -0.1628
 6188SOL    HW130026   4.172   0.429   7.034 -0.9129  0.4942  0.2977
 6188SOL    HW230027   4.109   0.329   7.129  0.0953  1.3764 -0.0296
 6189SOL     OW30028   2.999   0.325  13.113 -0.2988 -0.3195  0.0873
 6189SOL    HW130029   2.940   0.273  13.167  2.5100 -1.5955  1.9383
 6189SOL    HW230030   3.039   0.386  13.176  0.3907 -0.0898 -0.5610
 6190SOL     OW30031   4.130   3.038   4.017 -0.0419 -0.3082 -0.0616
 6190SOL    HW130032   4.043   3.064   3.987  0.9089  2.5146 -0.3605
 6190SOL    HW230033   4.149   3.087   4.097 -1.4669 -0.1044  0.1446
 6191SOL     OW30034   2.892   1.133   8.789  0.1037 -0.0272  0.2372
 6191SOL    HW130035   2.934   1.050   8.764  0.5526 -0.0372  1.0472
 6191SOL    HW230036   2.958   1.198   8.810  1.1515 -0.7658 -0.7552
 6192SOL     OW30037   0.089   4.060   8.434  0.0736  0.0885 -0.2508
 6192SOL    HW130038   0.036   4.038   8.358  0.4919 -2.0357  0.0488
 6192SOL    HW230039   0.173   4.081   8.396 -0.5719  0.2809 -1.5539
 6193SOL     OW30040   0.260   1.502   5.481 -0.1358 -0.1295  0.0393
 6193SOL    HW130041   0.169   1.526   5.496 -0.3310 -0.3724 -0.7274
 6193SOL    HW230042   0.298   1.540   5.560 -0.2381 -0.8137  0.4193
 6194SOL     OW30043   3.434   0.108   1.371  0.3640  0.2288  0.0118
 6194SOL    HW130044   3.385   0.153   1.302 -2.0966  0.6913  2.0634
 6194SOL    HW230045   3.487   0.180   1.405  0.4953  0.1453 -0.0167
 6195SOL     OW30046   0.751   1.350  13.316 -0.1143 -0.4863 -0.1741
 6195SOL    HW130047   0.845   1.365  13.319  0.0979 -1.8989  0.0399
 6195SOL    HW230048   0.749   1.355  13.221  1.1201  0.9972 -0.1279
 6196SOL     OW30049   4.338   2.055  11.839 -0.1261  0.0723  0.0821
 6196SOL    HW130050   4.414   2.078  11.891 -0.4778  3.6782 -1.0117
 6196SOL    HW230051   4.298   1.994  11.900 -2.2514  0.7438 -0.6177
 6197SOL     OW30052   1.774   1.883   0.677  0.1178 -0.2873  0.0746
 6197SOL    HW130053   1.754   1.799   0.635 -0.2829  0.6500 -1.6116
 6197SOL    HW230054   1.778   1.845   0.765 -0.6136 -1.2894 -0.3162
 6198SOL     OW30055   2.810   3.917  10.503  0.6511  0.2477  0.2310
 6198SOL    HW130056   2.888   3.882  10.547 -1.5066 -2.7824  1.6389
 6198SOL    HW230057   2.772   3.831  10.482  1.5956  0.2898 -1.6560
 6199SOL     OW30058   3.246   2.151   8.471 -0.1647  0.4639 -0.1358
 6199SOL    HW130059   3.186   2.203   8.417  0.1259  0.6516 -0.2837
 6199SOL    HW230060   3.193   2.074   8.488  0.0236  0.8538  2.1909
 6200SOL     OW30061   2.956   2.575   6.117 -0.3921  0.6648  0.3296
 6200SOL    HW130062   2.883   2.544   6.063 -0.6344 -0.8867  1.5421
 6200SOL    HW230063   2.917   2.543   6.198 -0.2983  1.0849  0.5387
 6201SOL     OW30064   3.086   1.728   6.425  0.1182  0.0469  0.0388
 6201SOL    HW130065   3.041   1.811   6.409 -0.9984 -0.2554  1.5344
 6201SOL    HW230066   3.073   1.719   6.520 -0.8247 -1.7476 -0.2719
 6202SOL     OW30067   2.910   2.395   5.731  0.1747  0.1115  0.1714
 6202SOL    HW130068   2.868   2.339   5.796 -0.0764 -3.2179 -2.9319
 6202SOL    HW230069   3.000   2.407   5.761  0.6736 -0.2589 -1.1831
 6203SOL     OW30070   4.184   2.895   1.537 -0.3284  0.1884  0.2988
 6203SOL    HW130071   4.248   2.950   1.582  1.4678 -0.7955 -1.0852
 6203SOL    HW230072   4.194   2.936   1.451  0.3424  1.6627  1.0792
 6204SOL     OW30073   3.105   2.256  17.282 -0.0968 -0.6143 -0.0634
 6204SOL    HW130074   3.137   2.313  17.212  0.3834 -0.0114  0.6419
 6204SOL    HW230075   3.182   2.226  17.330  1.3016  1.0280 -1.2329
 6205SOL     OW30076   4.439   0.853  14.529  0.0817  0.0011  0.2051
 6205SOL    HW130077   4.455   0.805  14.610  0.3724 -1.0672 -0.4942
 6205SOL    HW230078   4.452   0.787  14.461 -2.5293  0.6988 -0.9917
 6206SOL     OW30079   2.613   4.199   5.240  0.2977 -0.0053  0.1711
 6206SOL    HW130080   2.558   4.217   5.164  2.2607  0.5027 -1.0904
 6206SOL    HW230081   2.654   4.120   5.206  1.4364  0.0752  1.3525
 6207SOL     OW30082   2.247   1.381   5.712 -0.5432 -0.0329  0.3652
 6207SOL    HW130083   2.314   1.412   5.651 -1.2135 -0.9829 -0.8647
 6207SOL    HW230084   2.174   1.442   5.706  1.1104  1.6960 -2.0580
 6208SOL     OW30085   4.159   2.119   9.474  0.1283  0.1349  0.0741
 6208SOL    HW130086   4.101   2.071   9.533 -1.5898 -0.3593 -1.9946
 6208SOL    HW230087   4.235   2.062   9.486 -1.2209 -2.3810 -3.1708
 6209SOL     OW30088   2.183   1.768  12.547 -0.0405  0.0677  0.1877
 6209SOL    HW130089   2.272   1.733  12.552 -0.6544 -1.8508 -2.4607
 6209SOL    HW230090   2.161   1.730  12.462 -1.2893  0.7410  0.2154
 6210SOL     OW30091   2.156   3.141   8.831 -0.4649  0.1550 -0.2990
 6210SOL    HW130092   2.129   3.195   8.905 -2.4931  0.2943 -1.1473
 6210SOL    HW230093   2.183   3.212   8.772  2.1500  0.6992  1.5706
 6211SOL     OW30094   2.368   3.478   4.008  0.1689 -0.3135 -0.1525
 6211SOL    HW130095   2.449   3.517   4.040  0.0696 -0.4241  0.2340
 6211SOL    HW230096   2.402   3.389   4.015 -0.9897 -0.7975 -0.5088
 6212SOL     OW30097   3.872   3.004   5.083 -0.0911  0.0111 -0.2050
 6212SOL    HW130098   3.959   2.968   5.104  0.0152 -0.1607 -0.9316
 6212SOL    HW230099   3.839   2.933   5.028 -1.4155 -0.0248  0.6625
 6213SOL     OW30100   0.439   2.441  10.209 -0.4621  0.0248  0.1820
 6213SOL    HW130101   0.360   2.449  10.263 -0.6230 -1.2521  0.1430
 6213SOL    HW230102   0.457   2.348  10.227 -1.3166 -0.1798 -0.0205
 6214SOL     OW30103   2.613   4.506  15.233 -0.0938  0.3365  0.3014
 6214SOL    HW130104   2.581   4.517  15.323 -1.0367 -1.7143  0.2330
 6214SOL    HW230105   2.679   4.438  15.245 -0.1771  0.0355 -0.9335
 6215SOL     OW30106   0.547   3.005   4.071  0.4231 -0.2549 -0.6159
 6215SOL    HW130107   0.478   2.992   4.136  2.2853 -0.9349  1.2400
 6215SOL    HW230108   0.497   3.006   3.990  2.4981  1.8268 -1.8596
 6216SOL     OW30109   4.676   4.565  14.098 -0.1157  0.0406  0.3358
 6216SOL    HW130110   0.046   4.543  14.080  0.1343  1.0257  0.4253
 6216SOL    HW230111   4.639   4.572  14.010 -0.2425  0.1782  0.4005
 6217SOL     OW30112   4.228   1.077   0.781  0.4130 -0.4339  0.2387
 6217SOL    HW130113   4.239   1.120   0.697 -0.8621  1.3573  0.9790
 6217SOL    HW230114   4.196   1.149   0.835  0.9646  0.1179 -0.1763
 6218SOL     OW30115   3.782   4.666  12.540 -0.1824  0.0180  0.4420
 6218SOL    HW130116   3.727   4.697  12.469  1.1491  0.0532 -0.5693
 6218SOL    HW230117   3.729   4.590  12.565 -0.7714  0.1095 -0.5642
 6219SOL     OW30118   2.197   1.609  13.393  0.6809  0.9581 -0.0525
 6219SOL    HW130119   2.242   1.611  13.477  0.1794 -0.5930  0.2593
 6219SOL    HW230120   2.111   1.577  13.420  1.0609  0.7565  0.9276
 6220SOL     OW30121   1.484   4.060   4.095  0.0591 -0.1394  0.3749
 6220SOL    HW130122   1.433   4.139   4.079 -1.7437 -1.0938  1.4263
 6220SOL    HW230123   1.574   4.082   4.069  0.1525 -0.3690  0.5083
 6221SOL     OW30124   3.931   2.215   5.057 -0.1184  0.3037 -0.7750
 6221SOL    HW130125   3.936   2.141   5.117  0.1521 -0.3505 -1.5996
 6221SOL    HW230126   3.837   2.214   5.040 -0.2697 -0.0968  0.0946
 6222SOL     OW30127   3.755   2.611   4.232  0.0250 -0.6251 -0.3950
 6222SOL    HW130128   3.765   2.657   4.149 -1.6535 -1.0192 -0.7989
 6222SOL    HW230129   3.661   2.594   4.236 -0.0447 -0.3095 -0.6696
 6223SOL     OW30130   2.084   1.913  11.978  0.1837  0.1925 -0.6556
 6223SOL    HW130131   2.118   1.908  11.889 -0.3776 -1.0650 -0.8094
 6223SOL    HW230132   2.122   1.829  12.004 -1.2321  0.9405  3.7905
 6224SOL     OW30133   2.196   0.492   2.927  0.6688 -0.2076  0.6757
 6224SOL    HW130134   2.193   0.497   2.832 -2.3139  1.0468  0.8355
 6224SOL    HW230135   2.231   0.577   2.954  0.4458 -0.2986  1.2575
 6225SOL     OW30136   0.413   4.371   2.399 -0.2186  0.0927  0.5551
 6225SOL    HW130137   0.461   4.290   2.411 -1.2254 -0.6630 -0.5218
 6225SOL    HW230138   0.463   4.408   2.327 -1.0879 -0.1604 -0.1786
 6226SOL     OW30139   1.894   0.001   3.996  0.4321 -0.4058  0.3164
 6226SOL    HW130140   1.901   4.698   4.088  1.1094  2.0878  0.9185
 6226SOL    HW230141   1.834   4.656   3.960 -0.5749  0.5289  0.2769
 6227SOL     OW30142   2.076   4.662   2.631 -0.6288 -0.2322  0.1429
 6227SOL    HW130143   2.001   0.000   2.629 -0.5152 -0.1031 -0.3326
 6227SOL    HW230144   2.085   4.650   2.726  1.0728 -1.1163 -0.1319
 6228SOL     OW30145   1.134   2.489  10.463 -0.1891 -0.2072  0.1408
 6228SOL    HW130146   1.064   2.441  10.507 -0.1647  0.8931  1.3555
 6228SOL    HW230147   1.102   2.579  10.469  0.0308 -0.2407  1.6066
 6229SOL     OW30148   2.694   2.774   6.779  0.3480  0.0262  0.3459
 6229SOL    HW130149   2.665   2.863   6.759 -0.7913 -0.2714  0.6352
 6229SOL    HW230150   2.727   2.783   6.868  1.3607 -0.2840 -0.0010
 6230SOL     OW30151   1.374   3.186   4.873  0.2676 -0.0848 -0.5843
 6230SOL    HW130152   1.361   3.232   4.789 -1.3425 -1.0478 -0.8777
 6230SOL    HW230153   1.465   3.189   4.900  0.3629 -0.2977 -0.8747
 6231SOL     OW30154   1.985   1.258   8.432 -0.1378  0.0379  0.5773
 6231SOL    HW130155   1.935   1.176   8.427  1.6303 -0.8677 -2.5494
 6231SOL    HW230156   2.050   1.237   8.499 -0.2769 -1.6458  0.1979
 6232SOL     OW30157   4.372   3.701  14.610  0.2455 -0.1745 -0.1319
 6232SOL    HW130158   4.348   3.628  14.554  0.8877  0.2140 -0.9084
 6232SOL    HW230159   4.389   3.661  14.696 -1.9826 -0.0983  0.3434
 6233SOL     OW30160   2.300   2.227   0.926  0.2265  0.4257  0.3725
 6233SOL    HW130161   2.332   2.186   1.007 -1.0086  0.4383  0.8610
 6233SOL    HW230162   2.206   2.222   0.942  0.4428 -1.9765  0.9006
 6234SOL     OW30163   2.796   2.058   7.694  0.0307 -0.2847  0.4378
 6234SOL    HW130164   2.761   2.142   7.665 -1.1657 -0.8067  0.3636
 6234SOL    HW230165   2.890   2.071   7.682 -0.3426  0.3118 -1.7846
 6235SOL     OW30166   1.054   0.109  13.010 -0.6998  0.6209 -0.0139
 6235SOL    HW130167   0.977   0.165  12.994 -0.1587  1.6564  1.0031
 6235SOL    HW230168   1.127   0.171  13.006  1.0012 -1.3153  1.1967
 6236SOL     OW30169   1.207   2.265   3.048 -0.0635 -0.3115  0.1076
 6236SOL    HW130170   1.278   2.273   3.112 -0.5891 -0.7071  0.7476
 6236SOL    HW230171   1.228   2.329   2.980 -0.2741 -0.5592 -0.1889
 6237SOL     OW30172   2.557   3.721   3.169  0.2256  0.2992  0.0657
 6237SOL    HW130173   2.625   3.783   3.195  0.6610  0.6959 -2.0314
 6237SOL    HW230174   2.518   3.768   3.095 -1.6977  0.6188  1.2803
 6238SOL     OW30175   4.463   0.163   2.450  0.6618  0.6225 -0.9254
 6238SOL    HW130176   4.526   0.100   2.413  0.9953  0.3460  0.1195
 6238SOL    HW230177   4.398   0.178   2.382 -0.8918  1.4893  0.7563
 6239SOL     OW30178   3.931   1.765   6.674  0.6710 -0.0037 -0.0433
 6239SOL    HW130179   3.854   1.709   6.682 -0.4788  1.6713  0.5756
 6239SOL    HW230180   3.992   1.710   6.625  0.5015 -2.1594  2.2021
 6240SOL     OW30181   1.485   2.987   2.917  0.2918 -0.2624  0.0747
 6240SOL    HW130182   1.404   2.942   2.938 -0.2133  0.1432 -1.0115
 6240SOL    HW230183   1.444   3.062   2.874  1.5003 -0.3014 -1.1573
 6241SOL     OW30184   0.756   1.373   4.639 -0.1312 -0.1805  0.0991
 6241SOL    HW130185   0.721   1.434   4.704  2.5343  0.9146  0.5012
 6241SOL    HW230186   0.758   1.289   4.686 -0.4313 -0.3403 -0.1718
 6242SOL     OW30187   1.167   2.445   7.677 -0.3100  0.1110 -0.5062
 6242SOL    HW130188   1.134   2.485   7.758  0.9679 -2.9273  1.4870
 6242SOL    HW230189   1.193   2.359   7.708 -3.5431 -0.8490 -0.4405
 6243SOL     OW30190   2.051   0.414   3.705 -0.4977 -0.1105  0.1911
 6243SOL    HW130191   2.103   0.484   3.744  1.0045 -1.0897 -0.0595
 6243SOL    HW230192   2.121   0.378   3.650 -0.7805 -0.9070  0.3460
 6244SOL     OW30193   3.823   4.082   3.424 -0.2309 -0.3494  0.5612
 6244SOL    HW130194   3.897   4.032   3.391 -0.6559 -0.7229  0.1753
 6244SOL    HW230195   3.744   4.058   3.375 -0.8032  1.4187  0.5920
 6245SOL     OW30196   4.681   2.642   7.592  0.2004 -0.3563  0.1102
 6245SOL    HW130197   4.611   2.686   7.640  1.4565  2.1460 -0.3736
 6245SOL    HW230198   0.021   2.617   7.661  0.1420 -1.5799 -0.2793
 6246SOL     OW30199   1.408   0.890  15.658  0.5376 -0.0352  0.0834
 6246SOL    HW130200   1.316   0.907  15.638  0.5125  0.1029  0.3072
 6246SOL    HW230201   1.446   0.946  15.590 -1.6011  0.5985 -0.5839
 6247SOL     OW30202   3.939   1.762  16.490 -0.0203 -0.7337  0.0778
 6247SOL    HW130203   3.927   1.683  16.438  0.0037 -1.5456  1.2954
 6247SOL    HW230204   4.006   1.727  16.548  1.2548 -0.2293 -1.1001
 6248SOL     OW30205   3.703   3.129   5.278  0.0523 -0.1053  0.7159
 6248SOL    HW130206   3.776   3.096   5.226  0.8029  0.0819  1.6337
 6248SOL    HW230207   3.735   3.109   5.367  2.3960  1.9294  0.3325
 6249SOL     OW30208   1.206   3.332   1.222 -0.3223  0.1357 -0.0564
 6249SOL    HW130209   1.253   3.402   1.269  0.1184  0.6342 -1.2484
 6249SOL    HW230210   1.144   3.383   1.169 -0.0937  0.6105  0.1301
 6250SOL     OW30211   3.917   4.065   1.628 -0.7508 -0.2834 -0.2165
 6250SOL    HW130212   3.993   4.081   1.684 -1.1984 -3.4412  1.3042
 6250SOL    HW230213   3.842   4.080   1.685  0.2610  1.5999  0.6177
 6251SOL     OW30214   0.404   2.032   3.542 -0.2728  0.2461  0.5372
 6251SOL    HW130215   0.368   2.036   3.453 -3.1427 -0.1103  1.6658
 6251SOL    HW230216   0.338   2.086   3.586 -0.3981 -0.3822  1.1338
 6252SOL     OW30217   3.126   1.190   3.991  0.4510  0.1052  0.1134
 6252SOL    HW130218   3.181   1.112   3.984 -0.9777 -0.8535 -0.2196
 6252SOL    HW230219   3.110   1.187   4.086  1.6910  0.0691  0.3296
 6253SOL     OW30220   1.318   3.583   5.826 -0.4268  0.2603  0.1411
 6253SOL    HW130221   1.402   3.573   5.871  0.3589  1.3339 -1.0634
 6253SOL    HW230222   1.326   3.525   5.751 -1.4451  1.4476 -0.8749
 6254SOL     OW30223   1.684   0.307   7.849 -0.4317 -0.2790  0.1968
 6254SOL    HW130224   1.695   0.287   7.942 -1.2721  0.1187  0.3836
 6254SOL    HW230225   1.685   0.402   7.845 -0.5719 -0.2623  0.5442
 6255SOL     OW30226   2.202   0.524   2.663  0.2508 -0.2149 -0.5687
 6255SOL    HW130227   2.139   0.596   2.671  1.6963  0.6371  3.2823
 6255SOL    HW230228   2.153   0.458   2.613  0.2450  0.8652 -1.9785
 6256SOL     OW30229   2.457   3.836   5.955  0.2333  0.5172 -0.3378
 6256SOL    HW130230   2.545   3.834   5.917  0.1114 -1.6562 -0.5415
 6256SOL    HW230231   2.443   3.741   5.948  0.8715  0.4253 -0.3271
 6257SOL     OW30232   4.141   2.169  11.348 -0.0449  0.2912 -0.2101
 6257SOL    HW130233   4.231   2.139  11.361 -0.1957 -0.7041 -1.4480
 6257SOL    HW230234   4.145   2.167  11.252  0.7891 -0.8649 -0.1429
 6258SOL     OW30235   2.981   1.510   2.561 -0.0247  0.1109  0.0663
 6258SOL    HW130236   2.965   1.458   2.482  3.3011  0.4951 -0.8700
 6258SOL    HW230237   3.040   1.575   2.523 -0.4910  0.2360 -0.4560
 6259SOL     OW30238   2.848   3.301  12.424  0.1907  0.2393  0.4620
 6259SOL    HW130239   2.827   3.257  12.506 -1.8948  1.0386  0.3694
 6259SOL    HW230240   2.776   3.361  12.403  0.9771  1.1899  0.4757
 6260SOL     OW30241   3.961   2.094   7.723  0.8840  0.5884 -0.0177
 6260SOL    HW130242   4.039   2.041   7.707  1.7230  1.5246  0.9611
 6260SOL    HW230243   3.941   2.109   7.630  1.4542  2.4980  0.1565
 6261SOL     OW30244   3.134   4.278   7.093  0.9336  0.1268  0.3925
 6261SOL    HW130245   3.109   4.201   7.042 -0.9395  0.6693  0.4833
 6261SOL    HW230246   3.091   4.346   7.041  0.6389 -0.7027 -0.4305
 6262SOL     OW30247   0.322   0.061   6.143 -0.6617 -0.2446 -0.2230
 6262SOL    HW130248   0.321   0.008   6.222  1.9181  0.6998  0.4462
 6262SOL    HW230249   0.404   0.028   6.106  0.2640  0.8467  0.8434
 6263SOL     OW30250   3.742   3.301   1.211  0.3526 -0.7687 -0.2680
 6263SOL    HW130251   3.828   3.266   1.234  0.5416 -0.0557  0.0986
 6263SOL    HW230252   3.747   3.397   1.218 -1.8878 -0.7671  1.2044
 6264SOL     OW30253   2.360   3.885   4.151  0.1621  0.0601 -0.7168
 6264SOL    HW130254   2.455   3.895   4.156  0.4139 -2.7505 -0.1658
 6264SOL    HW230255   2.336   3.959   4.095 -0.0971 -0.8662 -1.8177
 6265SOL     OW30256   2.831   1.420   2.999 -0.1732  0.3120 -0.1373
 6265SOL    HW130257   2.795   1.508   3.007  1.1523  0.5470  3.4388
 6265SOL    HW230258   2.899   1.437   2.934  0.9051 -0.9591  0.6401
 6266SOL     OW30259   0.501   3.646  15.083  0.8681 -0.2238  0.2054
 6266SOL    HW130260   0.466   3.686  15.162  1.2715 -1.5021  1.0248
 6266SOL    HW230261   0.563   3.583  15.118 -0.0731  0.1500  2.5384
 6267SOL     OW30262   4.331   0.752   4.745  0.2436  0.1936  0.4360
 6267SOL    HW130263   4.295   0.822   4.692  2.4454 -0.1593 -1.5576
 6267SOL    HW230264   4.402   0.800   4.787 -0.8741  3.3110 -1.2063
 6268SOL     OW30265   1.858   4.671   4.262  0.2195  0.0510  0.6728
 6268SOL    HW130266   1.850   4.597   4.322  0.1106  2.0781  3.1565
 6268SOL    HW230267   1.810   0.013   4.316 -0.0165  0.1756  0.3146
 6269SOL     OW30268   3.103   4.022   0.779 -0.2433  0.2787  0.2585
 6269SOL    HW130269   3.124   4.071   0.699  0.1338  1.8712  1.3236
 6269SOL    HW230270   3.016   3.988   0.762 -0.8086  1.3826  0.9522
 6270SOL     OW30271   3.408   2.970  13.873  0.2228  0.4519  0.0397
 6270SOL    HW130272   3.422   2.932  13.786  1.0787  3.0956 -0.9817
 6270SOL    HW230273   3.316   2.996  13.875  0.5745  1.6525  0.5832
 6271SOL     OW30274   1.590   1.282  12.670  0.7172 -0.0109  0.1207
 6271SOL    HW130275   1.618   1.307  12.582 -1.8834  1.1218 -0.3881
 6271SOL    HW230276   1.559   1.195  12.645  2.3536 -0.0545 -1.7982
 6272SOL     OW30277   0.902   0.764  10.327  0.5775 -0.5758 -0.8533
 6272SOL    HW130278   0.977   0.727  10.375  0.6275  1.0570  0.3534
 6272SOL    HW230279   0.832   0.706  10.355 -1.2426  2.6720  1.2450
 6273SOL     OW30280   0.631   2.355   2.941 -0.1456  0.0001  0.1414
 6273SOL    HW130281   0.704   2.415   2.922  0.2958 -1.0334 -1.4576
 6273SOL    HW230282   0.643   2.297   2.865  0.6815  0.3856 -0.0309
 6274SOL     OW30283   3.105   3.268   0.637  0.1788 -0.0811 -0.5704
 6274SOL    HW130284   3.043   3.201   0.668  0.5546  0.3816  1.1671
 6274SOL    HW230285   3.181   3.230   0.683  0.7340 -0.7888 -2.0599
 6275SOL     OW30286   1.893   0.747   3.132 -0.1937  0.0331 -0.3314
 6275SOL    HW130287   1.946   0.781   3.059  1.5093  0.5528  1.1639
 6275SOL    HW230288   1.804   0.752   3.098 -0.9304  0.6852  1.6825
 6276SOL     OW30289   3.448   1.766  17.387 -0.1356  0.0549 -0.0272
 6276SOL    HW130290   3.421   1.753  17.477  2.5030 -4.8647  0.0353
 6276SOL    HW230291   3.482   1.856  17.390 -0.0306  0.1834 -3.9796
 6277SOL     OW30292   3.318   1.387   6.932  0.6358  0.1310  0.4420
 6277SOL    HW130293   3.308   1.312   6.990  0.5793 -1.0689 -1.1172
 6277SOL    HW230294   3.322   1.352   6.843 -3.9129  3.5291 -1.0816
 6278SOL     OW30295   2.494   0.934   4.963  0.0947 -0.2738 -0.2463
 6278SOL    HW130296   2.549   0.981   5.025  0.8295  0.7535 -1.6714
 6278SOL    HW230297   2.415   0.920   5.015 -0.0194 -0.7024 -0.5338
 6279SOL     OW30298   2.843   4.680   5.904 -0.0078 -0.3940  0.5647
 6279SOL    HW130299   2.853   4.588   5.880  0.3421 -0.2045 -0.0113
 6279SOL    HW230300   2.757   4.672   5.945 -1.3123  1.9834 -1.6810
 6280SOL     OW30301   3.449   2.064   5.138 -0.6356  0.1262 -0.5100
 6280SOL    HW130302   3.459   1.969   5.133 -0.3180  0.2674 -2.2918
 6280SOL    HW230303   3.353   2.066   5.141 -0.5951  1.1523 -0.0351
 6281SOL     OW30304   0.831   4.249  10.121 -0.0857  0.1879 -0.7388
 6281SOL    HW130305   0.845   4.217  10.032  2.8972 -0.6628  0.0709
 6281SOL    HW230306   0.890   4.204  10.181 -1.3902 -1.2624 -0.5517
 6282SOL     OW30307   0.662   3.257   7.784  0.1213  0.2171  0.4542
 6282SOL    HW130308   0.735   3.226   7.731 -2.2539 -1.6005 -1.7772
 6282SOL    HW230309   0.678   3.349   7.802 -1.3561  0.5235  0.1970
 6283SOL     OW30310   1.273   0.887   6.680  0.0237 -0.2357 -0.4838
 6283SOL    HW130311   1.335   0.956   6.656  0.6912 -0.4707  0.5545
 6283SOL    HW230312   1.192   0.923   6.716  0.7629  0.9359  0.0133
 6284SOL     OW30313   1.155   2.149   3.485 -0.0025  0.1765  0.3408
 6284SOL    HW130314   1.166   2.114   3.573  0.2319  3.4937  1.6263
 6284SOL    HW230315   1.142   2.064   3.443  2.3596 -0.7943  1.5658
 6285SOL     OW30316   1.023   4.674   3.067  0.0906 -0.7929  0.2547
 6285SOL    HW130317   1.101   4.662   3.013  0.1534  1.2865 -0.1209
 6285SOL    HW230318   0.951   4.642   3.012  0.1715 -0.6296  0.0546
 6286SOL     OW30319   2.499   0.816   6.420  0.4390 -0.5054  0.1869
 6286SOL    HW130320   2.482   0.860   6.337  0.7285  0.6914  0.7687
 6286SOL    HW230321   2.491   0.726   6.388 -1.4668 -0.6621  1.0813
 6287SOL     OW30322   0.659   2.213   3.280  0.0809  0.0411  0.1398
 6287SOL    HW130323   0.689   2.255   3.200 -1.3036 -0.1975 -0.5060
 6287SOL    HW230324   0.654   2.121   3.254 -0.4550 -0.1432  0.8991
 6288SOL     OW30325   2.014   4.176   6.662 -0.2348 -0.2017 -0.0631
 6288SOL    HW130326   2.025   4.117   6.588  0.7190  1.1997 -1.0472
 6288SOL    HW230327   2.088   4.152   6.718  0.0584  0.2224 -0.2607
 6289SOL     OW30328   2.984   3.569   4.429  0.3383 -0.2834 -0.3384
 6289SOL    HW130329   3.068   3.591   4.468  0.0960 -0.5355  0.3313
 6289SOL    HW230330   2.970   3.485   4.473 -0.0277 -0.0694 -0.0385
 6290SOL     OW30331   0.290   3.624   7.537  0.1058 -0.3154 -0.0234
 6290SOL    HW130332   0.362   3.566   7.563  1.2498 -0.3415 -3.1554
 6290SOL    HW230333   0.338   3.707   7.533 -1.9895  0.9886  2.1187
 6291SOL     OW30334   1.626   0.840  17.253  0.2171 -0.4591 -0.1349
 6291SOL    HW130335   1.682   0.905  17.294 -1.0228 -0.0823  0.9484
 6291SOL    HW230336   1.686   0.765  17.253 -0.4966 -1.0294 -0.7176
 6292SOL     OW30337   3.238   2.739  16.665 -0.4486 -0.2429  0.3039
 6292SOL    HW130338   3.259   2.832  16.665 -1.6370  0.0273  0.2080
 6292SOL    HW230339   3.221   2.730  16.571 -0.3773  0.4275  0.2269
 6293SOL     OW30340   1.565   3.336  16.818 -0.2171  0.1819 -0.1116
 6293SOL    HW130341   1.614   3.349  16.737  0.0640 -0.2202 -0.0031
 6293SOL    HW230342   1.635   3.366  16.876 -1.1411 -0.3554  1.3019
 6294SOL     OW30343   0.911   2.256   4.637  0.0798  0.0418  0.2973
 6294SOL    HW130344   0.982   2.319   4.624  1.1136 -0.7379  2.0999
 6294SOL    HW230345   0.904   2.234   4.544 -0.7150  2.1817 -0.1463
 6295SOL     OW30346   2.684   2.177   6.275 -0.1456  0.2101 -0.2042
 6295SOL    HW130347   2.600   2.205   6.310  0.3860  2.0993 -0.4396
 6295SOL    HW230348   2.739   2.227   6.336 -0.6485  2.0716 -1.2582
 6296SOL     OW30349   0.113   3.512   4.515 -0.6836  0.3506  0.2550
 6296SOL    HW130350   0.192   3.464   4.492 -0.9129 -0.3303  0.9102
 6296SOL    HW230351   0.080   3.445   4.574 -0.4503 -0.6682 -0.7568
 6297SOL     OW30352   0.713   2.561   4.068  0.3135  0.1752  0.3159
 6297SOL    HW130353   0.760   2.536   3.989 -2.6870  1.9974 -2.0097
 6297SOL    HW230354   0.777   2.603   4.125 -0.3843  0.2972  1.0121
 6298SOL     OW30355   1.304   0.693   0.904 -0.2093 -0.0114 -0.2428
 6298SOL    HW130356   1.249   0.620   0.932 -0.4860  0.5749  0.7353
 6298SOL    HW230357   1.299   0.678   0.809  0.8142 -1.1863 -0.1019
 6299SOL     OW30358   3.172   0.873   3.301 -0.0132  0.0085  0.6109
 6299SOL    HW130359   3.185   0.960   3.262 -0.3943 -0.7554 -1.2383
 6299SOL    HW230360   3.099   0.885   3.362 -0.8831  1.2523 -0.6438
 6300SOL     OW30361   1.695   1.613  15.199 -0.4468 -0.1028 -0.5651
 6300SOL    HW130362   1.776   1.662  15.219 -0.5999 -0.2176  0.3452
 6300SOL    HW230363   1.739   1.535  15.167 -0.6955 -0.3522 -0.2963
 6301SOL     OW30364   2.585   4.041   7.397 -0.5242  0.3894  0.5221
 6301SOL    HW130365   2.582   4.010   7.307 -2.1301  1.4255  0.2177
 6301SOL    HW230366   2.541   3.972   7.447 -1.8301 -0.4179 -1.7527
 6302SOL     OW30367   4.252   3.436   0.049 -0.1648 -0.5033 -0.5952
 6302SOL    HW130368   4.181   3.374   0.033  0.3870 -1.8229  2.0059
 6302SOL    HW230369   4.294   3.384   0.117  0.8833 -1.3224 -1.8793
 6303SOL     OW30370   2.751   2.026   9.573  0.0257  0.1577  0.7737
 6303SOL    HW130371   2.788   2.114   9.558  2.5356 -1.1595 -0.8452
 6303SOL    HW230372   2.800   2.007   9.653 -0.9957  1.1970  1.6483
 6304SOL     OW30373   4.080   2.940   2.937  0.3906 -0.0397 -0.2655
 6304SOL    HW130374   4.081   2.853   2.897 -2.5228 -0.7411  1.1644
 6304SOL    HW230375   4.108   2.990   2.861  0.1790  0.2693 -0.1412
 6305SOL     OW30376   3.742   1.872   2.962 -0.2978  0.3834  0.7453
 6305SOL    HW130377   3.827   1.861   3.005 -0.2247  2.5287  1.1311
 6305SOL    HW230378   3.725   1.786   2.923  3.3859  0.4227 -0.9902
 6306SOL     OW30379   4.585   3.528   6.365 -0.1520 -0.9146 -0.4303
 6306SOL    HW130380   4.506   3.518   6.419  0.7163  0.5195  1.1420
 6306SOL    HW230381   4.577   3.616   6.329 -1.2065 -1.4813 -1.5597
 6307SOL     OW30382   3.774   3.621   6.194 -0.4630  0.3437  0.1680
 6307SOL    HW130383   3.799   3.677   6.121  0.6093 -0.5280 -0.1297
 6307SOL    HW230384   3.857   3.583   6.224  0.3826 -0.6669 -3.4602
 6308SOL     OW30385   4.300   1.889  10.510 -0.7071  0.0899  0.0834
 6308SOL    HW130386   4.253   1.953  10.562 -0.7116 -0.8353  1.2280
 6308SOL    HW230387   4.345   1.944  10.446 -0.2597 -0.5119 -0.1232
 6309SOL     OW30388   2.688   2.002   6.652 -0.2384  0.5518 -0.6976
 6309SOL    HW130389   2.630   1.926   6.639 -0.2681  0.2029  1.5197
 6309SOL    HW230390   2.725   2.006   6.564 -2.4568 -2.0520 -1.7560
 6310SOL     OW30391   4.262   3.662  16.863 -0.4924 -0.3773 -0.0183
 6310SOL    HW130392   4.327   3.631  16.800  1.0441  1.0869  0.8360
 6310SOL    HW230393   4.199   3.708  16.808 -0.3055  0.4505  0.4483
 6311SOL     OW30394   4.238   2.745   3.059  0.5669  0.0776  0.2874
 6311SOL    HW130395   4.233   2.697   3.141 -0.7379  1.3076  0.9374
 6311SOL    HW230396   4.167   2.806   3.079  1.8123  1.3983  0.6711
 6312SOL     OW30397   0.052   2.341   2.570  0.3591 -0.8093  0.0330
 6312SOL    HW130398   0.045   2.410   2.635 -0.6093  0.5534 -1.5355
 6312SOL    HW230399   0.010   2.382   2.495  0.4351 -0.1164  0.3698
 6313SOL     OW30400   3.959   0.400   6.854  0.1720  0.0539  0.6814
 6313SOL    HW130401   4.037   0.413   6.907 -1.6521  1.5921  3.0005
 6313SOL    HW230402   3.999   0.372   6.771 -0.8303 -0.3314  0.3233
 6314SOL     OW30403   0.636   1.081   3.751  0.0457  0.3771  0.0301
 6314SOL    HW130404   0.709   1.091   3.812  0.8399  0.3129 -0.9146
 6314SOL    HW230405   0.670   1.146   3.689  0.5989 -2.0482 -2.1716
 6315SOL     OW30406   1.963   4.035   1.245  0.0295  0.0680 -0.5217
 6315SOL    HW130407   2.054   4.010   1.232  0.3166  0.6007  0.4448
 6315SOL    HW230408   1.966   4.055   1.339  1.0569  0.9814 -0.7420
 6316SOL     OW30409   3.549   1.854   2.346 -0.4858  0.3096  0.4195
 6316SOL    HW130410   3.542   1.944   2.315  0.4894  0.2635  0.0875
 6316SOL    HW230411   3.532   1.821   2.258 -2.9893 -0.5496  1.2147
 6317SOL     OW30412   0.360   2.075   3.288 -0.2964  0.6298  0.1462
 6317SOL    HW130413   0.304   2.005   3.255  0.2121  0.4563 -0.3646
 6317SOL    HW230414   0.429   2.077   3.221 -0.5217 -0.1841 -0.1050
 6318SOL     OW30415   3.393   2.419   6.074 -0.1777  0.1494 -0.5205
 6318SOL    HW130416   3.436   2.342   6.037 -1.4757 -0.1191 -1.4735
 6318SOL    HW230417   3.432   2.489   6.023 -0.0627  0.4697  0.0012
 6319SOL     OW30418   0.449   1.137   4.646 -0.4761 -0.4826 -0.0752
 6319SOL    HW130419   0.508   1.082   4.698  0.5313 -0.1023 -0.8230
 6319SOL    HW230420   0.371   1.082   4.654 -0.9457  0.6127  2.8610
 6320SOL     OW30421   0.207   1.817   5.043  0.1509 -0.1835 -0.0819
 6320SOL    HW130422   0.154   1.892   5.017  0.9281 -0.0145 -1.1649
 6320SOL    HW230423   0.147   1.764   5.096  1.0168  1.8497  2.9554
 6321SOL     OW30424   2.856   2.155   0.997  0.1146  0.0236 -0.7150
 6321SOL    HW130425   2.940   2.195   1.021 -0.8283  1.4775  0.1704
 6321SOL    HW230426   2.822   2.233   0.952  1.3377 -0.4293 -2.4218
 6322SOL     OW30427   2.546   0.887   7.822 -0.6619  0.0559  0.9168
 6322SOL    HW130428   2.547   0.939   7.741  1.7296  1.2939  1.7409
 6322SOL    HW230429   2.576   0.952   7.886  0.7798  0.1974  0.0964
 6323SOL     OW30430   4.273   3.840   6.846 -0.1329 -0.8320 -0.2171
 6323SOL    HW130431   4.214   3.845   6.771  0.3566  3.8535 -0.3144
 6323SOL    HW230432   4.230   3.893   6.913  1.6368 -0.8256  0.9233
 6324SOL     OW30433   4.437   1.762   0.532 -0.4598 -0.0183 -0.5728
 6324SOL    HW130434   4.496   1.788   0.602 -2.4324 -2.7594  2.1558
 6324SOL    HW230435   4.471   1.674   0.517 -0.6568 -0.2225  0.1768
 6325SOL     OW30436   1.524   4.251   7.096 -0.4494  0.7173  0.5993
 6325SOL    HW130437   1.525   4.210   7.183 -2.3401  0.3411  0.4457
 6325SOL    HW230438   1.433   4.265   7.071  0.2136  1.6198 -1.2772
 6326SOL     OW30439   0.313   2.536   3.282  0.2761  0.3210 -0.0835
 6326SOL    HW130440   0.289   2.447   3.308 -0.7640  0.4271 -0.6763
 6326SOL    HW230441   0.334   2.518   3.190 -0.6577  0.9997 -0.4239
 6327SOL     OW30442   4.632   1.310   6.378  0.2604  0.2897  0.6582
 6327SOL    HW130443   4.612   1.225   6.417  0.8448  0.2432  0.8600
 6327SOL    HW230444   4.707   1.290   6.322  1.3381  0.3131  2.0955
 6328SOL     OW30445   0.892   0.923  13.616 -0.6107 -0.2364 -0.1446
 6328SOL    HW130446   0.984   0.907  13.633 -0.3897 -0.9405 -1.9409
 6328SOL    HW230447   0.870   1.010  13.649  1.4926  0.4227 -0.4743
 6329SOL     OW30448   3.916   2.613   2.988  0.1278 -0.5611 -0.6300
 6329SOL    HW130449   3.915   2.695   3.039 -1.8375 -0.5650 -0.6532
 6329SOL    HW230450   3.981   2.639   2.922 -0.1420  1.0738 -0.2551
 6330SOL     OW30451   3.462   4.292   4.237 -0.1757 -0.1400 -0.3057
 6330SOL    HW130452   3.411   4.361   4.195 -1.7867 -1.1371  0.0270
 6330SOL    HW230453   3.485   4.246   4.156 -1.8387  1.6785 -1.7924
 6331SOL     OW30454   1.114   1.183  17.267 -0.4513 -0.6730  0.4928
 6331SOL    HW130455   1.050   1.122  17.232  0.1342 -1.6619  1.1276
 6331SOL    HW230456   1.068   1.264  17.286  1.4085  0.0111  2.0901
 6332SOL     OW30457   1.874   3.260  15.774  0.8997 -0.0721  0.5337
 6332SOL    HW130458   1.938   3.188  15.772  0.0067 -0.8168 -0.9889
 6332SOL    HW230459   1.920   3.329  15.727  1.5581 -0.2414  0.9266
 6333SOL     OW30460   1.822   4.266   6.461  0.8857 -0.0132 -0.2925
 6333SOL    HW130461   1.819   4.361   6.448  1.7692 -0.1152 -1.1667
 6333SOL    HW230462   1.907   4.255   6.504  1.6682 -0.2758 -1.9257
 6334SOL     OW30463   0.152   3.991   3.577  1.1572  0.9018  0.7580
 6334SOL    HW130464   0.085   3.975   3.511  0.4688  3.1577  0.9163
 6334SOL    HW230465   0.128   4.079   3.607  0.6230  1.4238 -1.1764
 6335SOL     OW30466   0.872   3.298  12.854 -0.0323  0.2349  0.0749
 6335SOL    HW130467   0.863   3.275  12.762 -0.1778 -0.0028  0.1467
 6335SOL    HW230468   0.885   3.392  12.845  4.7525 -0.5775 -1.4502
 6336SOL     OW30469   2.723   4.655   6.313 -0.0658 -0.0980  0.1442
 6336SOL    HW130470   2.682   0.006   6.360  1.0883  0.5509  0.1284
 6336SOL    HW230471   2.786   4.633   6.381 -0.9904  0.1685  1.0828
 6337SOL     OW30472   3.862   3.629   7.359  0.2939  0.1542 -0.0695
 6337SOL    HW130473   3.834   3.610   7.270 -0.1722  1.1842 -0.1405
 6337SOL    HW230474   3.926   3.701   7.352  1.0589 -0.7001 -1.7914
 6338SOL     OW30475   0.013   0.716   4.146  0.2282  0.2556  0.5662
 6338SOL    HW130476   0.064   0.743   4.222  0.5312  0.6976  0.2051
 6338SOL    HW230477   0.016   0.799   4.100 -0.1806  0.1913  0.4230
 6339SOL     OW30478   1.846   1.574   2.044 -0.5055 -0.0043 -0.3281
 6339SOL    HW130479   1.829   1.570   1.950 -1.1101 -0.4451 -0.1983
 6339SOL    HW230480   1.920   1.633   2.056 -1.2737  0.7116  1.0079
 6340SOL     OW30481   0.263   3.528   8.254 -0.0118 -0.3821  0.5546
 6340SOL    HW130482   0.289   3.446   8.213  0.6150 -0.0737  0.3370
 6340SOL    HW230483   0.351   3.542   8.290  0.1244  0.5669 -0.1608
 6341SOL     OW30484   4.069   0.668   2.725  0.1466  0.0351 -0.0470
 6341SOL    HW130485   4.048   0.756   2.695 -2.4468 -0.7584 -0.5339
 6341SOL    HW230486   4.007   0.621   2.669 -1.5544 -0.1434  1.9831
 6342SOL     OW30487   2.642   0.005  11.589 -0.1655  0.2751  0.1633
 6342SOL    HW130488   2.696   4.661  11.632 -0.9567  0.6314  1.7025
 6342SOL    HW230489   2.554   4.689  11.597  0.2499 -0.8760 -0.7388
 6343SOL     OW30490   3.726   3.864   2.597 -0.0266 -0.3744 -0.1799
 6343SOL    HW130491   3.688   3.896   2.679 -0.1334  1.2683 -0.8660
 6343SOL    HW230492   3.808   3.834   2.636 -0.0026 -1.2889 -0.9407
 6344SOL     OW30493   2.814   1.219   9.137  0.3602 -0.4494  0.6180
 6344SOL    HW130494   2.800   1.140   9.085  0.5492 -1.2515  1.7865
 6344SOL    HW230495   2.740   1.203   9.195 -0.9563  1.3823 -0.5595
 6345SOL     OW30496   1.715   3.864   7.289  0.0580 -0.3164  0.1076
 6345SOL    HW130497   1.740   3.853   7.197 -1.5364 -0.7914 -0.2639
 6345SOL    HW230498   1.798   3.852   7.335 -0.4081  0.8815  1.2636
 6346SOL     OW30499   2.806   1.919  17.236  0.1227  0.3221  0.2502
 6346SOL    HW130500   2.897   1.943  17.254  0.9383 -1.1316 -1.8731
 6346SOL    HW230501   2.830   1.862  17.163  0.0319 -0.8380  1.1355
 6347SOL     OW30502   3.370   0.519   8.367 -0.0587  0.3887 -0.2220
 6347SOL    HW130503   3.355   0.604   8.326  0.0122  1.0525  1.1378
 6347SOL    HW230504   3.330   0.524   8.454 -0.5667  2.5740 -0.5876
 6348SOL     OW30505   2.486   3.971   1.143 -0.5156 -0.1638  0.1390
 6348SOL    HW130506   2.482   3.890   1.093 -1.1138  0.1442 -0.3144
 6348SOL    HW230507   2.496   3.943   1.234 -1.2361 -2.2311 -0.4149
 6349SOL     OW30508   4.371   4.477   6.910  0.8098 -0.1726  0.2651
 6349SOL    HW130509   4.454   4.445   6.874  1.5862  2.1597  0.0018
 6349SOL    HW230510   4.337   4.394   6.944  0.6613  0.0863  0.7409
 6350SOL     OW30511   2.334   4.347   8.508  0.6106  0.0011  0.1001
 6350SOL    HW130512   2.427   4.329   8.495  0.1281 -1.8755 -0.8132
 6350SOL    HW230513   2.316   4.408   8.437 -0.1049  0.2514  0.4922
 6351SOL     OW30514   0.943   4.603  11.682  0.6473 -0.1014  0.6746
 6351SOL    HW130515   0.956   4.662  11.608  0.0598 -1.1319 -0.2380
 6351SOL    HW230516   1.009   4.617  11.750  0.6024  0.7353  0.5446
 6352SOL     OW30517   3.445   2.893   7.143 -0.7099  0.0236  0.0115
 6352SOL    HW130518   3.434   2.902   7.049  1.7576  0.5702 -0.2320
 6352SOL    HW230519   3.378   2.827   7.154  0.3802 -1.0151  0.4489
 6353SOL     OW30520   0.098   3.210   0.113  0.6896  0.0938  0.7526
 6353SOL    HW130521   0.067   3.147   0.048 -2.4504 -0.1894  2.5250
 6353SOL    HW230522   0.153   3.275   0.068  0.4630  0.1407  0.5449
 6354SOL     OW30523   2.202   2.423   8.290 -0.0973  0.1529  0.4368
 6354SOL    HW130524   2.233   2.371   8.364 -2.2151 -1.7819 -0.0609
 6354SOL    HW230525   2.250   2.393   8.213 -0.5728 -2.0812  1.0161
 6355SOL     OW30526   2.768   1.437   3.307  0.5477  0.2437  0.0028
 6355SOL    HW130527   2.831   1.396   3.366  2.3624  1.4425 -1.0797
 6355SOL    HW230528   2.827   1.482   3.245 -0.4593 -1.5616 -2.2655
 6356SOL     OW30529   1.602   0.782  11.975  0.5560 -0.7980  0.2413
 6356SOL    HW130530   1.511   0.776  11.944  0.4256 -0.4363  0.5590
 6356SOL    HW230531   1.638   0.819  11.894 -3.8817  0.2259 -1.2731
 6357SOL     OW30532   0.064   3.827   8.610 -0.3525  0.0221  0.3918
 6357SOL    HW130533   0.067   3.886   8.535 -0.6321 -0.6463 -0.1444
 6357SOL    HW230534   0.155   3.809   8.637 -0.4089  0.6530  1.0078
 6358SOL     OW30535   0.598   3.611   0.393 -0.3235  0.1489  0.1312
 6358SOL    HW130536   0.556   3.679   0.341  0.4791 -0.7865 -1.7477
 6358SOL    HW230537   0.533   3.541   0.383  0.3543 -0.2175 -1.8279
 6359SOL     OW30538   0.500   2.438  11.430 -0.2558  0.1173 -0.7413
 6359SOL    HW130539   0.595   2.438  11.445  0.0279 -3.1337 -2.5245
 6359SOL    HW230540   0.494   2.349  11.396 -1.4801 -0.7148  1.6537
 6360SOL     OW30541   0.415   3.861  16.412  0.5778  0.3833  0.2456
 6360SOL    HW130542   0.481   3.835  16.348 -0.0658  0.3871 -0.4247
 6360SOL    HW230543   0.335   3.828  16.372  1.7254 -0.9273 -0.9847
 6361SOL     OW30544   4.499   0.230   5.788 -0.3571 -0.4205  0.0081
 6361SOL    HW130545   4.550   0.270   5.718  0.3171 -1.1807  0.0623
 6361SOL    HW230546   4.540   0.145   5.805 -0.8931 -0.3017  1.9122
 6362SOL     OW30547   0.469   1.417   7.210  0.4178 -0.6964  0.5121
 6362SOL    HW130548   0.460   1.504   7.171  0.1206 -1.1637 -0.4343
 6362SOL    HW230549   0.403   1.366   7.164 -0.5387  0.3918  0.6673
 6363SOL     OW30550   3.246   0.882   5.219  0.2246 -0.1313  0.0673
 6363SOL    HW130551   3.187   0.807   5.229  1.0308 -1.1059 -2.4438
 6363SOL    HW230552   3.318   0.853   5.274  2.3612  2.7469 -1.2323
 6364SOL     OW30553   1.983   0.799   5.716  0.7595 -0.4542  0.3403
 6364SOL    HW130554   1.947   0.850   5.789  1.5673  0.3695  0.1735
 6364SOL    HW230555   2.030   0.731   5.765  2.3336 -0.0802 -0.6609
 6365SOL     OW30556   4.623   0.929   6.796 -0.0455  0.2051  0.1606
 6365SOL    HW130557   4.614   0.886   6.881  2.0513  1.0133  0.7885
 6365SOL    HW230558   4.579   1.012   6.809  0.0090  0.7044 -2.9970
 6366SOL     OW30559   2.594   4.248   8.387  0.0700 -0.3739  0.1866
 6366SOL    HW130560   2.561   4.287   8.306  0.1811  0.7845  0.7017
 6366SOL    HW230561   2.668   4.305   8.408 -0.8998  0.3906  1.5010
 6367SOL     OW30562   3.133   3.988   4.152 -0.4194 -0.1734  0.2670
 6367SOL    HW130563   3.041   3.983   4.177 -0.3843 -0.8094  0.2606
 6367SOL    HW230564   3.163   3.900   4.173 -1.2787 -0.3805  0.6184
 6368SOL     OW30565   1.591   2.255   8.050 -0.2151 -0.2047  0.1716
 6368SOL    HW130566   1.663   2.262   8.113 -0.5475 -1.0961  0.6493
 6368SOL    HW230567   1.530   2.204   8.103  0.8327  0.5035  2.0766
 6369SOL     OW30568   1.525   3.452  13.077  0.1578  0.2128  0.2620
 6369SOL    HW130569   1.617   3.475  13.059  1.4144 -3.0795  2.5032
 6369SOL    HW230570   1.536   3.357  13.063 -0.7887  0.3077 -1.1021
 6370SOL     OW30571   0.250   2.049   7.743  0.2260  0.5424  0.3789
 6370SOL    HW130572   0.276   2.137   7.771 -0.9804  0.1744  2.5971
 6370SOL    HW230573   0.279   2.000   7.819  0.8254  1.9055  1.0230
 6371SOL     OW30574   1.431   2.048  11.078  0.7720  0.2022 -0.1550
 6371SOL    HW130575   1.362   2.001  11.031 -1.7364  1.5430  2.1770
 6371SOL    HW230576   1.498   2.065  11.012  0.2285  1.2392 -0.4448
 6372SOL     OW30577   3.966   1.686   2.470  0.0195  0.0022 -0.1705
 6372SOL    HW130578   3.965   1.645   2.557 -2.5751  1.2461  0.3887
 6372SOL    HW230579   4.024   1.762   2.481  1.6225 -1.1598 -0.4601
 6373SOL     OW30580   1.453   2.272   5.370  0.2504  0.3058  0.6949
 6373SOL    HW130581   1.470   2.337   5.302 -1.0739 -1.1723 -1.0523
 6373SOL    HW230582   1.403   2.326   5.431 -0.9625  1.6155 -1.4640
 6374SOL     OW30583   3.642   3.893   0.154 -0.3996  0.3715 -0.1095
 6374SOL    HW130584   3.721   3.924   0.109  0.1256 -1.2591 -0.3042
 6374SOL    HW230585   3.574   3.943   0.109  0.6727  0.0383 -2.0983
 6375SOL     OW30586   0.638   0.691   0.035  0.3715 -0.8316 -0.1433
 6375SOL    HW130587   0.575   0.750  17.682  1.0827  0.9135  1.3320
 6375SOL    HW230588   0.722   0.738   0.031  0.6010 -1.0474  2.3988
 6376SOL     OW30589   1.464   0.516   5.445 -0.1256  0.0061  0.3218
 6376SOL    HW130590   1.440   0.598   5.488  1.7953  0.6091  0.2286
 6376SOL    HW230591   1.495   0.551   5.362 -2.2485  0.8474 -0.1242
 6377SOL     OW30592   2.279   1.170   7.049  0.3393  0.1889 -0.2355
 6377SOL    HW130593   2.287   1.236   7.118  0.3504  0.0577 -0.1104
 6377SOL    HW230594   2.239   1.229   6.986 -1.1089 -0.1754  0.3363
 6378SOL     OW30595   1.456   2.102   4.555 -0.0170 -0.3661 -0.6100
 6378SOL    HW130596   1.531   2.086   4.498 -0.3575 -3.1389 -0.2810
 6378SOL    HW230597   1.481   2.191   4.579 -0.8670 -0.0329 -0.9749
 6379SOL     OW30598   2.401   0.756   9.140 -0.2768  0.1256 -0.3028
 6379SOL    HW130599   2.308   0.734   9.128  0.4349 -2.3455 -1.2736
 6379SOL    HW230600   2.441   0.684   9.091 -0.8593 -0.1897 -0.3200
 6380SOL     OW30601   0.616   4.521   8.780  0.0240 -0.1565  0.0645
 6380SOL    HW130602   0.541   4.500   8.835 -1.3459 -0.4195 -1.9438
 6380SOL    HW230603   0.689   4.502   8.840  0.9381  0.3770 -0.8678
 6381SOL     OW30604   2.961   3.406   2.546  0.6909 -0.5766  0.1608
 6381SOL    HW130605   2.904   3.443   2.614 -1.9190 -0.1550 -2.2187
 6381SOL    HW230606   3.047   3.435   2.575 -0.5945  2.0108  1.4185
 6382SOL     OW30607   3.296   1.798   4.447 -0.4590  0.2373 -0.7710
 6382SOL    HW130608   3.358   1.775   4.516 -1.6531 -0.4234  0.0865
 6382SOL    HW230609   3.234   1.856   4.493  1.0781  0.5569  0.8936
 6383SOL     OW30610   3.868   3.651   5.119 -0.1825 -0.2224  0.1953
 6383SOL    HW130611   3.956   3.628   5.149  0.8197  0.1486 -2.4241
 6383SOL    HW230612   3.894   3.731   5.073 -1.1018  0.1593  0.3388
 6384SOL     OW30613   3.570   0.832   8.311 -0.7882 -0.5635 -0.5867
 6384SOL    HW130614   3.653   0.874   8.291  0.7933 -2.3960  2.1796
 6384SOL    HW230615   3.516   0.911   8.308  1.8950  1.2872  0.4181
 6385SOL     OW30616   3.476   3.697   1.622 -0.1538  0.4299  0.6974
 6385SOL    HW130617   3.532   3.771   1.598  1.6143 -1.0842  0.1471
 6385SOL    HW230618   3.544   3.630   1.622 -1.4415 -0.8741 -0.0124
 6386SOL     OW30619   0.605   2.665   9.106  0.4023 -0.6786  0.0809
 6386SOL    HW130620   0.584   2.746   9.154  1.3963 -1.6752  2.1687
 6386SOL    HW230621   0.699   2.658   9.123  0.2370 -0.2503  1.1624
 6387SOL     OW30622   0.792   3.591  12.304  0.1577 -0.4567 -0.4402
 6387SOL    HW130623   0.861   3.545  12.256 -0.6023 -1.3900 -0.6087
 6387SOL    HW230624   0.784   3.553  12.392  0.4387  0.3115 -0.0791
 6388SOL     OW30625   3.060   4.322   6.477 -0.4491 -0.2304 -0.2679
 6388SOL    HW130626   3.114   4.295   6.552  0.7292 -2.4547 -1.9286
 6388SOL    HW230627   3.127   4.348   6.414 -2.1276 -1.7359 -2.6201
 6389SOL     OW30628   2.060   0.952   5.454 -0.5156  0.4499  0.5608
 6389SOL    HW130629   2.107   1.019   5.504  0.8246 -0.1095  0.0530
 6389SOL    HW230630   2.032   0.901   5.530 -0.2573 -0.6483 -0.0766
 6390SOL     OW30631   0.500   2.880  14.068 -0.3736  0.5517 -0.4546
 6390SOL    HW130632   0.502   2.849  14.159  1.5185 -1.7804 -1.2987
 6390SOL    HW230633   0.413   2.853  14.040  0.2550 -1.3838 -0.5404
 6391SOL     OW30634   0.066   3.134   7.890  0.7690  0.0933 -0.7677
 6391SOL    HW130635   0.081   3.202   7.956 -2.5944 -2.0915  2.1616
 6391SOL    HW230636   0.005   3.078   7.938  1.8003 -1.0745 -0.8220
 6392SOL     OW30637   2.615   4.040   4.161 -0.0957  0.4823  0.1726
 6392SOL    HW130638   2.590   4.115   4.107  1.5591  0.9006 -0.0020
 6392SOL    HW230639   2.617   4.081   4.248  0.3073 -0.6712  0.7145
 6393SOL     OW30640   3.803   2.106   6.572 -0.6038 -0.3022  0.3456
 6393SOL    HW130641   3.715   2.107   6.534 -0.4521  0.5332  0.0179
 6393SOL    HW230642   3.799   2.197   6.603 -1.8536  1.2796 -4.3277
 6394SOL     OW30643   3.646   2.565   0.774  0.0011  0.2786  0.8827
 6394SOL    HW130644   3.675   2.540   0.862 -2.7213  0.8238  1.9469
 6394SOL    HW230645   3.561   2.602   0.799 -0.6987 -0.0868 -0.9829
 6395SOL     OW30646   1.905   2.745   7.400  0.6759  0.0716  0.6751
 6395SOL    HW130647   1.899   2.828   7.353  2.2066 -0.3433 -0.2658
 6395SOL    HW230648   1.812   2.730   7.414  0.5780  0.0337 -0.0277
 6396SOL     OW30649   2.499   0.324   4.769  1.1077  0.0276  0.2097
 6396SOL    HW130650   2.486   0.263   4.697  0.2696 -0.2653  0.6170
 6396SOL    HW230651   2.544   0.270   4.834  2.5697 -1.3742 -1.9924
 6397SOL     OW30652   0.381   3.314   8.157  0.0364  0.4435 -0.3035
 6397SOL    HW130653   0.316   3.248   8.182  2.2637 -1.9232 -0.6587
 6397SOL    HW230654   0.386   3.300   8.062  0.7676 -1.5915  0.0224
 6398SOL     OW30655   2.260   0.138   2.201  0.1294  0.1194  0.0200
 6398SOL    HW130656   2.223   0.100   2.281  1.1326 -0.2734  0.3037
 6398SOL    HW230657   2.193   0.138   2.133  0.3206 -1.2700 -0.1485
 6399SOL     OW30658   2.446   2.059   3.062  0.7562 -0.4488  0.5650
 6399SOL    HW130659   2.446   1.967   3.087 -0.1321 -0.7748 -0.6431
 6399SOL    HW230660   2.537   2.066   3.033  0.4646 -1.8705 -0.6378
 6400SOL     OW30661   2.358   3.272   4.903  0.0984 -0.1770 -0.3491
 6400SOL    HW130662   2.273   3.302   4.871 -0.6708 -1.1021  0.8473
 6400SOL    HW230663   2.342   3.179   4.921  0.2596 -0.5689 -2.2228
 6401SOL     OW30664   3.468   1.776   6.776  0.5496  0.0167 -0.0403
 6401SOL    HW130665   3.414   1.828   6.716 -1.1597 -0.5347  1.0108
 6401SOL    HW230666   3.548   1.828   6.767 -0.3390  1.7561  2.2262
 6402SOL     OW30667   0.520   0.893   8.162 -0.1512 -0.1798  0.2351
 6402SOL    HW130668   0.428   0.919   8.170  0.0488  1.3923 -2.4569
 6402SOL    HW230669   0.542   0.936   8.245 -1.2325 -0.2666  0.5672
 6403SOL     OW30670   4.413   2.446   0.360  0.3507  0.0508  0.4759
 6403SOL    HW130671   4.438   2.355   0.377  0.2024  0.1790  1.4023
 6403SOL    HW230672   4.353   2.464   0.432  0.3743  1.4196  0.1576
 6404SOL     OW30673   2.374   3.196   7.457 -0.0096  0.3921 -0.2025
 6404SOL    HW130674   2.388   3.102   7.447 -1.5906 -0.1307  2.3811
 6404SOL    HW230675   2.426   3.209   7.536 -1.7921  0.8841  0.8847
 6405SOL     OW30676   0.287   3.289   7.132 -0.3549 -0.4503  0.5617
 6405SOL    HW130677   0.274   3.215   7.192  0.7751 -1.7360 -0.7540
 6405SOL    HW230678   0.286   3.358   7.198  1.4543 -1.3353  1.5221
 6406SOL     OW30679   0.605   1.669  14.969 -0.4731 -0.5903  0.2501
 6406SOL    HW130680   0.520   1.712  14.960  0.3120  0.6058 -1.4937
 6406SOL    HW230681   0.611   1.661  15.065  0.3694 -1.4907  0.1298
 6407SOL     OW30682   3.139   2.319   9.954  0.1665  0.2042  0.2398
 6407SOL    HW130683   3.226   2.302   9.917  1.9701  2.5281  3.4266
 6407SOL    HW230684   3.139   2.248  10.017 -0.2048  0.0930  0.1170
 6408SOL     OW30685   4.149   3.291  12.320  0.1333  0.0097 -0.5360
 6408SOL    HW130686   4.176   3.369  12.271  0.6747  0.6734  0.8130
 6408SOL    HW230687   4.056   3.276  12.304 -0.0482  0.4186  0.1179
 6409SOL     OW30688   0.767   0.177   6.265  0.1152  0.6109 -0.1900
 6409SOL    HW130689   0.802   0.194   6.352  0.2691  1.3952 -0.4101
 6409SOL    HW230690   0.733   0.088   6.278  2.1033 -0.1187  0.0660
 6410SOL     OW30691   0.829   4.263   7.044  0.3821 -0.4534 -0.0302
 6410SOL    HW130692   0.844   4.184   6.992 -1.6512  0.3057 -1.7723
 6410SOL    HW230693   0.753   4.298   6.997 -0.7812  0.6095  2.6372
 6411SOL     OW30694   1.956   2.516   6.418 -0.3707  0.2712  0.4038
 6411SOL    HW130695   1.954   2.547   6.508 -2.3288 -3.2699  1.6070
 6411SOL    HW230696   1.972   2.599   6.374 -0.9686  0.8842  1.3486
 6412SOL     OW30697   3.258   1.931   4.923 -0.0123  0.2307 -0.7017
 6412SOL    HW130698   3.263   2.023   4.897 -0.3926  0.2648 -0.6574
 6412SOL    HW230699   3.177   1.927   4.974  0.5060  0.8804  0.1878
 6413SOL     OW30700   1.870   3.289   4.175 -0.5718  0.2837 -0.1169
 6413SOL    HW130701   1.784   3.330   4.162  0.1796  1.7535 -0.5676
 6413SOL    HW230702   1.886   3.280   4.081 -0.3217  0.2032 -0.0666
 6414SOL     OW30703   2.929   2.811   8.446  0.2029 -0.0384 -0.0805
 6414SOL    HW130704   3.019   2.830   8.421  0.6204  0.5308  1.8994
 6414SOL    HW230705   2.940   2.755   8.523 -1.6571 -0.1840  0.0769
 6415SOL     OW30706   1.422   1.893   2.129 -0.4100  0.1561  0.4265
 6415SOL    HW130707   1.401   1.979   2.164 -1.6155 -0.7686  1.9624
 6415SOL    HW230708   1.346   1.844   2.161 -1.0902  1.7784  1.2751
 6416SOL     OW30709   3.837   3.950  17.627 -0.3004  0.3301 -0.2775
 6416SOL    HW130710   3.810   4.030  17.581  0.5546  0.0379 -1.2836
 6416SOL    HW230711   3.896   3.985   0.007 -0.5035  0.1517 -0.0081
 6417SOL     OW30712   4.617   0.495   5.324 -0.1103  0.7324 -0.1861
 6417SOL    HW130713   4.706   0.528   5.331  0.0254  0.1203  1.0295
 6417SOL    HW230714   4.580   0.510   5.411  1.3124  4.5846 -0.2308
 6418SOL     OW30715   0.541   0.456   4.824 -0.0137 -0.2326 -0.0330
 6418SOL    HW130716   0.449   0.452   4.797 -0.4525 -1.0872  1.5344
 6418SOL    HW230717   0.572   0.370   4.797  0.5478 -0.2580  0.6699
 6419SOL     OW30718   3.020   2.826   5.121  0.4003  0.0136 -0.3084
 6419SOL    HW130719   3.095   2.882   5.100  0.2287  0.7287  1.0162
 6419SOL    HW230720   3.054   2.785   5.200  0.5110 -1.7720 -1.2987
 6420SOL     OW30721   0.347   1.455   7.875 -0.7725 -0.7920  0.3323
 6420SOL    HW130722   0.387   1.423   7.956 -2.0122  0.4464  1.4501
 6420SOL    HW230723   0.261   1.416   7.892 -1.0370 -0.9707 -1.4770
 6421SOL     OW30724   4.222   0.185   5.065  0.1237  0.2672  0.7281
 6421SOL    HW130725   4.197   0.260   5.119  1.8657  0.3474  1.4446
 6421SOL    HW230726   4.282   0.138   5.123  1.3080  1.5623  0.5606
 6422SOL     OW30727   2.538   2.593   4.082  0.0834  0.2129 -0.4014
 6422SOL    HW130728   2.535   2.540   4.002  2.4459  1.2709 -1.1795
 6422SOL    HW230729   2.598   2.664   4.061  0.5928 -0.0699  0.0980
 6423SOL     OW30730   4.144   3.796   4.626 -0.4411 -0.3176  0.4853
 6423SOL    HW130731   4.068   3.855   4.623 -0.7268 -0.6627  0.8814
 6423SOL    HW230732   4.219   3.855   4.617 -0.8666  0.1332 -0.1285
 6424SOL     OW30733   4.582   2.683   3.250 -0.4986 -0.2443 -0.3175
 6424SOL    HW130734   4.499   2.661   3.292 -0.5823 -0.4708 -0.5996
 6424SOL    HW230735   4.644   2.685   3.323  0.1005 -0.4473 -0.8173
 6425SOL     OW30736   4.225   3.340   1.948 -0.2248  0.1290  0.1570
 6425SOL    HW130737   4.132   3.357   1.960  0.2908  2.0721  1.4030
 6425SOL    HW230738   4.266   3.426   1.961 -0.6614  0.3841 -0.1711
 6426SOL     OW30739   0.785   1.304   8.608 -0.1906 -0.0936 -0.0605
 6426SOL    HW130740   0.711   1.329   8.552 -0.1884  1.6826  0.7363
 6426SOL    HW230741   0.858   1.298   8.546  0.8440  0.1490  1.1266
 6427SOL     OW30742   3.862   4.316   5.328 -0.0954  0.5884 -0.0676
 6427SOL    HW130743   3.809   4.254   5.278 -0.3163  0.5896  0.1663
 6427SOL    HW230744   3.795   4.382   5.348  0.6817  1.3658 -0.0400
 6428SOL     OW30745   3.475   1.279   4.274 -0.5153 -0.5622  0.4071
 6428SOL    HW130746   3.469   1.233   4.357  0.5222 -1.5492 -0.0621
 6428SOL    HW230747   3.459   1.366   4.310  0.6754 -0.6988  1.2640
 6429SOL     OW30748   1.892   2.061   3.429  0.3305 -0.2512 -0.4237
 6429SOL    HW130749   1.890   1.969   3.403 -2.7875 -0.3161  0.0874
 6429SOL    HW230750   1.954   2.057   3.502 -0.4043 -0.5814  0.1822
 6430SOL     OW30751   1.562   2.372   6.260 -0.2525 -0.2166 -0.1296
 6430SOL    HW130752   1.548   2.358   6.166 -2.0179  3.3662 -0.3593
 6430SOL    HW230753   1.542   2.282   6.285 -0.5254  0.1581  0.9774
 6431SOL     OW30754   2.150   1.253   2.041 -0.1519 -0.2662 -0.7904
 6431SOL    HW130755   2.240   1.284   2.033 -1.0878  2.9719  1.2197
 6431SOL    HW230756   2.161   1.169   2.086 -0.6295  0.6262  0.9698
 6432SOL     OW30757   1.024   1.302   4.318 -0.4561  0.1369  0.5627
 6432SOL    HW130758   1.112   1.327   4.349  0.1199  0.0637 -0.9866
 6432SOL    HW230759   0.966   1.357   4.371 -0.2788 -1.4780  2.4446
 6433SOL     OW30760   1.522   1.376   2.938  0.2916 -0.2830  0.1886
 6433SOL    HW130761   1.456   1.331   2.992 -0.2442 -0.3198 -0.4996
 6433SOL    HW230762   1.488   1.369   2.849 -0.3601  3.2732  0.1361
 6434SOL     OW30763   2.825   0.344   6.767 -0.2470  0.1317  0.3165
 6434SOL    HW130764   2.758   0.391   6.716  0.6076 -1.4083 -2.2398
 6434SOL    HW230765   2.815   0.392   6.849 -1.8425  0.3844 -0.0136
 6435SOL     OW30766   1.600   1.455   2.044  0.1052  0.0012  0.2363
 6435SOL    HW130767   1.611   1.361   2.055  0.3260  0.2631  2.1338
 6435SOL    HW230768   1.688   1.489   2.063 -0.4986  1.5737  0.2162
 6436SOL     OW30769   4.059   1.597   5.365  0.7392  0.5160  0.1310
 6436SOL    HW130770   4.048   1.522   5.422  1.6596 -0.3234 -0.7830
 6436SOL    HW230771   4.113   1.561   5.294  2.8031  0.4602  1.7404
 6437SOL     OW30772   1.402   4.340   2.256  0.3111  0.0613  0.0010
 6437SOL    HW130773   1.335   4.405   2.278 -0.3223 -1.3115  2.1465
 6437SOL    HW230774   1.414   4.353   2.162  1.0427  0.6888  0.1880
 6438SOL     OW30775   0.601   1.541   6.550 -0.0472 -0.0898 -0.5331
 6438SOL    HW130776   0.522   1.496   6.580  0.4763 -0.9168 -0.3803
 6438SOL    HW230777   0.574   1.632   6.558  0.9984  0.0774  1.2510
 6439SOL     OW30778   3.989   3.172   0.896  0.0389  0.3137  0.0770
 6439SOL    HW130779   3.953   3.136   0.978  1.6141  1.1597  1.1370
 6439SOL    HW230780   4.061   3.111   0.883 -0.3218  0.2087 -1.3785
 6440SOL     OW30781   1.031   2.533   2.622 -0.6899 -0.1215  0.4656
 6440SOL    HW130782   1.030   2.624   2.650 -0.8724 -0.1030  0.3929
 6440SOL    HW230783   1.057   2.549   2.531  1.8242  1.9819  1.5402
 6441SOL     OW30784   0.286   1.407   5.964 -0.0431 -0.6402 -0.0696
 6441SOL    HW130785   0.270   1.358   5.883  1.9198  1.9216 -2.0096
 6441SOL    HW230786   0.343   1.356   6.021 -0.2210 -0.0584  0.6434
 6442SOL     OW30787   2.202   1.626  14.772  0.1991  0.7528  0.3565
 6442SOL    HW130788   2.161   1.621  14.858  1.4788  3.2016  1.1035
 6442SOL    HW230789   2.121   1.619  14.721  0.2016 -0.2426  0.4908
 6443SOL     OW30790   3.836   4.429  12.922  0.5479 -0.6245  1.2094
 6443SOL    HW130791   3.782   4.352  12.942 -2.2297  0.9839 -0.0873
 6443SOL    HW230792   3.789   4.504  12.958 -3.3222 -2.3929 -0.0695
 6444SOL     OW30793   0.515   0.221   6.585 -0.0458  0.1996 -0.5846
 6444SOL    HW130794   0.603   0.183   6.577 -1.3995 -3.3162  1.2847
 6444SOL    HW230795   0.488   0.193   6.672 -3.5807 -0.0679 -1.7960
 6445SOL     OW30796   1.405   0.837   2.090 -0.0956 -0.2025 -0.9568
 6445SOL    HW130797   1.463   0.834   2.014 -1.9990  3.7798 -2.5586
 6445SOL    HW230798   1.324   0.825   2.042 -1.9216  1.8116  1.6014
 6446SOL     OW30799   2.822   1.557   8.211  0.5774 -0.1720  0.3870
 6446SOL    HW130800   2.754   1.594   8.266 -2.0240 -1.7867 -1.7144
 6446SOL    HW230801   2.849   1.478   8.259  0.1343 -0.6825 -0.1956
 6447SOL     OW30802   0.842   0.929   8.489  0.4864 -0.0267 -0.0872
 6447SOL    HW130803   0.897   0.851   8.479  0.2338 -0.3901  1.2798
 6447SOL    HW230804   0.881   0.985   8.422 -0.4122  1.5053  0.6752
 6448SOL     OW30805   2.242   1.328  12.261 -0.4184  0.3635  0.3443
 6448SOL    HW130806   2.297   1.264  12.306 -1.0412  0.0921  0.7271
 6448SOL    HW230807   2.159   1.288  12.288 -0.6080 -0.0774 -0.9046
 6449SOL     OW30808   4.164   0.373   7.902  0.2146 -0.0047  0.2425
 6449SOL    HW130809   4.099   0.368   7.972 -0.9822 -1.4590 -0.9536
 6449SOL    HW230810   4.239   0.420   7.938  0.2153  0.6917 -0.6368
 6450SOL     OW30811   4.221   0.762   1.275 -0.8229  0.2276 -0.0208
 6450SOL    HW130812   4.290   0.828   1.265 -0.7202  0.1286  0.0262
 6450SOL    HW230813   4.199   0.755   1.183 -1.9085  1.4733  0.1520
 6451SOL     OW30814   3.118   1.389  14.926  0.4341 -0.1317  0.3310
 6451SOL    HW130815   3.134   1.481  14.903  0.7491  0.1314  1.6023
 6451SOL    HW230816   3.064   1.401  15.004 -1.6598 -3.7448 -0.5581
 6452SOL     OW30817   4.004   4.140  16.997  0.2224  0.2417 -0.7209
 6452SOL    HW130818   4.013   4.049  16.969 -1.0410  0.6213 -2.3315
 6452SOL    HW230819   3.929   4.170  16.946  0.0051  0.6020 -0.1792
 6453SOL     OW30820   3.688   0.425   8.946  0.2611 -0.3351 -0.3259
 6453SOL    HW130821   3.655   0.513   8.962 -1.7624 -1.3756  1.1409
 6453SOL    HW230822   3.662   0.385   9.028  1.3010  0.8355  0.5767
 6454SOL     OW30823   4.594   1.121   0.051 -0.0426 -0.1656  0.0940
 6454SOL    HW130824   4.613   1.027   0.043 -1.6812 -0.4882 -0.0020
 6454SOL    HW230825   4.577   1.134   0.144  0.1883  0.0493  0.1054
 6455SOL     OW30826   3.966   3.340   2.249 -0.0473  0.2754  0.3348
 6455SOL    HW130827   3.886   3.316   2.296 -0.2704 -0.8251 -0.6173
 6455SOL    HW230828   4.024   3.373   2.317  0.2727  0.5210 -0.0550
 6456SOL     OW30829   0.463   2.471   6.691 -0.1411  0.2342  0.3209
 6456SOL    HW130830   0.402   2.423   6.748  0.5821 -0.4942  0.4789
 6456SOL    HW230831   0.485   2.546   6.745  1.7524  0.2233 -0.4472
 6457SOL     OW30832   2.636   1.101   8.697  0.5769 -0.5425  0.4414
 6457SOL    HW130833   2.729   1.119   8.709  0.4233 -0.7559  1.8850
 6457SOL    HW230834   2.635   1.027   8.636  0.1321 -1.3055  1.3787
 6458SOL     OW30835   2.184   0.767   1.817 -0.2692  0.1262  0.4712
 6458SOL    HW130836   2.166   0.778   1.723 -1.3580  2.1627  0.9248
 6458SOL    HW230837   2.155   0.847   1.860 -1.4501  0.2584 -0.5550
 6459SOL     OW30838   1.711   3.489   1.093  0.4083 -0.0873 -0.2038
 6459SOL    HW130839   1.727   3.397   1.117  4.0654  0.9409  1.2304
 6459SOL    HW230840   1.684   3.528   1.176 -0.6891  0.9677 -1.0570
 6460SOL     OW30841   0.776   2.640   7.520 -0.2713 -0.3427 -0.6967
 6460SOL    HW130842   0.754   2.552   7.552  0.5285 -0.9363 -1.7762
 6460SOL    HW230843   0.700   2.686   7.555  0.4465  0.5627 -0.3418
 6461SOL     OW30844   4.014   2.366   7.657 -0.1485  0.0529  0.2527
 6461SOL    HW130845   4.051   2.301   7.717  0.2168  0.2944  0.2904
 6461SOL    HW230846   3.927   2.329   7.640  0.0645 -0.9900  1.4114
 6462SOL     OW30847   0.756   0.376   7.049  0.2765  0.4934  0.1143
 6462SOL    HW130848   0.740   0.420   6.965  1.9463 -0.4271 -0.6828
 6462SOL    HW230849   0.830   0.323   7.018  0.4585  1.0069 -0.3238
 6463SOL     OW30850   0.949   3.206   2.641  0.2986 -0.5388 -0.0764
 6463SOL    HW130851   0.947   3.283   2.583  1.6183  0.9114  1.7946
 6463SOL    HW230852   0.898   3.147   2.586  0.0225 -0.1608 -0.2316
 6464SOL     OW30853   0.060   1.059  14.233  0.0613 -0.0520  0.1915
 6464SOL    HW130854   4.699   1.074  14.278 -1.2888 -0.2347 -2.2173
 6464SOL    HW230855   0.082   1.146  14.200 -0.3939  0.0941  0.2742
 6465SOL     OW30856   0.869   2.410   3.855 -0.0055 -0.6818 -0.1590
 6465SOL    HW130857   0.813   2.460   3.795  0.5055 -0.8140 -0.7532
 6465SOL    HW230858   0.827   2.329   3.825 -0.5657 -0.7243  0.7712
 6466SOL     OW30859   4.342   0.367   8.908 -0.0789 -0.2110 -0.5248
 6466SOL    HW130860   4.375   0.313   8.836 -1.7201 -0.6798 -0.9280
 6466SOL    HW230861   4.264   0.406   8.868  0.2506  0.5243 -0.4452
 6467SOL     OW30862   0.466   4.081   4.464 -0.7499  0.0168 -0.3296
 6467SOL    HW130863   0.437   4.158   4.512 -1.0796  0.7679 -1.7372
 6467SOL    HW230864   0.419   4.092   4.381 -0.9589 -1.3856 -0.4070
 6468SOL     OW30865   2.265   2.771  12.580  0.4373 -0.4076 -0.3027
 6468SOL    HW130866   2.209   2.830  12.529 -0.2712 -0.4099  0.4643
 6468SOL    HW230867   2.216   2.760  12.662 -2.2669  0.3438 -1.8190
 6469SOL     OW30868   2.405   3.368  16.302  0.9239  0.3876 -0.2122
 6469SOL    HW130869   2.356   3.334  16.226 -0.9677  0.1632  1.1106
 6469SOL    HW230870   2.385   3.315  16.379  1.2999  0.4776 -0.0531
 6470SOL     OW30871   2.482   1.489   4.259  0.9247 -0.7567  0.3197
 6470SOL    HW130872   2.564   1.529   4.286  0.6090  0.6654 -0.8148
 6470SOL    HW230873   2.511   1.427   4.192  3.1919 -1.5118  2.0058
 6471SOL     OW30874   1.511   2.555   0.790 -0.1078  0.0423  0.2404
 6471SOL    HW130875   1.587   2.565   0.846 -0.7407 -2.8919  1.6290
 6471SOL    HW230876   1.544   2.518   0.708  0.4484  0.7788  0.1325
 6472SOL     OW30877   3.711   3.024  17.202  0.0357  0.0277  0.2321
 6472SOL    HW130878   3.706   3.107  17.250 -0.7482  1.1222 -1.7697
 6472SOL    HW230879   3.804   3.013  17.184 -0.3711 -0.4378 -1.5394
 6473SOL     OW30880   2.094   3.381   4.842  0.2621 -0.3757  0.1334
 6473SOL    HW130881   2.043   3.388   4.923 -0.8844 -1.8062 -0.4606
 6473SOL    HW230882   2.089   3.468   4.804 -1.1496 -0.4578  0.1450
 6474SOL     OW30883   2.974   0.102   9.778 -0.2394  0.1580  0.4663
 6474SOL    HW130884   3.018   0.040   9.836  1.4606  0.7798 -0.1632
 6474SOL    HW230885   3.008   0.188   9.802  2.2778 -0.3983 -1.0514
 6475SOL     OW30886   0.860   3.465   5.067 -0.8412  0.3464 -0.6358
 6475SOL    HW130887   0.822   3.523   5.133 -2.0439 -1.4626  0.2441
 6475SOL    HW230888   0.928   3.518   5.025 -0.5478  0.9297  0.5750
 6476SOL     OW30889   2.878   1.950   8.253 -0.3652  0.5412 -0.1682
 6476SOL    HW130890   2.818   1.941   8.179  0.0671  1.8716 -0.6788
 6476SOL    HW230891   2.954   2.001   8.223 -1.4528  1.4376 -1.3802
 6477SOL     OW30892   2.199   0.733   6.402  0.1036 -0.2404  0.4876
 6477SOL    HW130893   2.113   0.773   6.390  0.5869  0.4218 -0.7013
 6477SOL    HW230894   2.228   0.776   6.482 -2.1039 -0.1036  1.2023
 6478SOL     OW30895   3.964   1.373   4.550 -0.5771  0.3925  0.2147
 6478SOL    HW130896   3.908   1.373   4.628 -0.3940  2.1912  0.3448
 6478SOL    HW230897   3.920   1.451   4.516 -0.2080  1.1936  1.5732
 6479SOL     OW30898   1.914   1.302  16.765 -0.1492 -0.8578  0.1402
 6479SOL    HW130899   1.829   1.342  16.744  1.3625  0.7344 -3.0552
 6479SOL    HW230900   1.920   1.318  16.859  0.1022 -0.8047  0.1151
 6480SOL     OW30901   0.864   2.874   6.127  0.5026 -0.0037 -0.0901
 6480SOL    HW130902   0.864   2.897   6.034  0.9778 -0.6634 -0.2535
 6480SOL    HW230903   0.888   2.781   6.120 -0.2519 -0.2107 -0.0212
 6481SOL     OW30904   1.405   3.595   0.686  0.2302  0.6712 -0.8047
 6481SOL    HW130905   1.480   3.591   0.746  0.6848 -0.9232 -1.4752
 6481SOL    HW230906   1.343   3.626   0.752  2.3890 -0.2955  1.6836
 6482SOL     OW30907   1.035   3.150  17.072 -0.2424 -0.9137  0.3729
 6482SOL    HW130908   1.069   3.231  17.109 -1.2049 -0.5464  0.4661
 6482SOL    HW230909   0.953   3.188  17.039  0.3692 -0.4504 -0.6142
 6483SOL     OW30910   1.347   0.774  12.326 -0.5147 -0.0976  0.1923
 6483SOL    HW130911   1.263   0.789  12.369 -0.7554  1.2249 -0.7490
 6483SOL    HW230912   1.368   0.853  12.276  0.3293  0.1988  1.0063
 6484SOL     OW30913   4.224   0.593   5.409  0.0926 -0.0483  0.5681
 6484SOL    HW130914   4.152   0.644   5.445 -2.3619 -1.7593 -1.9973
 6484SOL    HW230915   4.264   0.570   5.493 -1.0385  2.7777  1.8776
 6485SOL     OW30916   3.411   3.587   2.062 -0.2144 -0.1307  0.2442
 6485SOL    HW130917   3.403   3.655   1.995  1.9885  0.6306  0.7615
 6485SOL    HW230918   3.320   3.557   2.059  0.1300 -1.0584 -1.1665
 6486SOL     OW30919   1.795   0.659   5.572 -0.2801 -0.0727  0.2001
 6486SOL    HW130920   1.835   0.730   5.622 -0.2913  1.6058 -2.1853
 6486SOL    HW230921   1.761   0.700   5.493 -0.6703 -1.2161 -0.2248
 6487SOL     OW30922   2.800   2.216   7.379  0.4467  0.5938  0.4689
 6487SOL    HW130923   2.772   2.227   7.470 -0.3335  1.9058  0.0696
 6487SOL    HW230924   2.893   2.237   7.391  0.6628 -0.0180 -0.0687
 6488SOL     OW30925   1.141   0.172   5.905 -0.0917  0.5530  0.2561
 6488SOL    HW130926   1.078   0.121   5.955  0.1354 -0.0722 -0.0919
 6488SOL    HW230927   1.229   0.156   5.939  0.6725 -0.5476 -2.1893
 6489SOL     OW30928   3.498   1.528   4.400  0.3039 -0.3696  0.1779
 6489SOL    HW130929   3.519   1.515   4.493 -1.8786 -0.0112  0.7255
 6489SOL    HW230930   3.561   1.597   4.380 -1.2062  0.4729 -1.6659
 6490SOL     OW30931   3.227   1.646   4.820 -1.0355 -0.0270 -0.1786
 6490SOL    HW130932   3.262   1.726   4.858 -0.0134 -0.3057 -0.5580
 6490SOL    HW230933   3.168   1.629   4.894 -2.4391  0.5741 -1.1630
 6491SOL     OW30934   0.734   4.607   7.609  0.2756 -0.8601 -0.2638
 6491SOL    HW130935   0.826   4.635   7.613 -0.5440  1.8262  0.0999
 6491SOL    HW230936   0.727   4.514   7.590  0.0308 -0.4230 -2.2838
 6492SOL     OW30937   2.958   2.209   7.899 -0.7537 -0.1038  0.2082
 6492SOL    HW130938   2.893   2.266   7.941  0.4790  0.4969  1.3138
 6492SOL    HW230939   2.931   2.133   7.950  1.1107 -1.3130 -0.6378
 6493SOL     OW30940   3.349   4.649  13.373 -0.3607 -0.3836 -0.0878
 6493SOL    HW130941   3.344   4.666  13.467 -1.5143  2.4062 -0.6563
 6493SOL    HW230942   3.266   4.687  13.344  0.5355  1.3446 -0.3559
 6494SOL     OW30943   4.538   2.383   0.077 -1.1278  0.4215 -0.9128
 6494SOL    HW130944   4.491   2.403   0.158 -0.3873  0.2222 -0.4358
 6494SOL    HW230945   4.477   2.315   0.046 -1.2958 -0.3713  1.1429
 6495SOL     OW30946   0.563   3.445  14.659 -0.0670 -0.4119  0.1782
 6495SOL    HW130947   0.511   3.430  14.579 -2.7256  2.2135  1.4267
 6495SOL    HW230948   0.588   3.357  14.686 -0.5680 -1.3087 -2.2254
 6496SOL     OW30949   2.297   3.961   5.552 -0.2710 -1.0819 -0.0715
 6496SOL    HW130950   2.340   4.022   5.612 -0.1633 -0.5009 -0.7427
 6496SOL    HW230951   2.226   3.923   5.604  0.0550  1.9408  2.5786
 6497SOL     OW30952   4.561   4.316  13.361 -0.3875 -0.6334  0.0063
 6497SOL    HW130953   4.651   4.294  13.336 -0.6734 -0.8167 -0.8389
 6497SOL    HW230954   4.581   4.400  13.402 -0.7817 -0.6880  0.3075
 6498SOL     OW30955   2.799   0.485   8.314 -0.3299  0.0016  0.3480
 6498SOL    HW130956   2.716   0.441   8.330 -0.0547 -0.9064 -0.7180
 6498SOL    HW230957   2.840   0.431   8.246  1.0589  1.4281  0.0250
 6499SOL     OW30958   0.102   2.353   8.272 -0.4928 -0.2288  0.1419
 6499SOL    HW130959   0.057   2.278   8.311  0.7469 -0.5306  0.9784
 6499SOL    HW230960   0.193   2.328   8.285  0.3345  1.8056 -1.7443
 6500SOL     OW30961   1.723   3.190   1.990 -0.7221 -0.0666 -0.0629
 6500SOL    HW130962   1.763   3.237   1.917  3.0189 -1.2847  1.2010
 6500SOL    HW230963   1.712   3.106   1.946  1.4974 -1.2321  1.6200
 6501SOL     OW30964   1.850   1.911   4.490 -0.4164  0.0244 -0.3455
 6501SOL    HW130965   1.793   1.899   4.566 -2.3149  3.2263 -1.2668
 6501SOL    HW230966   1.798   1.979   4.446 -1.5040  1.9464  3.8701
 6502SOL     OW30967   3.888   2.901   4.237  0.3596  0.3655 -0.0262
 6502SOL    HW130968   3.983   2.910   4.245  0.6020 -1.4306 -0.7902
 6502SOL    HW230969   3.869   2.844   4.311  0.0763  0.4772 -0.0123
 6503SOL     OW30970   0.011   0.356  13.443 -0.0700 -0.2397  0.4140
 6503SOL    HW130971   4.695   0.377  13.529  0.7648  1.3426  0.3871
 6503SOL    HW230972   0.008   0.260  13.447 -0.5601 -0.1959  1.2238
 6504SOL     OW30973   3.793   3.665   3.979 -0.3680 -0.5637  0.1762
 6504SOL    HW130974   3.879   3.708   3.979  0.4182 -2.1224  2.0490
 6504SOL    HW230975   3.743   3.731   3.931 -1.8558 -0.1756  2.2843
 6505SOL     OW30976   0.911   3.464   7.218 -0.6757  0.4177 -0.2717
 6505SOL    HW130977   0.996   3.419   7.220 -1.9690 -1.9727  0.0704
 6505SOL    HW230978   0.863   3.424   7.146 -1.3517  2.2785 -0.8575
 6506SOL     OW30979   4.348   4.350   7.796  0.1493 -0.1999 -0.2420
 6506SOL    HW130980   4.355   4.426   7.854  3.0674 -1.5211  1.1293
 6506SOL    HW230981   4.284   4.392   7.739  0.4716  1.0961  0.3500
 6507SOL     OW30982   1.916   1.742   9.515  0.0150  0.0168  0.7139
 6507SOL    HW130983   2.003   1.704   9.504  0.1826  0.1822  1.5307
 6507SOL    HW230984   1.942   1.834   9.522 -3.5692  1.3376 -2.9855
 6508SOL     OW30985   4.214   1.788   7.452  0.5364 -0.7037 -0.1053
 6508SOL    HW130986   4.192   1.872   7.412 -0.8143  0.0529  2.2747
 6508SOL    HW230987   4.288   1.808   7.508  0.4992  2.6907 -1.2923
 6509SOL     OW30988   1.563   1.989   8.525  0.1732 -0.5524  0.0980
 6509SOL    HW130989   1.595   2.079   8.517  1.1647 -0.8282  0.9916
 6509SOL    HW230990   1.598   1.953   8.443 -0.3882 -0.6554 -0.0939
 6510SOL     OW30991   1.120   1.290   7.783 -1.0403  0.3717  0.0655
 6510SOL    HW130992   1.114   1.344   7.704  1.4414  1.1685  0.4091
 6510SOL    HW230993   1.106   1.354   7.853  0.8668  0.6162  0.2465
 6511SOL     OW30994   3.493   0.717  10.272 -0.4779  0.4466  0.2428
 6511SOL    HW130995   3.493   0.800  10.321 -1.3235  0.1615  0.7255
 6511SOL    HW230996   3.577   0.732  10.228  0.4121 -1.0536  1.4166
 6512SOL     OW30997   4.186   3.978   4.320  0.1643 -0.3078  0.3135
 6512SOL    HW130998   4.218   3.888   4.333  1.6121  0.3865  1.6123
 6512SOL    HW230999   4.199   4.009   4.410  0.4785  1.9804 -0.5173
 6513SOL     OW31000   0.842   3.280   6.125 -0.5249 -0.3696 -0.4578
 6513SOL    HW131001   0.908   3.349   6.121 -2.1101  1.2269  1.2542
 6513SOL    HW231002   0.885   3.216   6.068  0.5186  0.2919 -0.4081
 6514SOL     OW31003   2.165   3.429   2.237 -0.4752  0.1377 -0.5728
 6514SOL    HW131004   2.234   3.472   2.186 -1.9346  0.8957 -1.9228
 6514SOL    HW231005   2.161   3.355   2.177  0.5781 -1.6096  1.4936
 6515SOL     OW31006   0.775   4.123   7.872  0.2941  0.2105 -0.5024
 6515SOL    HW131007   0.759   4.029   7.880  0.3526  0.1914 -0.6024
 6515SOL    HW231008   0.852   4.133   7.927 -1.0951 -0.4451  1.5396
 6516SOL     OW31009   4.461   4.343   5.877  0.1883 -0.0879 -0.4511
 6516SOL    HW131010   4.435   4.253   5.894  0.8169 -0.4453 -1.4681
 6516SOL    HW231011   4.457   4.386   5.963  1.9800 -2.8245  0.9925
 6517SOL     OW31012   1.562   3.052   3.434  0.4902 -0.0804  0.0289
 6517SOL    HW131013   1.548   3.089   3.521 -0.7907 -0.7296  0.0907
 6517SOL    HW231014   1.473   3.065   3.402 -0.5929 -2.3746  2.1235
 6518SOL     OW31015   3.519   3.568   1.311 -0.7444  0.3233 -0.0311
 6518SOL    HW131016   3.474   3.644   1.349  1.2072  0.8346  1.2866
 6518SOL    HW231017   3.607   3.602   1.293 -0.5967 -0.2901 -0.4524
 6519SOL     OW31018   2.586   1.751   8.306 -0.2869 -0.0582  0.5459
 6519SOL    HW131019   2.516   1.749   8.371 -0.5133 -0.6476  0.2850
 6519SOL    HW231020   2.559   1.830   8.260 -1.4445  0.0933  1.4918
 6520SOL     OW31021   2.792   4.328   6.692  0.3204  0.0314  0.0525
 6520SOL    HW131022   2.855   4.269   6.650 -1.3760 -2.5421  1.1536
 6520SOL    HW231023   2.818   4.326   6.784  0.3025  1.1666  0.0775
 6521SOL     OW31024   1.176   3.068   7.647  0.1317 -0.0021  0.0369
 6521SOL    HW131025   1.102   3.007   7.654 -0.8343  1.1793  0.2186
 6521SOL    HW231026   1.219   3.031   7.570  2.1756  2.5260 -0.0233
 6522SOL     OW31027   0.777   2.171  10.731  0.1973 -0.1761  0.0517
 6522SOL    HW131028   0.761   2.077  10.726  1.5372 -0.3674 -0.6306
 6522SOL    HW231029   0.763   2.189  10.824  1.2865 -0.8573  0.3407
 6523SOL     OW31030   4.166   3.905   9.239  0.3991  0.2861  0.1709
 6523SOL    HW131031   4.093   3.855   9.202 -2.6435  2.8712  2.6333
 6523SOL    HW231032   4.129   3.993   9.225  1.7702  0.8329  0.0523
 6524SOL     OW31033   0.295   0.056   3.704  0.0765  0.5090 -0.1900
 6524SOL    HW131034   0.341   0.087   3.626  1.5877  1.0724  0.9364
 6524SOL    HW231035   0.293   4.683   3.688 -2.8800  0.4853  0.2069
 6525SOL     OW31036   0.528   3.826   2.849 -0.4980  0.4442  0.5558
 6525SOL    HW131037   0.532   3.749   2.906 -2.8843  0.0057  0.1632
 6525SOL    HW231038   0.441   3.801   2.818 -1.2639 -0.0586  3.1456
 6526SOL     OW31039   4.381   3.845  12.343 -0.0255  0.5576 -0.0196
 6526SOL    HW131040   4.419   3.931  12.324  1.8337 -0.3428 -0.4546
 6526SOL    HW231041   4.294   3.874  12.316  0.3774  1.6626 -0.1351
 6527SOL     OW31042   2.974   2.857  11.536 -0.0833 -0.4374  0.2472
 6527SOL    HW131043   2.992   2.906  11.455  3.0103 -0.7098  0.7782
 6527SOL    HW231044   2.908   2.914  11.576  0.5093 -0.4636  1.2544
 6528SOL     OW31045   3.759   1.635   4.756  0.4410  0.2045  0.0295
 6528SOL    HW131046   3.709   1.621   4.675  0.6623  1.8525 -0.4142
 6528SOL    HW231047   3.788   1.726   4.744 -0.2183  0.6195  1.5782
 6529SOL     OW31048   0.684   1.672  10.615  0.4675 -0.2388 -0.0238
 6529SOL    HW131049   0.596   1.648  10.588  0.4822 -0.2824 -0.0347
 6529SOL    HW231050   0.727   1.595  10.577 -2.6740 -0.9368 -2.1595
 6530SOL     OW31051   2.180   4.405   3.177  0.0705 -0.0764 -0.1623
 6530SOL    HW131052   2.132   4.398   3.260 -0.4506 -1.1785 -0.5578
 6530SOL    HW231053   2.233   4.485   3.181 -0.3788  0.2358 -0.4848
 6531SOL     OW31054   2.963   4.290   0.873  0.5850  0.2782 -0.1890
 6531SOL    HW131055   2.941   4.200   0.897 -1.1818  0.0855 -2.5141
 6531SOL    HW231056   3.029   4.273   0.805 -0.1921  1.1366 -1.1629
 6532SOL     OW31057   1.036   3.278  12.605 -0.3786 -0.0267  0.1907
 6532SOL    HW131058   1.126   3.292  12.635 -1.0855  0.0216  2.2201
 6532SOL    HW231059   1.040   3.183  12.614  0.8777  0.1097  1.0022
 6533SOL     OW31060   3.101   1.277   4.306  0.1256  0.3346 -0.3777
 6533SOL    HW131061   3.158   1.334   4.357 -0.6814 -0.5697  1.5237
 6533SOL    HW231062   3.136   1.191   4.330  0.6464  0.3970 -0.9246
 6534SOL     OW31063   3.343   0.905  10.079  0.6546 -0.2728 -0.5590
 6534SOL    HW131064   3.413   0.952  10.125 -0.7850 -0.2588  1.6517
 6534SOL    HW231065   3.383   0.890   9.993 -0.5771  1.0255 -1.3533
 6535SOL     OW31066   0.253   1.610   6.401  0.4945  0.2599  0.1051
 6535SOL    HW131067   0.179   1.668   6.419  0.8475  0.6085  0.4406
 6535SOL    HW231068   0.243   1.574   6.313 -4.0556  4.1662 -0.9958
 6536SOL     OW31069   0.801   0.550   4.323  0.0866 -0.0728  0.4587
 6536SOL    HW131070   0.735   0.526   4.388  1.3995 -1.0554  1.4245
 6536SOL    HW231071   0.848   0.611   4.379 -0.4021  0.4013  0.3475
 6537SOL     OW31072   1.443   2.353   4.820 -0.2901 -0.2594 -0.8283
 6537SOL    HW131073   1.448   2.435   4.868  0.6247 -1.2761  0.7969
 6537SOL    HW231074   1.386   2.302   4.877 -0.2064  0.7003  0.1080
 6538SOL     OW31075   2.198   2.193   6.827 -0.8454 -0.2665  0.0780
 6538SOL    HW131076   2.263   2.264   6.830 -0.8160 -0.2078 -2.0979
 6538SOL    HW231077   2.116   2.242   6.826  0.5736  2.1739  1.8605
 6539SOL     OW31078   3.901   2.949   6.017 -0.6374 -0.3101  0.3831
 6539SOL    HW131079   3.878   3.026   6.069 -0.3716 -0.7362  1.1299
 6539SOL    HW231080   3.901   2.874   6.076  2.4264 -1.6961 -1.3601
 6540SOL     OW31081   0.186   3.416  17.635  0.0914 -0.2143  0.6650
 6540SOL    HW131082   0.117   3.473  17.602 -0.7680 -0.0749  2.7325
 6540SOL    HW231083   0.229   3.476   0.009 -0.7160  0.6971  0.3245
 6541SOL     OW31084   0.341   3.008   4.273  0.3031 -0.0965 -0.1875
 6541SOL    HW131085   0.308   2.930   4.318  1.2032 -1.8151 -2.4688
 6541SOL    HW231086   0.367   3.060   4.349 -0.6199  0.1176 -0.0190
 6542SOL     OW31087   2.482   2.260   4.512  0.4853  0.1433 -0.6768
 6542SOL    HW131088   2.492   2.305   4.596  0.1351  0.6154 -0.8902
 6542SOL    HW231089   2.547   2.190   4.521  0.8444  0.4299 -0.9905
 6543SOL     OW31090   2.073   4.085   6.969  0.1826  0.5228  0.0895
 6543SOL    HW131091   2.043   3.994   6.967  0.6998  0.3616 -0.6649
 6543SOL    HW231092   1.989   4.131   6.972  1.1744  2.3707 -0.6609
 6544SOL     OW31093   0.176   0.028   9.162  0.4099 -0.0670  0.0073
 6544SOL    HW131094   0.094   4.704   9.181 -0.1350  1.4569  1.2868
 6544SOL    HW231095   0.169   0.114   9.204  0.2482  0.5538 -1.3060
 6545SOL     OW31096   3.450   1.550   2.210  0.3196 -0.1982 -0.0429
 6545SOL    HW131097   3.491   1.522   2.292 -3.3310 -2.5988  0.9866
 6545SOL    HW231098   3.502   1.506   2.142  2.7106 -0.8544  2.2199
 6546SOL     OW31099   1.740   4.199   5.206  0.2282  0.2419  0.7557
 6546SOL    HW131100   1.742   4.285   5.164  1.7743 -0.6252 -0.8943
 6546SOL    HW231101   1.717   4.224   5.296 -0.0434  0.1164  0.7228
 6547SOL     OW31102   1.427   4.141  16.571  0.6877 -0.1030 -0.1167
 6547SOL    HW131103   1.393   4.144  16.661 -1.1391 -0.5809 -0.7938
 6547SOL    HW231104   1.404   4.054  16.539 -0.0281 -0.1556  0.5365
 6548SOL     OW31105   3.883   1.276   0.684 -0.3226  0.0243 -0.4285
 6548SOL    HW131106   3.967   1.287   0.728 -0.5950  0.4915 -0.0217
 6548SOL    HW231107   3.908   1.286   0.592 -0.4522 -0.5232 -0.5189
 6549SOL     OW31108   0.195   4.534  14.025  0.7176 -0.0499 -0.4446
 6549SOL    HW131109   0.209   4.450  13.981  2.1250  0.4798 -1.0161
 6549SOL    HW231110   0.264   4.532  14.092 -0.6947  1.4250  1.0612
 6550SOL     OW31111   0.768   0.501   8.859  0.0432 -0.5493 -0.6482
 6550SOL    HW131112   0.745   0.409   8.873  1.2797 -0.7536  0.0743
 6550SOL    HW231113   0.864   0.502   8.854  0.1366 -3.7867  0.4085
 6551SOL     OW31114   1.461   1.431  11.022  0.0221 -0.1286 -0.2318
 6551SOL    HW131115   1.406   1.353  11.025  0.1859 -0.2128  0.8228
 6551SOL    HW231116   1.459   1.443  10.927  1.0559  0.0668 -0.2248
 6552SOL     OW31117   4.530   3.027   1.847 -0.3776  0.1368  0.2183
 6552SOL    HW131118   4.541   3.003   1.940 -2.6438  0.2789  0.5291
 6552SOL    HW231119   4.586   2.964   1.801 -1.5517 -1.9814  1.6402
 6553SOL     OW31120   0.016   1.496  13.532  0.2584  0.3298 -0.1535
 6553SOL    HW131121   4.713   1.564  13.470  2.3861 -0.3294 -1.7226
 6553SOL    HW231122   0.082   1.446  13.485 -1.4857 -1.1777 -0.9967
 6554SOL     OW31123   0.828   2.698   1.801 -0.6812 -0.0715 -0.3797
 6554SOL    HW131124   0.744   2.739   1.822  0.4576  1.3234  1.3924
 6554SOL    HW231125   0.876   2.735   1.876  1.5455  0.0103 -1.8523
 6555SOL     OW31126   1.354   1.289   8.996 -0.1232  0.1137  0.7578
 6555SOL    HW131127   1.287   1.319   8.934 -0.9937 -2.5458  0.4087
 6555SOL    HW231128   1.366   1.361   9.058 -0.3906 -0.7687  1.8335
 6556SOL     OW31129   2.303   2.586  16.721  0.2195  0.2467 -0.2030
 6556SOL    HW131130   2.225   2.637  16.741  0.8979  2.2040 -2.5360
 6556SOL    HW231131   2.261   2.501  16.726  0.8658 -0.1911 -2.1654
 6557SOL     OW31132   1.409   3.528   1.923 -0.3474  0.2771  0.3302
 6557SOL    HW131133   1.380   3.585   1.852 -0.1757  1.7309  1.4322
 6557SOL    HW231134   1.474   3.480   1.872  0.1957  0.3154  0.9877
 6558SOL     OW31135   2.968   2.173   2.266 -0.3191 -0.0927  0.2978
 6558SOL    HW131136   2.963   2.185   2.171 -2.4087 -0.8680  0.2861
 6558SOL    HW231137   2.907   2.239   2.300  0.6053  0.6563  0.4761
 6559SOL     OW31138   3.559   1.008   8.815  0.1956  0.0957 -0.0334
 6559SOL    HW131139   3.584   0.925   8.773 -1.0258  0.6857 -1.9381
 6559SOL    HW231140   3.481   0.979   8.861  1.1623  0.2159  1.6778
 6560SOL     OW31141   3.579   1.599   6.153  0.6313 -0.2282 -0.0849
 6560SOL    HW131142   3.619   1.547   6.223 -1.7675 -0.3542  1.2103
 6560SOL    HW231143   3.494   1.623   6.190  0.7209 -0.0013 -0.0326
 6561SOL     OW31144   2.434   4.089  16.582 -0.2038 -0.0497  0.1952
 6561SOL    HW131145   2.424   4.120  16.672  0.6565  0.4589  0.1081
 6561SOL    HW231146   2.457   3.998  16.599 -0.2694  0.2073  1.6624
 6562SOL     OW31147   4.332   3.446   6.145  0.7192  0.2491 -0.2024
 6562SOL    HW131148   4.409   3.500   6.165  1.7602 -0.6248 -1.9117
 6562SOL    HW231149   4.337   3.448   6.050  2.0514 -0.4147 -0.1397
 6563SOL     OW31150   4.720   0.675   3.407  0.1471 -0.3096  0.3702
 6563SOL    HW131151   0.018   0.637   3.321 -0.1462 -0.4254  0.3571
 6563SOL    HW231152   0.054   0.612   3.455  0.9265 -0.2877 -0.5014
 6564SOL     OW31153   0.860   1.164   2.857  0.3922  0.0130 -0.2071
 6564SOL    HW131154   0.832   1.221   2.928 -1.4392  1.1920 -1.9115
 6564SOL    HW231155   0.848   1.076   2.893  0.7603  1.0227  2.3471
 6565SOL     OW31156   0.139   4.255   4.104 -0.4019  0.3926  0.0771
 6565SOL    HW131157   0.073   4.195   4.069  0.8074 -2.8329  3.2805
 6565SOL    HW231158   0.111   4.331   4.053 -1.0871 -1.0621 -1.7032
 6566SOL     OW31159   2.250   3.491   6.225 -0.2891  1.2053 -0.2822
 6566SOL    HW131160   2.338   3.518   6.196  1.0693 -0.5578  2.2348
 6566SOL    HW231161   2.251   3.515   6.317  0.9286 -1.3708  0.3724
 6567SOL     OW31162   1.221   1.052   9.044 -0.1343 -0.0880  0.2453
 6567SOL    HW131163   1.137   1.096   9.059 -0.8369 -0.9946 -1.0278
 6567SOL    HW231164   1.284   1.124   9.037 -2.2054  1.6817 -0.1975
 6568SOL     OW31165   2.016   3.593  11.025  0.6348  0.3543 -0.2224
 6568SOL    HW131166   1.938   3.540  11.012  1.7467 -1.0350 -1.2596
 6568SOL    HW231167   1.967   3.671  10.998  0.4057  0.3853  0.2788
 6569SOL     OW31168   2.306   2.439   3.292 -0.0161  0.2072 -0.7041
 6569SOL    HW131169   2.260   2.355   3.298  1.2429 -0.4497 -0.3084
 6569SOL    HW231170   2.239   2.488   3.243 -0.3601  1.0304  0.5993
 6570SOL     OW31171   0.413   3.648  10.061 -0.0250  0.2414 -0.1451
 6570SOL    HW131172   0.501   3.611  10.056 -0.2875 -0.3327 -0.5881
 6570SOL    HW231173   0.361   3.610   9.990 -1.3551 -0.4085  1.1765
 6571SOL     OW31174   2.595   4.386   9.203  0.5827  0.0618 -0.3472
 6571SOL    HW131175   2.515   4.418   9.161  0.1748 -2.1750 -1.2715
 6571SOL    HW231176   2.581   4.291   9.208 -0.9139  0.2432 -1.1648
 6572SOL     OW31177   1.362   3.630   2.892 -0.3166  0.1076  0.2938
 6572SOL    HW131178   1.303   3.595   2.959  0.0672  0.2097  0.6830
 6572SOL    HW231179   1.319   3.608   2.809  1.4629 -1.5242 -0.2102
 6573SOL     OW31180   1.332   3.728   8.562 -0.2884  0.2925 -0.8253
 6573SOL    HW131181   1.247   3.694   8.534 -1.7908  1.9583  1.7253
 6573SOL    HW231182   1.313   3.723   8.655  0.0781 -2.3937 -0.8758
 6574SOL     OW31183   4.000   3.646  15.869 -0.2621 -0.2347  0.0832
 6574SOL    HW131184   3.930   3.630  15.933 -1.3759 -1.5077 -1.4314
 6574SOL    HW231185   3.967   3.720  15.817 -2.3690 -2.8831 -2.3771
 6575SOL     OW31186   0.677   2.048   7.372  0.1692  0.3486 -0.0427
 6575SOL    HW131187   0.629   1.985   7.425  0.6716 -1.1183 -1.3129
 6575SOL    HW231188   0.768   2.047   7.403  0.3244 -0.8615 -0.5213
 6576SOL     OW31189   2.690   1.678   3.027 -0.1474 -0.0885 -0.0240
 6576SOL    HW131190   2.648   1.758   2.995 -0.2577  0.8084  2.3062
 6576SOL    HW231191   2.626   1.607   3.021  1.6267 -1.8379  1.5004
 6577SOL     OW31192   4.194   1.472   6.150  0.3008  0.7360  0.4418
 6577SOL    HW131193   4.181   1.561   6.184  0.4112  0.7726  0.3878
 6577SOL    HW231194   4.271   1.440   6.195 -0.2514  1.3969  1.8473
 6578SOL     OW31195   4.351   3.154   1.066 -0.6354  0.5065  0.4510
 6578SOL    HW131196   4.447   3.144   1.064 -0.3112  3.3657  0.9863
 6578SOL    HW231197   4.329   3.135   0.975  2.7801  0.2491 -0.3289
 6579SOL     OW31198   0.692   4.327   5.533 -0.1330 -0.3674 -0.2554
 6579SOL    HW131199   0.684   4.265   5.605 -0.4433 -0.3265 -0.2540
 6579SOL    HW231200   0.602   4.358   5.520  0.3850  1.0004 -0.6076
 6580SOL     OW31201   1.093   4.136   9.479 -0.1170 -0.5673 -0.5462
 6580SOL    HW131202   1.119   4.077   9.408 -0.9139 -1.1647 -0.3425
 6580SOL    HW231203   1.138   4.217   9.455 -0.8926  0.1794  0.5309
 6581SOL     OW31204   4.142   3.197   4.238 -0.7425 -0.0147  0.1600
 6581SOL    HW131205   4.070   3.240   4.285 -0.3634 -1.0123  1.6422
 6581SOL    HW231206   4.181   3.141   4.305 -0.7271  0.1192  0.2643
 6582SOL     OW31207   2.704   0.286  10.794  0.1780  0.5055 -0.4326
 6582SOL    HW131208   2.686   0.342  10.719  0.3883 -2.7348 -2.8900
 6582SOL    HW231209   2.765   0.342  10.843 -0.6876  0.6396  0.4942
 6583SOL     OW31210   3.707   4.640  13.041  0.1534  0.1175 -0.2423
 6583SOL    HW131211   3.625   4.676  13.074 -0.4225  0.0100 -1.5654
 6583SOL    HW231212   3.758   4.696  13.100  0.8724 -0.3340 -0.4367
 6584SOL     OW31213   4.514   3.790   5.575  0.2770  0.4802 -0.1941
 6584SOL    HW131214   4.553   3.719   5.626  0.0119 -0.1565 -0.8758
 6584SOL    HW231215   4.461   3.739   5.513 -1.2181  2.2521 -0.3693
 6585SOL     OW31216   3.616   0.791   8.660 -0.5649  0.3456  0.2282
 6585SOL    HW131217   3.653   0.822   8.577 -4.0961 -0.2264 -1.5504
 6585SOL    HW231218   3.622   0.695   8.661 -1.2201  0.3384  3.1081
 6586SOL     OW31219   4.179   4.068  15.792 -0.3353 -0.3780 -0.5084
 6586SOL    HW131220   4.175   3.985  15.745  0.7345 -0.5303 -0.3117
 6586SOL    HW231221   4.183   4.033  15.881  2.4219  0.3710 -0.3530
 6587SOL     OW31222   2.358   0.715   5.189 -0.6477 -0.2760 -0.2498
 6587SOL    HW131223   2.288   0.781   5.181  1.2381  1.6667 -0.6224
 6587SOL    HW231224   2.387   0.749   5.274  1.5164 -1.1742 -0.6487
 6588SOL     OW31225   1.937   3.955  16.509 -0.4621  0.0047  0.4762
 6588SOL    HW131226   1.893   3.961  16.423  2.9198  0.2271 -1.2335
 6588SOL    HW231227   1.883   4.012  16.563  1.2147  1.7496  0.2776
 6589SOL     OW31228   1.882   1.769  13.077 -0.1917 -0.6457  0.2602
 6589SOL    HW131229   1.806   1.763  13.018  0.5893 -0.1958 -0.7852
 6589SOL    HW231230   1.847   1.780  13.166  1.1278 -0.3703  0.7377
 6590SOL     OW31231   1.393   0.157   7.567  0.4063  0.5969 -0.1356
 6590SOL    HW131232   1.455   0.098   7.609 -2.3570 -0.8485  1.9112
 6590SOL    HW231233   1.338   0.179   7.642  2.7642  0.2819  1.6571
 6591SOL     OW31234   2.363   1.949   5.440 -0.5930  0.2077  0.1319
 6591SOL    HW131235   2.435   1.952   5.504  0.6435 -0.1917 -1.2373
 6591SOL    HW231236   2.412   1.993   5.370 -1.9057 -0.8135 -1.4196
 6592SOL     OW31237   2.447   4.523   9.820 -0.2715  0.3979 -0.0645
 6592SOL    HW131238   2.463   4.594   9.883  3.2488 -0.7057  0.2722
 6592SOL    HW231239   2.469   4.445   9.871  4.7132  2.0540  0.2968
 6593SOL     OW31240   3.844   3.468  15.195  0.7798  0.6364  0.2772
 6593SOL    HW131241   3.859   3.375  15.178 -1.8875  0.2239  0.2825
 6593SOL    HW231242   3.773   3.475  15.258 -0.9843 -4.8605 -1.0983
 6594SOL     OW31243   4.332   3.468  14.407  0.4995  0.1566 -0.0697
 6594SOL    HW131244   4.325   3.373  14.399 -0.2663  0.1021  1.3349
 6594SOL    HW231245   4.296   3.501  14.325 -0.6373  1.8226  1.1021
 6595SOL     OW31246   3.127   4.650   3.298  0.3086 -1.1404  0.4643
 6595SOL    HW131247   3.097   4.589   3.230 -2.7807  2.0211 -0.9846
 6595SOL    HW231248   3.198   4.602   3.341  0.6898 -0.7721  0.2416
 6596SOL     OW31249   3.070   4.418  15.231 -0.7981 -0.5581 -0.6407
 6596SOL    HW131250   3.063   4.507  15.266 -0.5176 -1.0635  0.7184
 6596SOL    HW231251   3.158   4.423  15.194 -1.3541  0.8934 -1.7623
 6597SOL     OW31252   1.209   3.859  10.324 -0.1365  0.1462 -0.1865
 6597SOL    HW131253   1.274   3.839  10.391 -0.8460  1.3222  0.8554
 6597SOL    HW231254   1.129   3.840  10.373  0.6726 -2.8324 -0.0647
 6598SOL     OW31255   1.718   1.567  12.655 -0.2346 -0.3504  0.0740
 6598SOL    HW131256   1.691   1.479  12.629 -2.2592  0.8377 -1.8623
 6598SOL    HW231257   1.749   1.608  12.574  0.6042  0.6790  0.9107
 6599SOL     OW31258   2.749   1.005   5.736 -0.5183  0.3605 -0.1012
 6599SOL    HW131259   2.841   0.985   5.718 -1.0031 -1.1399 -0.9133
 6599SOL    HW231260   2.715   0.948   5.667  0.6993 -0.7019  0.1757
 6600SOL     OW31261   1.757   2.216   0.829  0.1560  0.3379 -0.4351
 6600SOL    HW131262   1.757   2.299   0.877  0.4278  0.8166 -1.2518
 6600SOL    HW231263   1.716   2.233   0.744  0.8190  0.9352 -0.6407
 6601SOL     OW31264   3.681   3.555  15.816  0.4328  0.6254 -0.2751
 6601SOL    HW131265   3.738   3.536  15.891  0.3138  0.5162 -0.2123
 6601SOL    HW231266   3.649   3.642  15.840 -0.0373  0.3464  0.1086
 6602SOL     OW31267   2.860   1.317   0.653 -0.7774 -0.0828 -0.2388
 6602SOL    HW131268   2.792   1.369   0.610 -1.2672  0.0973  0.7444
 6602SOL    HW231269   2.864   1.360   0.739  0.0398 -1.1477  0.2524
 6603SOL     OW31270   4.223   4.329  17.442 -0.6268  0.1259  0.1815
 6603SOL    HW131271   4.216   4.245  17.396 -3.6629 -0.0307  0.8868
 6603SOL    HW231272   4.140   4.339  17.489 -2.6353  1.8881 -3.7006
 6604SOL     OW31273   3.101   3.473   6.699 -0.2858  0.2758  0.0779
 6604SOL    HW131274   3.014   3.439   6.719  0.8458 -1.6545  1.6908
 6604SOL    HW231275   3.079   3.566   6.689 -0.4053  0.3361  0.9536
 6605SOL     OW31276   0.318   3.777   4.810  0.2953 -0.2278 -0.2332
 6605SOL    HW131277   0.285   3.738   4.891  0.4426  0.6318  0.2387
 6605SOL    HW231278   0.240   3.814   4.768  1.5644 -1.5983 -3.8266
 6606SOL     OW31279   4.529   3.515   3.171  0.4221 -0.5186 -0.1537
 6606SOL    HW131280   4.442   3.551   3.158  0.4402 -0.0294  1.0263
 6606SOL    HW231281   4.559   3.529   3.082  0.4146 -2.7274 -0.5125
 6607SOL     OW31282   0.297   1.726   6.691 -1.1471 -0.1094  0.0170
 6607SOL    HW131283   0.322   1.644   6.649  0.7056  0.7745 -0.6358
 6607SOL    HW231284   0.274   1.777   6.613  0.0090 -0.3100 -0.4639
 6608SOL     OW31285   2.840   0.351   3.718  0.4796  0.1157 -0.2461
 6608SOL    HW131286   2.812   0.410   3.788  2.0606  2.0659 -1.2371
 6608SOL    HW231287   2.791   0.386   3.643  1.8895  2.0660 -0.2871
 6609SOL     OW31288   0.906   0.656  12.526 -0.0649 -0.4946 -0.6045
 6609SOL    HW131289   0.843   0.697  12.585  0.4014 -2.5730  1.3595
 6609SOL    HW231290   0.897   0.565  12.555 -1.6407 -0.6363 -1.5225
 6610SOL     OW31291   4.180   0.817   7.844 -0.4072  0.0150 -0.2447
 6610SOL    HW131292   4.129   0.788   7.769 -0.5009 -0.8112  0.1364
 6610SOL    HW231293   4.133   0.779   7.918  0.4251 -1.2828 -0.3851
 6611SOL     OW31294   0.283   3.997   8.110 -0.2371 -0.2770  1.1453
 6611SOL    HW131295   0.287   3.904   8.131 -0.9501  0.1418  3.2451
 6611SOL    HW231296   0.197   3.998   8.068 -0.0392  0.6118  0.7726
 6612SOL     OW31297   1.098   3.737   7.297  0.4438 -0.7554  0.2885
 6612SOL    HW131298   1.143   3.654   7.312 -1.0298 -1.6361 -0.2730
 6612SOL    HW231299   1.013   3.708   7.264 -0.5158  0.8134  1.3450
 6613SOL     OW31300   3.267   1.498   5.728  0.1600  0.3784 -0.4094
 6613SOL    HW131301   3.339   1.534   5.779  2.0493 -3.9549 -0.0333
 6613SOL    HW231302   3.264   1.409   5.764  0.3593 -0.2172 -1.8655
 6614SOL     OW31303   0.426   3.102  11.847  0.4128  0.4081 -0.0217
 6614SOL    HW131304   0.410   3.176  11.905  0.4935  0.7477 -0.4325
 6614SOL    HW231305   0.518   3.083  11.866  0.1235 -0.5381  0.4224
 6615SOL     OW31306   3.566   0.879  16.323 -0.3435 -0.0426 -1.2585
 6615SOL    HW131307   3.529   0.965  16.341  0.9021 -0.2736  2.4597
 6615SOL    HW231308   3.659   0.902  16.323 -1.1164  3.0644 -3.0207
 6616SOL     OW31309   0.614   1.056  12.424  0.2742 -0.1241 -0.1621
 6616SOL    HW131310   0.663   1.119  12.479  1.0081 -0.7827 -0.0621
 6616SOL    HW231311   0.595   0.995  12.495  1.8404  0.0954  0.4538
 6617SOL     OW31312   1.903   2.695   2.829  0.0944  0.5118 -0.0464
 6617SOL    HW131313   1.974   2.692   2.765 -0.4676  4.1472 -0.8361
 6617SOL    HW231314   1.874   2.786   2.823 -0.4045  0.4545  1.3834
 6618SOL     OW31315   2.715   3.510   2.996  0.0493 -0.1741  0.5569
 6618SOL    HW131316   2.704   3.430   3.048 -1.2817  1.1345  2.2530
 6618SOL    HW231317   2.632   3.545   3.027 -1.1665 -1.6419 -1.0071
 6619SOL     OW31318   3.279   4.677   7.336  0.2321 -0.6015  0.1758
 6619SOL    HW131319   3.362   4.680   7.385 -0.7016 -0.2868  1.7523
 6619SOL    HW231320   3.244   4.593   7.365  0.1249 -0.1096  1.5201
 6620SOL     OW31321   1.418   0.685  17.162  0.3387 -0.0154 -0.5805
 6620SOL    HW131322   1.435   0.666  17.070  0.0688 -0.4080 -0.5489
 6620SOL    HW231323   1.483   0.751  17.186 -0.6241  1.2320 -1.4172
 6621SOL     OW31324   3.049   4.227   8.088 -0.6821  0.4133 -0.0514
 6621SOL    HW131325   3.000   4.308   8.097  0.0363  0.9466 -0.8205
 6621SOL    HW231326   3.127   4.249   8.140  1.0413 -1.5056 -1.7958
 6622SOL     OW31327   0.811   1.706  10.988 -0.3510 -0.0856 -0.5760
 6622SOL    HW131328   0.878   1.639  11.002 -0.7711 -0.5109 -0.6095
 6622SOL    HW231329   0.820   1.762  11.066 -2.4422  1.0123 -1.1188
 6623SOL     OW31330   3.592   3.807   2.372 -0.0308  0.4870 -0.3919
 6623SOL    HW131331   3.611   3.896   2.342 -0.1686  1.7221  3.1605
 6623SOL    HW231332   3.633   3.817   2.459 -2.6305  0.8769  0.7920
 6624SOL     OW31333   4.664   2.805   2.417 -0.2189 -0.1709 -0.1634
 6624SOL    HW131334   4.658   2.756   2.499  0.4428 -3.5610 -2.1478
 6624SOL    HW231335   0.009   2.754   2.371 -2.1251 -3.3795  0.6907
 6625SOL     OW31336   3.227   1.591   6.242 -0.3221  0.1635 -0.4007
 6625SOL    HW131337   3.207   1.631   6.326 -0.4479  0.4382 -0.5613
 6625SOL    HW231338   3.180   1.651   6.183  2.5100  1.7595 -1.0194
 6626SOL     OW31339   4.281   4.033   4.570 -0.1618  0.1128  0.2407
 6626SOL    HW131340   4.285   4.097   4.641  2.4687 -0.3775  0.5660
 6626SOL    HW231341   4.370   4.047   4.537 -1.0401  0.1137 -2.0681
 6627SOL     OW31342   3.906   1.027   6.378 -0.5791  0.1488 -0.2363
 6627SOL    HW131343   3.813   1.008   6.388 -0.1685 -0.8550  1.5937
 6627SOL    HW231344   3.946   0.943   6.353  0.0859  0.0363  1.2342
 6628SOL     OW31345   1.339   0.549  11.657 -0.4560  0.5996  0.0232
 6628SOL    HW131346   1.360   0.598  11.737  0.5996  0.1225  0.0287
 6628SOL    HW231347   1.380   0.595  11.584  0.1148 -0.3429 -0.2465
 6629SOL     OW31348   0.846   3.781   6.329  0.2490 -0.0935  0.7962
 6629SOL    HW131349   0.860   3.740   6.414  0.3086  0.7902  1.2185
 6629SOL    HW231350   0.912   3.851   6.334 -1.5182  1.6567 -0.7935
 6630SOL     OW31351   2.515   3.624  13.529  0.2609 -0.4351 -0.1036
 6630SOL    HW131352   2.429   3.646  13.565  1.0369  0.6711  1.0429
 6630SOL    HW231353   2.549   3.555  13.585  1.2509  0.9142  0.9406
 6631SOL     OW31354   1.119   0.373  13.264 -0.7767 -0.1455 -0.2391
 6631SOL    HW131355   1.153   0.372  13.175  0.0614  1.1813  0.0669
 6631SOL    HW231356   1.071   0.456  13.264  0.5948  0.6436  1.6125
 6632SOL     OW31357   2.644   0.190   0.561 -0.8290 -0.7948  0.5236
 6632SOL    HW131358   2.605   0.103   0.562 -1.4231 -0.5330  0.2041
 6632SOL    HW231359   2.717   0.193   0.622 -0.1911 -2.6044 -0.1589
 6633SOL     OW31360   3.001   4.720   1.162 -0.1900  0.4911  0.0399
 6633SOL    HW131361   3.081   4.685   1.123 -0.9272 -0.1226 -0.9324
 6633SOL    HW231362   2.933   4.655   1.146  0.7668  0.3045 -3.3470
 6634SOL     OW31363   0.084   2.003   4.858  0.1824  0.0265 -0.4488
 6634SOL    HW131364   0.097   1.944   4.783  2.6165 -1.3674  1.0351
 6634SOL    HW231365   4.710   1.998   4.849 -0.0762  1.4723  1.5711
 6635SOL     OW31366   2.960   4.215  11.971 -0.8394  0.3870  0.2177
 6635SOL    HW131367   2.998   4.182  11.889  2.6076  2.8388  0.8329
 6635SOL    HW231368   3.017   4.288  11.997  1.5284 -1.6190  0.6454
 6636SOL     OW31369   4.120   2.468   4.156 -0.0444  0.5908 -0.5358
 6636SOL    HW131370   4.100   2.514   4.237 -0.9188  1.2983 -1.1468
 6636SOL    HW231371   4.037   2.422   4.145 -0.9135  2.1756 -0.6200
 6637SOL     OW31372   4.692   4.622   6.149 -0.6548 -0.3408 -0.6049
 6637SOL    HW131373   0.037   4.661   6.092 -0.6930  1.2482  0.4223
 6637SOL    HW231374   0.019   4.635   6.230 -1.1917 -3.3642  0.1952
 6638SOL     OW31375   1.841   3.364  14.855 -0.0402  0.3420  0.3480
 6638SOL    HW131376   1.779   3.397  14.789 -1.9972 -0.9352  1.5800
 6638SOL    HW231377   1.887   3.448  14.868 -1.1092  0.8190  1.0256
 6639SOL     OW31378   0.818   0.279  13.244 -0.0933  0.0874  0.1829
 6639SOL    HW131379   0.778   0.342  13.304 -0.3925 -0.4834  0.5743
 6639SOL    HW231380   0.908   0.312  13.242  0.9590 -2.8656 -0.0305
 6640SOL     OW31381   2.898   3.934   7.751  0.3718 -0.2146  0.4222
 6640SOL    HW131382   2.890   3.881   7.831 -2.3747 -1.0442 -0.4077
 6640SOL    HW231383   2.831   3.892   7.697  1.0356  0.3540 -0.8328
 6641SOL     OW31384   1.802   3.983   2.818 -0.3279  0.2448 -0.4376
 6641SOL    HW131385   1.778   3.891   2.833  1.7513 -0.2593 -0.2835
 6641SOL    HW231386   1.890   3.975   2.782 -0.2920 -0.3345 -0.2217
 6642SOL     OW31387   1.717   4.607   3.566  0.4771 -0.5369  0.5889
 6642SOL    HW131388   1.715   4.574   3.477 -3.9437 -1.5815  1.0618
 6642SOL    HW231389   1.749   4.697   3.560 -0.4207 -0.3851 -1.6497
 6643SOL     OW31390   4.546   2.008   2.525 -0.4391  0.1440  0.1973
 6643SOL    HW131391   4.542   2.081   2.464  0.1501  0.4647  0.5541
 6643SOL    HW231392   4.483   1.951   2.481  0.9249 -1.8417  0.8276
 6644SOL     OW31393   0.402   4.645   2.065  0.2751  0.4797 -0.5146
 6644SOL    HW131394   0.331   4.595   2.103 -0.0327  0.9606 -0.4547
 6644SOL    HW231395   0.474   4.621   2.124 -0.3182  0.4224  0.1761
 6645SOL     OW31396   1.645   3.707   4.043  0.0047  0.6304 -0.4181
 6645SOL    HW131397   1.629   3.774   3.977 -0.5322  0.0422 -0.8929
 6645SOL    HW231398   1.739   3.708   4.062  0.4595 -0.1403 -2.5809
 6646SOL     OW31399   3.283   0.831   2.075  0.9596  0.5655 -0.5238
 6646SOL    HW131400   3.203   0.806   2.029  1.7193 -1.1687 -0.8984
 6646SOL    HW231401   3.312   0.749   2.115  1.7552  1.4941  0.8231
 6647SOL     OW31402   4.646   3.062   5.697 -0.0075  0.1264 -0.2843
 6647SOL    HW131403   4.661   2.975   5.659 -0.1838 -0.6427  1.4259
 6647SOL    HW231404   4.598   3.035   5.775  0.0417 -1.2835 -0.7408
 6648SOL     OW31405   2.426   0.648   7.506  0.2881  0.6514  0.0090
 6648SOL    HW131406   2.448   0.740   7.490 -0.0026  0.6379 -0.4548
 6648SOL    HW231407   2.435   0.649   7.601 -2.2519 -1.2899  0.2559
 6649SOL     OW31408   2.336   4.003   6.472  0.4784 -0.4155  0.0620
 6649SOL    HW131409   2.384   3.954   6.404 -0.2309 -2.1260  0.7928
 6649SOL    HW231410   2.317   3.936   6.538  0.8044  0.4450  1.0267
 6650SOL     OW31411   4.415   1.299   2.106 -0.7364  0.3241  0.3103
 6650SOL    HW131412   4.471   1.260   2.173  0.9485 -0.6425 -1.6353
 6650SOL    HW231413   4.442   1.273   2.018 -2.3988  2.7827 -0.9316
 6651SOL     OW31414   1.175   2.884  15.819 -0.2053  0.0983  0.4114
 6651SOL    HW131415   1.108   2.825  15.785 -0.1549 -0.0916  0.6461
 6651SOL    HW231416   1.158   2.869  15.912 -0.1779 -0.0875  0.3872
 6652SOL     OW31417   3.162   0.702   8.995  0.2408 -0.2638 -0.0757
 6652SOL    HW131418   3.136   0.674   9.082 -1.3834 -1.6863 -1.0274
 6652SOL    HW231419   3.101   0.650   8.944  0.2545 -0.2466 -0.1102
 6653SOL     OW31420   3.456   1.730   3.386  0.0163  0.5083  0.0225
 6653SOL    HW131421   3.520   1.666   3.355 -0.8711 -0.8651  1.0248
 6653SOL    HW231422   3.426   1.690   3.467 -1.4615  0.8148 -0.3771
 6654SOL     OW31423   4.275   3.786  13.596 -0.0348 -0.2864  0.6320
 6654SOL    HW131424   4.350   3.844  13.585  0.3004 -1.0890 -1.2076
 6654SOL    HW231425   4.247   3.785  13.505 -0.7937  1.0490  0.8563
 6655SOL     OW31426   2.474   3.350   8.788  0.1280  0.0006  0.4094
 6655SOL    HW131427   2.526   3.278   8.753  0.7085  0.2302  0.7922
 6655SOL    HW231428   2.496   3.432   8.742 -0.1747 -0.4960 -0.6087
 6656SOL     OW31429   1.610   4.142   6.298 -0.3633  0.0097  0.1896
 6656SOL    HW131430   1.660   4.179   6.371 -0.0240 -2.6551  1.2753
 6656SOL    HW231431   1.678   4.095   6.250 -1.0112 -2.1362  1.3720
 6657SOL     OW31432   2.124   2.744   6.504  0.0726  0.0704  0.7182
 6657SOL    HW131433   2.134   2.833   6.471 -1.0313  0.3741  1.2325
 6657SOL    HW231434   2.195   2.736   6.568  1.4890  0.6314 -0.7732
 6658SOL     OW31435   1.057   1.416   6.810  0.2858  0.6083  0.8434
 6658SOL    HW131436   1.053   1.477   6.736  0.4078 -1.5613 -0.9466
 6658SOL    HW231437   1.052   1.490   6.871  0.3742 -0.2044  1.8207
 6659SOL     OW31438   1.882   0.628   6.808 -0.3839 -0.3563  0.0726
 6659SOL    HW131439   1.906   0.560   6.745 -1.3112 -0.6670  0.0576
 6659SOL    HW231440   1.953   0.692   6.799 -1.0170  0.6709  2.3254
 6660SOL     OW31441   1.244   3.210   8.075  0.1466  0.0401  0.9197
 6660SOL    HW131442   1.254   3.286   8.018 -2.5750  0.8922  1.5614
 6660SOL    HW231443   1.160   3.235   8.115 -0.2133  2.6171 -1.4607
 6661SOL     OW31444   1.317   2.830   6.283 -0.2704 -0.1958 -1.0790
 6661SOL    HW131445   1.247   2.884   6.320  0.9996  0.2849  0.6276
 6661SOL    HW231446   1.275   2.838   6.197 -2.3222  2.1844  0.1281
 6662SOL     OW31447   3.755   1.798   3.723 -0.0386  0.4922 -0.3283
 6662SOL    HW131448   3.723   1.861   3.658 -3.9708 -3.1493 -1.9518
 6662SOL    HW231449   3.835   1.843   3.749 -0.0383  0.9795 -1.1754
 6663SOL     OW31450   3.377   2.866   4.413  0.5231 -0.7770 -0.6191
 6663SOL    HW131451   3.387   2.958   4.387  0.9679 -1.0443 -1.3925
 6663SOL    HW231452   3.309   2.887   4.477 -0.4562 -1.0002 -1.5802
 6664SOL     OW31453   1.731   2.280   3.827 -0.4997  0.1857  0.2428
 6664SOL    HW131454   1.754   2.242   3.743 -2.0189 -0.2396  0.0229
 6664SOL    HW231455   1.664   2.343   3.801  0.5850  0.2676 -2.3469
 6665SOL     OW31456   0.447   1.780   3.166 -0.0867  0.1820 -0.7133
 6665SOL    HW131457   0.476   1.719   3.099  0.8516  0.6859 -0.7619
 6665SOL    HW231458   0.358   1.746   3.178 -0.7349  1.1133 -2.9903
 6666SOL     OW31459   1.628   3.931   9.496 -0.5066  0.9542 -0.0326
 6666SOL    HW131460   1.646   3.842   9.463  0.0734  0.8808  0.4730
 6666SOL    HW231461   1.547   3.940   9.446  0.0437 -0.8949 -1.2834
 6667SOL     OW31462   1.805   0.939   5.135  0.5264 -0.2769 -0.3479
 6667SOL    HW131463   1.870   0.986   5.084  0.2758 -0.0609 -0.4678
 6667SOL    HW231464   1.728   0.950   5.078  1.2478  2.9987 -0.6655
 6668SOL     OW31465   0.270   2.496   8.695 -0.4788 -0.2035  0.1166
 6668SOL    HW131466   0.342   2.461   8.643 -0.6706 -1.0821  0.4425
 6668SOL    HW231467   0.292   2.587   8.673 -0.6189 -0.2899 -0.4025
 6669SOL     OW31468   4.238   0.198  15.420  0.3336 -0.1580 -0.1853
 6669SOL    HW131469   4.240   0.119  15.365  1.6602  1.3140 -2.2292
 6669SOL    HW231470   4.152   0.237  15.405 -0.6141 -1.6648  1.2885
 6670SOL     OW31471   1.982   0.741  11.569  0.2768  0.7236  0.2838
 6670SOL    HW131472   2.064   0.785  11.546 -0.6471  1.9335 -0.6660
 6670SOL    HW231473   1.920   0.809  11.544  0.4672  1.3860  1.6385
 6671SOL     OW31474   1.935   1.546  13.480  0.5578  0.1390 -0.7376
 6671SOL    HW131475   1.890   1.466  13.453 -1.2737  1.1612 -0.7212
 6671SOL    HW231476   1.886   1.612  13.431 -0.4133  0.5800  0.8055
 6672SOL     OW31477   2.852   4.593   7.857 -0.4866 -0.1893 -0.0416
 6672SOL    HW131478   2.801   4.561   7.783 -0.5562 -0.3060  0.0563
 6672SOL    HW231479   2.840   4.525   7.924 -1.2116  0.2200  0.2408
 6673SOL     OW31480   2.496   2.473   7.293  0.0769  0.3758 -0.2945
 6673SOL    HW131481   2.549   2.501   7.218 -2.0183  1.9279 -1.1803
 6673SOL    HW231482   2.507   2.378   7.287  0.0283  0.4426 -1.3157
 6674SOL     OW31483   1.347   1.928   5.031 -0.2434 -0.0333  0.0838
 6674SOL    HW131484   1.366   2.019   5.010  3.0732 -0.8871 -0.6368
 6674SOL    HW231485   1.340   1.884   4.946  0.1579  1.5591 -0.7602
 6675SOL     OW31486   2.573   2.925   7.599  0.0705 -0.1124 -0.1721
 6675SOL    HW131487   2.653   2.878   7.620  1.1810  2.1924  0.8023
 6675SOL    HW231488   2.592   3.000   7.656 -0.4701  0.6453 -0.9916
 6676SOL     OW31489   3.636   4.571   4.585 -0.4890 -0.3802  0.2115
 6676SOL    HW131490   3.679   4.612   4.659  2.7238 -0.9327 -1.3620
 6676SOL    HW231491   3.708   4.521   4.546 -0.8289 -0.3724 -0.4260
 6677SOL     OW31492   4.432   0.879  10.111 -0.0452 -0.0774 -0.4852
 6677SOL    HW131493   4.458   0.938  10.041 -0.9529 -0.3905 -1.0884
 6677SOL    HW231494   4.373   0.937  10.160  0.9854 -2.0391  3.0652
 6678SOL     OW31495   2.503   2.955   4.947 -0.4525 -0.0456 -0.2186
 6678SOL    HW131496   2.567   3.027   4.952  3.0789 -3.0311 -2.6428
 6678SOL    HW231497   2.528   2.912   4.866  0.5189  1.4535 -0.7133
 6679SOL     OW31498   2.479   1.682  17.369  0.4443  0.1886  0.0205
 6679SOL    HW131499   2.546   1.620  17.340 -1.5536 -2.4952  1.1327
 6679SOL    HW231500   2.531   1.762  17.377 -2.0469  1.7821  0.1367
 6680SOL     OW31501   1.403   3.259   0.101 -0.2908  0.4194 -0.5482
 6680SOL    HW131502   1.464   3.318   0.145 -2.0354 -0.5185  3.1083
 6680SOL    HW231503   1.323   3.265   0.153  0.3097 -0.5663  0.4671
 6681SOL     OW31504   1.059   0.519   0.516  0.3818  0.3410  0.5948
 6681SOL    HW131505   0.970   0.529   0.549 -0.3165 -1.9430 -0.6432
 6681SOL    HW231506   1.062   0.425   0.536  1.2296 -0.2939 -2.5710
 6682SOL     OW31507   3.870   1.202   9.833 -1.0196 -0.2359 -0.3998
 6682SOL    HW131508   3.922   1.150   9.894 -1.9173  0.7550  1.2051
 6682SOL    HW231509   3.786   1.192   9.877 -0.1527 -2.0140  0.8595
 6683SOL     OW31510   2.836   3.791  16.980 -0.8155  0.1925 -0.4575
 6683SOL    HW131511   2.817   3.871  16.932 -1.3658  1.1287  1.3093
 6683SOL    HW231512   2.798   3.817  17.064  0.3505 -1.2847  0.5369
 6684SOL     OW31513   3.435   2.741   7.827 -0.8679  0.2059  0.4990
 6684SOL    HW131514   3.436   2.725   7.733  0.3249 -0.1586  0.5831
 6684SOL    HW231515   3.372   2.811   7.844 -1.7155 -1.0731  2.7550
 6685SOL     OW31516   3.138   1.821  10.240 -0.2592 -0.2203 -0.3057
 6685SOL    HW131517   3.103   1.748  10.189 -2.2823  0.9870 -0.6492
 6685SOL    HW231518   3.095   1.893  10.193 -0.4192  0.4758  0.9324
 6686SOL     OW31519   2.911   4.313  12.486  0.3529  0.1323 -0.2386
 6686SOL    HW131520   2.975   4.381  12.505  0.6278 -0.7503  2.0653
 6686SOL    HW231521   2.860   4.343  12.563 -0.9666  0.2951 -1.1701
 6687SOL     OW31522   3.660   1.360  13.668  0.2255  0.0077  0.6956
 6687SOL    HW131523   3.694   1.369  13.579 -1.1061 -1.9112 -0.0046
 6687SOL    HW231524   3.740   1.343  13.719  1.2787 -0.0439 -0.9515
 6688SOL     OW31525   2.095   0.658   4.561 -0.3319  0.3077 -0.0521
 6688SOL    HW131526   2.077   0.630   4.650 -1.5038  0.4308 -0.2589
 6688SOL    HW231527   2.125   0.745   4.589 -2.0692  1.1165 -0.6868
 6689SOL     OW31528   0.790   4.270  17.293 -0.3891  0.0491 -0.0502
 6689SOL    HW131529   0.846   4.316  17.231 -0.3037  0.8905  0.6480
 6689SOL    HW231530   0.846   4.234  17.361  0.8865  2.6648  0.2646
 6690SOL     OW31531   4.646   1.349   3.673 -0.1568 -0.2304 -0.0190
 6690SOL    HW131532   4.658   1.422   3.612  0.6113  0.4928  0.9922
 6690SOL    HW231533   4.645   1.389   3.759  1.8179 -1.4240  0.5657
 6691SOL     OW31534   3.370   4.616   5.779  0.1356 -0.0556 -0.0047
 6691SOL    HW131535   3.450   4.591   5.825 -0.6623 -1.7500  0.4618
 6691SOL    HW231536   3.390   4.637   5.688  1.6907 -1.2622  0.0535
 6692SOL     OW31537   0.312   3.260   3.169 -0.1941  0.4143 -0.0864
 6692SOL    HW131538   0.269   3.235   3.087  2.1761 -0.8633 -0.9663
 6692SOL    HW231539   0.263   3.341   3.183 -2.3932 -0.6169 -1.8841
 6693SOL     OW31540   1.435   3.557  14.545 -0.0539  0.6928 -0.1588
 6693SOL    HW131541   1.494   3.632  14.551  1.0147 -0.1816  0.3717
 6693SOL    HW231542   1.495   3.494  14.587 -0.1970  0.9979  0.5016
 6694SOL     OW31543   3.694   3.592   7.961 -0.1022 -0.9972  0.1770
 6694SOL    HW131544   3.779   3.631   7.945 -0.6493 -0.6634 -1.8965
 6694SOL    HW231545   3.715   3.541   8.039 -2.3211 -0.6344  1.0297
 6695SOL     OW31546   4.090   2.285   3.775 -0.3222  0.0742 -0.6410
 6695SOL    HW131547   4.061   2.203   3.737  1.7486 -0.4066 -1.2022
 6695SOL    HW231548   4.088   2.261   3.867  0.0870 -0.4988 -0.7827
 6696SOL     OW31549   0.354   0.273   2.310  0.0978 -0.0047 -0.2954
 6696SOL    HW131550   0.271   0.246   2.270 -0.3836 -0.0780  0.7571
 6696SOL    HW231551   0.355   0.221   2.390 -1.7479 -0.1812 -0.3756
 6697SOL     OW31552   4.138   1.615   6.957 -0.3149  0.1671  0.0282
 6697SOL    HW131553   4.058   1.576   6.921 -0.8237  0.6011  0.6753
 6697SOL    HW231554   4.112   1.690   7.011  1.3435  0.9162 -0.2149
 6698SOL     OW31555   4.364   4.421  16.755 -0.4914 -0.3682  0.0196
 6698SOL    HW131556   4.372   4.515  16.738 -0.0256 -0.4735 -0.3545
 6698SOL    HW231557   4.358   4.425  16.851 -2.0463  0.4687 -0.1280
 6699SOL     OW31558   0.208   4.006   5.123 -0.4475  0.6983 -0.3576
 6699SOL    HW131559   0.141   3.958   5.172 -0.6102 -1.1915 -2.3922
 6699SOL    HW231560   0.279   3.943   5.134 -1.8465 -1.0483 -1.2991
 6700SOL     OW31561   4.572   3.438  13.045  0.0954  0.0209 -0.0648
 6700SOL    HW131562   4.494   3.386  13.030  0.0159  1.6968 -5.1929
 6700SOL    HW231563   4.580   3.438  13.141  1.5870 -0.2869 -0.1887
 6701SOL     OW31564   0.553   4.567   5.085 -0.2558 -0.0081  0.4478
 6701SOL    HW131565   0.586   4.517   5.159  1.0193 -0.1779 -0.2307
 6701SOL    HW231566   0.517   4.492   5.038  1.3741 -0.7852  0.4536
 6702SOL     OW31567   1.913   0.229   1.743 -0.1658 -0.2946  0.0255
 6702SOL    HW131568   1.969   0.305   1.733  0.2752 -1.0138 -2.9394
 6702SOL    HW231569   1.833   0.272   1.713  1.6978  3.8438  0.9883
 6703SOL     OW31570   1.732   4.654   5.274  0.3572 -0.5098 -0.0471
 6703SOL    HW131571   1.741   4.652   5.370 -0.0464  0.8635  0.0173
 6703SOL    HW231572   1.718   0.026   5.257 -1.3888 -0.5353  1.2084
 6704SOL     OW31573   4.488   2.979   5.903 -0.6295  0.0514 -0.3722
 6704SOL    HW131574   4.443   3.063   5.893 -0.7687  0.1316  0.8515
 6704SOL    HW231575   4.542   2.985   5.982 -2.2603 -0.2778  0.7868
 6705SOL     OW31576   3.406   2.121  13.701  0.5383  0.4222 -0.3812
 6705SOL    HW131577   3.485   2.146  13.749  2.8899 -3.2629 -2.3086
 6705SOL    HW231578   3.343   2.188  13.726  0.4479  0.3451 -0.4019
 6706SOL     OW31579   1.086   2.961   5.324 -0.1191 -0.1049 -0.1715
 6706SOL    HW131580   1.135   2.948   5.243  0.7461  2.1231 -0.0170
 6706SOL    HW231581   1.112   2.890   5.382 -2.4002  0.0804  1.0871
 6707SOL     OW31582   0.448   1.887  10.077  0.1661 -0.7350  0.0820
 6707SOL    HW131583   0.389   1.812  10.088 -0.9195  0.3169  1.5679
 6707SOL    HW231584   0.520   1.848  10.029  0.0032 -1.7234  0.6432
 6708SOL     OW31585   1.756   3.519   5.242 -0.5240 -0.1916  0.0156
 6708SOL    HW131586   1.679   3.502   5.188 -1.0272  0.6669  0.4663
 6708SOL    HW231587   1.776   3.609   5.220  0.4304 -0.1103  1.1880
 6709SOL     OW31588   3.773   0.277   4.728  0.4175 -0.2072  0.0494
 6709SOL    HW131589   3.717   0.201   4.711 -0.6499  0.6356 -0.1744
 6709SOL    HW231590   3.711   0.323   4.785  1.5288  0.6565  0.5585
 6710SOL     OW31591   3.165   3.376   3.156  0.2433 -0.3680  0.1059
 6710SOL    HW131592   3.120   3.412   3.079  2.9238  0.6522 -0.9720
 6710SOL    HW231593   3.224   3.319   3.107 -0.4261 -1.0186  0.0555
 6711SOL     OW31594   4.687   0.532   4.790 -0.3319 -0.5198 -0.1354
 6711SOL    HW131595   0.007   0.452   4.822  0.1764 -0.5347 -0.8272
 6711SOL    HW231596   4.611   0.546   4.846  0.0561 -0.5251  0.3857
 6712SOL     OW31597   0.979   4.116   7.535  0.3005  0.1834 -0.8160
 6712SOL    HW131598   1.048   4.183   7.536  1.2743 -0.8323  0.1437
 6712SOL    HW231599   0.976   4.092   7.443 -0.0812  1.5654 -1.1687
 6713SOL     OW31600   3.538   3.177   8.128  0.2227 -0.1966 -0.1409
 6713SOL    HW131601   3.449   3.209   8.115 -0.7608 -1.7145  2.7412
 6713SOL    HW231602   3.532   3.134   8.213 -1.3388  4.3554  2.0659
 6714SOL     OW31603   4.585   3.882  16.748  0.3767 -0.1878  0.0780
 6714SOL    HW131604   4.657   3.946  16.742 -0.2641  0.5375  0.0990
 6714SOL    HW231605   4.519   3.944  16.778 -0.7674 -0.8566 -1.0823
 6715SOL     OW31606   2.083   1.221   2.620  0.0652 -0.2880 -0.0176
 6715SOL    HW131607   2.096   1.311   2.650  2.8608 -0.5784 -0.3508
 6715SOL    HW231608   2.113   1.217   2.529  0.4527 -0.2959  0.1113
 6716SOL     OW31609   4.433   1.241  15.196 -0.3776  0.4735  0.0614
 6716SOL    HW131610   4.444   1.322  15.247  0.3017 -0.2251  1.0344
 6716SOL    HW231611   4.481   1.185  15.257  1.9682  1.7341 -0.6271
 6717SOL     OW31612   1.915   1.008   5.901 -0.2676 -0.5519 -0.5268
 6717SOL    HW131613   1.991   1.064   5.918 -2.2966  2.2573 -0.6677
 6717SOL    HW231614   1.843   1.068   5.880 -0.9788 -1.4279 -0.6014
 6718SOL     OW31615   1.606   0.622  12.195 -0.6312  0.8111 -0.1564
 6718SOL    HW131616   1.599   0.658  12.106  1.3841 -0.3225 -0.7615
 6718SOL    HW231617   1.539   0.673  12.240 -1.2067  0.3859 -0.5292
 6719SOL     OW31618   0.406   4.042   3.570  0.5241  0.5421  0.7901
 6719SOL    HW131619   0.405   4.095   3.491 -0.3670 -1.4927 -0.5443
 6719SOL    HW231620   0.315   4.013   3.578  0.7712 -0.2989  0.5622
 6720SOL     OW31621   3.544   4.623   2.344  0.6564  0.1129 -0.1831
 6720SOL    HW131622   3.559   4.609   2.251 -2.4635  0.2178 -0.6947
 6720SOL    HW231623   3.618   4.584   2.391 -0.9552 -0.1044  2.1582
 6721SOL     OW31624   3.404   0.369   8.758 -0.2035 -0.7067 -0.8960
 6721SOL    HW131625   3.310   0.357   8.776 -0.4762  0.5921 -1.4558
 6721SOL    HW231626   3.421   0.275   8.751  3.4349 -0.0730 -0.0950
 6722SOL     OW31627   0.411   1.923   4.831 -0.2271 -0.1830  0.3262
 6722SOL    HW131628   0.469   1.931   4.906 -0.4692  0.1942  0.4736
 6722SOL    HW231629   0.340   1.975   4.868  1.3282  0.4516  2.4267
 6723SOL     OW31630   0.985   1.121   8.361 -0.1791  0.0832  0.0622
 6723SOL    HW131631   1.080   1.111   8.357  0.0316  2.0090  0.6325
 6723SOL    HW231632   0.981   1.209   8.396  3.0882 -0.3309  1.4848
 6724SOL     OW31633   4.674   2.133  16.653 -0.3320 -0.3303 -0.0896
 6724SOL    HW131634   4.584   2.165  16.659 -0.5296 -0.9847  0.4251
 6724SOL    HW231635   4.682   2.090  16.738  0.0806 -1.2374 -0.5819
 6725SOL     OW31636   4.340   3.932  17.493  0.3977 -0.1565  0.3825
 6725SOL    HW131637   4.369   4.007  17.440  0.5155 -0.6573 -0.2699
 6725SOL    HW231638   4.389   3.856  17.462  0.6042 -1.4867  3.9671
 6726SOL     OW31639   3.397   4.639   4.697 -0.6692 -0.0031 -0.2144
 6726SOL    HW131640   3.474   4.610   4.648  0.4005  1.6274  0.5151
 6726SOL    HW231641   3.332   4.675   4.637 -0.6723  0.6631  0.1967
 6727SOL     OW31642   3.913   0.263  14.296  0.2834  0.3852  0.2963
 6727SOL    HW131643   3.920   0.188  14.355 -0.7212 -0.7157 -0.9655
 6727SOL    HW231644   3.820   0.268  14.272  0.8338 -0.6825 -2.0236
 6728SOL     OW31645   3.010   0.925   5.722 -0.1307 -0.1423  0.3276
 6728SOL    HW131646   3.019   0.926   5.817  1.8732 -0.4722  0.1348
 6728SOL    HW231647   3.051   0.842   5.698  0.2758 -0.3099  1.6191
 6729SOL     OW31648   4.250   2.944  12.255 -0.4773  0.2312 -0.2851
 6729SOL    HW131649   4.234   2.979  12.167 -0.0749 -0.8342 -0.7758
 6729SOL    HW231650   4.338   2.909  12.242 -0.4737 -0.0807  0.5847
 6730SOL     OW31651   2.042   4.424   5.008 -0.4546 -0.1660  0.2298
 6730SOL    HW131652   2.005   4.472   4.933  2.0916 -1.2589 -1.7480
 6730SOL    HW231653   1.993   4.461   5.081 -0.5316 -1.1726  0.6888
 6731SOL     OW31654   0.463   2.317   8.576 -0.1278  0.2631 -0.1003
 6731SOL    HW131655   0.518   2.297   8.500  0.0023 -1.9510  0.5695
 6731SOL    HW231656   0.494   2.241   8.626  0.0902  0.4601  0.0650
 6732SOL     OW31657   0.457   0.050  14.511  0.1885  0.2293 -0.0740
 6732SOL    HW131658   0.482   0.027  14.601  0.2367 -2.8952 -0.8880
 6732SOL    HW231659   0.499   4.709  14.453 -1.2999  1.0154 -2.0013
 6733SOL     OW31660   2.174   0.969  10.720 -0.1802 -0.0373  0.2841
 6733SOL    HW131661   2.083   0.944  10.736 -0.7449  1.3116 -0.8349
 6733SOL    HW231662   2.170   1.055  10.762  1.5962 -0.1387  0.6774
 6734SOL     OW31663   0.573   0.795   7.918  0.6007 -0.7215 -0.3817
 6734SOL    HW131664   0.568   0.834   8.006  0.7940  0.1271 -0.7438
 6734SOL    HW231665   0.646   0.735   7.932  2.2799  1.1932 -0.8585
 6735SOL     OW31666   0.309   2.275  12.762  0.0272 -0.0427 -0.3099
 6735SOL    HW131667   0.213   2.271  12.756  0.2751 -2.5063 -2.3963
 6735SOL    HW231668   0.324   2.342  12.696  1.4713 -1.2383 -1.1985
 6736SOL     OW31669   0.388   2.701   6.408  0.2195 -0.1136 -0.1722
 6736SOL    HW131670   0.387   2.610   6.379 -2.6568 -0.5635  1.3997
 6736SOL    HW231671   0.448   2.744   6.347 -0.3137  1.2671  0.2825
 6737SOL     OW31672   0.980   0.325   3.321 -0.1501 -0.6475  0.2530
 6737SOL    HW131673   1.014   0.318   3.411  0.2333 -2.2993 -0.0265
 6737SOL    HW231674   0.912   0.393   3.325  1.3989  1.0005 -1.1800
 6738SOL     OW31675   0.577   3.091   8.798 -0.2837  0.5975 -0.0230
 6738SOL    HW131676   0.668   3.061   8.797 -0.4090  0.3178 -1.9002
 6738SOL    HW231677   0.574   3.187   8.793 -2.0747  0.5610  0.4057
 6739SOL     OW31678   0.121   3.502  13.805  0.4304  0.7007  0.4019
 6739SOL    HW131679   0.047   3.454  13.840 -0.5238  1.2307 -0.8757
 6739SOL    HW231680   0.080   3.582  13.771  0.3488  1.4116  2.1744
 6740SOL     OW31681   3.855   3.767  16.475  0.1554 -0.3574 -0.0617
 6740SOL    HW131682   3.949   3.769  16.454  0.2921 -2.4712  0.3797
 6740SOL    HW231683   3.864   3.713  16.553  0.8718  0.6652  0.5645
 6741SOL     OW31684   1.408   3.013   7.452  0.0430  0.1723  0.4330
 6741SOL    HW131685   1.383   2.923   7.472 -1.8911  0.6680  0.2400
 6741SOL    HW231686   1.503   3.014   7.465 -0.0248 -1.0875  1.0112
 6742SOL     OW31687   0.314   0.875  15.707  0.1994 -0.0530  0.6439
 6742SOL    HW131688   0.407   0.889  15.693  0.1772  0.7942  1.3533
 6742SOL    HW231689   0.275   0.960  15.684  0.0597 -0.6911 -1.4322
 6743SOL     OW31690   2.624   0.896   2.888 -0.7647  0.6999  0.2891
 6743SOL    HW131691   2.539   0.937   2.870 -1.7621 -1.3336  0.4119
 6743SOL    HW231692   2.616   0.814   2.840 -0.3838  0.3721  0.7840
 6744SOL     OW31693   2.006   2.348  17.658  0.0168 -0.5851  0.0075
 6744SOL    HW131694   1.998   2.406  17.582 -0.9763 -0.2950  0.3365
 6744SOL    HW231695   2.023   2.419   0.033  0.9507  0.5012 -1.4801
 6745SOL     OW31696   0.389   3.218   7.790  0.7809 -0.2385  0.0399
 6745SOL    HW131697   0.383   3.130   7.754  1.1914  0.2124 -1.1248
 6745SOL    HW231698   0.481   3.217   7.817  0.6894 -0.1047  0.3563
 6746SOL     OW31699   0.049   1.336  10.617 -0.2951 -0.6417  0.1129
 6746SOL    HW131700   4.679   1.355  10.638  0.2135  0.1487  1.6413
 6746SOL    HW231701   0.072   1.275  10.687 -0.7168  0.7554  1.4710
 6747SOL     OW31702   3.904   0.535   8.219  0.3772  0.6717 -0.4347
 6747SOL    HW131703   3.914   0.460   8.160  0.9185  0.4557 -0.0650
 6747SOL    HW231704   3.808   0.538   8.214  0.4129  0.8905 -1.0642
 6748SOL     OW31705   3.267   0.932  16.222  0.4490  0.4297 -0.3237
 6748SOL    HW131706   3.203   1.003  16.227 -1.3004 -1.3045  1.5398
 6748SOL    HW231707   3.327   0.950  16.294 -2.1679  1.6453  1.5187
 6749SOL     OW31708   4.287   4.531  13.709  0.3234  0.0231 -0.0259
 6749SOL    HW131709   4.347   4.513  13.636 -0.2857 -3.9118  0.4448
 6749SOL    HW231710   4.211   4.564  13.661  1.4710  0.7080 -1.3939
 6750SOL     OW31711   4.030   2.321   1.633  0.5329 -0.2737 -0.0140
 6750SOL    HW131712   4.033   2.225   1.643  0.5105 -0.2072  0.6596
 6750SOL    HW231713   4.080   2.320   1.552 -1.9847 -2.1105 -1.5507
 6751SOL     OW31714   0.751   0.384   6.072  0.0765  0.2504  0.3605
 6751SOL    HW131715   0.727   0.309   6.128 -1.2274 -0.4620 -1.1327
 6751SOL    HW231716   0.842   0.399   6.098  0.3824 -0.7443 -0.1280
 6752SOL     OW31717   4.402   2.572  12.356  0.0326  0.4093  0.3327
 6752SOL    HW131718   4.473   2.636  12.346 -0.5976  1.0366 -0.0561
 6752SOL    HW231719   4.386   2.572  12.450  0.4924 -0.3751  0.4156
 6753SOL     OW31720   4.284   2.460   5.762  0.8775 -0.3840  0.1560
 6753SOL    HW131721   4.221   2.388   5.766 -0.8166  1.1337  0.9569
 6753SOL    HW231722   4.232   2.540   5.769  1.5082  0.2073 -2.1057
 6754SOL     OW31723   0.786   3.551  12.789 -0.8588  0.0959  0.0225
 6754SOL    HW131724   0.855   3.576  12.727  0.6002 -0.5303  1.3817
 6754SOL    HW231725   0.778   3.622  12.853 -1.0729 -0.0165  0.1190
 6755SOL     OW31726   0.112   2.403  15.163  0.3379  0.3312  0.1198
 6755SOL    HW131727   0.189   2.359  15.198  0.8743  0.3843 -0.9921
 6755SOL    HW231728   0.145   2.456  15.091 -0.7878 -1.0831 -1.4374
 6756SOL     OW31729   0.784   2.111   8.386  0.3736 -1.0418 -0.3935
 6756SOL    HW131730   0.860   2.156   8.348  0.6070 -0.4084  0.7991
 6756SOL    HW231731   0.709   2.162   8.357 -0.3424 -2.1284 -0.4389
 6757SOL     OW31732   0.453   3.393   8.823  0.2195  0.5740 -0.2962
 6757SOL    HW131733   0.469   3.458   8.892  2.5519 -0.7853  0.4291
 6757SOL    HW231734   0.404   3.329   8.875  0.9778 -0.7676 -1.2384
 6758SOL     OW31735   2.552   4.599   4.867 -0.3841 -0.2687 -0.3302
 6758SOL    HW131736   2.568   4.514   4.825 -1.2645 -1.2563  1.3692
 6758SOL    HW231737   2.475   4.575   4.917 -0.7854  0.6859 -0.4936
 6759SOL     OW31738   4.371   2.822   8.380  0.3073  0.3870  0.0776
 6759SOL    HW131739   4.305   2.890   8.391  0.7718  1.0110 -1.0284
 6759SOL    HW231740   4.317   2.744   8.390  0.6628 -0.1373 -2.1155
 6760SOL     OW31741   0.344   2.522   1.441  0.9693  0.2448 -0.2468
 6760SOL    HW131742   0.391   2.547   1.520 -0.0125  0.7501  0.1733
 6760SOL    HW231743   0.384   2.436   1.424 -0.1580  0.0106 -1.7861
 6761SOL     OW31744   1.203   2.409   8.271 -0.3170  0.1110 -0.2280
 6761SOL    HW131745   1.162   2.467   8.207  1.0275 -0.7562 -1.8671
 6761SOL    HW231746   1.234   2.475   8.334 -1.3750  1.4969 -1.1789
 6762SOL     OW31747   4.381   3.895  16.503 -0.1277  0.3888  0.2140
 6762SOL    HW131748   4.367   3.968  16.443 -2.5105 -0.1074  0.1775
 6762SOL    HW231749   4.465   3.915  16.545  0.1825  1.6202 -0.9883
 6763SOL     OW31750   4.415   3.841   9.092  0.4523  0.2795 -0.1511
 6763SOL    HW131751   4.450   3.762   9.134 -0.4059  0.2079  0.4217
 6763SOL    HW231752   4.409   3.900   9.167  2.4930  3.0294 -2.1389
 6764SOL     OW31753   1.338   0.235  10.682  0.0774 -0.1086  0.0859
 6764SOL    HW131754   1.287   0.316  10.682  0.6295  0.2095 -2.2553
 6764SOL    HW231755   1.371   0.225  10.771 -0.0785 -0.2320  0.1317
 6765SOL     OW31756   0.501   0.028   3.241  0.9392  0.0835 -0.5202
 6765SOL    HW131757   0.407   0.010   3.254  0.8275 -0.1500 -1.6510
 6765SOL    HW231758   0.527   4.716   3.155 -1.2292  0.3531 -1.2947
 6766SOL     OW31759   2.162   3.514   2.604 -0.6644  0.1111 -0.0448
 6766SOL    HW131760   2.177   3.503   2.698  0.3935  1.0544 -0.1092
 6766SOL    HW231761   2.071   3.544   2.595  0.3819  2.6037 -2.3735
 6767SOL     OW31762   1.867   4.418   6.765  0.2398  1.1269  0.4142
 6767SOL    HW131763   1.877   4.425   6.670 -2.2405 -0.3967  0.0504
 6767SOL    HW231764   1.926   4.343   6.775  0.9768  1.4760 -1.2562
 6768SOL     OW31765   4.109   3.673   0.053 -0.3075 -0.7486 -0.1481
 6768SOL    HW131766   4.042   3.649  17.676 -1.3284  0.3668  0.5109
 6768SOL    HW231767   4.172   3.601   0.046 -1.1662 -1.4057 -1.0492
 6769SOL     OW31768   0.122   1.069   5.668 -0.4116 -0.5698 -0.2428
 6769SOL    HW131769   0.053   1.068   5.735  0.7398 -3.7846  0.8973
 6769SOL    HW231770   0.075   1.141   5.626  0.4322 -0.6977 -1.3979
 6770SOL     OW31771   3.552   0.573  13.347  0.2509  0.4524  0.0301
 6770SOL    HW131772   3.511   0.610  13.268 -0.3842 -0.4791 -0.0776
 6770SOL    HW231773   3.527   0.643  13.406  0.1465 -0.6379  1.2687
 6771SOL     OW31774   0.404   4.676  14.897 -0.1759 -0.3355 -0.1938
 6771SOL    HW131775   0.333   0.001  14.852 -2.3397 -1.4324  2.0596
 6771SOL    HW231776   0.473   4.684  14.831 -1.5543  1.2500 -1.4416
 6772SOL     OW31777   1.439   3.182   1.206  0.2648 -0.1614  0.0111
 6772SOL    HW131778   1.397   3.109   1.160 -1.1494 -0.0355  1.1017
 6772SOL    HW231779   1.361   3.236   1.216  1.3740  1.6180 -1.0109
 6773SOL     OW31780   3.268   0.350   4.193  0.8061  0.4119 -0.1748
 6773SOL    HW131781   3.298   0.277   4.139 -1.3873 -1.7165  1.4718
 6773SOL    HW231782   3.237   0.299   4.268  1.2654 -2.3054 -1.8179
 6774SOL     OW31783   1.752   2.593   7.758  0.0980  0.0263  0.5969
 6774SOL    HW131784   1.725   2.670   7.708  0.4616  0.9933  1.9022
 6774SOL    HW231785   1.684   2.595   7.825 -3.3783 -1.1729 -2.8840
 6775SOL     OW31786   2.438   3.381   6.629  0.2939  0.1992 -0.7663
 6775SOL    HW131787   2.506   3.382   6.561  0.6603  2.2965 -0.3849
 6775SOL    HW231788   2.487   3.414   6.704  0.0067  1.5901 -1.1937
 6776SOL     OW31789   0.166   4.237   3.714  0.1852 -0.6124 -0.2245
 6776SOL    HW131790   0.222   4.299   3.762 -1.1355  1.3567 -1.2430
 6776SOL    HW231791   0.132   4.292   3.644  4.0660 -0.0732 -1.7080
 6777SOL     OW31792   4.212   2.550  12.147 -0.2163 -0.7371 -0.1420
 6777SOL    HW131793   4.223   2.455  12.142  0.3597 -0.6126 -1.2908
 6777SOL    HW231794   4.277   2.571  12.214 -1.7277  0.2859  0.9794
 6778SOL     OW31795   3.318   1.346   6.194 -0.0179  0.3863 -0.5762
 6778SOL    HW131796   3.366   1.330   6.275  0.1284  2.3826 -0.2846
 6778SOL    HW231797   3.281   1.432   6.214 -0.4128  0.1727 -0.3878
 6779SOL     OW31798   4.060   1.478   7.625  0.1889  0.2167  0.2652
 6779SOL    HW131799   4.046   1.415   7.696  0.9335 -1.1219 -0.7588
 6779SOL    HW231800   4.128   1.429   7.579  0.1771 -0.0387  0.5209
 6780SOL     OW31801   1.459   1.921   5.439  0.2657 -0.6646  0.0093
 6780SOL    HW131802   1.489   1.862   5.370 -0.5416 -1.4367  0.3109
 6780SOL    HW231803   1.449   1.852   5.505 -0.5887 -1.0817 -0.5581
 6781SOL     OW31804   2.344   0.904   5.685 -0.0540 -0.9863 -0.3119
 6781SOL    HW131805   2.344   0.812   5.711  1.3307 -1.3221 -1.5114
 6781SOL    HW231806   2.261   0.935   5.722  0.7227  0.7576 -0.0605
 6782SOL     OW31807   3.010   1.593  15.206  0.0021 -0.7653 -0.0130
 6782SOL    HW131808   2.961   1.511  15.194  0.0195 -0.8548  0.5490
 6782SOL    HW231809   3.088   1.565  15.254  1.9014  1.6881 -1.6835
 6783SOL     OW31810   0.410   0.593  14.225 -0.0206  0.1252 -0.3005
 6783SOL    HW131811   0.412   0.607  14.130  0.4094 -3.0469 -0.7776
 6783SOL    HW231812   0.315   0.585  14.233 -0.2649  3.6800  0.2669
 6784SOL     OW31813   0.338   0.567  16.720  0.3353 -0.2706 -0.2498
 6784SOL    HW131814   0.381   0.570  16.635 -2.1193  0.3423 -1.4889
 6784SOL    HW231815   0.287   0.648  16.724 -0.5967 -0.9212  1.1416
 6785SOL     OW31816   0.707   2.805   3.636  0.1570 -0.4989 -0.1792
 6785SOL    HW131817   0.668   2.811   3.723  1.7673  3.6962  0.2382
 6785SOL    HW231818   0.765   2.880   3.648 -0.3141 -0.4216  1.5816
 6786SOL     OW31819   1.171   0.071  13.276 -0.1906  0.8934  0.5197
 6786SOL    HW131820   1.163   0.155  13.232 -1.4268  0.6896  0.3684
 6786SOL    HW231821   1.081   0.039  13.268  1.2806 -2.7708 -1.7258
 6787SOL     OW31822   1.010   1.424   4.030 -0.4187 -0.0304 -0.1302
 6787SOL    HW131823   1.000   1.331   4.054 -0.0524  0.0073  0.1637
 6787SOL    HW231824   1.088   1.447   4.080 -1.2067  2.0651  0.1570
 6788SOL     OW31825   4.482   2.992   4.925 -0.0483  0.0809  0.2922
 6788SOL    HW131826   4.517   3.069   4.881 -1.5895  0.4129 -0.3567
 6788SOL    HW231827   4.550   2.978   4.991  1.3226 -0.0430 -1.1425
 6789SOL     OW31828   2.532   4.422  15.482 -0.0575 -0.1068  0.1724
 6789SOL    HW131829   2.622   4.389  15.492  0.7624  2.0761 -0.0184
 6789SOL    HW231830   2.531   4.508  15.523  0.2508 -0.2953  0.5803
 6790SOL     OW31831   3.866   3.615  10.156  0.1238 -0.0801 -0.7619
 6790SOL    HW131832   3.783   3.632  10.201  1.7225  0.0577  2.0903
 6790SOL    HW231833   3.852   3.560  10.079  2.7919 -0.6149 -0.8692
 6791SOL     OW31834   3.203   4.435  10.558  0.5151 -0.1889 -0.1371
 6791SOL    HW131835   3.271   4.484  10.511 -0.9025 -0.0437 -2.0251
 6791SOL    HW231836   3.134   4.436  10.492  0.5565 -0.4520 -0.1818
 6792SOL     OW31837   3.653   3.587  13.462  0.2302  0.3303 -0.0242
 6792SOL    HW131838   3.661   3.614  13.554 -1.2035  0.8617 -0.0524
 6792SOL    HW231839   3.584   3.642  13.424 -0.8443 -1.4436 -0.6802
 6793SOL     OW31840   4.082   0.237   6.096  0.0938 -0.2643 -0.0821
 6793SOL    HW131841   4.115   0.150   6.074  2.8087  1.0385 -1.0913
 6793SOL    HW231842   4.036   0.226   6.179 -0.6075 -3.5272 -0.9146
 6794SOL     OW31843   3.265   3.193  14.077 -0.8516 -0.1316  0.3024
 6794SOL    HW131844   3.250   3.232  14.163 -1.7647 -1.0866  0.5789
 6794SOL    HW231845   3.344   3.239  14.049 -0.7569 -0.7125 -0.3719
 6795SOL     OW31846   3.131   4.279   1.671 -0.0819  0.1617 -0.0652
 6795SOL    HW131847   3.166   4.210   1.615  1.2531  0.7290  0.0444
 6795SOL    HW231848   3.113   4.343   1.603 -1.8770 -0.3513 -0.0604
 6796SOL     OW31849   0.643   1.498   3.475 -0.3836  0.2514  0.2979
 6796SOL    HW131850   0.727   1.544   3.471 -0.3532  0.3221  1.8342
 6796SOL    HW231851   0.585   1.572   3.462  1.4305  1.8444  1.1916
 6797SOL     OW31852   0.423   3.858   2.469 -0.3394 -0.4202  0.7008
 6797SOL    HW131853   0.472   3.928   2.428 -2.7998  0.3370 -0.9836
 6797SOL    HW231854   0.479   3.833   2.543 -0.7074 -0.1773  1.0670
 6798SOL     OW31855   1.414   0.726   3.188 -0.1079  0.0725  0.0812
 6798SOL    HW131856   1.353   0.660   3.220 -0.1874  1.0152  1.8374
 6798SOL    HW231857   1.418   0.781   3.266 -1.5933  0.0613  0.1655
 6799SOL     OW31858   1.381   3.058   3.245 -0.0786  0.2616  0.2213
 6799SOL    HW131859   1.288   3.071   3.223  0.1772  1.5756 -0.1004
 6799SOL    HW231860   1.418   3.141   3.214 -0.2021  0.9748  2.0174
 6800SOL     OW31861   0.427   1.301   6.168  0.7500 -0.8150 -0.0421
 6800SOL    HW131862   0.500   1.344   6.213  0.0446 -1.5926  1.8328
 6800SOL    HW231863   0.471   1.225   6.129  1.2616 -1.0901  1.0863
 6801SOL     OW31864   0.118   1.670   7.342  0.0792 -0.0547 -0.0409
 6801SOL    HW131865   0.102   1.649   7.434 -1.4148 -0.0184 -0.3033
 6801SOL    HW231866   0.043   1.624   7.304 -1.8835  2.7707  0.4288
 6802SOL     OW31867   2.014   0.850  11.196 -0.0598 -0.1976 -0.1180
 6802SOL    HW131868   2.057   0.919  11.146  0.0070  0.4152  0.7884
 6802SOL    HW231869   1.923   0.869  11.176 -0.3713  0.6956  2.1689
 6803SOL     OW31870   1.346   1.069   1.619  0.5818 -0.0518 -0.3705
 6803SOL    HW131871   1.268   1.090   1.670 -0.3260 -0.3241 -1.6551
 6803SOL    HW231872   1.410   1.068   1.690  0.8476  1.5142 -0.5847
 6804SOL     OW31873   3.197   0.504   4.930 -0.2558 -0.1091  0.0389
 6804SOL    HW131874   3.184   0.596   4.904 -0.2928  0.3586  1.7299
 6804SOL    HW231875   3.134   0.470   4.867  0.6339 -1.2016 -0.2532
 6805SOL     OW31876   3.679   1.877   0.491  0.2989  0.0246  0.0765
 6805SOL    HW131877   3.621   1.829   0.549 -2.4983  0.0672 -2.6787
 6805SOL    HW231878   3.653   1.957   0.537  0.1188 -0.2755  0.4911
 6806SOL     OW31879   2.593   2.015   6.085  0.0479  0.4856 -0.1562
 6806SOL    HW131880   2.624   2.087   6.140 -0.9301  0.7487  0.0461
 6806SOL    HW231881   2.600   2.061   6.001 -0.4088  0.1538 -0.3794
 6807SOL     OW31882   3.442   4.388   5.187  0.1797  0.5026  0.6431
 6807SOL    HW131883   3.354   4.402   5.224 -0.5381 -4.1442  0.6880
 6807SOL    HW231884   3.434   4.411   5.094  1.0021  0.0623  0.4707
 6808SOL     OW31885   1.485   0.078   9.147  0.2677 -0.0023  0.0919
 6808SOL    HW131886   1.437   0.150   9.106  0.3102  0.5678  1.0591
 6808SOL    HW231887   1.550   0.069   9.077  0.5423 -1.0896  0.4854
 6809SOL     OW31888   3.256   4.070   1.549  0.0715  0.0316  0.2455
 6809SOL    HW131889   3.333   4.027   1.587  2.3738  2.8439 -1.2539
 6809SOL    HW231890   3.244   4.019   1.469 -0.5224 -0.0112  0.3643
 6810SOL     OW31891   1.896   2.219   1.576  0.2118 -0.4967 -0.3608
 6810SOL    HW131892   1.810   2.181   1.594 -0.4563  1.7370  1.1429
 6810SOL    HW231893   1.953   2.156   1.620 -0.2271 -0.0702  0.8181
 6811SOL     OW31894   0.961   1.601   5.188 -0.2873  0.2541  0.0126
 6811SOL    HW131895   0.918   1.523   5.221  0.8443  0.0037  0.8862
 6811SOL    HW231896   0.995   1.639   5.269 -0.9072 -0.5534  0.6488
 6812SOL     OW31897   1.170   2.697   1.813 -0.2688 -0.2378  0.7224
 6812SOL    HW131898   1.188   2.616   1.859  0.6438 -1.4942 -1.8303
 6812SOL    HW231899   1.155   2.752   1.890  1.3506  0.0537  0.8178
 6813SOL     OW31900   2.191   3.939   1.131  0.4161 -0.0272  0.3549
 6813SOL    HW131901   2.211   3.877   1.061  2.8574 -1.4887  2.3212
 6813SOL    HW231902   2.267   3.997   1.126  1.3312 -1.2315  0.1871
 6814SOL     OW31903   4.013   3.974   8.898 -0.0061  0.1771  0.4828
 6814SOL    HW131904   3.950   3.929   8.953  0.9940  4.3774  5.0828
 6814SOL    HW231905   3.957   4.016   8.832 -1.3544 -0.6604  1.0912
 6815SOL     OW31906   3.522   2.556   3.070 -0.3869 -0.1696  0.3666
 6815SOL    HW131907   3.433   2.570   3.101  0.1479  1.9311  1.0029
 6815SOL    HW231908   3.540   2.476   3.119  1.9998  0.7434  0.9994
 6816SOL     OW31909   1.963   3.573  17.116 -0.3433 -0.1168  0.0107
 6816SOL    HW131910   1.952   3.635  17.188 -0.2877 -0.0880 -0.0056
 6816SOL    HW231911   2.028   3.520  17.161  1.7821  2.6985  0.2426
 6817SOL     OW31912   4.218   4.238   6.629 -0.6147 -0.2347 -0.2170
 6817SOL    HW131913   4.160   4.279   6.565 -1.5784  0.9366  1.4003
 6817SOL    HW231914   4.169   4.264   6.707  0.0826 -0.6004  0.3501
 6818SOL     OW31915   1.607   0.613   2.048 -0.0516 -0.0314 -0.3512
 6818SOL    HW131916   1.680   0.572   2.001  1.6726  1.6981  0.8397
 6818SOL    HW231917   1.616   0.573   2.135 -3.4198  0.9202  0.4070
 6819SOL     OW31918   0.663   2.587   1.221 -0.6706  0.3132 -0.5523
 6819SOL    HW131919   0.644   2.607   1.313 -0.2691 -0.3833 -0.3145
 6819SOL    HW231920   0.630   2.497   1.222 -1.6070  0.6637  0.2383
 6820SOL     OW31921   3.187   1.191  11.325 -0.0454  0.3435  0.1005
 6820SOL    HW131922   3.270   1.239  11.323 -0.2237  0.6592  0.2052
 6820SOL    HW231923   3.146   1.227  11.246  0.7108 -0.7486 -0.7815
 6821SOL     OW31924   4.045   2.048   1.679 -0.0345 -0.0081  0.4390
 6821SOL    HW131925   4.115   1.990   1.647  1.7851  1.1930  2.2753
 6821SOL    HW231926   3.965   2.019   1.634 -0.4692  0.0233  1.1983
 6822SOL     OW31927   1.280   2.162   9.782  0.5613  0.5190  0.3304
 6822SOL    HW131928   1.186   2.172   9.764  0.3495 -0.4790  0.8699
 6822SOL    HW231929   1.294   2.072   9.750  0.9101  1.2864 -1.7146
 6823SOL     OW31930   0.644   4.623  14.782 -0.1068 -0.1170  0.6090
 6823SOL    HW131931   0.675   4.588  14.699 -2.4546 -1.0350  0.1161
 6823SOL    HW231932   0.687   4.707  14.773 -4.8380  2.3010  0.7553
 6824SOL     OW31933   2.403   4.073   2.613 -0.0886 -0.3599  0.2694
 6824SOL    HW131934   2.327   4.115   2.573  0.8272 -0.0294 -1.0994
 6824SOL    HW231935   2.388   4.073   2.708  0.4741 -0.0788  0.3614
 6825SOL     OW31936   0.725   0.413   3.449 -0.6507  0.3409 -0.0613
 6825SOL    HW131937   0.739   0.338   3.507 -1.9568 -0.3018 -0.5739
 6825SOL    HW231938   0.675   0.369   3.379  1.7716  1.1782 -2.3278
 6826SOL     OW31939   0.688   4.294   2.674  0.2913  0.1366 -0.0735
 6826SOL    HW131940   0.738   4.254   2.745  0.3060  1.1622  0.4927
 6826SOL    HW231941   0.723   4.243   2.601  0.8932  0.0564  0.2697
 6827SOL     OW31942   2.139   0.532   2.135 -0.2631  0.2962 -0.6078
 6827SOL    HW131943   2.160   0.587   2.211 -0.5482  2.7673 -2.3369
 6827SOL    HW231944   2.184   0.450   2.154 -0.7802  0.0657 -0.3585
 6828SOL     OW31945   3.518   1.728   0.639 -0.2273  0.0014 -0.3001
 6828SOL    HW131946   3.474   1.738   0.724  1.0428 -0.3012  0.3859
 6828SOL    HW231947   3.503   1.635   0.621  2.8577 -0.5602  0.1298
 6829SOL     OW31948   2.120   4.464  17.658 -0.6706 -0.2288  0.3897
 6829SOL    HW131949   2.078   4.545  17.629  0.3754  0.8106  1.7744
 6829SOL    HW231950   2.160   4.497   0.052  0.7632  0.2155 -0.4895
 6830SOL     OW31951   1.171   0.955   4.825  0.6467 -0.3532  0.2530
 6830SOL    HW131952   1.231   0.909   4.884 -0.7052 -1.3649  0.8538
 6830SOL    HW231953   1.212   1.041   4.814 -0.3449 -0.0145 -0.8836
 6831SOL     OW31954   3.923   4.652   5.706  0.6748 -0.3015 -0.3614
 6831SOL    HW131955   3.927   4.612   5.794  3.0815 -0.0225 -0.3505
 6831SOL    HW231956   3.935   0.023   5.729  3.3298 -0.1998 -2.1714
 6832SOL     OW31957   0.250   2.136   7.331 -0.2650 -0.3146  0.1496
 6832SOL    HW131958   0.164   2.132   7.374 -0.7003 -0.2316 -0.7068
 6832SOL    HW231959   0.248   2.047   7.296  1.7142 -0.9002  1.5563
 6833SOL     OW31960   4.293   4.682  16.725 -0.0388  0.0549 -0.1696
 6833SOL    HW131961   4.285   4.710  16.816 -0.3191 -1.0654  0.1550
 6833SOL    HW231962   4.348   0.025  16.681 -0.2266  1.4340  1.6271
 6834SOL     OW31963   2.348   0.297   4.394  0.2517 -0.1718 -0.4107
 6834SOL    HW131964   2.374   0.387   4.413  2.4669 -0.9932  0.4197
 6834SOL    HW231965   2.292   0.314   4.318  1.2446 -1.4628 -1.4153
 6835SOL     OW31966   0.789   0.431   0.530  0.7578  0.0143 -0.4188
 6835SOL    HW131967   0.717   0.405   0.473 -1.6743  1.4571  2.0278
 6835SOL    HW231968   0.742   0.438   0.612 -0.3982  1.5191 -1.2087
 6836SOL     OW31969   0.542   0.617   8.617 -0.0120 -0.3892  0.2581
 6836SOL    HW131970   0.628   0.640   8.652  0.7420 -0.6820 -1.4463
 6836SOL    HW231971   0.555   0.523   8.608 -2.9274 -0.8420  0.8540
 6837SOL     OW31972   1.382   0.960   1.004  0.0018  0.5860 -0.5689
 6837SOL    HW131973   1.294   0.924   1.008 -1.2708  3.5991 -1.6341
 6837SOL    HW231974   1.413   0.901   0.935 -1.7857 -0.2997 -0.6164
 6838SOL     OW31975   4.412   2.714   7.175  0.4248 -0.3833  0.3247
 6838SOL    HW131976   4.425   2.676   7.262  0.2429 -0.5013  0.3001
 6838SOL    HW231977   4.360   2.792   7.195  2.2976  0.9473  0.0020
 6839SOL     OW31978   3.176   2.954   3.254  0.0442  0.0548 -0.0865
 6839SOL    HW131979   3.085   2.927   3.269  0.6870 -0.9793  1.8354
 6839SOL    HW231980   3.215   2.870   3.277 -0.6168 -0.5269 -1.0573
 6840SOL     OW31981   3.340   3.415   4.151  0.0641  0.0142  0.3325
 6840SOL    HW131982   3.355   3.419   4.056 -1.4911  0.2100  0.1091
 6840SOL    HW231983   3.249   3.445   4.149  0.1890  0.3084 -1.2200
 6841SOL     OW31984   2.821   4.189  16.382 -0.0729 -0.3393  0.5859
 6841SOL    HW131985   2.763   4.169  16.455  0.5335  1.1102  1.4726
 6841SOL    HW231986   2.894   4.144  16.425 -0.5818 -0.4188  1.3634
 6842SOL     OW31987   2.813   2.894  15.310 -0.3438  0.8134  0.5720
 6842SOL    HW131988   2.778   2.954  15.375  0.2117  2.2602 -0.4800
 6842SOL    HW231989   2.884   2.951  15.282 -0.2875  0.0555 -0.8614
 6843SOL     OW31990   1.730   3.919   8.065 -0.0554 -0.3152 -0.2499
 6843SOL    HW131991   1.796   3.919   8.135 -0.5329 -1.9176  0.2014
 6843SOL    HW231992   1.747   3.995   8.010  0.8544 -0.6816 -0.4789
 6844SOL     OW31993   3.348   1.579   1.807 -0.3897  0.1957 -0.2794
 6844SOL    HW131994   3.387   1.616   1.728  0.8155  0.3394  0.3723
 6844SOL    HW231995   3.285   1.649   1.823 -0.7412  0.2189 -1.7773
 6845SOL     OW31996   3.085   1.689   0.851  0.3474  0.4195  0.8637
 6845SOL    HW131997   2.998   1.677   0.814  0.9307 -0.2611 -0.2820
 6845SOL    HW231998   3.058   1.755   0.914  2.1622  1.0905  0.9403
 6846SOL     OW31999   4.002   1.901   3.838 -0.5985  0.1184 -0.5623
 6846SOL    HW132000   4.045   1.934   3.759  0.0326  2.0772  0.6056
 6846SOL    HW232001   4.024   1.808   3.844 -1.5032  0.0376  1.4729
 6847SOL     OW32002   3.765   0.372  13.167 -0.3311 -0.7851  0.1418
 6847SOL    HW132003   3.755   0.279  13.186 -0.4609 -0.6287  0.8513
 6847SOL    HW232004   3.791   0.395  13.257 -2.7794  1.1569  0.3462
 6848SOL     OW32005   3.314   3.674  10.431  0.6422  0.4476  0.2639
 6848SOL    HW132006   3.302   3.579  10.430  0.2575  0.5135 -0.8225
 6848SOL    HW232007   3.368   3.689  10.509 -1.5469 -0.3701  1.9388
 6849SOL     OW32008   0.915   4.527  13.171 -0.2021 -0.4930 -0.0570
 6849SOL    HW132009   0.894   4.476  13.093 -2.2080 -0.7468  0.6376
 6849SOL    HW232010   0.868   4.606  13.142  0.3686 -0.2035 -0.1909
 6850SOL     OW32011   0.541   2.903   2.685 -0.3938 -0.0405 -0.1088
 6850SOL    HW132012   0.455   2.930   2.652 -0.6326 -0.9224 -0.2268
 6850SOL    HW232013   0.532   2.927   2.777  2.5070 -3.4022  1.0800
 6851SOL     OW32014   3.916   3.223  11.943 -0.2803 -0.1629  0.1386
 6851SOL    HW132015   3.958   3.287  12.001  0.9250 -0.7465 -0.0784
 6851SOL    HW232016   3.844   3.277  11.912 -0.1369  0.0531  0.1835
 6852SOL     OW32017   3.963   3.224  15.235  0.1538  0.4308 -0.6526
 6852SOL    HW132018   3.926   3.136  15.244  2.6839 -0.6611 -0.7581
 6852SOL    HW232019   3.976   3.240  15.329 -1.6826  0.5607 -0.4276
 6853SOL     OW32020   0.259   0.108   0.494  0.0558 -0.3098 -0.1189
 6853SOL    HW132021   0.198   0.052   0.543 -1.2084  0.9404 -0.2660
 6853SOL    HW232022   0.261   0.043   0.424  2.9442 -0.3566 -0.0159
 6854SOL     OW32023   2.957   0.547  13.555  0.1799  0.0368 -0.5597
 6854SOL    HW132024   2.955   0.465  13.604 -0.5866  0.0176 -0.6198
 6854SOL    HW232025   2.984   0.515  13.470  1.6975 -1.9315  0.6606
 6855SOL     OW32026   0.188   1.959  17.548  0.0331  0.4640  0.5011
 6855SOL    HW132027   0.231   2.016  17.485 -0.8552  0.9366  0.3219
 6855SOL    HW232028   0.220   1.875  17.515  1.5572  1.5078 -0.6720
 6856SOL     OW32029   0.941   3.974   4.570  0.0077 -0.3026 -0.0458
 6856SOL    HW132030   0.885   3.931   4.504  1.7598 -0.1096 -1.6608
 6856SOL    HW232031   1.023   3.951   4.527 -0.4594 -0.5554 -0.8227
 6857SOL     OW32032   1.557   0.687  16.477 -0.0759  0.0628 -0.2917
 6857SOL    HW132033   1.537   0.596  16.498 -0.4111  0.3488  0.6472
 6857SOL    HW232034   1.596   0.669  16.391  0.3765 -2.6001  0.4530
 6858SOL     OW32035   2.665   1.637   6.000 -0.1582  0.0128 -0.1113
 6858SOL    HW132036   2.600   1.603   5.939  1.0366 -0.2885 -1.2090
 6858SOL    HW232037   2.704   1.560   6.041 -2.5397 -0.9509  0.3367
 6859SOL     OW32038   2.605   0.755  11.843 -0.8034  0.3099  0.5562
 6859SOL    HW132039   2.623   0.819  11.912 -0.1257  2.0368 -1.2598
 6859SOL    HW232040   2.511   0.757  11.824 -0.5156  0.9282 -0.7512
 6860SOL     OW32041   3.208   3.610   4.953 -0.0285  0.4047  0.3450
 6860SOL    HW132042   3.211   3.640   4.862  0.9370 -1.7516 -0.3380
 6860SOL    HW232043   3.289   3.649   4.987  0.7709 -1.7248  0.8822
 6861SOL     OW32044   1.303   1.086   9.725  0.3766  0.6320  0.3948
 6861SOL    HW132045   1.258   1.009   9.760  0.9912 -0.0003 -0.1907
 6861SOL    HW232046   1.304   1.139   9.804 -0.0819  0.2685  0.6428
 6862SOL     OW32047   2.276   1.777  12.825 -0.4698  0.1657 -0.1314
 6862SOL    HW132048   2.320   1.840  12.768  0.7646 -2.3013 -1.9575
 6862SOL    HW232049   2.353   1.729  12.856  0.3445  1.4340 -0.2075
 6863SOL     OW32050   2.542   0.931   6.177  0.6606 -0.0378  0.8599
 6863SOL    HW132051   2.609   0.869   6.149 -0.6537 -1.8017  1.5721
 6863SOL    HW232052   2.546   0.994   6.106 -1.0005 -0.7524  0.1262
 6864SOL     OW32053   0.633   0.246   4.254 -0.3135  0.1468 -0.6252
 6864SOL    HW132054   0.649   0.295   4.335 -0.1812 -1.4943  0.3284
 6864SOL    HW232055   0.543   0.216   4.270 -0.5114  0.2731 -1.5067
 6865SOL     OW32056   2.284   2.967   6.065  0.2597  0.0484 -0.7023
 6865SOL    HW132057   2.288   2.946   5.972 -2.7928  0.1694 -0.8482
 6865SOL    HW232058   2.199   2.933   6.091  0.5377 -0.5441 -0.5724
 6866SOL     OW32059   2.399   1.851  13.855 -0.3324 -0.4409 -0.5273
 6866SOL    HW132060   2.334   1.813  13.914  0.0159 -0.5315 -0.2034
 6866SOL    HW232061   2.340   1.886  13.788 -1.6964 -1.4727  0.1272
 6867SOL     OW32062   3.039   2.180   2.954  0.3034  0.3413  0.0799
 6867SOL    HW132063   3.113   2.237   2.975 -1.0516  1.8868  0.7005
 6867SOL    HW232064   3.031   2.191   2.860  2.2167  0.7854 -0.0165
 6868SOL     OW32065   0.311   0.702  13.967  0.6093  0.2904  0.3802
 6868SOL    HW132066   0.382   0.748  13.923  1.8551 -1.8568  0.1880
 6868SOL    HW232067   0.244   0.693  13.899  0.7616  1.9189  0.0150
 6869SOL     OW32068   3.771   0.372   2.926 -0.1324 -1.0622  0.2517
 6869SOL    HW132069   3.813   0.378   2.840  1.2029 -1.5044  0.8808
 6869SOL    HW232070   3.822   0.310   2.978 -0.0992 -0.8138  0.5135
 6870SOL     OW32071   3.481   0.448   3.287  0.1660 -0.3629  0.2984
 6870SOL    HW132072   3.526   0.473   3.207  0.1717 -2.2606 -0.2989
 6870SOL    HW232073   3.555   0.416   3.339  1.0587 -0.4082 -1.0119
 6871SOL     OW32074   0.071   2.316  12.154 -0.0935  0.5639 -0.1690
 6871SOL    HW132075   0.110   2.344  12.237  0.3948  2.2017 -0.9469
 6871SOL    HW232076   0.007   2.383  12.131  1.6456  1.5743 -2.1287
 6872SOL     OW32077   3.130   4.556   5.492 -0.7268  0.3454 -0.1858
 6872SOL    HW132078   3.095   4.638   5.457  2.4613  1.2903 -1.1438
 6872SOL    HW232079   3.221   4.577   5.510 -0.7596  0.4964 -0.1964
 6873SOL     OW32080   0.233   4.405   3.211 -0.4348 -0.0730  0.7159
 6873SOL    HW132081   0.209   4.363   3.129  1.7463  0.1052 -0.0122
 6873SOL    HW232082   0.326   4.383   3.201 -0.4820  0.2020 -0.2950
 6874SOL     OW32083   0.099   1.334   7.278 -0.4092  0.5610 -0.1500
 6874SOL    HW132084   0.041   1.263   7.251 -0.0739 -0.1185  0.9122
 6874SOL    HW232085   0.029   1.399   7.274 -0.6194  0.3634  0.2822
 6875SOL     OW32086   0.667   3.362   8.660  0.1321 -0.0556 -0.1267
 6875SOL    HW132087   0.600   3.387   8.724 -0.3249  0.7194 -0.9124
 6875SOL    HW232088   0.607   3.330   8.593  1.3507 -2.2493 -0.1705
 6876SOL     OW32089   2.313   0.532  14.627 -0.4919  0.1731 -0.4528
 6876SOL    HW132090   2.352   0.583  14.697 -2.8721  0.9517  0.2941
 6876SOL    HW232091   2.236   0.587  14.615 -3.3328 -3.5306  1.0079
 6877SOL     OW32092   0.311   2.820   4.624  0.0424 -0.1849 -0.0712
 6877SOL    HW132093   0.270   2.906   4.636  1.8164  0.7134 -0.3791
 6877SOL    HW232094   0.262   2.760   4.680  0.5478  0.4776  1.0885
 6878SOL     OW32095   2.011   2.472   1.656 -0.8737 -0.0439 -0.1454
 6878SOL    HW132096   2.006   2.377   1.669  0.9170 -0.0291  0.6098
 6878SOL    HW232097   2.105   2.486   1.662 -1.3663  2.2966  2.3709
 6879SOL     OW32098   1.061   3.250   1.610  0.3994  0.2583 -0.4519
 6879SOL    HW132099   1.111   3.183   1.656 -0.9902 -1.2918 -1.1856
 6879SOL    HW232100   1.110   3.246   1.528 -0.2959 -1.6459 -0.7753
 6880SOL     OW32101   2.218   0.585   3.809 -0.2527 -0.3561  0.1680
 6880SOL    HW132102   2.279   0.636   3.863  0.3346 -1.3899  0.4931
 6880SOL    HW232103   2.259   0.621   3.730  2.8971 -2.0483  1.0052
 6881SOL     OW32104   1.937   0.269   8.479 -0.2766 -0.8191  0.0215
 6881SOL    HW132105   1.968   0.262   8.569 -0.4430 -0.9503  0.0688
 6881SOL    HW232106   1.969   0.358   8.463 -0.4195 -0.7683  0.0142
 6882SOL     OW32107   0.206   1.795   8.553 -0.1027  0.1714 -0.2162
 6882SOL    HW132108   0.181   1.863   8.615 -0.8643  1.2026 -1.6434
 6882SOL    HW232109   0.288   1.838   8.528 -0.7511  0.6720 -1.4391
 6883SOL     OW32110   1.490   2.079   3.580 -0.3855  0.1114  0.7532
 6883SOL    HW132111   1.548   2.155   3.592  0.9982 -0.7820 -0.2292
 6883SOL    HW232112   1.429   2.092   3.652 -0.3638  0.0961  0.7744
 6884SOL     OW32113   0.206   0.648   6.043 -0.1245  0.2463 -0.5086
 6884SOL    HW132114   0.227   0.571   5.991  2.3298 -0.4970  1.5738
 6884SOL    HW232115   0.286   0.649   6.096 -0.6223  2.0668  0.2239
 6885SOL     OW32116   4.489   3.628  12.241 -0.0170  0.3820  0.2017
 6885SOL    HW132117   4.452   3.711  12.270  0.4031  1.2811 -1.8248
 6885SOL    HW232118   4.582   3.634  12.262  0.0556  0.4377 -0.1302
 6886SOL     OW32119   0.468   1.818  15.216  0.2279  0.0082 -0.2222
 6886SOL    HW132120   0.400   1.756  15.242  0.7324  0.2952  1.7756
 6886SOL    HW232121   0.543   1.783  15.264 -0.8871 -2.1157 -0.0192
 6887SOL     OW32122   4.346   0.277  17.022 -0.3029 -0.1721  0.5152
 6887SOL    HW132123   4.376   0.311  17.106 -1.7227  1.9357  0.1636
 6887SOL    HW232124   4.416   0.215  16.999  0.5509  0.4025  1.5707
 6888SOL     OW32125   0.174   0.102   6.724 -0.4518  0.3937  0.2359
 6888SOL    HW132126   0.183   0.006   6.726  2.0569  0.6053 -0.0016
 6888SOL    HW232127   0.252   0.131   6.772 -0.2370  0.7095 -0.3088
 6889SOL     OW32128   2.933   1.977   9.770 -1.0337 -0.0249 -0.1766
 6889SOL    HW132129   3.021   1.994   9.738 -1.0035  0.5069  0.1805
 6889SOL    HW232130   2.914   1.886   9.749  3.1107 -0.5039 -1.8373
 6890SOL     OW32131   2.728   4.409   0.794 -0.0540  0.2644 -0.0103
 6890SOL    HW132132   2.758   4.500   0.794  2.0637 -0.4367  0.6743
 6890SOL    HW232133   2.815   4.370   0.801  0.3352  1.4167  1.4725
 6891SOL     OW32134   3.760   2.089   1.817  0.1779  0.2998 -0.1878
 6891SOL    HW132135   3.764   2.001   1.778  0.1534  0.5619 -0.7809
 6891SOL    HW232136   3.823   2.069   1.886 -0.8607 -0.8590  0.4351
 6892SOL     OW32137   0.226   0.349  17.099  0.1936 -0.3181 -0.3806
 6892SOL    HW132138   0.210   0.256  17.111  1.1964 -0.4819 -0.3633
 6892SOL    HW232139   0.313   0.341  17.138 -0.4119  1.0318  1.2745
 6893SOL     OW32140   2.833   4.255   6.096 -0.0299  0.5366 -0.0440
 6893SOL    HW132141   2.746   4.293   6.109  0.8329  2.8774 -0.9719
 6893SOL    HW232142   2.861   4.298   6.015 -0.3405  0.4147 -0.2147
 6894SOL     OW32143   0.702   3.821   5.824  0.0611  0.2155  0.3516
 6894SOL    HW132144   0.682   3.836   5.916 -0.9524 -0.5235  0.2531
 6894SOL    HW232145   0.637   3.754   5.801 -0.0977 -0.0944  1.7105
 6895SOL     OW32146   0.616   1.449   4.908  0.4081  0.2296  0.0688
 6895SOL    HW132147   0.545   1.487   4.857 -1.4160 -1.9023  0.9803
 6895SOL    HW232148   0.568   1.425   4.987 -0.5012 -1.0974 -0.8723
 6896SOL     OW32149   1.675   1.067   4.235  0.0645 -0.0983 -0.3000
 6896SOL    HW132150   1.714   0.999   4.290  0.6187 -0.2430 -0.8796
 6896SOL    HW232151   1.623   1.108   4.305  0.5223 -0.1439  0.0672
 6897SOL     OW32152   1.733   4.338  11.230 -0.4070 -0.2992  0.0242
 6897SOL    HW132153   1.648   4.373  11.203 -0.1839 -0.8812 -1.4402
 6897SOL    HW232154   1.707   4.261  11.281  1.3396  0.0650  1.4650
 6898SOL     OW32155   2.514   0.147   9.324 -0.3999 -0.0185  0.5251
 6898SOL    HW132156   2.590   0.095   9.351 -0.8454 -1.5260 -1.1154
 6898SOL    HW232157   2.436   0.096   9.343 -1.3077  0.5585 -1.5960
 6899SOL     OW32158   2.285   3.572   1.172  0.9616 -0.8863 -0.3935
 6899SOL    HW132159   2.350   3.569   1.103 -0.3292 -2.1759 -1.5435
 6899SOL    HW232160   2.336   3.594   1.250 -2.9055  0.8501  1.6320
 6900SOL     OW32161   4.075   3.789   3.954 -0.2473  0.6002  0.4787
 6900SOL    HW132162   4.096   3.758   3.865 -1.2796  3.5522 -0.7867
 6900SOL    HW232163   4.146   3.849   3.977 -0.0528  0.9157 -0.8922
 6901SOL     OW32164   2.560   0.239   4.121  0.1770 -0.1931  0.1748
 6901SOL    HW132165   2.468   0.219   4.104  0.2958  1.0193 -1.9133
 6901SOL    HW232166   2.558   0.315   4.063  0.8000 -0.5302 -0.2983
 6902SOL     OW32167   3.800   2.194   3.837  0.0546  0.3005  0.0380
 6902SOL    HW132168   3.757   2.136   3.774  1.2120  1.3012 -1.6552
 6902SOL    HW232169   3.811   2.136   3.913  0.1133  2.4018  1.6460
 6903SOL     OW32170   2.980   3.448   9.269  0.1764  0.2720 -0.2598
 6903SOL    HW132171   2.998   3.483   9.181  3.7948 -2.2791 -0.5416
 6903SOL    HW232172   3.066   3.424   9.303  0.0356  1.3627  0.8388
 6904SOL     OW32173   1.943   4.619   2.365 -0.4095 -0.1122 -0.1116
 6904SOL    HW132174   1.879   4.690   2.359  0.7054  0.8082 -1.0012
 6904SOL    HW232175   1.893   4.546   2.401 -0.6885 -0.2955 -0.8904
 6905SOL     OW32176   0.497   0.573  16.975 -0.6736  0.2384  0.1293
 6905SOL    HW132177   0.417   0.563  16.925 -0.5041 -2.5913  0.3905
 6905SOL    HW232178   0.549   0.632  16.921  0.6813 -1.6296 -0.6504
 6906SOL     OW32179   1.979   3.444   5.078 -0.4922 -0.3496 -0.3371
 6906SOL    HW132180   1.929   3.498   5.139 -1.8207 -1.1033 -0.7529
 6906SOL    HW232181   2.050   3.507   5.066 -0.9005  0.0565 -0.6208
 6907SOL     OW32182   2.502   1.383   3.224  0.1948 -0.0052 -0.2175
 6907SOL    HW132183   2.489   1.439   3.148  1.5161 -1.7371 -1.7099
 6907SOL    HW232184   2.589   1.401   3.259  0.6686 -1.8342 -0.4183
 6908SOL     OW32185   0.304   0.881   3.899  0.3804  0.3187  1.2390
 6908SOL    HW132186   0.322   0.788   3.885  2.0687  0.9110 -0.5932
 6908SOL    HW232187   0.361   0.910   3.827  0.4418 -0.6628  0.8901
 6909SOL     OW32188   0.495   0.032   7.707  0.3425 -0.3744  0.2651
 6909SOL    HW132189   0.475   0.106   7.650 -2.5622 -0.3034  1.3886
 6909SOL    HW232190   0.567   4.711   7.660  0.7632  2.3313 -1.5163
 6910SOL     OW32191   1.251   0.625  17.404  0.3947 -0.0719 -0.6488
 6910SOL    HW132192   1.265   0.719  17.415 -1.3882 -0.0816  1.7605
 6910SOL    HW232193   1.309   0.611  17.329 -1.2120 -0.6293 -1.8170
 6911SOL     OW32194   3.406   0.985  12.790  0.1068  0.1116 -0.1733
 6911SOL    HW132195   3.446   0.944  12.714 -2.1677 -1.9409 -0.2603
 6911SOL    HW232196   3.380   1.069  12.752  1.6500 -0.4323 -2.4431
 6912SOL     OW32197   1.743   1.334   9.726  0.5195 -0.0376 -0.1647
 6912SOL    HW132198   1.764   1.377   9.644 -1.0041 -1.8539 -1.5069
 6912SOL    HW232199   1.835   1.319   9.746  0.8656  2.1238 -0.1406
 6913SOL     OW32200   0.084   1.231   4.013  0.2747  0.0051 -0.6110
 6913SOL    HW132201   0.121   1.143   4.003  0.2844  0.2046 -2.2104
 6913SOL    HW232202   0.005   1.212   4.065 -0.4437  1.0495 -1.3246
 6914SOL     OW32203   1.145   0.988   8.644  0.4112  0.3602 -0.2655
 6914SOL    HW132204   1.073   0.926   8.658 -0.8136  1.9388  0.4174
 6914SOL    HW232205   1.131   1.059   8.707  1.6504  0.0400  0.3857
 6915SOL     OW32206   1.905   0.742   7.078 -0.0442 -0.1789  0.1900
 6915SOL    HW132207   1.993   0.703   7.079 -0.3869 -0.9527  0.7290
 6915SOL    HW232208   1.898   0.782   6.992  3.4182 -0.8112 -0.3975
 6916SOL     OW32209   3.332   4.569   3.430 -0.6384 -0.1162  0.1647
 6916SOL    HW132210   3.403   4.513   3.398 -0.8001 -0.1470 -0.1344
 6916SOL    HW232211   3.376   4.649   3.399  0.1395 -0.9161 -0.7934
 6917SOL     OW32212   2.371   2.255   2.838  0.0740 -0.8672 -0.4582
 6917SOL    HW132213   2.455   2.248   2.882  0.0751  1.0139 -0.1585
 6917SOL    HW232214   2.401   2.316   2.771 -0.0688 -0.7721 -0.4360
 6918SOL     OW32215   2.524   3.877   8.245  0.2003  0.0471 -0.2615
 6918SOL    HW132216   2.452   3.921   8.200  0.8251  0.4538 -0.8687
 6918SOL    HW232217   2.601   3.891   8.189  2.1991 -1.3349  2.1581
 6919SOL     OW32218   3.674   4.182  10.677  0.1084  0.3848  0.7514
 6919SOL    HW132219   3.657   4.249  10.744 -1.8465  1.4745 -0.8561
 6919SOL    HW232220   3.599   4.202  10.621 -0.1052 -0.3536  0.7727
 6920SOL     OW32221   1.322   0.104   5.278 -0.1079  0.3277 -0.7425
 6920SOL    HW132222   1.292   0.189   5.310  0.1346  0.2750 -0.3727
 6920SOL    HW232223   1.369   0.123   5.197  2.4512 -0.3186  0.5851
 6921SOL     OW32224   2.531   2.229  11.373  0.1322 -0.1679 -0.2247
 6921SOL    HW132225   2.454   2.175  11.358  0.1052  0.1006 -1.0204
 6921SOL    HW232226   2.554   2.196  11.460  2.1633  0.0567 -0.6693
 6922SOL     OW32227   3.572   3.718  16.710  0.2838  0.2686 -0.5308
 6922SOL    HW132228   3.603   3.794  16.663  3.1561  0.2048  1.2504
 6922SOL    HW232229   3.580   3.651  16.642  3.6415  1.0854 -0.9484
 6923SOL     OW32230   1.009   4.376   3.723 -0.0039  0.3554  0.1916
 6923SOL    HW132231   0.982   4.302   3.668 -0.2904  0.8831 -0.3757
 6923SOL    HW232232   1.018   4.443   3.655 -3.0483 -0.2276 -0.7810
 6924SOL     OW32233   3.237   3.860   2.240  0.3269 -0.0045 -0.0839
 6924SOL    HW132234   3.269   3.946   2.213  0.2619 -0.2353 -0.8921
 6924SOL    HW232235   3.182   3.837   2.165  1.3232  0.8837 -1.0888
 6925SOL     OW32236   3.375   0.865   6.300 -0.0212 -0.4451  0.2954
 6925SOL    HW132237   3.281   0.857   6.318 -0.1312  2.4098  1.0012
 6925SOL    HW232238   3.363   0.850   6.206 -0.6250 -1.6003  0.5577
 6926SOL     OW32239   2.461   4.477   0.782  0.0728  0.0911  0.4723
 6926SOL    HW132240   2.419   4.396   0.810 -0.6587  0.3592  0.1422
 6926SOL    HW232241   2.551   4.444   0.779  0.3948  1.1267 -1.5102
 6927SOL     OW32242   0.615   1.993   3.141  0.4705  0.5273  0.1467
 6927SOL    HW132243   0.557   1.921   3.167  0.9349  0.5800  1.3189
 6927SOL    HW232244   0.613   1.981   3.046  1.4925 -0.3520  0.2315
 6928SOL     OW32245   1.196   2.631   6.420 -0.1715 -0.2399  0.3664
 6928SOL    HW132246   1.261   2.701   6.419  1.7411 -2.0707 -2.0055
 6928SOL    HW232247   1.210   2.580   6.340  1.4601 -0.1373  0.5865
 6929SOL     OW32248   4.322   4.220   4.807  0.0055 -0.5929  0.3171
 6929SOL    HW132249   4.243   4.272   4.818 -2.1264 -2.9526 -3.4503
 6929SOL    HW232250   4.300   4.150   4.868 -1.5090 -0.7428 -0.3933
 6930SOL     OW32251   0.587   1.865   1.568  0.5590  0.2842  0.0337
 6930SOL    HW132252   0.552   1.815   1.495  1.9384 -0.8438  0.1693
 6930SOL    HW232253   0.654   1.910   1.517 -0.2371  0.9964 -0.3796
 6931SOL     OW32254   2.258   3.576   3.749 -0.4584 -0.7801  0.1014
 6931SOL    HW132255   2.302   3.515   3.690  1.6356 -0.5421  1.4457
 6931SOL    HW232256   2.307   3.548   3.826 -0.5079  0.1986  0.4859
 6932SOL     OW32257   2.433   4.546   6.843  0.0001  0.6156  1.1953
 6932SOL    HW132258   2.464   4.627   6.803  2.0559 -1.7398 -1.9180
 6932SOL    HW232259   2.483   4.539   6.925 -0.4553 -1.2974  1.3189
 6933SOL     OW32260   0.486   1.961   2.618  0.0345  0.0154  0.5763
 6933SOL    HW132261   0.522   1.981   2.704  2.3001 -4.5622  0.6865
 6933SOL    HW232262   0.556   1.992   2.560 -2.2090  1.5475 -1.3177
 6934SOL     OW32263   4.685   1.305   3.058  0.1897  0.5152 -0.5804
 6934SOL    HW132264   0.047   1.258   3.067 -0.8576 -0.9842  1.2476
 6934SOL    HW232265   4.685   1.314   2.963  1.0171  2.9408 -0.3707
 6935SOL     OW32266   3.757   0.414  13.440  0.1393 -0.4488  0.4615
 6935SOL    HW132267   3.693   0.485  13.445  0.5053 -0.0191 -0.8879
 6935SOL    HW232268   3.704   0.334  13.430 -1.4310  0.9579 -2.5086
 6936SOL     OW32269   2.851   0.985   3.597  0.4630  0.1199 -0.4451
 6936SOL    HW132270   2.760   1.015   3.589  0.4063 -0.5642 -2.3093
 6936SOL    HW232271   2.894   1.021   3.520 -2.4358  0.6430 -1.8316
 6937SOL     OW32272   2.093   3.648   7.793  0.0926 -0.3668  0.2249
 6937SOL    HW132273   2.012   3.699   7.797 -1.9340 -3.6872  1.3222
 6937SOL    HW232274   2.148   3.687   7.861 -0.2288 -1.8307  1.3361
 6938SOL     OW32275   0.158   1.049   9.621  0.5402 -0.3673  0.1104
 6938SOL    HW132276   0.149   1.108   9.695  1.1563 -0.5914  0.3595
 6938SOL    HW232277   0.202   1.108   9.560  3.5327 -1.4726  1.2178
 6939SOL     OW32278   1.703   4.537   8.756  0.9990  0.1376 -0.1483
 6939SOL    HW132279   1.758   4.527   8.834  0.5606 -2.5398 -0.1704
 6939SOL    HW232280   1.782   4.550   8.704  1.2316  0.2620  0.2413
 6940SOL     OW32281   3.505   0.555  14.343  0.4479 -0.2779 -0.3159
 6940SOL    HW132282   3.459   0.632  14.310 -0.4850  0.6776  3.1521
 6940SOL    HW232283   3.446   0.494  14.298  0.3013 -0.1191 -0.3391
 6941SOL     OW32284   2.324   0.625   9.424 -0.2070  0.2400 -0.3790
 6941SOL    HW132285   2.388   0.624   9.495 -0.2867 -3.3144 -0.3866
 6941SOL    HW232286   2.352   0.551   9.371 -1.1030 -0.9752  0.8410
 6942SOL     OW32287   3.951   0.723   7.987  0.1074  0.4723 -0.7515
 6942SOL    HW132288   3.916   0.683   8.066 -1.8396 -0.0795 -1.9035
 6942SOL    HW232289   3.905   0.807   7.990  2.2273  1.5831  0.8248
 6943SOL     OW32290   2.356   3.867   1.483 -0.0644  0.7094  0.3197
 6943SOL    HW132291   2.429   3.924   1.458 -0.2499 -0.8575 -3.8254
 6943SOL    HW232292   2.381   3.784   1.442 -2.1219 -0.8358  2.1526
 6944SOL     OW32293   2.650   4.187  15.003 -0.0560  0.2234  0.0599
 6944SOL    HW132294   2.711   4.114  14.997  0.1270  0.2491  1.6634
 6944SOL    HW232295   2.706   4.246  15.053  1.8042 -1.1234 -0.4538
 6945SOL     OW32296   4.065   0.954   3.945 -0.5058  0.3051  0.0908
 6945SOL    HW132297   4.102   0.885   3.999  2.7225  2.3617  0.5189
 6945SOL    HW232298   4.061   0.913   3.858 -3.3078  1.2355 -0.2438
 6946SOL     OW32299   0.751   1.388   9.510 -0.9164  0.2327 -0.8681
 6946SOL    HW132300   0.788   1.327   9.575 -1.9535  1.6651  1.0466
 6946SOL    HW232301   0.787   1.467   9.551 -1.8596  0.9511 -1.4271
 6947SOL     OW32302   1.324   1.387   0.958  0.1178  0.2110 -0.2278
 6947SOL    HW132303   1.331   1.480   0.937  1.7283 -0.3618 -2.2328
 6947SOL    HW232304   1.408   1.353   0.928 -0.3414 -1.9943  0.9860
 6948SOL     OW32305   1.779   0.919   8.756  0.2456 -0.1535  0.4488
 6948SOL    HW132306   1.769   0.938   8.663  0.9030  1.6250  0.7482
 6948SOL    HW232307   1.842   0.986   8.782 -0.7748  0.3948  1.5328
 6949SOL     OW32308   4.288   3.460   1.037 -0.4542  0.3715  0.0402
 6949SOL    HW132309   4.270   3.373   1.073  0.6530 -0.2236 -0.8070
 6949SOL    HW232310   4.313   3.443   0.946  2.6391  3.1139  0.3922
 6950SOL     OW32311   1.315   4.282  12.413  0.2934  0.2664 -0.3390
 6950SOL    HW132312   1.358   4.359  12.449 -1.7972  0.5004  1.7114
 6950SOL    HW232313   1.229   4.281  12.456 -0.4453 -1.2050 -1.8323
 6951SOL     OW32314   0.309   2.129   5.091  0.8230 -0.4970 -0.2824
 6951SOL    HW132315   0.231   2.081   5.120  0.2952  0.4705 -0.0880
 6951SOL    HW232316   0.367   2.077   5.147  0.9504  0.8482  0.8461
 6952SOL     OW32317   1.956   4.130   7.268 -0.1705 -0.6771 -0.2537
 6952SOL    HW132318   1.874   4.137   7.220 -1.1641 -1.1536  1.3906
 6952SOL    HW232319   1.998   4.053   7.229 -0.9427 -0.4970 -1.4540
 6953SOL     OW32320   4.286   2.740  11.945  0.5916 -0.3294  0.2276
 6953SOL    HW132321   4.268   2.694  12.027  0.0659  2.4668  1.6878
 6953SOL    HW232322   4.239   2.688  11.880 -0.0880 -0.7487  1.0546
 6954SOL     OW32323   0.941   3.523   4.263 -0.3379  0.2132  0.2460
 6954SOL    HW132324   0.999   3.584   4.216  0.9613 -1.2824 -0.0656
 6954SOL    HW232325   0.898   3.586   4.321 -0.1411 -0.0340  0.6535
 6955SOL     OW32326   3.430   1.282  16.839 -0.0618  0.5043  0.2872
 6955SOL    HW132327   3.339   1.307  16.824 -0.0741 -0.4210 -1.2412
 6955SOL    HW232328   3.437   1.289  16.934 -0.4196 -2.9052  0.5803
 6956SOL     OW32329   0.946   2.081   4.903  0.3129  0.1811 -0.4622
 6956SOL    HW132330   0.943   2.142   4.830 -1.2943 -0.3696 -0.8679
 6956SOL    HW232331   1.012   2.023   4.867  1.0306  0.0626  1.0193
 6957SOL     OW32332   4.614   1.229  14.045  0.4081  0.2098  0.1197
 6957SOL    HW132333   4.674   1.229  13.970 -1.3291 -2.8801 -1.3052
 6957SOL    HW232334   4.654   1.287  14.109  0.2741  1.5482 -1.0166
 6958SOL     OW32335   0.848   4.220   9.559  0.4620  0.0334 -0.1678
 6958SOL    HW132336   0.829   4.290   9.496 -2.5323 -0.5337  0.1348
 6958SOL    HW232337   0.923   4.177   9.518  1.4686  2.1992 -0.6518
 6959SOL     OW32338   3.618   1.159   4.896 -0.3974 -0.6480  0.0243
 6959SOL    HW132339   3.623   1.133   4.804 -1.0159  0.1367 -0.2348
 6959SOL    HW232340   3.644   1.074   4.931  1.3219  0.3296  1.1164
 6960SOL     OW32341   4.365   1.793   7.705  0.2060  0.4601 -0.0657
 6960SOL    HW132342   4.269   1.785   7.712  0.2414 -0.0763 -0.1972
 6960SOL    HW232343   4.364   1.864   7.769 -1.0010  0.4615 -0.0694
 6961SOL     OW32344   3.986   3.926   1.254 -0.1317  0.3042 -0.1702
 6961SOL    HW132345   3.931   3.848   1.238  2.1417 -1.4100  0.3812
 6961SOL    HW232346   4.077   3.899   1.266 -0.2786 -0.6911 -1.3179
 6962SOL     OW32347   1.896   0.523   6.201 -0.9064 -0.9742 -0.5807
 6962SOL    HW132348   1.963   0.475   6.151 -0.6016 -0.2877 -0.8283
 6962SOL    HW232349   1.944   0.605   6.208 -0.9987 -1.0696  1.0133
 6963SOL     OW32350   4.402   1.573   7.039  0.0350  0.3738  0.3727
 6963SOL    HW132351   4.313   1.591   7.010 -0.0339  1.0629  1.0137
 6963SOL    HW232352   4.376   1.497   7.091  2.3759 -0.3321  0.5384
 6964SOL     OW32353   3.348   2.150  17.134 -0.0194  0.2795  0.0720
 6964SOL    HW132354   3.317   2.235  17.101 -0.0567  0.4152  0.4573
 6964SOL    HW232355   3.291   2.092  17.083 -0.3973  1.5000 -0.8972
 6965SOL     OW32356   1.404   0.050   2.313 -0.1120 -0.0024 -0.1968
 6965SOL    HW132357   1.362   4.685   2.320 -0.6779  0.0652 -2.8101
 6965SOL    HW232358   1.339   0.103   2.269 -0.0287  0.3141  0.0596
 6966SOL     OW32359   4.383   3.187   8.416 -0.0781  0.2807  0.0695
 6966SOL    HW132360   4.435   3.201   8.337 -0.8191 -0.6224 -0.5881
 6966SOL    HW232361   4.299   3.156   8.381  0.0831  0.4407 -0.4645
 6967SOL     OW32362   0.137   2.764   7.401  0.2844  0.2449 -0.1007
 6967SOL    HW132363   0.204   2.731   7.461 -0.0350  3.5821  2.0823
 6967SOL    HW232364   0.054   2.741   7.442 -0.1450  0.2334 -0.9770
 6968SOL     OW32365   3.587   2.099   5.985 -0.1286  0.3048 -0.3170
 6968SOL    HW132366   3.519   2.059   6.040  1.8494 -1.0361  1.1377
 6968SOL    HW232367   3.625   2.024   5.940  0.7562  0.8261 -0.4369
 6969SOL     OW32368   1.568   1.541   5.096 -0.6631  0.3396 -0.0709
 6969SOL    HW132369   1.660   1.516   5.091 -0.4431  1.2097 -0.4482
 6969SOL    HW232370   1.516   1.469   5.129 -1.1364  1.6038  1.9643
 6970SOL     OW32371   3.305   1.272  11.936  0.2294  0.0805  0.0806
 6970SOL    HW132372   3.339   1.229  12.015  0.4666  0.1417  0.0139
 6970SOL    HW232373   3.331   1.213  11.865 -2.7684  0.7171 -1.5233
 6971SOL     OW32374   4.443   3.464  11.706  0.0517  0.4436  0.1565
 6971SOL    HW132375   4.446   3.398  11.637 -2.0692  0.8167 -0.2703
 6971SOL    HW232376   4.351   3.488  11.715 -0.4618 -0.6029 -2.3563
 6972SOL     OW32377   0.228   2.061   5.433  0.2271  0.2901 -0.5631
 6972SOL    HW132378   0.182   2.010   5.499 -0.8800  0.7234 -1.0025
 6972SOL    HW232379   0.161   2.080   5.368  0.1787  1.0277 -0.3070
 6973SOL     OW32380   0.248   0.313   3.100 -0.2389 -0.7487 -0.2550
 6973SOL    HW132381   0.230   0.317   3.194 -2.0901  3.3501 -0.7950
 6973SOL    HW232382   0.293   0.228   3.097  0.9117 -0.1157 -0.8625
 6974SOL     OW32383   3.507   0.525   0.526 -0.6736 -0.5693 -0.3285
 6974SOL    HW132384   3.591   0.553   0.564 -0.7081 -1.7286  0.5921
 6974SOL    HW232385   3.523   0.499   0.435 -0.9162 -0.7547 -0.3177
 6975SOL     OW32386   3.616   0.476   8.679 -0.9475  0.1424  0.4355
 6975SOL    HW132387   3.525   0.457   8.703 -1.3471 -1.0414 -2.1067
 6975SOL    HW232388   3.650   0.486   8.768 -0.0063  1.0601 -0.0328
 6976SOL     OW32389   4.157   3.165  12.717 -0.0021  0.1726 -0.3363
 6976SOL    HW132390   4.099   3.131  12.648 -1.1682  1.2336  0.1236
 6976SOL    HW232391   4.215   3.219  12.663  1.0097 -0.1572  0.4333
 6977SOL     OW32392   2.104   0.641   7.517 -0.4188 -0.0941  0.2224
 6977SOL    HW132393   2.175   0.618   7.576  1.2541 -1.7668 -2.4266
 6977SOL    HW232394   2.060   0.704   7.574  0.4827 -0.0717  0.8985
 6978SOL     OW32395   3.097   1.532   8.024  0.2335 -0.4584 -0.0701
 6978SOL    HW132396   3.162   1.600   8.041 -0.5734  0.2069  0.3839
 6978SOL    HW232397   3.075   1.501   8.112 -0.2936 -1.6056 -0.6000
 6979SOL     OW32398   2.295   2.960   5.801  0.2112  0.8708 -0.0994
 6979SOL    HW132399   2.267   2.876   5.765 -0.5065  0.7711  0.6682
 6979SOL    HW232400   2.312   3.012   5.723  0.1515  0.4477 -0.3941
 6980SOL     OW32401   0.929   2.558   7.308 -0.4869  0.4493 -0.5533
 6980SOL    HW132402   0.864   2.502   7.265 -0.4605  0.7986 -1.0386
 6980SOL    HW232403   0.872   2.594   7.376 -0.8956  1.1352 -1.2557
 6981SOL     OW32404   2.701   3.564   6.955 -0.4061  0.0435 -0.3740
 6981SOL    HW132405   2.760   3.638   6.969 -1.1894  0.3813  1.0761
 6981SOL    HW232406   2.715   3.521   7.039  0.2516 -0.2899 -0.6482
 6982SOL     OW32407   3.653   3.449   5.499  0.2720 -0.1124  0.0308
 6982SOL    HW132408   3.584   3.388   5.472  0.4008 -0.2595  0.0342
 6982SOL    HW232409   3.702   3.447   5.417 -0.8248  1.8986 -0.6718
 6983SOL     OW32410   4.162   2.934  16.219  0.6002 -0.0002 -0.5986
 6983SOL    HW132411   4.079   2.947  16.266  2.1287 -0.8947  2.3404
 6983SOL    HW232412   4.175   2.839  16.227 -1.7028 -0.1541  1.3690
 6984SOL     OW32413   4.527   2.392   5.882 -0.3690  0.2989 -0.0837
 6984SOL    HW132414   4.436   2.416   5.863 -1.3805 -1.6544  2.3363
 6984SOL    HW232415   4.536   2.308   5.838  2.3695 -0.7975  2.5866
 6985SOL     OW32416   0.614   1.726   4.763 -0.0720  0.3804  0.2881
 6985SOL    HW132417   0.646   1.672   4.835  0.0227 -2.2659 -1.7234
 6985SOL    HW232418   0.520   1.735   4.780  0.1466  3.6651 -0.1213
 6986SOL     OW32419   3.232   4.179   4.378  0.5689  0.5025 -0.4158
 6986SOL    HW132420   3.287   4.226   4.316  0.4960  0.6585 -0.3617
 6986SOL    HW232421   3.275   4.093   4.380 -0.3338  0.0415 -1.0379
 6987SOL     OW32422   3.383   2.378   4.671 -0.2963  0.7679  0.2944
 6987SOL    HW132423   3.418   2.451   4.722  0.4379  0.0197  0.8705
 6987SOL    HW232424   3.373   2.417   4.584 -0.1819 -2.6406 -1.2782
 6988SOL     OW32425   0.314   1.869   7.950 -0.0490 -0.0670 -0.2618
 6988SOL    HW132426   0.256   1.845   8.023  0.6587 -1.4748 -0.1583
 6988SOL    HW232427   0.355   1.784   7.933  0.1744 -0.0579  0.2352
 6989SOL     OW32428   3.124   2.140  11.116  0.2300  0.0461  0.0774
 6989SOL    HW132429   3.082   2.057  11.093 -0.6382  0.5443 -0.1485
 6989SOL    HW232430   3.184   2.114  11.185  0.1459 -0.0710  0.1054
 6990SOL     OW32431   3.508   4.255  14.821  0.3722 -0.0782 -0.5909
 6990SOL    HW132432   3.589   4.280  14.775  0.5127 -0.9451 -0.8160
 6990SOL    HW232433   3.536   4.258  14.912  0.2703 -0.4646 -0.5459
 6991SOL     OW32434   0.950   3.087   7.910  0.1027  1.0567 -0.2511
 6991SOL    HW132435   1.035   3.046   7.900  0.3957  1.6276 -0.1045
 6991SOL    HW232436   0.978   3.179   7.917 -0.9417  1.3825 -0.2637
 6992SOL     OW32437   2.386   1.537   5.481 -0.0526 -0.2205 -0.0110
 6992SOL    HW132438   2.474   1.541   5.518  0.4426  0.6911 -1.2823
 6992SOL    HW232439   2.349   1.625   5.491  2.4282  0.9815 -1.2057
 6993SOL     OW32440   2.353   3.671  11.308  0.1790  0.3977  0.0315
 6993SOL    HW132441   2.347   3.714  11.394  0.9512 -0.1679  0.3699
 6993SOL    HW232442   2.338   3.740  11.243 -2.0049 -0.6318 -0.5216
 6994SOL     OW32443   0.606   0.202   4.727  0.7447 -0.1303 -0.0193
 6994SOL    HW132444   0.560   0.127   4.766  2.5581 -1.0860  0.2604
 6994SOL    HW232445   0.652   0.147   4.664 -0.7525 -1.3209 -0.1019
 6995SOL     OW32446   1.686   0.779   5.333 -0.6895  0.0577 -0.6759
 6995SOL    HW132447   1.640   0.725   5.269 -2.4101 -0.8450  1.3279
 6995SOL    HW232448   1.752   0.824   5.281 -0.0025  0.8928  0.9036
 6996SOL     OW32449   0.986   2.661   3.563 -0.1667  0.5778  0.0549
 6996SOL    HW132450   0.968   2.716   3.487 -2.2857 -0.6481 -0.3068
 6996SOL    HW232451   0.975   2.577   3.518 -0.8480  1.0318 -0.5994
 6997SOL     OW32452   3.394   4.461   4.937  0.1596  0.0107 -0.5982
 6997SOL    HW132453   3.300   4.480   4.938  0.0616 -0.4833 -0.5427
 6997SOL    HW232454   3.412   4.518   4.862  1.2874  1.4502  0.7860
 6998SOL     OW32455   3.532   4.558  12.100 -0.0878  0.1737 -0.0961
 6998SOL    HW132456   3.500   4.533  12.013  0.2212 -1.8536  0.3647
 6998SOL    HW232457   3.601   4.492  12.106 -1.0570 -0.7656  0.6732
 6999SOL     OW32458   3.498   0.627   9.215 -0.6760  0.2213 -0.5245
 6999SOL    HW132459   3.546   0.548   9.192 -0.1659  0.2111  0.5532
 6999SOL    HW232460   3.456   0.648   9.132 -0.8979 -1.3105 -0.7915
 7000SOL     OW32461   3.576   2.172   2.019  0.4956 -0.4724  0.1891
 7000SOL    HW132462   3.653   2.178   1.964  1.7725 -0.1326  2.0140
 7000SOL    HW232463   3.613   2.197   2.104 -0.4101  0.3845  0.3399
 7001SOL     OW32464   3.782   1.809  16.056  0.2066 -0.3661 -0.4164
 7001SOL    HW132465   3.794   1.878  16.121 -1.6797 -0.0376 -0.4264
 7001SOL    HW232466   3.835   1.737  16.091 -0.4561 -1.0129 -0.7380
 7002SOL     OW32467   0.631   2.683  10.521  0.0169 -0.2461 -0.0494
 7002SOL    HW132468   0.596   2.596  10.503 -0.8034  0.3338 -1.2791
 7002SOL    HW232469   0.556   2.742  10.523 -2.4766 -3.3834  0.0302
 7003SOL     OW32470   0.539   2.255  12.553  0.2587 -0.1206 -0.1953
 7003SOL    HW132471   0.494   2.200  12.617  0.9176 -0.3397  0.0824
 7003SOL    HW232472   0.470   2.320  12.541  1.2420  0.7786 -0.9967
 7004SOL     OW32473   4.081   4.141   1.088 -0.2042  0.7270 -0.1393
 7004SOL    HW132474   4.027   4.220   1.091 -1.6635 -0.3002  0.7757
 7004SOL    HW232475   4.027   4.078   1.135  1.2183 -0.6048 -0.2729
 7005SOL     OW32476   1.005   2.796   8.645 -0.0980  0.0860  0.3265
 7005SOL    HW132477   1.035   2.708   8.622  0.6572  0.0427  1.4547
 7005SOL    HW232478   1.060   2.839   8.580  1.8525  0.1620  2.0007
 7006SOL     OW32479   4.498   3.998   4.904 -0.0546  0.1198 -0.2300
 7006SOL    HW132480   4.553   3.920   4.893  1.3114  0.6938  2.4368
 7006SOL    HW232481   4.537   4.063   4.846 -0.1105  0.1309 -0.2550
 7007SOL     OW32482   4.643   3.758   4.785  0.2373 -0.6716  0.2791
 7007SOL    HW132483   4.590   3.678   4.785 -1.0504  0.1828 -0.7305
 7007SOL    HW232484   4.687   3.747   4.701 -1.1997 -0.0769 -0.5527
 7008SOL     OW32485   1.151   0.368   8.370  0.5617 -0.0682  0.6761
 7008SOL    HW132486   1.074   0.367   8.313  0.3918 -0.2075  0.9073
 7008SOL    HW232487   1.129   0.445   8.423  1.3277  0.0152  0.8722
 7009SOL     OW32488   2.467   2.458   0.839  0.0707 -0.1782  0.1391
 7009SOL    HW132489   2.422   2.381   0.872 -0.8458 -0.1156 -0.9544
 7009SOL    HW232490   2.513   2.430   0.760  0.2413  1.1621 -0.2486
 7010SOL     OW32491   0.014   2.254   6.870  0.2152  0.3091  0.6062
 7010SOL    HW132492   4.699   2.268   6.782  4.1181  1.2086 -0.8632
 7010SOL    HW232493   4.681   2.185   6.907  0.3937  0.0078  0.3126
 7011SOL     OW32494   0.480   2.966   7.794 -0.1534 -0.2252  0.3989
 7011SOL    HW132495   0.428   2.889   7.815  1.5863 -1.7383 -0.8348
 7011SOL    HW232496   0.480   2.998   7.884  1.1992  1.9703 -0.3729
 7012SOL     OW32497   3.839   3.459   0.481  0.5082  0.4210 -0.1379
 7012SOL    HW132498   3.875   3.380   0.520 -1.5246 -0.2901  0.2651
 7012SOL    HW232499   3.817   3.516   0.555 -0.7819  0.2209 -0.3599
 7013SOL     OW32500   2.288   0.566   4.980 -0.0849  0.4132 -0.9222
 7013SOL    HW132501   2.376   0.579   4.946  0.5675 -2.4365 -0.2980
 7013SOL    HW232502   2.286   0.637   5.045  1.2952  0.4940 -0.9849
 7014SOL     OW32503   4.336   3.827  10.466  0.1771 -0.1445 -0.1255
 7014SOL    HW132504   4.374   3.771  10.533 -1.4146  0.7609  1.5159
 7014SOL    HW232505   4.245   3.825  10.495  0.5424  0.8253  1.0948
 7015SOL     OW32506   3.645   4.169   5.223 -0.0975  0.4297 -0.1307
 7015SOL    HW132507   3.565   4.209   5.188 -0.5395 -0.4910 -0.1828
 7015SOL    HW232508   3.600   4.107   5.280  1.1456 -0.7364 -0.4443
 7016SOL     OW32509   4.663   0.415  14.733 -0.1521  0.6466 -0.5745
 7016SOL    HW132510   4.615   0.333  14.720  0.6617  0.0775  0.0026
 7016SOL    HW232511   0.001   0.411  14.657  0.8297 -0.2782  0.2383
 7017SOL     OW32512   3.845   1.194   0.398  0.0715  0.2433 -0.2917
 7017SOL    HW132513   3.830   1.269   0.340  1.5698  0.8320  0.0796
 7017SOL    HW232514   3.764   1.148   0.379 -1.8823  3.0312  1.1507
 7018SOL     OW32515   0.184   3.683   4.161  0.4540 -0.0029  0.1407
 7018SOL    HW132516   0.200   3.694   4.068  2.1662  0.9671  0.5339
 7018SOL    HW232517   0.259   3.728   4.201 -0.6069  2.7886 -1.0588
 7019SOL     OW32518   1.199   1.348  15.273  0.1627 -0.2526 -0.2147
 7019SOL    HW132519   1.191   1.277  15.209  0.9123 -0.1947 -0.3651
 7019SOL    HW232520   1.177   1.424  15.219 -0.1473  0.0667  0.3691
 7020SOL     OW32521   4.314   1.972   6.215  0.6047 -0.2263  0.2911
 7020SOL    HW132522   4.302   2.019   6.298  1.8732 -0.1262  0.4178
 7020SOL    HW232523   4.260   2.023   6.155  0.1131 -0.2516  0.7110
 7021SOL     OW32524   2.937   4.237   4.254 -0.5021 -0.2088 -0.0637
 7021SOL    HW132525   3.031   4.221   4.261 -0.5343  0.8138  2.6988
 7021SOL    HW232526   2.899   4.149   4.254  2.0815 -1.3417  1.1717
 7022SOL     OW32527   2.368   0.927   8.710  0.6413  0.1283  0.5514
 7022SOL    HW132528   2.345   1.006   8.662  2.3127  0.8865  0.9910
 7022SOL    HW232529   2.291   0.922   8.767 -0.2068 -0.9871 -0.7131
 7023SOL     OW32530   2.931   0.571  16.676 -0.5683 -0.4859  0.1031
 7023SOL    HW132531   2.938   0.651  16.727 -1.5630 -1.1678  1.3292
 7023SOL    HW232532   2.985   0.590  16.599 -2.1079  0.8393 -0.6393
 7024SOL     OW32533   2.870   3.601  14.577 -0.4121  0.5048  0.1097
 7024SOL    HW132534   2.835   3.687  14.598 -2.1963 -0.7735  2.3402
 7024SOL    HW232535   2.928   3.624  14.505  0.7825 -3.3552 -0.1979
 7025SOL     OW32536   4.614   2.337   7.878 -0.0552  0.3932 -0.8523
 7025SOL    HW132537   4.567   2.256   7.856 -1.5046  0.7799  0.8550
 7025SOL    HW232538   4.545   2.397   7.848 -0.8694  0.5347  1.2880
 7026SOL     OW32539   1.964   0.184   0.992  0.3743  0.1348 -1.2612
 7026SOL    HW132540   2.057   0.201   0.982  1.0657 -2.6247  0.5181
 7026SOL    HW232541   1.954   0.115   1.058 -0.6846  1.2472 -0.2672
 7027SOL     OW32542   0.444   3.792   0.894  0.6230 -0.4122 -0.1014
 7027SOL    HW132543   0.417   3.776   0.985 -1.7460 -2.3555 -1.1555
 7027SOL    HW232544   0.484   3.708   0.875 -0.1405 -1.0695  1.1733
 7028SOL     OW32545   4.448   2.587   5.419 -0.3524  0.1208  0.6260
 7028SOL    HW132546   4.487   2.601   5.333 -0.9102  0.2529  0.3912
 7028SOL    HW232547   4.357   2.560   5.406 -0.1385 -0.0312 -0.5583
 7029SOL     OW32548   2.940   1.633   4.495 -1.0752 -0.0491 -0.0126
 7029SOL    HW132549   2.979   1.707   4.541  0.5129 -1.5684  1.1014
 7029SOL    HW232550   2.986   1.642   4.411 -2.4540 -0.5960 -0.8328
 7030SOL     OW32551   2.012   0.377   7.837  0.1611  0.1360  0.2997
 7030SOL    HW132552   2.080   0.403   7.899  0.8833 -2.4267  0.5905
 7030SOL    HW232553   1.941   0.417   7.887 -0.0717 -1.8263  1.4842
 7031SOL     OW32554   3.400   2.753   0.452 -0.1917  0.2840  0.4713
 7031SOL    HW132555   3.363   2.728   0.367 -1.6960 -0.2660  1.2906
 7031SOL    HW232556   3.321   2.775   0.502 -2.2348 -1.5776 -1.9250
 7032SOL     OW32557   1.055   2.698  10.310  0.1257 -0.6831  0.2971
 7032SOL    HW132558   1.037   2.791  10.325  0.0086 -0.8355  1.1367
 7032SOL    HW232559   1.126   2.712  10.247 -0.5187  0.9167 -0.0483
 7033SOL     OW32560   2.541   2.201   7.990 -0.2640  0.2264 -0.0350
 7033SOL    HW132561   2.589   2.119   7.979  0.7456  0.9138 -0.7342
 7033SOL    HW232562   2.613   2.257   7.959 -0.9352  1.0165 -0.1592
 7034SOL     OW32563   2.982   0.002   2.665  0.6980  0.2080  0.0231
 7034SOL    HW132564   3.010   0.059   2.737  0.8749  0.4758 -0.2637
 7034SOL    HW232565   3.000   0.061   2.593  2.4344 -2.0879 -1.3923
 7035SOL     OW32566   1.549   1.794   5.215 -0.3578 -0.0202  0.1742
 7035SOL    HW132567   1.500   1.858   5.164  0.8638  0.9902  0.2730
 7035SOL    HW232568   1.528   1.709   5.175 -1.9655  0.8329 -0.7774
 7036SOL     OW32569   4.565   1.705   6.307  0.4594  0.2003  0.2058
 7036SOL    HW132570   4.588   1.731   6.218 -2.3628  1.1125 -0.2634
 7036SOL    HW232571   4.553   1.788   6.353 -0.9894 -0.8086  1.6657
 7037SOL     OW32572   2.435   4.451   1.680 -0.0189  0.7818 -0.1748
 7037SOL    HW132573   2.406   4.537   1.652  0.1646  0.9172  0.0520
 7037SOL    HW232574   2.528   4.472   1.668  0.5723 -1.3390  0.6382
 7038SOL     OW32575   2.543   2.507  10.868  0.3072 -0.6508  0.0896
 7038SOL    HW132576   2.618   2.462  10.907  0.5122  0.7599  1.3008
 7038SOL    HW232577   2.507   2.440  10.809 -0.9082  0.2726 -0.2009
 7039SOL     OW32578   3.580   1.099  16.642  0.5698 -0.3546  0.4845
 7039SOL    HW132579   3.632   1.051  16.707  1.4596 -0.8611 -0.5883
 7039SOL    HW232580   3.512   1.146  16.690  0.2164 -0.1395 -0.2275
 7040SOL     OW32581   3.838   1.265   5.777  0.1098  0.2975 -0.2084
 7040SOL    HW132582   3.868   1.260   5.868  1.4659 -1.3681 -0.7580
 7040SOL    HW232583   3.804   1.354   5.768 -0.3964  0.0179 -1.0739
 7041SOL     OW32584   3.243   3.662   7.372 -0.4664 -0.5903 -0.0016
 7041SOL    HW132585   3.209   3.576   7.395  3.4607 -2.4406 -1.0879
 7041SOL    HW232586   3.163   3.714   7.375 -0.8610 -1.1608 -0.7249
 7042SOL     OW32587   0.693   1.245  12.611  0.0448 -0.2863  0.2067
 7042SOL    HW132588   0.719   1.283  12.695 -0.0173 -0.1468  0.1633
 7042SOL    HW232589   0.768   1.270  12.557 -1.2969  1.7940 -0.7126
 7043SOL     OW32590   0.288   2.636  14.140  0.3851 -0.7236  0.0263
 7043SOL    HW132591   0.215   2.639  14.077  1.2575  0.7205 -0.9091
 7043SOL    HW232592   0.250   2.599  14.219  0.4901 -1.0669 -0.0806
 7044SOL     OW32593   2.592   2.219  11.698 -0.6217 -0.0003 -0.5126
 7044SOL    HW132594   2.531   2.293  11.687  0.9068  0.9758 -2.2445
 7044SOL    HW232595   2.624   2.241  11.786 -1.4227 -0.7985 -0.0141
 7045SOL     OW32596   0.625   0.614   5.490  0.0465  0.0169  0.5729
 7045SOL    HW132597   0.575   0.692   5.515 -0.5027  0.0795 -0.7471
 7045SOL    HW232598   0.660   0.582   5.573  0.9608  0.8661  0.5108
 7046SOL     OW32599   2.190   1.157   9.271  0.1441  0.0258  0.3104
 7046SOL    HW132600   2.198   1.153   9.175  1.5725 -1.9964  0.5295
 7046SOL    HW232601   2.166   1.066   9.287 -0.2261 -0.0550 -0.6982
 7047SOL     OW32602   3.633   3.740   6.394 -0.1919 -0.7594  0.1520
 7047SOL    HW132603   3.539   3.744   6.377  0.4559  0.7749 -3.0301
 7047SOL    HW232604   3.662   3.680   6.325  1.8067  0.6064 -0.1825
 7048SOL     OW32605   0.947   1.763  10.606  0.1059 -0.1821  0.1864
 7048SOL    HW132606   0.855   1.748  10.585  0.3967  0.8846 -1.8671
 7048SOL    HW232607   0.968   1.673  10.629  1.7300  0.3502  0.8246
 7049SOL     OW32608   0.625   0.681   3.702  0.2037 -0.0045 -1.0272
 7049SOL    HW132609   0.701   0.739   3.703 -0.3870  0.6890  1.9171
 7049SOL    HW232610   0.615   0.662   3.608 -1.7977  1.4300 -1.1030
 7050SOL     OW32611   0.523   1.962  15.572 -0.2057 -0.1729  0.8376
 7050SOL    HW132612   0.447   1.911  15.601  0.4151 -0.7174  1.5083
 7050SOL    HW232613   0.584   1.890  15.559 -0.2998 -0.3295  1.2471
 7051SOL     OW32614   4.143   2.019   7.266  0.4077 -0.0833 -0.0445
 7051SOL    HW132615   4.193   2.095   7.297 -0.4452 -0.9248  3.3685
 7051SOL    HW232616   4.161   2.005   7.173 -0.4734 -1.7101  0.0307
 7052SOL     OW32617   0.187   2.817  16.230 -0.7100  0.5028 -0.3027
 7052SOL    HW132618   0.155   2.790  16.143  1.6214 -0.7507 -0.7778
 7052SOL    HW232619   0.262   2.874  16.214  0.8544 -1.5140 -0.1454
 7053SOL     OW32620   0.499   0.137   8.206 -0.7804  0.0828 -0.4298
 7053SOL    HW132621   0.498   0.083   8.127  0.0236 -0.2974 -0.1828
 7053SOL    HW232622   0.407   0.164   8.209 -0.6782  0.3783  0.0873
 7054SOL     OW32623   3.969   3.651   2.606  0.0857 -0.0024 -0.2227
 7054SOL    HW132624   3.986   3.589   2.677 -1.2126 -0.7133 -0.5341
 7054SOL    HW232625   4.050   3.661   2.556  0.3001 -3.1082 -0.4950
 7055SOL     OW32626   3.838   0.108   6.537 -0.3603 -0.3246  0.2505
 7055SOL    HW132627   3.923   0.110   6.493 -0.9192  1.6286 -0.7524
 7055SOL    HW232628   3.804   0.187   6.496  1.3680  1.3492  2.0238
 7056SOL     OW32629   1.069   0.710   0.305  0.5153  0.6149 -0.0957
 7056SOL    HW132630   1.153   0.694   0.262  1.0167  0.7282  0.8452
 7056SOL    HW232631   1.075   0.632   0.360  0.6965 -0.5579 -1.7743
 7057SOL     OW32632   1.768   0.366   4.680 -0.1869 -0.4286 -0.6491
 7057SOL    HW132633   1.780   0.385   4.587  0.5774  0.7380 -0.3046
 7057SOL    HW232634   1.831   0.426   4.720 -1.3958 -0.6044  1.5265
 7058SOL     OW32635   1.473   0.240   5.536  0.4370 -0.3193  0.1904
 7058SOL    HW132636   1.451   0.325   5.499  0.9237  0.4807  1.7392
 7058SOL    HW232637   1.382   0.211   5.537 -0.0883  1.4376  1.1858
 7059SOL     OW32638   3.534   3.627   8.454  0.1893  0.0262 -0.2125
 7059SOL    HW132639   3.625   3.631   8.426  0.2586 -0.6386 -0.0835
 7059SOL    HW232640   3.512   3.679   8.377  2.2788 -0.0684 -0.8565
 7060SOL     OW32641   3.767   4.241   4.141 -0.0280  0.7061 -0.4042
 7060SOL    HW132642   3.718   4.306   4.091 -0.3801 -0.4548 -1.5790
 7060SOL    HW232643   3.837   4.216   4.081  1.0268 -1.0370  1.5890
 7061SOL     OW32644   1.076   0.946   6.004 -0.4815  0.2559 -0.1830
 7061SOL    HW132645   1.009   0.972   6.067  0.8286  0.9862  0.9073
 7061SOL    HW232646   1.082   0.852   6.022 -0.3975 -0.1508 -2.3172
 7062SOL     OW32647   3.948   2.558   8.206  0.3805 -0.9121  1.1857
 7062SOL    HW132648   3.863   2.602   8.203  1.3238  0.7755 -1.2084
 7062SOL    HW232649   3.994   2.586   8.127  1.6577 -0.0019  2.2675
 7063SOL     OW32650   2.903   2.868   3.370  0.5054 -0.6574  0.3632
 7063SOL    HW132651   2.853   2.797   3.410 -0.5463  1.1077  2.1992
 7063SOL    HW232652   2.882   2.844   3.280  1.6839  1.9782 -0.6096
 7064SOL     OW32653   3.753   2.942  14.997 -0.3443 -0.1267  0.2301
 7064SOL    HW132654   3.773   2.935  15.090  0.3226 -1.1047  0.0117
 7064SOL    HW232655   3.736   2.852  14.969 -0.5358  0.8438 -2.7712
 7065SOL     OW32656   1.260   0.498   0.203  0.4627 -0.2608 -0.1317
 7065SOL    HW132657   1.199   0.431   0.232  0.1328 -0.1251 -0.5199
 7065SOL    HW232658   1.340   0.448   0.187  1.6879  1.0327  1.9245
 7066SOL     OW32659   0.590   2.761   3.887 -0.6155  0.1708 -0.0003
 7066SOL    HW132660   0.608   2.704   3.962  1.8176 -0.8110 -1.3177
 7066SOL    HW232661   0.509   2.802   3.917  0.5374  0.8431  2.1718
 7067SOL     OW32662   0.924   2.606   6.516  0.4065 -0.1220  0.0461
 7067SOL    HW132663   0.995   2.627   6.456 -0.6842 -2.4005 -2.0139
 7067SOL    HW232664   0.919   2.695   6.553 -0.5103 -0.3113  0.3950
 7068SOL     OW32665   1.102   3.383  17.238 -0.1054  0.3891  0.0629
 7068SOL    HW132666   1.163   3.442  17.194  0.9764 -0.7361  0.0619
 7068SOL    HW232667   1.102   3.394  17.333  0.4749 -0.4584  0.1614
 7069SOL     OW32668   2.031   4.693   6.985 -0.1802  0.9121 -0.0784
 7069SOL    HW132669   2.084   4.631   6.935  1.0823 -0.1797  2.6205
 7069SOL    HW232670   1.951   4.645   7.006  1.3334 -1.3072  0.5441
 7070SOL     OW32671   3.633   3.027  10.341 -0.2023 -0.6142  0.1356
 7070SOL    HW132672   3.664   3.115  10.321  0.2329 -1.0545 -1.0736
 7070SOL    HW232673   3.648   3.030  10.436 -1.7036  0.1866  0.3550
 7071SOL     OW32674   3.943   1.418   6.384  0.2168 -0.3973  0.1533
 7071SOL    HW132675   3.982   1.493   6.428  0.9581 -0.1168 -0.9657
 7071SOL    HW232676   3.975   1.427   6.294 -1.2901  0.7972 -0.2655
 7072SOL     OW32677   4.466   3.626  11.018  0.3116  0.0913  0.4969
 7072SOL    HW132678   4.485   3.645  11.110 -0.1614 -0.1526  0.6441
 7072SOL    HW232679   4.517   3.694  10.974 -0.1923  0.8018  1.0036
 7073SOL     OW32680   1.910   3.091  13.064 -0.0461  0.2284  0.1265
 7073SOL    HW132681   1.993   3.065  13.023  0.2286 -1.7275  1.8975
 7073SOL    HW232682   1.864   3.008  13.058 -0.5229  0.2702  2.9616
 7074SOL     OW32683   0.928   0.587   0.810  0.4165 -0.4345 -0.3414
 7074SOL    HW132684   0.938   0.656   0.876 -1.4705 -2.3747  1.9694
 7074SOL    HW232685   0.936   0.632   0.725 -0.2720  1.3742  0.5392
 7075SOL     OW32686   4.244   2.967   7.007 -0.2074  0.4935  0.5043
 7075SOL    HW132687   4.194   2.894   7.043  1.7889 -0.5316  1.1618
 7075SOL    HW232688   4.269   2.925   6.925  0.7932 -0.2602  1.2058
 7076SOL     OW32689   3.433   2.728  11.116  0.3422 -0.0929  0.7228
 7076SOL    HW132690   3.382   2.658  11.158  1.9338 -1.2465  0.7306
 7076SOL    HW232691   3.524   2.701  11.125  0.5988  0.4353 -0.3372
 7077SOL     OW32692   3.904   4.671   3.811  0.1139  0.0937 -0.2417
 7077SOL    HW132693   3.918   4.617   3.733  1.0682  1.3350 -0.9541
 7077SOL    HW232694   3.873   4.612   3.879 -1.9499  1.9448  0.4297
 7078SOL     OW32695   1.940   2.557  17.294 -0.4133  0.0804 -0.1101
 7078SOL    HW132696   1.942   2.602  17.210 -0.6851 -0.1620 -0.2473
 7078SOL    HW232697   1.991   2.476  17.286  0.5862  1.0888 -3.6923
 7079SOL     OW32698   1.109   0.813  12.450  0.4252 -0.1646  0.2540
 7079SOL    HW132699   1.045   0.882  12.433 -0.0681 -0.7586 -0.3176
 7079SOL    HW232700   1.049   0.739  12.458 -0.1993  0.0727 -2.0212
 7080SOL     OW32701   4.102   2.715   7.034 -0.1656  0.1552 -0.2995
 7080SOL    HW132702   4.160   2.643   7.009 -0.1079 -0.3516  1.2838
 7080SOL    HW232703   4.030   2.669   7.077  0.5629  0.8898  1.6915
 7081SOL     OW32704   1.855   2.970   7.589  0.4056 -0.1869  0.0087
 7081SOL    HW132705   1.926   3.034   7.602  1.4350 -1.3557  0.1125
 7081SOL    HW232706   1.900   2.888   7.608  0.5824 -0.5144 -1.7851
 7082SOL     OW32707   0.372   2.668   5.037 -0.2531  0.1696 -0.8924
 7082SOL    HW132708   0.415   2.694   4.957 -1.3739  2.7080 -0.6524
 7082SOL    HW232709   0.357   2.573   5.031 -0.8447 -0.0010  3.2601
 7083SOL     OW32710   0.133   0.513   2.433  0.7753 -0.1440  0.2672
 7083SOL    HW132711   0.212   0.460   2.422  1.7158  1.4648 -0.8403
 7083SOL    HW232712   0.137   0.558   2.518 -2.5792 -1.4816  1.1288
 7084SOL     OW32713   0.268   2.493  16.865  0.4018  0.1548 -0.4032
 7084SOL    HW132714   0.205   2.495  16.793 -2.0039 -2.0339  1.6385
 7084SOL    HW232715   0.286   2.586  16.877  1.8824  0.0007 -1.4498
 7085SOL     OW32716   2.665   4.140   2.599 -0.3799  0.0155 -0.4852
 7085SOL    HW132717   2.665   4.187   2.515 -0.0675  2.9571  1.1348
 7085SOL    HW232718   2.576   4.132   2.634 -0.9861 -0.1229 -2.0512
 7086SOL     OW32719   1.869   3.313   1.795  0.5851  0.1393  0.5406
 7086SOL    HW132720   1.915   3.269   1.723 -0.7999  0.8822 -0.8032
 7086SOL    HW232721   1.938   3.313   1.862  0.8859 -1.7740  0.2074
 7087SOL     OW32722   2.669   4.304   2.330 -0.1447  0.2574  0.4580
 7087SOL    HW132723   2.601   4.365   2.302 -2.3051 -1.3432  2.2310
 7087SOL    HW232724   2.675   4.243   2.256 -1.5616 -1.0601  1.4209
 7088SOL     OW32725   4.548   2.269   3.069 -0.5166  0.3497 -0.5190
 7088SOL    HW132726   4.473   2.268   3.128  1.7094  1.9433  2.3851
 7088SOL    HW232727   4.614   2.294   3.135 -1.7375  1.8009  0.1329
 7089SOL     OW32728   1.460   3.186  14.154  0.0463  0.2257  0.2072
 7089SOL    HW132729   1.515   3.182  14.076 -1.8482  0.8297 -1.1447
 7089SOL    HW232730   1.432   3.278  14.154  0.3905  0.3294 -0.1988
 7090SOL     OW32731   3.050   3.865   1.023  0.0264  0.2416  0.0153
 7090SOL    HW132732   3.128   3.837   1.072 -0.2337  0.4616  0.5579
 7090SOL    HW232733   3.095   3.898   0.945  0.3099  2.0549  0.9351
 7091SOL     OW32734   1.761   1.944  10.689  0.5903  0.9918  0.0851
 7091SOL    HW132735   1.732   1.923  10.600  0.3425  0.1847  0.3619
 7091SOL    HW232736   1.784   1.856  10.717 -2.3753  0.7182  1.7228
 7092SOL     OW32737   3.186   2.520   5.302  0.3058  0.0416 -0.7416
 7092SOL    HW132738   3.147   2.463   5.368  1.2813  0.0627 -0.1399
 7092SOL    HW232739   3.262   2.552   5.351 -1.5534  1.0614  1.4535
 7093SOL     OW32740   0.802   4.634   4.917 -0.6295 -0.4372 -0.2223
 7093SOL    HW132741   0.841   4.711   4.876  0.0688  0.0572  1.3756
 7093SOL    HW232742   0.790   4.668   5.006 -0.0790  0.3951 -0.4671
 7094SOL     OW32743   3.314   0.081   8.202 -0.2235  1.0971 -0.2228
 7094SOL    HW132744   3.340   0.030   8.279 -0.8681  0.9087 -0.1322
 7094SOL    HW232745   3.394   0.130   8.181 -0.0689  1.0855  0.3355
 7095SOL     OW32746   0.637   3.562   1.118  0.0006 -0.2816  0.2993
 7095SOL    HW132747   0.694   3.595   1.049  0.0904 -0.9059  0.0691
 7095SOL    HW232748   0.558   3.614   1.108  2.4811  3.1624 -1.1081
 7096SOL     OW32749   2.554   4.159   6.591 -0.0623  0.5779  0.1671
 7096SOL    HW132750   2.486   4.191   6.650 -0.7348 -0.8334  0.1551
 7096SOL    HW232751   2.623   4.219   6.621 -0.3641  1.3831 -0.7419
 7097SOL     OW32752   4.534   2.605   5.677  0.3188  0.1314  0.2171
 7097SOL    HW132753   4.509   2.575   5.590 -0.4237  1.1488  0.0813
 7097SOL    HW232754   4.551   2.520   5.717  0.1130  0.3279  0.7191
 7098SOL     OW32755   2.037   3.760   9.838  0.0863 -0.6182 -0.3141
 7098SOL    HW132756   1.972   3.712   9.785 -0.3737 -0.0842 -0.2373
 7098SOL    HW232757   2.029   3.717   9.923 -0.4732 -0.2826 -0.1995
 7099SOL     OW32758   2.773   1.174   6.573  0.0529 -0.0954  0.0913
 7099SOL    HW132759   2.738   1.137   6.653  0.2225  2.5511  1.3744
 7099SOL    HW232760   2.754   1.265   6.596 -1.0558 -0.4145  0.4311
 7100SOL     OW32761   1.861   2.300  10.569 -0.1437  0.3228 -0.3833
 7100SOL    HW132762   1.901   2.213  10.575  0.2830  0.5591  0.1951
 7100SOL    HW232763   1.833   2.303  10.660  0.6883  0.0923 -0.1140
 7101SOL     OW32764   2.074   1.065  11.044 -0.0246 -0.2309 -0.4087
 7101SOL    HW132765   2.018   1.130  11.085  1.0688  0.0297  0.6808
 7101SOL    HW232766   2.120   1.120  10.980  1.8901 -0.6489  0.5945
 7102SOL     OW32767   3.084   1.267   5.508  0.4923 -0.4206  0.3639
 7102SOL    HW132768   3.079   1.341   5.448 -1.2503 -0.0022  1.0402
 7102SOL    HW232769   3.027   1.298   5.578 -0.3366  1.3220 -1.0791
 7103SOL     OW32770   1.547   4.080   7.358 -0.7875  0.4940 -0.4891
 7103SOL    HW132771   1.601   4.006   7.330 -1.1120  0.0759 -0.0186
 7103SOL    HW232772   1.466   4.060   7.311  0.7283  1.5447 -3.5697
 7104SOL     OW32773   2.404   1.834   1.098 -0.3487 -0.2301  0.5019
 7104SOL    HW132774   2.480   1.859   1.045 -0.3842 -0.1633  0.4819
 7104SOL    HW232775   2.357   1.917   1.091 -2.5711 -1.4674  0.9600
 7105SOL     OW32776   0.544   4.018   6.487 -0.0429  0.4364  0.1010
 7105SOL    HW132777   0.561   3.968   6.408  0.8233  0.7515  0.0832
 7105SOL    HW232778   0.451   4.008   6.470  0.1210 -0.0382 -0.4993
 7106SOL     OW32779   2.146   4.688   7.303  0.3000 -0.3072 -0.0387
 7106SOL    HW132780   2.068   4.645   7.268  1.2391 -2.1825  0.1933
 7106SOL    HW232781   2.118   0.006   7.386  1.1482 -1.2779  0.7100
 7107SOL     OW32782   2.394   0.389   5.834  0.2242 -0.1656 -0.0960
 7107SOL    HW132783   2.467   0.358   5.781  1.0798  0.8785  0.4584
 7107SOL    HW232784   2.315   0.350   5.797  0.0185 -0.8613  1.0849
 7108SOL     OW32785   2.871   2.212   4.821 -0.6734  0.0113 -0.5155
 7108SOL    HW132786   2.884   2.229   4.914 -1.1589 -0.1335 -0.4238
 7108SOL    HW232787   2.873   2.117   4.813  0.8669 -0.0960  1.1565
 7109SOL     OW32788   1.050   2.592   6.790  0.0451 -0.1546 -0.8771
 7109SOL    HW132789   0.963   2.585   6.829 -0.3186  0.0737 -1.6443
 7109SOL    HW232790   1.025   2.601   6.698  1.8148  0.3829 -1.3073
 7110SOL     OW32791   2.896   4.476   1.144  0.5177  0.1505  0.7066
 7110SOL    HW132792   2.866   4.468   1.053 -0.8177  0.3635  1.1322
 7110SOL    HW232793   2.814   4.461   1.191 -0.5040 -0.6152 -1.3068
 7111SOL     OW32794   4.374   3.298  12.974 -0.0885  0.4602  0.3457
 7111SOL    HW132795   4.329   3.219  13.004 -2.1285  0.6427 -2.2051
 7111SOL    HW232796   4.417   3.259  12.898 -0.7083 -0.0073  0.2352
 7112SOL     OW32797   4.653   0.030  13.301  0.0522 -0.4626  0.5885
 7112SOL    HW132798   4.669   4.686  13.233 -1.9846  0.9318 -1.2163
 7112SOL    HW232799   4.632   4.700  13.379 -1.1010 -0.1720  0.4625
 7113SOL     OW32800   3.975   1.494  15.108 -0.0044 -0.0050 -0.6702
 7113SOL    HW132801   4.017   1.468  15.190  1.0292  0.9144 -0.9002
 7113SOL    HW232802   3.886   1.471  15.134  0.0681 -1.6016 -1.8461
 7114SOL     OW32803   4.054   0.874  17.054 -0.4450  0.0390  0.7252
 7114SOL    HW132804   4.014   0.804  17.106  2.1567 -1.7688  0.2899
 7114SOL    HW232805   4.133   0.832  17.019 -0.7853 -0.2259  0.2715
 7115SOL     OW32806   0.118   1.675   3.957  0.2592 -0.4635 -0.4177
 7115SOL    HW132807   0.145   1.584   3.959  1.3386 -0.1194  0.8376
 7115SOL    HW232808   0.082   1.684   4.046 -1.9103 -3.0339 -1.0394
 7116SOL     OW32809   0.666   1.942   8.961 -0.6738 -0.5227 -0.0877
 7116SOL    HW132810   0.685   1.893   8.882 -0.0970  0.3158 -0.4700
 7116SOL    HW232811   0.669   2.034   8.933  2.8579 -1.0649 -1.5149
 7117SOL     OW32812   1.654   1.554   5.851  0.4664 -0.4169 -0.4254
 7117SOL    HW132813   1.688   1.643   5.840  1.4358 -0.6492  0.7530
 7117SOL    HW232814   1.720   1.511   5.906 -0.3865  1.5895  2.1793
 7118SOL     OW32815   0.100   1.398   9.594  0.6653 -0.3001  0.6791
 7118SOL    HW132816   0.120   1.475   9.648  2.0070  0.6005 -1.0993
 7118SOL    HW232817   0.127   1.332   9.658 -2.9370 -2.6714 -0.2420
 7119SOL     OW32818   3.893   3.645   7.639 -0.8047 -0.2404 -0.1243
 7119SOL    HW132819   3.899   3.621   7.547  2.8167 -1.6057  0.4724
 7119SOL    HW232820   3.979   3.685   7.647 -1.5830  1.3972  0.0805
 7120SOL     OW32821   2.958   1.354   2.340  0.6109  0.5550 -0.4622
 7120SOL    HW132822   2.910   1.351   2.258 -1.9467 -0.0011  1.0745
 7120SOL    HW232823   3.047   1.363   2.306  0.4327  2.3526 -0.5020
 7121SOL     OW32824   2.479   0.753   2.481  0.1612  0.4696 -0.7099
 7121SOL    HW132825   2.477   0.767   2.576  0.8770  1.2472 -0.8116
 7121SOL    HW232826   2.572   0.768   2.464  0.3156 -1.7394 -1.8033
 7122SOL     OW32827   2.647   4.226   2.930 -0.1001 -0.1210 -0.0635
 7122SOL    HW132828   2.688   4.178   2.858  0.2889  1.0272 -0.5979
 7122SOL    HW232829   2.616   4.306   2.889  0.6913 -0.3816 -1.1961
 7123SOL     OW32830   1.668   1.688  16.157  0.3018  0.3739  0.1290
 7123SOL    HW132831   1.688   1.601  16.191  2.7312  1.2951  1.0367
 7123SOL    HW232832   1.669   1.671  16.063  2.0775 -0.6597  0.3382
 7124SOL     OW32833   4.279   2.490  17.012 -0.1317  0.3422 -0.1701
 7124SOL    HW132834   4.236   2.482  17.097  1.3869 -0.7069  0.5036
 7124SOL    HW232835   4.200   2.485  16.959 -0.5997  0.2669  0.5396
 7125SOL     OW32836   3.729   0.155  13.977  0.0358  0.3406 -0.5028
 7125SOL    HW132837   3.684   0.167  14.060 -0.5721 -0.5022 -0.7103
 7125SOL    HW232838   3.745   0.241  13.938  0.4599 -0.7252 -2.6684
 7126SOL     OW32839   3.547   4.262   2.927  0.3934  0.0144  0.8630
 7126SOL    HW132840   3.495   4.182   2.934  0.2735  0.1589  1.5954
 7126SOL    HW232841   3.628   4.212   2.934  1.1622  0.5638 -3.9726
 7127SOL     OW32842   1.658   0.378   2.801  0.0495 -0.3075  0.2519
 7127SOL    HW132843   1.597   0.427   2.746 -0.1566  0.2902  0.9949
 7127SOL    HW232844   1.610   0.374   2.884  1.7769 -3.4306  1.0929
 7128SOL     OW32845   0.985   1.074  12.409  0.2285 -0.4442 -0.2484
 7128SOL    HW132846   0.959   1.161  12.381 -1.5851 -1.0267 -0.4114
 7128SOL    HW232847   0.963   1.088  12.501 -0.5040 -0.3883 -0.4324
 7129SOL     OW32848   1.348   1.225  14.590 -0.6141 -0.3353  0.1592
 7129SOL    HW132849   1.394   1.235  14.506 -0.3562 -0.7116  0.2563
 7129SOL    HW232850   1.262   1.217  14.548 -0.4833  1.2933 -0.3989
 7130SOL     OW32851   0.337   2.797   7.216  0.5327 -0.0133 -0.5646
 7130SOL    HW132852   0.279   2.770   7.288 -1.0138 -2.2590 -2.6042
 7130SOL    HW232853   0.375   2.715   7.183 -0.0237 -0.3202 -0.4502
 7131SOL     OW32854   2.134   4.288   7.986 -0.0077 -0.3083  0.4520
 7131SOL    HW132855   2.151   4.268   8.078  1.9220  0.0871  0.1848
 7131SOL    HW232856   2.155   4.381   7.973 -0.9786  0.0067  1.1301
 7132SOL     OW32857   0.708   3.952   4.433  0.4993  0.0769  0.4000
 7132SOL    HW132858   0.690   4.012   4.360 -0.1354  2.4610  2.5263
 7132SOL    HW232859   0.623   3.958   4.477  0.2811  0.3170 -0.0551
 7133SOL     OW32860   1.952   1.288   6.172  0.1015 -0.2444 -0.6506
 7133SOL    HW132861   2.039   1.257   6.196 -0.3780  0.1405  1.6247
 7133SOL    HW232862   1.942   1.356   6.239 -0.4091  0.4315 -1.4169
 7134SOL     OW32863   4.466   4.398   8.381  0.2725  0.0624  0.8679
 7134SOL    HW132864   4.438   4.354   8.462 -0.6681 -1.8727 -0.5180
 7134SOL    HW232865   4.418   4.479   8.399 -0.0000  0.0006  0.4112
 7135SOL     OW32866   4.198   2.176  11.077  0.0217  0.4346 -0.0359
 7135SOL    HW132867   4.144   2.136  11.009  0.7899  0.7165 -0.7980
 7135SOL    HW232868   4.250   2.239  11.028  1.0007 -1.0094 -0.8384
 7136SOL     OW32869   0.531   1.482  16.949  0.0295 -0.0850  0.2372
 7136SOL    HW132870   0.455   1.519  16.992 -1.0773 -0.3046 -1.5352
 7136SOL    HW232871   0.579   1.564  16.932  0.7350 -0.1047  2.1254
 7137SOL     OW32872   2.608   0.286   8.395 -0.2602  0.4162  0.1094
 7137SOL    HW132873   2.631   0.194   8.385  1.0011  0.7217  0.2023
 7137SOL    HW232874   2.576   0.309   8.308  0.3627 -2.1675 -0.8086
 7138SOL     OW32875   0.700   4.511  11.545  0.7562 -0.2519 -0.6859
 7138SOL    HW132876   0.664   4.526  11.632  0.4447  1.7314 -1.1612
 7138SOL    HW232877   0.791   4.511  11.576  0.5235  1.1783  0.0123
 7139SOL     OW32878   1.906   2.278   1.290 -0.3209  0.2952 -0.1364
 7139SOL    HW132879   1.898   2.255   1.383 -0.2286 -1.5794 -0.5792
 7139SOL    HW232880   1.814   2.301   1.274 -0.1015  1.1389 -0.1760
 7140SOL     OW32881   0.575   1.096  13.841  0.7647  0.0191 -0.3528
 7140SOL    HW132882   0.537   1.169  13.890 -1.1279 -0.5867 -0.9211
 7140SOL    HW232883   0.657   1.130  13.807 -0.3333  1.5764 -1.4432
 7141SOL     OW32884   1.492   1.890   3.180 -0.4425 -0.2325 -0.1619
 7141SOL    HW132885   1.469   1.924   3.093 -0.8741 -2.7591 -1.0509
 7141SOL    HW232886   1.516   1.971   3.226 -0.4752 -1.6903  2.4114
 7142SOL     OW32887   4.554   3.866   6.868  0.0386  0.2716 -0.0881
 7142SOL    HW132888   4.590   3.795   6.816  1.7566  0.4733  0.8244
 7142SOL    HW232889   4.460   3.852   6.857  0.0629 -0.1491  0.2129
 7143SOL     OW32890   2.147   1.742   5.440 -0.3523  0.3373 -0.1253
 7143SOL    HW132891   2.143   1.743   5.535 -0.5301 -3.5422 -0.1126
 7143SOL    HW232892   2.198   1.821   5.425  0.2695  0.0821  0.6697
 7144SOL     OW32893   2.599   3.572   4.380  0.3175 -0.1104 -0.4629
 7144SOL    HW132894   2.619   3.553   4.288  0.0452 -0.3285 -0.4790
 7144SOL    HW232895   2.595   3.479   4.403 -0.8209 -0.1214 -0.6745
 7145SOL     OW32896   1.365   3.629  11.814  0.1275 -0.1803  0.1005
 7145SOL    HW132897   1.374   3.591  11.727  0.3070  0.4808 -0.1659
 7145SOL    HW232898   1.409   3.714  11.807 -1.3261  0.4971 -0.8233
 7146SOL     OW32899   3.635   2.809   0.577 -0.7999 -0.5477  0.3758
 7146SOL    HW132900   3.550   2.780   0.543 -1.9864 -0.1835  3.0077
 7146SOL    HW232901   3.631   2.761   0.660  0.3582  0.1154  0.8105
 7147SOL     OW32902   1.872   4.429   2.732  0.0133 -0.4763 -0.3106
 7147SOL    HW132903   1.841   4.518   2.748  0.1865 -0.6665  1.0260
 7147SOL    HW232904   1.930   4.421   2.807 -0.2559  2.4833  0.2054
 7148SOL     OW32905   3.441   0.618   1.814  0.1060 -0.4562 -0.0834
 7148SOL    HW132906   3.391   0.697   1.793  1.0047  0.5476  1.6128
 7148SOL    HW232907   3.474   0.599   1.726 -0.4736  0.4116 -0.4840
 7149SOL     OW32908   2.305   3.101   8.259  0.4842 -0.1737  0.1889
 7149SOL    HW132909   2.214   3.072   8.264  0.8087 -1.1229  0.4640
 7149SOL    HW232910   2.319   3.122   8.351  2.4304  1.1578 -0.3955
 7150SOL     OW32911   1.869   0.198   5.228 -0.0870  0.6799 -0.6286
 7150SOL    HW132912   1.927   0.258   5.275  0.2232 -1.5890  1.8791
 7150SOL    HW232913   1.784   0.213   5.270 -0.2920  0.0314 -0.8205
 7151SOL     OW32914   3.131   1.532   8.379 -0.2815  0.5258 -0.0210
 7151SOL    HW132915   3.103   1.621   8.398  1.5294  0.5857  2.3659
 7151SOL    HW232916   3.225   1.534   8.360 -0.1488 -1.1250  0.4681
 7152SOL     OW32917   4.151   0.495  17.440  0.6870  0.0335 -0.0028
 7152SOL    HW132918   4.188   0.525  17.522 -0.9122 -0.8678  1.0539
 7152SOL    HW232919   4.124   0.408  17.470 -0.4483  0.5625  0.5064
 7153SOL     OW32920   2.480   2.765   3.707 -0.7809  0.3314  0.2888
 7153SOL    HW132921   2.552   2.816   3.743 -2.3530  2.8623 -0.1582
 7153SOL    HW232922   2.525   2.691   3.667 -2.5191 -0.4415 -0.2524
 7154SOL     OW32923   0.247   1.671   6.045 -0.5482 -0.6773  0.2948
 7154SOL    HW132924   0.337   1.687   6.074 -0.0401 -0.8404 -1.2003
 7154SOL    HW232925   0.255   1.579   6.019  1.5411 -0.4938  0.2596
 7155SOL     OW32926   0.631   2.159   4.340 -0.1131 -0.4134  0.9083
 7155SOL    HW132927   0.660   2.083   4.392 -0.0402  0.3783  2.0314
 7155SOL    HW232928   0.717   2.177   4.301  1.9086 -2.0800  4.5332
 7156SOL     OW32929   0.038   2.516   6.988 -0.2793  0.0633  0.1022
 7156SOL    HW132930   0.085   2.448   6.940 -0.8330  1.3052 -2.1913
 7156SOL    HW232931   4.670   2.491   6.962 -0.1130 -0.5184  0.0963
 7157SOL     OW32932   0.193   2.027   2.841 -0.8333 -0.3930  0.1591
 7157SOL    HW132933   0.257   2.086   2.802  2.6112 -1.3912  4.2142
 7157SOL    HW232934   0.130   2.096   2.863  0.8258  0.4184  2.3943
 7158SOL     OW32935   2.825   1.160   4.648 -0.3372 -0.5150  0.2207
 7158SOL    HW132936   2.831   1.178   4.554  2.0205 -3.3724 -0.1771
 7158SOL    HW232937   2.890   1.221   4.683 -1.6789  0.6492  0.6723
 7159SOL     OW32938   3.313   0.825   1.732  0.6411 -0.9132 -0.0860
 7159SOL    HW132939   3.236   0.772   1.715 -0.4653  0.4437  0.7423
 7159SOL    HW232940   3.299   0.882   1.657  0.1195 -0.1825  0.5790
 7160SOL     OW32941   0.386   1.981  13.844  0.0119  0.0770 -0.5293
 7160SOL    HW132942   0.330   1.970  13.767 -0.1473  1.7121 -0.6521
 7160SOL    HW232943   0.323   2.025  13.902  0.2020  1.0845 -1.0994
 7161SOL     OW32944   3.475   1.959   4.325  0.2937  0.0141 -0.5151
 7161SOL    HW132945   3.429   2.041   4.340  0.6788  0.2586 -0.6730
 7161SOL    HW232946   3.408   1.890   4.320 -1.9587  2.3569 -2.4152
 7162SOL     OW32947   0.567   2.784   5.607  0.3521 -0.4587 -0.2643
 7162SOL    HW132948   0.628   2.717   5.579  1.2420  0.1967  0.0865
 7162SOL    HW232949   0.489   2.736   5.637  0.4485  0.3056  1.2125
 7163SOL     OW32950   0.089   4.431   6.474  0.5560  0.3452 -0.0611
 7163SOL    HW132951   0.091   4.511   6.423  1.6871 -0.2133 -0.8738
 7163SOL    HW232952   0.172   4.429   6.521 -0.0667 -1.0611  0.9988
 7164SOL     OW32953   2.643   1.316   8.148  0.4615 -0.2277 -0.0042
 7164SOL    HW132954   2.734   1.343   8.155  0.3608  0.4164 -1.1229
 7164SOL    HW232955   2.610   1.389   8.201 -0.0235 -1.4981  1.4437
 7165SOL     OW32956   1.605   0.690   6.845  0.3861  0.0658 -0.0287
 7165SOL    HW132957   1.689   0.652   6.821  1.1772 -0.2564  3.2135
 7165SOL    HW232958   1.619   0.747   6.921 -2.5241  0.1777  0.4520
 7166SOL     OW32959   1.603   1.851   6.433  0.1201 -0.0820 -0.1441
 7166SOL    HW132960   1.583   1.861   6.526  1.2126 -1.7762  0.2861
 7166SOL    HW232961   1.603   1.755   6.438 -2.3200 -0.0162  0.7945
 7167SOL     OW32962   3.900   1.298   8.894  0.1995 -0.4804  0.0482
 7167SOL    HW132963   3.936   1.271   8.978  1.1536 -0.1599 -0.2587
 7167SOL    HW232964   3.804   1.291   8.898  0.2496 -0.6613  0.7896
 7168SOL     OW32965   2.157   4.156   4.805 -0.2774 -0.3835 -0.2852
 7168SOL    HW132966   2.151   4.146   4.900 -0.5726 -1.5525 -0.4192
 7168SOL    HW232967   2.199   4.078   4.769 -0.1766 -0.2457 -0.4666
 7169SOL     OW32968   4.395   1.666   2.758 -0.0103  0.0047  0.1665
 7169SOL    HW132969   4.479   1.712   2.747 -0.4239  1.1508  1.8503
 7169SOL    HW232970   4.419   1.598   2.695 -2.6305 -0.5906 -0.1689
 7170SOL     OW32971   0.261   2.149  16.265 -0.2028 -0.1664  0.5582
 7170SOL    HW132972   0.355   2.129  16.273 -0.5144 -1.0827  1.9305
 7170SOL    HW232973   0.230   2.127  16.353 -1.2351 -2.3511 -0.3404
 7171SOL     OW32974   2.485   0.983   8.962 -0.1260 -0.3035 -0.2150
 7171SOL    HW132975   2.432   0.913   9.000 -0.1221  0.6111  1.4769
 7171SOL    HW232976   2.457   0.980   8.871 -0.4013 -3.1216 -0.0148
 7172SOL     OW32977   2.136   1.449   4.991  0.0287 -0.3211  0.0321
 7172SOL    HW132978   2.198   1.411   4.928 -0.9104  0.5044 -1.3806
 7172SOL    HW232979   2.108   1.532   4.954  1.5965  0.0343 -0.3491
 7173SOL     OW32980   1.671   2.607  17.159 -0.3155  0.5244 -0.1526
 7173SOL    HW132981   1.599   2.655  17.200 -0.8020  0.4067 -0.8699
 7173SOL    HW232982   1.743   2.629  17.217 -2.3195 -1.7010  3.1400
 7174SOL     OW32983   4.140   2.373   3.022 -0.0580 -0.3189  0.1376
 7174SOL    HW132984   4.181   2.450   3.062 -0.0237  0.0568 -0.6153
 7174SOL    HW232985   4.183   2.295   3.056  0.3020 -0.0651  0.2615
 7175SOL     OW32986   2.006   1.653   3.710 -0.3521  0.4640  0.3051
 7175SOL    HW132987   1.987   1.699   3.791  0.7367  0.1237  0.7484
 7175SOL    HW232988   2.089   1.607   3.722 -0.7063 -0.4785 -0.8260
 7176SOL     OW32989   2.560   0.457   2.901  0.0189  0.0738  0.1692
 7176SOL    HW132990   2.505   0.381   2.923  1.9440 -2.0725 -2.3882
 7176SOL    HW232991   2.640   0.423   2.860  0.6924  0.0075  1.5570
 7177SOL     OW32992   2.407   1.305   2.018 -0.0759  0.3942 -0.2294
 7177SOL    HW132993   2.466   1.265   2.082  1.8334  1.0745 -1.5456
 7177SOL    HW232994   2.445   1.277   1.935  0.9265  0.3901  0.2370
 7178SOL     OW32995   0.916   4.294   6.533 -0.2234 -0.5133  0.0057
 7178SOL    HW132996   0.975   4.291   6.458 -1.1779  4.2065 -0.8743
 7178SOL    HW232997   0.973   4.252   6.597 -0.2947  0.0879  0.4578
 7179SOL     OW32998   1.826   0.340   6.954 -0.0401 -0.3842 -0.9691
 7179SOL    HW132999   1.756   0.399   6.982  0.0604  0.2758 -2.1204
 7179SOL    HW233000   1.783   0.259   6.982 -1.8505  0.0370 -2.5104
 7180SOL     OW33001   4.215   2.878   7.326  0.6980 -0.0531 -0.9711
 7180SOL    HW133002   4.236   2.971   7.319  1.5658 -0.1036  0.8165
 7180SOL    HW233003   4.267   2.859   7.404 -1.3431  1.2579  0.7022
 7181SOL     OW33004   4.604   0.439  13.657 -0.7161 -0.3971  0.2872
 7181SOL    HW133005   4.530   0.429  13.716 -3.1094  1.2962 -2.3853
 7181SOL    HW233006   4.570   0.509  13.600  2.2287  0.9379  0.1929
 7182SOL     OW33007   4.346   3.002   5.330  0.0423 -0.3187  0.1161
 7182SOL    HW133008   4.367   3.095   5.319 -1.0082 -0.1444 -0.3584
 7182SOL    HW233009   4.428   2.952   5.331 -0.4319 -1.0911  0.5052
 7183SOL     OW33010   2.796   4.092  10.254  0.4741 -0.5023 -0.4686
 7183SOL    HW133011   2.706   4.097  10.224 -0.4214  0.8498  2.4198
 7183SOL    HW233012   2.794   4.063  10.346 -1.4670 -0.7021 -0.5795
 7184SOL     OW33013   0.760   3.439   2.175  0.0307  0.8952 -0.2661
 7184SOL    HW133014   0.708   3.516   2.197  1.0719  2.0281 -1.6970
 7184SOL    HW233015   0.695   3.369   2.166  1.0872 -0.2300  0.8210
 7185SOL     OW33016   2.707   0.832  14.540 -0.0562 -0.5418  0.0091
 7185SOL    HW133017   2.646   0.852  14.611  1.0628  1.5382  0.3801
 7185SOL    HW233018   2.792   0.827  14.584  0.3202  0.0249 -0.6460
 7186SOL     OW33019   1.119   1.864   3.573 -0.5024  0.0983 -0.1600
 7186SOL    HW133020   1.110   1.850   3.479  3.2772  0.4014 -0.5721
 7186SOL    HW233021   1.173   1.789   3.600 -0.9847 -0.8545 -1.8575
 7187SOL     OW33022   3.248   3.281  16.602 -0.0485  0.1569  0.1244
 7187SOL    HW133023   3.209   3.242  16.524 -0.0463 -0.3958  0.3929
 7187SOL    HW233024   3.269   3.366  16.565 -0.8602 -0.1063 -0.9257
 7188SOL     OW33025   3.757   1.414  13.391  0.0178  0.1035  0.3426
 7188SOL    HW133026   3.824   1.475  13.421 -0.3533  0.8655 -0.3713
 7188SOL    HW233027   3.724   1.462  13.315 -0.5414  2.7657  2.2733
 7189SOL     OW33028   4.043   0.400   4.765  0.2956 -0.0149  0.1346
 7189SOL    HW133029   4.085   0.322   4.729 -3.6978 -1.4944 -1.2879
 7189SOL    HW233030   3.952   0.378   4.748 -0.2450  2.5919 -0.4067
 7190SOL     OW33031   0.420   2.905   8.903 -0.5734  0.2819 -0.0655
 7190SOL    HW133032   0.483   2.975   8.884  0.3527  0.2087  2.8182
 7190SOL    HW233033   0.476   2.828   8.893 -2.4171 -1.3018  1.8806
 7191SOL     OW33034   2.645   3.654   2.170  0.4678 -0.3563 -0.1889
 7191SOL    HW133035   2.706   3.651   2.096  1.1456 -0.0506  0.3623
 7191SOL    HW233036   2.706   3.633   2.240 -0.5678  0.3055  0.8984
 7192SOL     OW33037   3.516   0.383  13.071  0.9201 -0.6020 -0.2014
 7192SOL    HW133038   3.485   0.472  13.052  0.8732 -0.8869 -1.3956
 7192SOL    HW233039   3.594   0.417  13.117 -1.0141  1.7603  1.3306
 7193SOL     OW33040   0.473   0.359  17.147 -0.2539  0.1705  0.6287
 7193SOL    HW133041   0.519   0.280  17.117 -1.2562  0.5157 -1.7777
 7193SOL    HW233042   0.485   0.412  17.069  1.6253 -0.4900  0.4564
 7194SOL     OW33043   1.967   2.305  10.062  0.1282 -0.1904 -0.3650
 7194SOL    HW133044   1.882   2.265  10.044 -0.0823 -0.1395  0.5015
 7194SOL    HW233045   1.951   2.329  10.153 -2.3333 -1.1642 -0.5397
 7195SOL     OW33046   1.266   1.604   8.019  0.0683 -0.4055 -0.1895
 7195SOL    HW133047   1.356   1.582   7.995 -0.2678  2.4532 -3.9514
 7195SOL    HW233048   1.273   1.637   8.109 -0.1474 -3.0280  0.7967
 7196SOL     OW33049   4.113   1.624   5.698  0.2723 -0.1450 -0.2066
 7196SOL    HW133050   4.200   1.664   5.708  0.5500 -1.3527  1.9970
 7196SOL    HW233051   4.127   1.543   5.650  1.5106  0.0959 -0.2518
 7197SOL     OW33052   0.572   3.094   2.934 -0.2679  0.3537  0.2212
 7197SOL    HW133053   0.656   3.063   2.966 -0.2345 -2.0856 -2.2890
 7197SOL    HW233054   0.585   3.189   2.938 -1.0749  0.4148  1.3986
 7198SOL     OW33055   0.807   3.945  10.682  0.1268 -0.5644 -0.0462
 7198SOL    HW133056   0.730   3.920  10.631  0.2681  1.0725 -1.0531
 7198SOL    HW233057   0.784   4.033  10.711  1.2887  0.0791 -1.0798
 7199SOL     OW33058   2.234   3.750  13.881  0.1206  0.0306  0.3322
 7199SOL    HW133059   2.314   3.704  13.909  1.8954  2.0821 -1.4261
 7199SOL    HW233060   2.199   3.795  13.958 -0.7565 -1.5936  0.8840
 7200SOL     OW33061   0.296   1.266   5.728  0.5654  0.0020 -0.2625
 7200SOL    HW133062   0.359   1.251   5.657 -0.6789 -0.2081 -1.3391
 7200SOL    HW233063   0.246   1.186   5.716 -0.2397  0.6733 -1.4060
 7201SOL     OW33064   1.502   3.273   2.160 -0.6800  0.4230  0.0491
 7201SOL    HW133065   1.484   3.346   2.100 -0.0719 -1.1055 -1.9810
 7201SOL    HW233066   1.587   3.247   2.126 -0.5915 -0.3441  0.8674
 7202SOL     OW33067   2.674   2.879   5.680  0.2148 -0.2679 -0.1412
 7202SOL    HW133068   2.717   2.795   5.696 -0.7657 -0.9114 -0.8956
 7202SOL    HW233069   2.665   2.915   5.768 -1.0617  0.2626 -0.4894
 7203SOL     OW33070   4.593   2.970   7.982 -0.2334  0.3874  0.2879
 7203SOL    HW133071   4.622   2.879   7.983  0.6821  0.6794  0.1081
 7203SOL    HW233072   4.498   2.961   7.990 -0.3079 -0.5181 -1.7045
 7204SOL     OW33073   2.674   3.792  10.221 -0.0936  0.3086 -0.3643
 7204SOL    HW133074   2.599   3.750  10.177 -0.8610 -1.0393  2.2485
 7204SOL    HW233075   2.751   3.742  10.194  1.1851  0.5346  2.8968
 7205SOL     OW33076   2.403   0.106   3.196  0.2643 -0.5115 -0.2398
 7205SOL    HW133077   2.397   0.152   3.112 -0.1122  0.0160  0.0714
 7205SOL    HW233078   2.309   0.097   3.211  0.5370 -0.2611  1.7131
 7206SOL     OW33079   0.801   2.117   6.321  0.4940 -0.1552  0.5190
 7206SOL    HW133080   0.851   2.095   6.400  1.2146  0.8881  0.3553
 7206SOL    HW233081   0.714   2.082   6.341  0.7321  0.3208  2.4403
 7207SOL     OW33082   0.610   2.493  14.683 -0.5108  0.2101 -0.0106
 7207SOL    HW133083   0.610   2.443  14.765 -0.1101 -0.1863 -0.2575
 7207SOL    HW233084   0.620   2.585  14.708 -0.9175  0.5740 -1.2006
 7208SOL     OW33085   0.284   2.762  15.733  0.2236 -0.3470  0.3111
 7208SOL    HW133086   0.327   2.821  15.671 -0.0325  0.4566  0.8910
 7208SOL    HW233087   0.196   2.778  15.701  0.1158 -1.0490  0.2625
 7209SOL     OW33088   0.286   1.974  15.401  0.0040 -0.3163 -0.6521
 7209SOL    HW133089   0.346   1.937  15.337 -1.9537 -2.5880 -1.1967
 7209SOL    HW233090   0.245   1.902  15.450  1.0923  1.0436  2.2845
 7210SOL     OW33091   4.581   4.265   4.867  0.1937  0.2622 -0.1915
 7210SOL    HW133092   4.582   4.283   4.961 -1.7861 -0.2096 -0.0853
 7210SOL    HW233093   4.489   4.275   4.845  0.5232 -0.1393 -1.8007
 7211SOL     OW33094   0.139   0.456   6.941 -0.3147 -0.2049  0.4055
 7211SOL    HW133095   0.227   0.465   6.977 -0.6156  1.5262  0.7344
 7211SOL    HW233096   0.137   0.540   6.896 -0.4325 -0.6343 -0.3867
 7212SOL     OW33097   0.596   0.971   4.493 -0.2576  0.1639 -0.4188
 7212SOL    HW133098   0.642   1.024   4.428  2.1106 -1.2723  0.0616
 7212SOL    HW233099   0.528   1.032   4.521 -0.3449 -0.4390  0.6685
 7213SOL     OW33100   1.954   3.229  15.093 -0.4456 -0.5270 -0.2496
 7213SOL    HW133101   1.971   3.156  15.033 -1.5713  1.4162 -2.9575
 7213SOL    HW233102   1.885   3.283  15.053 -1.2045 -1.4253 -0.1628
 7214SOL     OW33103   0.866   3.125   1.383 -0.1203  0.4902  0.2081
 7214SOL    HW133104   0.864   3.166   1.469  1.1480 -1.8997  1.3786
 7214SOL    HW233105   0.786   3.073   1.375  1.7669 -2.4089  0.0924
 7215SOL     OW33106   2.344   4.171  13.809 -0.0988 -0.0011 -0.4778
 7215SOL    HW133107   2.405   4.225  13.858 -1.0832  0.8333 -0.1538
 7215SOL    HW233108   2.260   4.190  13.851  0.2858 -0.9185  0.7154
 7216SOL     OW33109   1.735   3.535  15.571 -0.7127 -0.1097  0.1610
 7216SOL    HW133110   1.717   3.621  15.532  1.3588  0.2361 -0.0809
 7216SOL    HW233111   1.647   3.500  15.578 -0.0638 -2.2251 -2.0426
 7217SOL     OW33112   1.279   2.291   4.264  0.3841 -0.1958 -0.5265
 7217SOL    HW133113   1.280   2.197   4.283 -2.8740  0.0616  0.7901
 7217SOL    HW233114   1.345   2.281   4.195 -1.0474 -0.8090 -1.7985
 7218SOL     OW33115   2.568   1.604  13.570  0.0785  0.5028  0.5984
 7218SOL    HW133116   2.496   1.624  13.630 -1.3443 -2.9441  0.0421
 7218SOL    HW233117   2.630   1.572  13.635 -0.1112  1.1855  1.1226
 7219SOL     OW33118   3.850   2.020   2.722  0.0864  0.1799 -0.0357
 7219SOL    HW133119   3.817   1.997   2.809  0.9632 -1.5512 -0.1588
 7219SOL    HW233120   3.943   2.036   2.740 -0.3160  0.9039  1.4270
 7220SOL     OW33121   0.892   0.839   0.643  0.0241  0.3568  0.1625
 7220SOL    HW133122   0.867   0.929   0.664 -0.4831 -0.3657  2.6304
 7220SOL    HW233123   0.808   0.796   0.657 -1.1933  1.9276 -2.2822
 7221SOL     OW33124   2.434   3.615   2.583  0.0148  0.2833 -0.0028
 7221SOL    HW133125   2.426   3.699   2.537 -1.1169  0.9108  1.3522
 7221SOL    HW233126   2.342   3.591   2.591 -0.2917  1.3764 -0.2228
 7222SOL     OW33127   4.677   1.592  15.708 -0.0919 -0.1458  0.0618
 7222SOL    HW133128   4.582   1.595  15.716  0.2967  4.1910  2.8629
 7222SOL    HW233129   4.689   1.629  15.620 -2.0349  1.4076  0.4454
 7223SOL     OW33130   1.640   3.423   4.133  0.0267  0.1823  0.9734
 7223SOL    HW133131   1.612   3.504   4.090  1.8980  0.8043  0.9254
 7223SOL    HW233132   1.630   3.442   4.226  1.4379  1.8458  0.7904
 7224SOL     OW33133   3.775   3.793   3.250 -0.1048 -0.9521 -0.5014
 7224SOL    HW133134   3.853   3.797   3.305 -0.1887  1.2191 -0.5290
 7224SOL    HW233135   3.712   3.745   3.302  0.2964  0.7836  1.6047
 7225SOL     OW33136   0.477   1.168   5.527 -0.7940 -0.2068  0.6075
 7225SOL    HW133137   0.496   1.230   5.457 -0.4744 -2.0649 -0.9460
 7225SOL    HW233138   0.496   1.091   5.473  1.0557  0.4927  0.2590
 7226SOL     OW33139   1.543   0.867   9.199  0.2365 -0.2113 -0.2043
 7226SOL    HW133140   1.522   0.943   9.143 -1.9252 -0.9458 -0.4078
 7226SOL    HW233141   1.537   0.802   9.129 -0.1193 -0.5204  0.1167
 7227SOL     OW33142   2.057   2.828   5.082  0.2988 -0.3011  0.5246
 7227SOL    HW133143   1.998   2.780   5.023  0.6457 -0.7924  0.5773
 7227SOL    HW233144   2.045   2.783   5.165  1.2405 -0.9891  0.2898
 7228SOL     OW33145   4.307   1.229  11.407  0.5282  0.3875 -0.3684
 7228SOL    HW133146   4.350   1.253  11.324 -0.1483  1.4908 -0.4057
 7228SOL    HW233147   4.220   1.264  11.389  1.2622  0.9351 -2.8835
 7229SOL     OW33148   0.074   2.537   5.003  0.1431 -0.0401  0.2876
 7229SOL    HW133149   0.073   2.442   4.986 -0.1307 -0.3273  1.8716
 7229SOL    HW233150   0.130   2.567   4.932 -0.4171 -0.7076 -0.4446
 7230SOL     OW33151   0.269   4.526   5.298  0.0379  0.2604 -0.1803
 7230SOL    HW133152   0.286   4.445   5.249  1.4339  0.2904  0.2608
 7230SOL    HW233153   0.174   4.522   5.294  0.2506 -1.7912 -2.9152
 7231SOL     OW33154   0.708   3.057   7.275 -0.0824  0.2147 -0.2164
 7231SOL    HW133155   0.613   3.047   7.267  0.4991 -5.9863  1.0596
 7231SOL    HW233156   0.728   2.988   7.338  1.1510  1.8435  1.1886
 7232SOL     OW33157   4.519   0.554  15.273  0.0151  0.4738  0.1321
 7232SOL    HW133158   4.534   0.539  15.180  3.2486 -2.4174  1.1308
 7232SOL    HW233159   4.549   0.644  15.277  2.4454 -0.2951 -1.0632
 7233SOL     OW33160   1.890   2.136   6.565 -0.3426  0.2722 -0.2315
 7233SOL    HW133161   1.952   2.178   6.505  0.3754  0.7450  0.8595
 7233SOL    HW233162   1.891   2.205   6.631  1.4731  0.4465 -0.4412
 7234SOL     OW33163   0.830   1.660   6.462 -0.9020  0.0592  0.4103
 7234SOL    HW133164   0.812   1.752   6.481  2.5060  0.6887  0.6507
 7234SOL    HW233165   0.748   1.624   6.497 -0.8735  0.3710  0.8068
 7235SOL     OW33166   0.201   0.897   5.460 -0.3863 -0.6998 -0.7125
 7235SOL    HW133167   0.147   0.952   5.516  0.0715 -2.2349  1.2238
 7235SOL    HW233168   0.181   0.812   5.499 -0.6590 -0.1470  0.3470
 7236SOL     OW33169   1.649   0.882   7.070  0.4160  0.4188 -0.1545
 7236SOL    HW133170   1.605   0.827   7.135 -0.1505 -0.6258 -1.4272
 7236SOL    HW233171   1.569   0.930   7.048  0.9835  0.7443 -1.4941
 7237SOL     OW33172   1.362   4.107  17.622  0.0066 -0.4338 -0.1691
 7237SOL    HW133173   1.432   4.157  17.666  0.3844 -2.0766  1.0812
 7237SOL    HW233174   1.327   4.060   0.010  0.8066  1.7944  1.6150
 7238SOL     OW33175   0.733   0.925  14.512 -1.0867 -0.4398 -0.2805
 7238SOL    HW133176   0.697   0.850  14.465 -1.9152  0.6835 -1.4229
 7238SOL    HW233177   0.657   0.964  14.555  0.0874  2.0507 -0.4652
 7239SOL     OW33178   2.419   4.238   6.803 -0.4465  0.4894 -0.7324
 7239SOL    HW133179   2.415   4.329   6.831 -2.3526  0.1844 -0.0375
 7239SOL    HW233180   2.403   4.193   6.886  0.1768  1.0486 -0.3101
 7240SOL     OW33181   1.446   4.055   5.320  0.4373 -0.2212  0.3368
 7240SOL    HW133182   1.507   3.992   5.282  0.7576  0.6611 -0.6077
 7240SOL    HW233183   1.392   3.984   5.356  1.3953 -0.5651  1.1157
 7241SOL     OW33184   1.929   0.806   8.035 -0.1593 -0.0239  0.2304
 7241SOL    HW133185   1.860   0.873   8.033  1.4288  1.5777 -0.5999
 7241SOL    HW233186   2.007   0.851   8.068 -0.7656 -0.2499  1.9768
 7242SOL     OW33187   0.995   1.423   9.667  0.1928 -0.1003  0.9702
 7242SOL    HW133188   1.061   1.381   9.613 -2.1299 -1.6221 -0.6939
 7242SOL    HW233189   0.992   1.366   9.744  0.6785 -0.9391  0.3665
 7243SOL     OW33190   1.674   3.200   9.152  0.1053 -0.4262  0.3194
 7243SOL    HW133191   1.692   3.107   9.142 -1.2608 -0.4909 -1.5177
 7243SOL    HW233192   1.712   3.233   9.071 -0.7288  2.2759  0.9996
 7244SOL     OW33193   4.719   3.940   7.539  0.4580 -0.1539 -0.0580
 7244SOL    HW133194   0.062   3.928   7.469  0.0341 -1.9573 -0.1549
 7244SOL    HW233195   0.051   3.910   7.613  0.4312 -0.4746 -0.1677
 7245SOL     OW33196   2.596   1.343  10.878  0.1369  0.0464  0.7054
 7245SOL    HW133197   2.594   1.432  10.843  0.0141  0.1244  0.9108
 7245SOL    HW233198   2.662   1.301  10.823 -1.1644 -0.9294 -0.0895
 7246SOL     OW33199   0.939   4.712   3.908 -0.0245  0.0966 -0.0833
 7246SOL    HW133200   0.907   0.025   3.991  0.9122 -0.5760  0.5568
 7246SOL    HW233201   0.869   4.716   3.842  0.1917 -3.2288 -0.5120
 7247SOL     OW33202   0.960   1.643   1.444 -0.3567 -0.1783  0.3976
 7247SOL    HW133203   0.897   1.601   1.385 -0.2795  0.7738 -0.3541
 7247SOL    HW233204   0.913   1.698   1.506  3.2159  0.1824  2.7592
 7248SOL     OW33205   1.805   0.573  12.989 -0.1434  0.6929  0.2612
 7248SOL    HW133206   1.832   0.551  13.078  0.3216  1.5896  0.3456
 7248SOL    HW233207   1.807   0.494  12.935  2.0370  0.0249  1.3335
 7249SOL     OW33208   1.591   3.046   6.217  0.1043  0.5508 -0.3176
 7249SOL    HW133209   1.678   3.014   6.190  0.5618 -1.9298  4.1166
 7249SOL    HW233210   1.545   2.974   6.261 -0.2625  0.3489 -1.0353
 7250SOL     OW33211   2.875   1.113   5.372  0.3035 -0.1090  0.5554
 7250SOL    HW133212   2.879   1.021   5.345 -0.8601 -0.5772  2.0502
 7250SOL    HW233213   2.935   1.114   5.447 -0.4251  3.3479  1.0934
 7251SOL     OW33214   3.464   0.406   6.796  0.1012 -0.4543 -0.2029
 7251SOL    HW133215   3.498   0.495   6.783 -0.7094 -0.3695 -1.7124
 7251SOL    HW233216   3.538   0.352   6.822 -0.8562 -1.4702  0.4051
 7252SOL     OW33217   4.102   0.197   6.405 -0.0328  0.2008 -0.4249
 7252SOL    HW133218   4.171   0.252   6.367  1.9766 -0.2987  2.5102
 7252SOL    HW233219   4.152   0.118   6.423  0.2021  0.2105 -1.0179
 7253SOL     OW33220   1.436   1.526   3.471  0.1683 -0.2229 -0.3563
 7253SOL    HW133221   1.451   1.620   3.482  2.0242 -0.2609 -2.4606
 7253SOL    HW233222   1.487   1.509   3.391 -1.9756 -1.7730 -1.4117
 7254SOL     OW33223   3.805   3.396   4.592  0.3208  0.4384  0.5368
 7254SOL    HW133224   3.757   3.463   4.543 -1.1891 -0.3516  0.9274
 7254SOL    HW233225   3.772   3.393   4.682 -0.1900  0.4670  0.3487
 7255SOL     OW33226   3.740   1.387   7.049  0.0607  0.1894 -0.0110
 7255SOL    HW133227   3.720   1.441   6.973  2.8405 -0.6379 -1.3305
 7255SOL    HW233228   3.749   1.453   7.118  0.1491 -1.3504  1.4671
 7256SOL     OW33229   0.226   3.564  14.062  0.2095 -0.4021 -0.7844
 7256SOL    HW133230   0.197   3.553  13.972  1.8774  0.6531 -1.4607
 7256SOL    HW233231   0.265   3.651  14.057  1.9290 -1.0676  0.9865
 7257SOL     OW33232   0.129   0.819   8.713 -0.6506  0.3412  0.0303
 7257SOL    HW133233   0.076   0.817   8.633  1.7760 -1.4217 -1.5492
 7257SOL    HW233234   0.210   0.857   8.677 -1.9073  1.4953 -1.5795
 7258SOL     OW33235   1.507   2.755  10.522 -0.2977 -0.2622  0.0336
 7258SOL    HW133236   1.558   2.674  10.535 -0.4228 -0.1730  1.0962
 7258SOL    HW233237   1.581   2.815  10.526  1.5201 -2.4411 -0.6455
 7259SOL     OW33238   3.984   4.452   3.638 -0.2014 -0.1978  0.0198
 7259SOL    HW133239   4.026   4.447   3.553 -0.5848 -0.4252 -0.1552
 7259SOL    HW233240   4.031   4.386   3.688 -1.4832  0.1902  1.7446
 7260SOL     OW33241   2.705   2.783   2.503 -0.0837  0.7115 -0.3115
 7260SOL    HW133242   2.623   2.734   2.508  0.1330  0.2215 -1.5693
 7260SOL    HW233243   2.766   2.712   2.523 -2.3001 -1.0661  0.0931
 7261SOL     OW33244   0.155   4.453   4.333 -0.1575  0.0915  0.5921
 7261SOL    HW133245   0.093   4.520   4.303 -0.1897 -0.7871 -1.2915
 7261SOL    HW233246   0.157   4.396   4.256  2.3026  1.6248 -0.4655
 7262SOL     OW33247   2.032   0.274   2.919 -0.1648 -0.1823  0.1444
 7262SOL    HW133248   1.941   0.305   2.923 -0.0219  0.6504 -3.0278
 7262SOL    HW233249   2.071   0.361   2.910 -1.3576  0.5685  2.3106
 7263SOL     OW33250   2.837   3.038  10.127  0.3030  0.4187  0.1585
 7263SOL    HW133251   2.809   3.071  10.212  1.0492 -0.3138  0.6926
 7263SOL    HW233252   2.814   2.945  10.137  0.2756  0.4031 -0.0509
 7264SOL     OW33253   0.504   3.689   6.275  0.1553  0.2134  0.3172
 7264SOL    HW133254   0.549   3.759   6.227  0.8817 -1.5072 -1.4738
 7264SOL    HW233255   0.573   3.625   6.292  0.3087 -0.0038 -1.1532
 7265SOL     OW33256   1.788   2.245  16.622  0.0289  0.4429  0.0109
 7265SOL    HW133257   1.739   2.196  16.557  1.7894 -0.9118 -0.3027
 7265SOL    HW233258   1.799   2.188  16.698  0.6337  1.1994  0.4978
 7266SOL     OW33259   4.160   2.013   6.962  0.1135 -0.3368  0.1599
 7266SOL    HW133260   4.245   1.969   6.966  0.8496  0.8369 -2.1199
 7266SOL    HW233261   4.129   1.984   6.876  0.2255  0.6780 -0.2314
 7267SOL     OW33262   3.545   1.772   2.647 -0.2661  0.2796  0.1289
 7267SOL    HW133263   3.559   1.800   2.557  1.7498 -0.2177  0.2758
 7267SOL    HW233264   3.489   1.843   2.677  0.4573  1.2344 -0.7598
 7268SOL     OW33265   0.302   1.543   4.156 -0.0958  0.5737 -0.0543
 7268SOL    HW133266   0.377   1.602   4.148  0.8042 -0.4303  0.8700
 7268SOL    HW233267   0.286   1.512   4.067 -0.1353  1.6764 -0.4297
 7269SOL     OW33268   4.315   3.324  12.567 -0.3346  0.2827 -0.1303
 7269SOL    HW133269   4.281   3.413  12.567  0.0799  0.4392 -1.2829
 7269SOL    HW233270   4.367   3.326  12.487  0.7394  3.3749  0.6296
 7270SOL     OW33271   2.444   1.704   2.800 -0.1809 -0.3676 -0.3119
 7270SOL    HW133272   2.475   1.685   2.712 -0.8623  0.1955 -0.6686
 7270SOL    HW233273   2.397   1.787   2.789 -0.3363 -0.6578 -1.8171
 7271SOL     OW33274   2.234   0.020  16.628 -0.5644  0.4934 -0.2267
 7271SOL    HW133275   2.249   0.105  16.669  1.4614  0.0965 -0.1372
 7271SOL    HW233276   2.190   0.051  16.549  1.6698  1.1096 -1.2355
 7272SOL     OW33277   3.761   1.075   3.115  0.6931  0.8273 -0.4322
 7272SOL    HW133278   3.846   1.097   3.153  1.0707  0.1898 -0.9168
 7272SOL    HW233279   3.803   1.031   3.041 -0.3507 -1.9100  0.6245
 7273SOL     OW33280   1.900   0.758  10.763 -0.3490 -0.0205  0.1767
 7273SOL    HW133281   1.922   0.680  10.711 -0.1414  1.1799 -1.5483
 7273SOL    HW233282   1.876   0.821  10.695 -1.3516 -1.1212 -0.4931
 7274SOL     OW33283   1.950   1.455   6.401  0.1998  0.0969 -0.6061
 7274SOL    HW133284   2.007   1.415   6.466  0.0603 -0.7280 -0.9835
 7274SOL    HW233285   1.997   1.536   6.381  1.1982 -0.9679 -2.5838
 7275SOL     OW33286   2.900   0.553   8.553  0.1186  0.3057  0.2577
 7275SOL    HW133287   2.962   0.622   8.530  0.5499  0.0939  0.8005
 7275SOL    HW233288   2.866   0.518   8.471  0.0360  2.9290 -0.8423
 7276SOL     OW33289   3.545   0.484   5.350  0.0975 -0.4819 -0.4109
 7276SOL    HW133290   3.537   0.464   5.257  0.7786 -1.8145 -0.1841
 7276SOL    HW233291   3.515   0.403   5.391  1.1624 -0.0140  1.3151
 7277SOL     OW33292   0.199   3.145  12.316 -0.0698  0.1254  0.2636
 7277SOL    HW133293   0.212   3.210  12.247 -3.1760  2.7431  2.1176
 7277SOL    HW233294   0.275   3.158  12.374  0.0224 -1.4417  0.4748
 7278SOL     OW33295   3.601   3.314   2.719 -0.2815 -0.1264 -0.1666
 7278SOL    HW133296   3.524   3.318   2.661 -1.1161 -0.8019  0.8960
 7278SOL    HW233297   3.625   3.407   2.725  1.5658 -0.5169 -1.5526
 7279SOL     OW33298   0.780   4.091   4.158 -0.4662 -0.1137  0.0019
 7279SOL    HW133299   0.821   4.168   4.119  1.2525 -1.4259 -0.7744
 7279SOL    HW233300   0.854   4.033   4.141  0.6097  0.9265  1.0508
 7280SOL     OW33301   2.430   2.675  16.962 -0.2233 -0.1598 -0.3044
 7280SOL    HW133302   2.412   2.769  16.955  0.5503  0.1724  2.4777
 7280SOL    HW233303   2.400   2.646  16.876  0.0550 -0.1456 -0.4077
 7281SOL     OW33304   4.548   2.263   4.821  0.6398  0.2284  0.4821
 7281SOL    HW133305   4.528   2.337   4.763  0.3092 -0.3064 -0.0906
 7281SOL    HW233306   4.642   2.260   4.835  0.8289 -0.3730 -0.9219
 7282SOL     OW33307   1.796   0.897   4.418 -0.2410  0.0628  0.7142
 7282SOL    HW133308   1.745   0.849   4.483  0.9678 -2.7593 -0.3850
 7282SOL    HW233309   1.855   0.960   4.459  0.7580  1.0862 -2.2556
 7283SOL     OW33310   3.385   2.911   1.053  0.4741  0.1519 -0.0229
 7283SOL    HW133311   3.401   2.980   0.988 -0.9244 -0.0267 -0.5524
 7283SOL    HW233312   3.408   2.960   1.132 -4.5551  0.9498  0.9523
 7284SOL     OW33313   4.425   3.449  14.792 -0.7441  0.2378 -0.1753
 7284SOL    HW133314   4.379   3.460  14.875 -0.1874  0.4211  0.1098
 7284SOL    HW233315   4.496   3.392  14.823  1.2907  2.2196 -1.2028
 7285SOL     OW33316   3.732   0.753   4.752 -0.1830 -0.0177 -0.4614
 7285SOL    HW133317   3.690   0.697   4.686 -2.9833 -0.7247  1.9347
 7285SOL    HW233318   3.823   0.730   4.733  0.2033  0.3994  0.9044
 7286SOL     OW33319   3.906   1.977  11.137 -0.0870  0.4024  0.1398
 7286SOL    HW133320   3.820   2.010  11.164 -0.0009 -1.0155  2.1416
 7286SOL    HW233321   3.937   1.941  11.220  1.3937  1.7157  0.1629
 7287SOL     OW33322   1.219   4.663   8.975 -0.1402  0.0069  0.8098
 7287SOL    HW133323   1.220   4.583   9.027 -0.1608 -0.6885 -0.2716
 7287SOL    HW233324   1.294   4.653   8.917 -2.5433 -1.8253 -1.9105
 7288SOL     OW33325   0.370   0.570   8.120 -0.4232 -0.2794 -0.0931
 7288SOL    HW133326   0.436   0.613   8.175  0.0748  2.5678 -2.9022
 7288SOL    HW233327   0.425   0.506   8.075  0.3160  1.2419 -1.3489
 7289SOL     OW33328   4.481   2.521   6.515  0.7662 -0.4771 -0.2878
 7289SOL    HW133329   4.535   2.512   6.436  0.9221 -2.3396  0.0319
 7289SOL    HW233330   4.474   2.427   6.533 -1.5162  0.1070  1.8403
 7290SOL     OW33331   3.167   2.375   0.476  0.1827  0.0445 -0.4044
 7290SOL    HW133332   3.196   2.413   0.394 -0.1116  0.7552 -0.1807
 7290SOL    HW233333   3.214   2.417   0.548  0.6998  0.7902 -1.1791
 7291SOL     OW33334   3.737   3.613  16.297  0.2272  0.0112  0.1428
 7291SOL    HW133335   3.782   3.671  16.359 -0.5101 -1.3791  1.9481
 7291SOL    HW233336   3.660   3.666  16.277  0.5697 -0.0861 -1.5103
 7292SOL     OW33337   2.137   4.696  15.308  0.2712  0.3122  0.6307
 7292SOL    HW133338   2.140   4.661  15.397 -0.9056  2.6754  1.6236
 7292SOL    HW233339   2.228   4.688  15.281  0.6704  2.0067  1.4235
 7293SOL     OW33340   4.330   2.236  11.630  0.2050  0.3244  0.4299
 7293SOL    HW133341   4.281   2.168  11.583 -0.3655 -0.2921  1.9242
 7293SOL    HW233342   4.331   2.189  11.713 -0.7902 -2.6511 -1.2371
 7294SOL     OW33343   3.211   0.598   3.906  0.0039  0.4411  0.1833
 7294SOL    HW133344   3.178   0.574   3.992 -0.4249  0.6484  0.0766
 7294SOL    HW233345   3.280   0.663   3.920 -1.9995  2.4264  0.8387
 7295SOL     OW33346   2.741   1.416   8.436 -0.3486  0.1271  0.2741
 7295SOL    HW133347   2.658   1.462   8.424  0.2761  1.2433  0.2491
 7295SOL    HW233348   2.759   1.436   8.528  0.7061 -0.7832  0.2634
 7296SOL     OW33349   4.215   4.657  17.329  0.2901  0.0461 -0.0321
 7296SOL    HW133350   4.225   4.716  17.404  0.9933  0.4612 -0.4560
 7296SOL    HW233351   4.201   4.715  17.254  2.9496  0.8427  0.0852
 7297SOL     OW33352   3.461   3.154  16.453 -0.1027  0.1080 -0.0031
 7297SOL    HW133353   3.425   3.242  16.461  3.4603  1.5989  0.0231
 7297SOL    HW233354   3.419   3.104  16.522 -1.3975 -1.4967 -1.9845
 7298SOL     OW33355   1.887   1.170   5.404 -0.4736 -0.8318 -0.1715
 7298SOL    HW133356   1.930   1.084   5.406  1.2130  0.0208  0.5844
 7298SOL    HW233357   1.916   1.205   5.488 -2.3622 -0.9947  0.5445
 7299SOL     OW33358   3.926   1.097   6.079 -0.0685 -0.5477 -0.1853
 7299SOL    HW133359   3.966   1.182   6.059 -2.6079  0.2886 -1.7474
 7299SOL    HW233360   3.984   1.029   6.043 -0.1016 -0.3969 -0.5246
 7300SOL     OW33361   2.212   0.546   7.971 -0.1962 -0.3186 -0.1173
 7300SOL    HW133362   2.243   0.591   7.893 -0.5404 -0.8998 -0.5865
 7300SOL    HW233363   2.275   0.576   8.037  2.3302 -2.0239 -1.7174
 7301SOL     OW33364   0.055   2.735  17.667 -0.2006  0.9043  0.0119
 7301SOL    HW133365   0.070   2.677   0.055 -0.2555  3.0299  1.6801
 7301SOL    HW233366   0.034   2.666  17.605  2.1023  2.4719 -2.5108
 7302SOL     OW33367   3.148   2.309  12.519 -0.0497 -0.0786  0.1859
 7302SOL    HW133368   3.093   2.277  12.590  1.7941 -0.2547  1.5258
 7302SOL    HW233369   3.164   2.226  12.473  1.9311 -0.0604  0.8607
 7303SOL     OW33370   0.332   3.395   4.413  0.1752  0.2894  0.1444
 7303SOL    HW133371   0.321   3.382   4.318  1.4739  0.4124 -0.0156
 7303SOL    HW233372   0.424   3.418   4.416 -0.1778  1.2384  3.5093
 7304SOL     OW33373   0.123   0.323   3.759 -0.3566  0.0988  0.3276
 7304SOL    HW133374   0.039   0.288   3.730 -1.1922  1.2178  1.3841
 7304SOL    HW233375   0.190   0.257   3.743  0.1344  1.0879 -1.7581
 7305SOL     OW33376   4.507   1.171   6.832 -0.0209  0.6026 -0.5294
 7305SOL    HW133377   4.443   1.157   6.901  2.6228 -2.6305  1.2885
 7305SOL    HW233378   4.479   1.250   6.787  1.9075  0.4584 -2.0115
 7306SOL     OW33379   0.991   1.581  16.923 -0.4510 -0.1514  0.1074
 7306SOL    HW133380   0.939   1.500  16.925 -0.1159 -0.3659  0.1588
 7306SOL    HW233381   0.990   1.598  17.017  3.3242  0.6273  0.0077
 7307SOL     OW33382   4.539   2.124   7.420 -0.3936  0.0238  0.4638
 7307SOL    HW133383   4.613   2.071   7.447  0.2076  1.3909  1.4851
 7307SOL    HW233384   4.569   2.215   7.428 -1.2146  0.3363  0.0878
 7308SOL     OW33385   2.305   4.114  14.263  0.1496 -0.6661 -0.3038
 7308SOL    HW133386   2.264   4.190  14.304 -0.0643 -1.7880  1.5940
 7308SOL    HW233387   2.283   4.049  14.330 -0.7266 -0.1127 -0.0542
 7309SOL     OW33388   0.949   1.921  11.456 -0.3312 -0.0311  0.3347
 7309SOL    HW133389   0.966   1.836  11.497 -0.2945 -1.1746 -2.0504
 7309SOL    HW233390   0.869   1.943  11.503 -1.2033 -3.0616  0.2516
 7310SOL     OW33391   4.395   0.178   4.843 -0.0413 -0.5984 -0.1965
 7310SOL    HW133392   4.415   0.256   4.792 -0.1163 -1.7759 -2.0515
 7310SOL    HW233393   4.378   0.211   4.931 -1.7267  0.6146 -0.9846
 7311SOL     OW33394   4.325   0.330   6.169  0.5131  0.3908 -0.2527
 7311SOL    HW133395   4.237   0.309   6.137  2.1575 -3.4576 -2.3519
 7311SOL    HW233396   4.300   0.361   6.256 -0.0255  2.0170 -0.9956
 7312SOL     OW33397   0.187   2.605   4.749  0.1333 -0.2043 -0.2985
 7312SOL    HW133398   0.111   2.598   4.691 -1.1798  0.8512  1.2771
 7312SOL    HW233399   0.255   2.546   4.717 -0.3707 -0.4697 -0.8830
 7313SOL     OW33400   2.687   2.573   5.536 -0.7145 -0.3825 -0.1435
 7313SOL    HW133401   2.683   2.483   5.569 -0.4284 -0.1880  0.4074
 7313SOL    HW233402   2.751   2.571   5.465  0.4990  1.3813  0.8984
 7314SOL     OW33403   3.464   0.817   4.279  0.1108  0.7185  0.5218
 7314SOL    HW133404   3.553   0.795   4.252 -0.6354  0.8250 -2.0395
 7314SOL    HW233405   3.449   0.770   4.361 -1.3583 -0.7354 -0.5679
 7315SOL     OW33406   2.927   3.722   1.745 -0.2299  0.7572 -0.0961
 7315SOL    HW133407   2.864   3.782   1.705 -0.3934  1.1956  0.8169
 7315SOL    HW233408   3.000   3.783   1.737  0.2484  0.1439 -0.3514
 7316SOL     OW33409   0.544   0.717  14.444  0.3069  0.5927 -0.0811
 7316SOL    HW133410   0.492   0.796  14.459  1.2611  1.3811 -0.9183
 7316SOL    HW233411   0.485   0.680  14.378 -0.9699  0.1544  1.2902
 7317SOL     OW33412   3.333   2.150   1.539  0.3092 -0.2323 -0.2468
 7317SOL    HW133413   3.292   2.226   1.497 -1.5211 -0.4149  1.2016
 7317SOL    HW233414   3.409   2.135   1.482  1.0268  0.8682  0.4243
 7318SOL     OW33415   1.353   2.559   5.561  0.2152 -0.4927  0.1800
 7318SOL    HW133416   1.430   2.564   5.506  0.6935  0.5548  0.9490
 7318SOL    HW233417   1.283   2.560   5.495  0.1732 -1.4927  0.2094
 7319SOL     OW33418   3.248   3.822  13.461  0.1717 -0.4280 -0.2092
 7319SOL    HW133419   3.204   3.878  13.397  2.3037  0.5636 -0.8029
 7319SOL    HW233420   3.326   3.872  13.487  2.4535 -2.3128 -3.4373
 7320SOL     OW33421   2.117   0.831   5.227  0.5518  0.3607 -0.1047
 7320SOL    HW133422   2.092   0.855   5.316  1.4964 -0.9267  0.5065
 7320SOL    HW233423   2.091   0.909   5.179  0.3680 -1.0296 -2.2343
 7321SOL     OW33424   1.356   1.047  11.918 -0.6402  0.3622 -0.2019
 7321SOL    HW133425   1.411   1.037  11.996 -0.1014 -1.8194 -0.8563
 7321SOL    HW233426   1.269   1.052  11.958 -1.0595  3.2570 -1.4884
 7322SOL     OW33427   4.547   1.276  11.563 -0.4241 -0.4252  0.4812
 7322SOL    HW133428   4.473   1.246  11.510  1.5936  1.0075 -3.1363
 7322SOL    HW233429   4.609   1.204  11.573  1.7660  1.7435  2.3998
 7323SOL     OW33430   0.590   3.536   1.411  0.2696 -0.2459  0.4141
 7323SOL    HW133431   0.597   3.552   1.316  0.5406 -1.4522  0.2309
 7323SOL    HW233432   0.576   3.626   1.440 -2.6410 -1.2029  1.9617
 7324SOL     OW33433   4.720   3.403  12.205 -0.4939 -0.4483 -0.3105
 7324SOL    HW133434   0.091   3.408  12.183 -0.2942 -1.3391  0.3496
 7324SOL    HW233435   4.682   3.397  12.117 -0.1580  1.3733 -0.5950
 7325SOL     OW33436   3.872   1.065  16.547  0.1194 -0.3355 -0.0795
 7325SOL    HW133437   3.779   1.075  16.568  0.5542  0.5686  1.4079
 7325SOL    HW233438   3.859   1.041  16.456 -3.2918  1.6629 -0.1226
 7326SOL     OW33439   0.033   4.320   7.696  0.2540  0.8370  0.3659
 7326SOL    HW133440   4.695   4.272   7.754  1.2140  0.5982  1.1451
 7326SOL    HW233441   4.721   4.410   7.702 -0.3376  0.6702 -0.3666
 7327SOL     OW33442   4.499   3.261  12.357  0.5242 -0.0293  0.3844
 7327SOL    HW133443   4.577   3.311  12.334  0.9006 -0.6442  0.3118
 7327SOL    HW233444   4.481   3.223  12.270 -1.1972  0.8737  0.3428
 7328SOL     OW33445   1.912   3.460   4.417  0.0253  0.1538 -0.2467
 7328SOL    HW133446   1.870   3.402   4.480  0.2392  0.1397 -0.1214
 7328SOL    HW233447   1.902   3.397   4.346 -1.3860 -1.0088  0.9771
 7329SOL     OW33448   0.548   4.720   8.435 -0.3068 -1.0673 -0.2576
 7329SOL    HW133449   0.471   0.028   8.484 -1.2014 -0.4509 -2.0286
 7329SOL    HW233450   0.532   0.048   8.354  0.0434 -1.9678 -0.8770
 7330SOL     OW33451   4.044   3.667   7.048  0.7154 -0.7263 -0.7223
 7330SOL    HW133452   4.026   3.732   6.979  2.9154  0.0481 -0.5588
 7330SOL    HW233453   3.958   3.625   7.051  0.5927 -0.1610  2.6824
 7331SOL     OW33454   1.294   2.695   5.130  0.0375 -0.0848  0.2081
 7331SOL    HW133455   1.324   2.786   5.141 -1.8117  0.3593  1.6559
 7331SOL    HW233456   1.258   2.693   5.219  1.6444 -0.5190  0.8502
 7332SOL     OW33457   1.689   3.764  10.539 -0.4404 -1.0912 -0.4192
 7332SOL    HW133458   1.657   3.825  10.472  1.0339  0.8310  0.6295
 7332SOL    HW233459   1.784   3.767  10.532 -0.4152 -1.2836 -0.1232
 7333SOL     OW33460   4.329   1.959   2.843  0.8807 -0.2672  1.0379
 7333SOL    HW133461   4.334   1.865   2.828  1.4831  0.1608 -1.4336
 7333SOL    HW233462   4.413   1.973   2.799  0.2765 -0.2825 -0.1104
 7334SOL     OW33463   0.016   0.789   5.086  0.4698  0.3037  0.2472
 7334SOL    HW133464   4.703   0.873   5.055 -0.6088 -0.0846  0.3920
 7334SOL    HW233465   4.712   0.790   5.178 -2.8939 -0.6385 -0.6491
 7335SOL     OW33466   4.088   3.995   6.342  0.1708 -0.2916 -0.0269
 7335SOL    HW133467   4.010   3.982   6.396 -0.7580  0.9766 -1.0695
 7335SOL    HW233468   4.154   3.934   6.374 -0.2179 -0.3801  0.5907
 7336SOL     OW33469   2.931   4.565   4.710  0.3843 -0.1203 -0.0323
 7336SOL    HW133470   2.970   4.506   4.775  1.6367  3.2761  2.2647
 7336SOL    HW233471   2.936   4.497   4.642 -0.1795  0.5273 -0.7052
 7337SOL     OW33472   1.812   2.971   0.300  0.3825 -0.0710 -0.0879
 7337SOL    HW133473   1.768   3.051   0.272 -0.5951 -1.2749 -1.9930
 7337SOL    HW233474   1.893   2.982   0.250  0.1054 -2.2799 -1.0328
 7338SOL     OW33475   1.551   1.142   3.849 -0.3288  0.2761 -0.1052
 7338SOL    HW133476   1.609   1.161   3.776 -0.6936 -0.3476 -0.5561
 7338SOL    HW233477   1.535   1.226   3.892  0.9432  0.2901  0.3425
 7339SOL     OW33478   2.758   3.251   8.660  0.2331 -0.0768 -0.1261
 7339SOL    HW133479   2.776   3.325   8.601  0.5429  0.3858  0.5583
 7339SOL    HW233480   2.839   3.203   8.677  0.7003  0.4097 -0.9641
 7340SOL     OW33481   0.499   0.340  13.447  0.7073  0.2603 -0.2460
 7340SOL    HW133482   0.510   0.266  13.388 -2.3056  0.2514 -0.8140
 7340SOL    HW233483   0.495   0.302  13.535 -0.4015 -0.4792 -0.6257
 7341SOL     OW33484   0.292   1.891   5.876 -0.0981 -0.0189 -0.1118
 7341SOL    HW133485   0.288   1.807   5.921  3.4136 -0.1018  0.0518
 7341SOL    HW233486   0.374   1.877   5.828  0.2381 -1.8427  1.0175
 7342SOL     OW33487   2.037   2.923  15.693 -0.3782 -0.4707 -0.4740
 7342SOL    HW133488   2.125   2.887  15.701 -0.3605  0.0169  1.4412
 7342SOL    HW233489   2.063   3.013  15.715 -0.4591 -1.1341  2.3029
 7343SOL     OW33490   2.422   2.443  12.577  0.3230  0.8286  0.5576
 7343SOL    HW133491   2.341   2.428  12.626  0.0108  1.4638  0.2458
 7343SOL    HW233492   2.487   2.380  12.609  1.7559  2.2952  0.5363
 7344SOL     OW33493   3.638   4.239  12.630 -0.4261  0.4498  0.4413
 7344SOL    HW133494   3.617   4.154  12.592 -1.2225 -0.2596  2.5006
 7344SOL    HW233495   3.651   4.223  12.723 -1.6823  1.0010  0.7168
 7345SOL     OW33496   2.272   0.442   6.595  0.0218 -0.2093  0.0953
 7345SOL    HW133497   2.306   0.473   6.511 -1.0437  0.4341 -0.0991
 7345SOL    HW233498   2.315   0.510   6.648  0.1733  2.1810 -3.1157
 7346SOL     OW33499   2.794   2.581   6.338 -0.3541  0.1091  0.5626
 7346SOL    HW133500   2.745   2.605   6.416  2.0836 -2.4534  2.9102
 7346SOL    HW233501   2.733   2.531   6.284 -0.4148 -0.5226  1.2049
 7347SOL     OW33502   4.356   2.896   6.768  0.8818  0.4151  0.2710
 7347SOL    HW133503   4.424   2.831   6.786 -0.5919 -1.2700 -0.2560
 7347SOL    HW233504   4.293   2.839   6.723  0.3694  1.3421 -0.1912
 7348SOL     OW33505   0.976   0.776   1.017  0.2086 -0.4450 -0.8026
 7348SOL    HW133506   0.995   0.851   0.962 -2.0969  2.4123  2.2975
 7348SOL    HW233507   0.999   0.811   1.103 -1.0312 -0.3667 -0.4996
 7349SOL     OW33508   0.571   4.118   2.389 -0.2957 -0.7409 -0.3221
 7349SOL    HW133509   0.582   4.086   2.299  1.9610  0.3869 -0.4586
 7349SOL    HW233510   0.661   4.143   2.411 -0.7407  0.2942  0.3344
 7350SOL     OW33511   2.871   3.376   0.545  0.5737 -0.0355  0.3008
 7350SOL    HW133512   2.963   3.371   0.570  0.6345  2.2418  0.5546
 7350SOL    HW233513   2.842   3.393   0.635 -0.9323 -0.9286 -0.0012
 7351SOL     OW33514   1.080   1.402   4.696  0.5368  0.3215 -0.3205
 7351SOL    HW133515   0.992   1.385   4.662  0.4409 -1.1941  0.6734
 7351SOL    HW233516   1.065   1.455   4.774 -0.4113  0.7593 -0.7991
 7352SOL     OW33517   0.937   4.284   3.291 -0.0947  0.1032  0.5347
 7352SOL    HW133518   1.022   4.241   3.281  1.0300  2.5940 -0.7408
 7352SOL    HW233519   0.960   4.376   3.307  0.5446  0.3483 -1.7636
 7353SOL     OW33520   1.290   2.468  16.036  0.3462 -0.3794  0.0573
 7353SOL    HW133521   1.352   2.439  15.969  1.5871  2.5049 -0.0287
 7353SOL    HW233522   1.292   2.563  16.032 -0.8118 -0.2466  2.7175
 7354SOL     OW33523   3.137   3.382   5.946 -0.0771 -0.1529  0.8056
 7354SOL    HW133524   3.077   3.308   5.961  0.9769 -0.8102  1.7979
 7354SOL    HW233525   3.136   3.436   6.025 -0.9520  1.4821 -0.3288
 7355SOL     OW33526   2.619   3.081   8.204 -0.1551  0.2111  0.0634
 7355SOL    HW133527   2.610   3.075   8.299 -0.5054  2.8948  0.1965
 7355SOL    HW233528   2.608   3.176   8.199 -0.1562  0.3296  2.4094
 7356SOL     OW33529   0.556   4.630   4.372 -0.1846  0.2081 -0.4602
 7356SOL    HW133530   0.532   4.703   4.314 -0.5390  0.3210 -0.1709
 7356SOL    HW233531   0.532   4.557   4.315 -0.3953  0.8889 -1.2469
 7357SOL     OW33532   2.168   1.623   8.003 -0.2678  0.4219 -0.4749
 7357SOL    HW133533   2.231   1.692   8.027  1.6997 -1.2868 -0.6781
 7357SOL    HW233534   2.106   1.627   8.075  0.6360  1.9564  0.2204
 7358SOL     OW33535   3.058   0.520  13.291  0.8524  0.0116 -0.3553
 7358SOL    HW133536   3.071   0.592  13.353  2.8815 -1.6126  1.1183
 7358SOL    HW233537   3.070   0.564  13.207  2.9995  0.0795 -0.0125
 7359SOL     OW33538   1.205   4.328  14.415  0.2553 -0.5032 -0.2701
 7359SOL    HW133539   1.262   4.252  14.405 -0.0265 -0.5738 -1.3664
 7359SOL    HW233540   1.139   4.284  14.468  1.1605 -0.4995  0.8520
 7360SOL     OW33541   3.156   2.843   0.577 -0.2141 -0.0039 -0.0195
 7360SOL    HW133542   3.075   2.794   0.591  0.7892 -1.3442  1.0770
 7360SOL    HW233543   3.146   2.876   0.488 -1.2900  2.2088  0.9359
 7361SOL     OW33544   3.112   3.460   5.284  0.2496  0.0465  0.2703
 7361SOL    HW133545   3.167   3.534   5.307  1.1885 -0.7139  0.4953
 7361SOL    HW233546   3.034   3.502   5.248 -1.5809 -0.3575  3.7338
 7362SOL     OW33547   2.697   1.549  10.025 -0.3795 -0.3295  0.2014
 7362SOL    HW133548   2.761   1.519   9.960 -1.5698 -2.3456 -0.0283
 7362SOL    HW233549   2.722   1.636  10.054 -0.3628 -0.6750  1.2074
 7363SOL     OW33550   2.835   3.702   6.622  0.6280 -0.5448 -0.4835
 7363SOL    HW133551   2.804   3.781   6.579 -0.4889 -1.3675 -1.1837
 7363SOL    HW233552   2.925   3.720   6.650  0.8612 -0.6661 -1.1486
 7364SOL     OW33553   1.229   4.334  16.436  0.1358  0.1783 -0.8509
 7364SOL    HW133554   1.297   4.284  16.482  1.9567  3.5154  0.0808
 7364SOL    HW233555   1.231   4.295  16.348  0.9387 -2.7166  0.4721
 7365SOL     OW33556   3.261   3.405  15.361  0.1175  0.1337  0.4757
 7365SOL    HW133557   3.332   3.462  15.332 -0.2202  0.1769 -0.2657
 7365SOL    HW233558   3.313   3.361  15.428  1.7171 -1.6203 -1.9068
 7366SOL     OW33559   0.166   2.395   5.684 -0.5043  0.1108 -0.2793
 7366SOL    HW133560   0.230   2.364   5.621 -1.3507  0.3671 -1.2620
 7366SOL    HW233561   0.160   2.328   5.753 -0.8493 -0.2706 -0.6794
 7367SOL     OW33562   4.351   2.914   8.068 -0.0840 -0.0404 -0.5876
 7367SOL    HW133563   4.353   2.818   8.062  2.5422  0.0127 -0.1888
 7367SOL    HW233564   4.267   2.934   8.110  0.8936  0.3894  1.1490
 7368SOL     OW33565   1.267   1.366   1.219 -0.4199 -0.4230 -0.0363
 7368SOL    HW133566   1.293   1.371   1.127  0.9658  1.1860  0.4441
 7368SOL    HW233567   1.309   1.284   1.246 -1.0082  0.1613  2.6382
 7369SOL     OW33568   4.290   0.497  15.910 -0.2405 -0.0775 -0.6739
 7369SOL    HW133569   4.215   0.555  15.926 -0.8185 -0.0461 -3.4468
 7369SOL    HW233570   4.255   0.454  15.832 -3.2487  1.7116 -0.2945
 7370SOL     OW33571   0.795   1.767   9.367 -0.0231  0.2864  0.7842
 7370SOL    HW133572   0.767   1.695   9.424 -1.9638  0.7487  0.4353
 7370SOL    HW233573   0.766   1.738   9.280  2.9228 -0.8729  0.2008
 7371SOL     OW33574   2.474   0.699   2.774 -0.2470 -0.3128 -0.1991
 7371SOL    HW133575   2.403   0.715   2.837 -1.3517  3.4097 -2.3849
 7371SOL    HW233576   2.498   0.610   2.800 -0.1761 -0.6780 -1.5140
 7372SOL     OW33577   3.251   2.715   3.366  0.1799  0.4680 -0.3468
 7372SOL    HW133578   3.190   2.670   3.425  0.8994  0.8055  0.6639
 7372SOL    HW233579   3.262   2.654   3.293 -1.2841 -0.2254  0.0338
 7373SOL     OW33580   3.870   3.264  12.585 -0.1316  0.5407  0.0497
 7373SOL    HW133581   3.875   3.279  12.491 -0.7007 -0.4529 -0.1413
 7373SOL    HW233582   3.897   3.174  12.605  0.6435  0.6263 -0.6379
 7374SOL     OW33583   4.041   2.793   6.764  0.5544  0.2081 -0.4814
 7374SOL    HW133584   4.018   2.776   6.856 -0.4025 -1.7470 -1.0840
 7374SOL    HW233585   4.093   2.719   6.734 -0.7837 -1.4223  1.2365
 7375SOL     OW33586   0.374   2.905   3.494  0.0706  0.2138 -0.0207
 7375SOL    HW133587   0.283   2.932   3.503  0.3758  1.4333 -0.5842
 7375SOL    HW233588   0.409   2.943   3.574 -1.0288 -1.8946  1.4596
 7376SOL     OW33589   3.326   0.910  11.205  0.5831  0.1817 -0.4076
 7376SOL    HW133590   3.356   0.993  11.243 -2.0719  1.3502 -0.8625
 7376SOL    HW233591   3.235   0.927  11.181  0.7402  1.0226 -0.4244
 7377SOL     OW33592   4.520   4.433   1.836  0.1360  0.1678  0.2840
 7377SOL    HW133593   4.473   4.447   1.754  0.1598 -0.9638  0.0851
 7377SOL    HW233594   4.597   4.485   1.814 -1.7798  2.4998 -1.0362
 7378SOL     OW33595   1.168   1.780   4.660 -0.4701  0.0333  0.4645
 7378SOL    HW133596   1.113   1.778   4.738 -1.1604  0.5484 -0.0080
 7378SOL    HW233597   1.107   1.824   4.601 -0.9487 -2.0855 -0.6303
 7379SOL     OW33598   4.319   3.418   3.582 -0.3684 -0.1158 -0.1606
 7379SOL    HW133599   4.309   3.425   3.677 -0.3544  0.0790 -0.1744
 7379SOL    HW233600   4.327   3.323   3.572  0.3822 -0.2830  2.1614
 7380SOL     OW33601   3.651   2.741   1.265  0.2017 -0.1659  0.0114
 7380SOL    HW133602   3.648   2.823   1.313  1.7157  0.5178 -1.0676
 7380SOL    HW233603   3.741   2.729   1.236  0.3008 -1.3881  0.7914
 7381SOL     OW33604   0.134   0.735  13.456 -0.5810 -0.2385  0.0514
 7381SOL    HW133605   0.086   0.818  13.466 -0.6597 -0.5227  2.0820
 7381SOL    HW233606   0.088   0.688  13.387  0.7051 -0.6358 -0.5290
 7382SOL     OW33607   4.568   3.385   0.150  0.6756  0.3049  0.6185
 7382SOL    HW133608   4.486   3.338   0.166  0.6078  0.8853  1.9149
 7382SOL    HW233609   4.635   3.319   0.132 -2.1754 -2.6377  0.7759
 7383SOL     OW33610   0.888   1.609   5.847  0.8277 -0.2845  0.0466
 7383SOL    HW133611   0.886   1.685   5.905  3.5485 -0.7762  0.7659
 7383SOL    HW233612   0.922   1.543   5.908 -0.7655 -1.0763  0.0681
 7384SOL     OW33613   0.093   4.358   3.448 -0.2867  0.1303  0.0189
 7384SOL    HW133614   0.118   4.348   3.357 -0.5443 -1.4139  0.1194
 7384SOL    HW233615   0.172   4.404   3.477 -0.7208  1.4813 -0.9482
 7385SOL     OW33616   1.464   3.459  11.607 -0.2919  0.0545  0.4583
 7385SOL    HW133617   1.554   3.447  11.576  0.1324 -0.3204  1.8536
 7385SOL    HW233618   1.417   3.385  11.568 -1.2636  1.1607 -0.5091
 7386SOL     OW33619   4.565   3.708   0.556 -0.0805 -0.5482 -0.0235
 7386SOL    HW133620   4.526   3.622   0.573 -4.2063  1.2053 -0.5691
 7386SOL    HW233621   4.600   3.701   0.467 -0.0929 -1.2417  0.0255
 7387SOL     OW33622   2.336   3.634   6.951  0.0684 -0.2745 -0.1034
 7387SOL    HW133623   2.391   3.706   6.919  0.8664 -0.3882  1.0246
 7387SOL    HW233624   2.250   3.669   6.930  0.4361  0.1980 -0.8167
 7388SOL     OW33625   3.552   0.423  16.929  0.3451  0.3215 -0.4387
 7388SOL    HW133626   3.516   0.357  16.988 -0.9087  0.8158 -0.6529
 7388SOL    HW233627   3.560   0.497  16.989  0.5618 -0.5296  0.5920
 7389SOL     OW33628   3.594   1.171   7.868 -0.4449 -0.0330  0.1250
 7389SOL    HW133629   3.606   1.265   7.862 -2.0632  0.2683  1.7613
 7389SOL    HW233630   3.643   1.145   7.790 -1.5628 -0.4094 -0.4647
 7390SOL     OW33631   1.728   3.626   0.810 -0.2629  0.1399 -0.2482
 7390SOL    HW133632   1.710   3.581   0.893  0.1669  1.3590  0.5176
 7390SOL    HW233633   1.729   3.550   0.752  0.6685  0.2982 -0.4450
 7391SOL     OW33634   3.546   0.217  13.356  0.2458  0.3103  0.2178
 7391SOL    HW133635   3.511   0.144  13.407  0.7423  0.5461  0.8983
 7391SOL    HW233636   3.478   0.283  13.343 -0.4941  0.1280  3.0463
 7392SOL     OW33637   2.150   3.659   7.334  0.4506  0.4228  0.3661
 7392SOL    HW133638   2.229   3.686   7.286 -0.3945  0.5343 -0.9661
 7392SOL    HW233639   2.182   3.575   7.366  1.3890  1.0046  0.9685
 7393SOL     OW33640   2.133   4.604   3.450 -0.2481  0.2271  0.3144
 7393SOL    HW133641   2.080   4.625   3.526 -1.8654  0.4652 -0.8887
 7393SOL    HW233642   2.103   4.516   3.427 -0.0055  0.3951 -0.6367
 7394SOL     OW33643   1.303   4.510   7.470  0.3257 -0.1031  0.8269
 7394SOL    HW133644   1.301   4.510   7.566 -0.5859 -2.3676  0.8158
 7394SOL    HW233645   1.389   4.477   7.446  0.3830  0.9997 -0.5163
 7395SOL     OW33646   2.945   0.253   8.691 -0.0077 -0.3157 -0.3032
 7395SOL    HW133647   3.024   0.250   8.745 -0.1696  1.0163  0.0172
 7395SOL    HW233648   2.948   0.344   8.661 -1.3865  0.0193  0.5539
 7396SOL     OW33649   0.802   2.694  14.970  0.7183 -0.6975 -0.0668
 7396SOL    HW133650   0.894   2.720  14.964  0.7078 -0.7259 -0.3618
 7396SOL    HW233651   0.779   2.744  14.891  1.3683  0.7581  0.6586
 7397SOL     OW33652   0.539   3.274   2.189 -0.2831  0.1323 -0.5635
 7397SOL    HW133653   0.483   3.336   2.141  0.7651  1.5182  0.0053
 7397SOL    HW233654   0.500   3.279   2.276 -0.3674  1.6531 -0.6755
 7398SOL     OW33655   0.571   3.311   8.405  0.0067 -0.5265 -0.4026
 7398SOL    HW133656   0.612   3.234   8.367  1.6124  0.3489 -0.4127
 7398SOL    HW233657   0.533   3.350   8.326 -1.9204 -0.7371  0.4052
 7399SOL     OW33658   0.908   1.624   6.972 -0.6519 -0.0076 -0.2405
 7399SOL    HW133659   0.820   1.604   6.939 -0.7165  1.1499 -0.7703
 7399SOL    HW233660   0.909   1.597   7.064  0.2782  0.7422 -0.0388
 7400SOL     OW33661   2.529   2.599   5.848  0.3408 -0.0162  0.2833
 7400SOL    HW133662   2.512   2.645   5.930 -0.7392  0.7482 -0.3700
 7400SOL    HW233663   2.612   2.637   5.820 -0.6120  0.7796 -1.4438
 7401SOL     OW33664   1.549   3.893   0.146  0.1889 -0.4115  0.0688
 7401SOL    HW133665   1.604   3.924   0.074  1.2859 -0.6429  0.8057
 7401SOL    HW233666   1.576   3.955   0.213 -0.5431 -0.7898  0.7158
 7402SOL     OW33667   0.406   4.030  10.477 -0.6584 -0.3583  0.2886
 7402SOL    HW133668   0.452   3.957  10.517  2.6205  0.5065 -1.8963
 7402SOL    HW233669   0.460   4.058  10.403 -1.8202  1.1107 -0.0277
 7403SOL     OW33670   4.181   0.002   5.984  0.0742 -0.6381  0.0404
 7403SOL    HW133671   4.257   4.667   5.998  2.9705  3.2739  0.2949
 7403SOL    HW233672   4.115   4.665   5.947  0.2674 -0.2270 -0.9537
 7404SOL     OW33673   3.436   4.186   4.927  0.3951 -0.7070  0.2586
 7404SOL    HW133674   3.426   4.281   4.936  2.0772 -0.3129 -2.1003
 7404SOL    HW233675   3.503   4.184   4.859  1.6500 -2.9859  1.5637
 7405SOL     OW33676   1.289   3.356   8.510  0.5583  0.0452 -0.5864
 7405SOL    HW133677   1.285   3.382   8.418 -1.7357  2.3424  0.1830
 7405SOL    HW233678   1.349   3.283   8.491  0.6883  0.0660 -0.2585
 7406SOL     OW33679   3.446   1.194   7.322  0.4351  0.0074 -0.3730
 7406SOL    HW133680   3.463   1.180   7.415 -0.6038  0.7086 -0.0797
 7406SOL    HW233681   3.355   1.165   7.318  0.0491  1.2074 -0.5731
 7407SOL     OW33682   4.608   3.463   3.873  0.2968  0.0694 -0.4577
 7407SOL    HW133683   4.567   3.549   3.861 -3.1703 -1.4315  0.5294
 7407SOL    HW233684   4.592   3.426   3.786 -0.1478 -0.3922 -0.1800
 7408SOL     OW33685   4.432   3.304  15.842  0.3959  0.4106  0.8395
 7408SOL    HW133686   4.363   3.363  15.809  0.6035  2.3296  3.7753
 7408SOL    HW233687   4.486   3.367  15.890  0.4433  0.4566  0.7250
 7409SOL     OW33688   2.820   4.130   9.265  0.0843  0.0670  0.9587
 7409SOL    HW133689   2.826   4.210   9.317  1.6601  0.4921  0.1593
 7409SOL    HW233690   2.726   4.121   9.280 -0.2156 -0.6927 -1.3729
 7410SOL     OW33691   3.211   2.061   1.052 -0.4717  0.1625 -0.6757
 7410SOL    HW133692   3.153   2.137   1.052 -1.4470 -0.5955  0.0892
 7410SOL    HW233693   3.270   2.084   0.980 -2.5126  1.0399 -2.0532
 7411SOL     OW33694   4.085   1.222  12.238 -0.6931 -0.6687 -1.0130
 7411SOL    HW133695   4.024   1.268  12.296 -0.7051  0.4502 -1.9172
 7411SOL    HW233696   4.069   1.131  12.263  1.1114 -0.7239 -0.0352
 7412SOL     OW33697   2.931   4.135   8.878  0.3885 -0.3545 -0.2286
 7412SOL    HW133698   2.845   4.174   8.866  0.8948  0.4333 -1.2700
 7412SOL    HW233699   2.935   4.073   8.804 -2.5681 -0.7568 -0.0673
 7413SOL     OW33700   2.701   0.811   5.545 -0.0755 -0.3683  0.6845
 7413SOL    HW133701   2.620   0.835   5.498  0.6751 -0.9460 -0.8956
 7413SOL    HW233702   2.761   0.851   5.482 -1.8762 -0.3136 -1.0181
 7414SOL     OW33703   1.077   3.913   3.749  0.0344 -0.0765  0.0526
 7414SOL    HW133704   1.064   3.989   3.692 -0.4479 -0.0120  0.2472
 7414SOL    HW233705   1.159   3.875   3.718 -1.5064 -2.9528 -0.4889
 7415SOL     OW33706   1.688   1.884   8.317 -0.5886  0.1495 -0.1933
 7415SOL    HW133707   1.752   1.818   8.289 -0.8993  0.2293 -1.0963
 7415SOL    HW233708   1.616   1.873   8.256 -1.5349  1.1884  0.7412
 7416SOL     OW33709   0.614   2.693   2.347  0.2961  0.1096 -0.0509
 7416SOL    HW133710   0.675   2.747   2.397 -0.9764  0.2515  1.3727
 7416SOL    HW233711   0.585   2.757   2.282  0.8482 -0.7241 -1.1006
 7417SOL     OW33712   1.165   3.060   2.722 -1.0686 -0.2615  0.4428
 7417SOL    HW133713   1.106   3.133   2.702 -0.8488 -1.1740 -3.5809
 7417SOL    HW233714   1.252   3.098   2.718 -1.1519 -0.0951  0.1873
 7418SOL     OW33715   3.141   4.697   4.564  0.1067 -0.3906 -0.0464
 7418SOL    HW133716   3.120   4.642   4.489  0.4373  0.6245 -0.8851
 7418SOL    HW233717   3.062   4.698   4.619  0.9790  0.0726  1.2034
 7419SOL     OW33718   2.804   2.292   6.768 -0.0120  0.1826  0.1206
 7419SOL    HW133719   2.829   2.219   6.711  0.9434  0.9212 -0.3867
 7419SOL    HW233720   2.790   2.244   6.850 -2.4751  1.1657  0.2773
 7420SOL     OW33721   4.078   3.744  14.541  0.2157  0.1172 -0.5974
 7420SOL    HW133722   4.068   3.664  14.593  0.3469  0.5647  0.1067
 7420SOL    HW233723   4.061   3.713  14.452 -0.7496 -1.2168  0.0550
 7421SOL     OW33724   2.828   2.778   7.681 -0.7386 -0.1259  0.1280
 7421SOL    HW133725   2.761   2.721   7.719  2.0060 -2.7009  1.0823
 7421SOL    HW233726   2.868   2.822   7.756  0.4267 -0.3723 -0.3445
 7422SOL     OW33727   1.655   2.950   3.957 -0.1173 -0.0619 -0.0946
 7422SOL    HW133728   1.594   3.020   3.978  0.1672 -0.2770  1.4155
 7422SOL    HW233729   1.707   2.954   4.037  0.2377 -1.3503 -0.2557
 7423SOL     OW33730   3.275   0.577   8.609 -0.2519  0.2154  0.1154
 7423SOL    HW133731   3.305   0.511   8.672 -0.7639  0.2078  0.3521
 7423SOL    HW233732   3.254   0.650   8.667  0.4266 -0.6970  1.5074
 7424SOL     OW33733   0.979   3.689  12.652  0.3112  0.0879  0.4911
 7424SOL    HW133734   1.060   3.710  12.699 -0.5355  0.9027  1.5940
 7424SOL    HW233735   1.015   3.695  12.564  3.4445  0.3208  1.8047
 7425SOL     OW33736   2.979   3.586  13.912 -0.5291  0.2545 -0.1597
 7425SOL    HW133737   3.072   3.596  13.896 -0.3670 -0.2863  0.4421
 7425SOL    HW233738   2.989   3.494  13.939  1.2555  0.6829  0.5986
 7426SOL     OW33739   0.171   4.258   2.477 -0.1332  1.2882 -0.6954
 7426SOL    HW133740   0.083   4.242   2.443  0.8633 -1.1970 -2.1342
 7426SOL    HW233741   0.225   4.286   2.403 -0.6188 -0.4047 -1.6932
 7427SOL     OW33742   1.852   3.419  13.950  0.2297  0.8113  0.4314
 7427SOL    HW133743   1.917   3.467  13.900 -1.6189  2.7203 -0.1304
 7427SOL    HW233744   1.830   3.351  13.886  1.8029  2.5157 -1.9166
 7428SOL     OW33745   0.892   3.467   8.223  0.2010 -0.0416  0.2291
 7428SOL    HW133746   0.887   3.466   8.318  0.1474 -0.8486  0.2173
 7428SOL    HW233747   0.939   3.389   8.195  0.3858  0.2276 -0.2269
 7429SOL     OW33748   2.660   2.145   1.193 -0.9297  0.7137  0.3857
 7429SOL    HW133749   2.721   2.090   1.242  0.4020  2.1085  0.3027
 7429SOL    HW233750   2.719   2.172   1.123  0.2239 -0.5230  0.8943
 7430SOL     OW33751   1.860   2.691   4.954 -0.5207  0.1727 -0.4086
 7430SOL    HW133752   1.815   2.607   4.940  0.3174 -0.6832  2.0114
 7430SOL    HW233753   1.786   2.750   4.938  1.1141  2.7425  1.5184
 7431SOL     OW33754   3.242   3.967   8.223 -0.9345  0.0518 -0.2690
 7431SOL    HW133755   3.215   3.980   8.132  1.5300  0.0199 -0.9875
 7431SOL    HW233756   3.337   3.973   8.215 -0.9276 -0.7971 -0.8081
 7432SOL     OW33757   4.425   3.210   2.049  0.1503 -0.3249 -0.0121
 7432SOL    HW133758   4.346   3.256   2.020  0.3499 -0.0707 -0.1486
 7432SOL    HW233759   4.440   3.153   1.974  0.1195 -0.2290 -0.0908
 7433SOL     OW33760   4.020   2.733  12.540 -0.3629  0.2115 -0.2472
 7433SOL    HW133761   4.013   2.697  12.628 -0.9021 -0.3940 -0.5335
 7433SOL    HW233762   4.114   2.749  12.533 -0.0492 -0.8055  1.8441
 7434SOL     OW33763   0.756   2.400   0.276  0.1120  0.0828 -0.0465
 7434SOL    HW133764   0.707   2.421   0.196 -0.1074  1.1895  0.3821
 7434SOL    HW233765   0.707   2.441   0.346 -0.4334 -1.7940  0.6746
 7435SOL     OW33766   3.947   0.429  16.947 -0.0409  0.3190 -0.1579
 7435SOL    HW133767   4.036   0.432  16.913  0.5982  1.4380  1.6076
 7435SOL    HW233768   3.912   0.382  16.871 -1.1391  2.1302 -0.7744
 7436SOL     OW33769   2.761   4.286   6.963  0.0761  0.2518  0.0029
 7436SOL    HW133770   2.700   4.356   6.986 -1.5063 -0.3903 -2.2052
 7436SOL    HW233771   2.794   4.272   7.052 -0.3645  0.3604  0.1838
 7437SOL     OW33772   3.005   2.867   4.416 -0.0754 -0.4069  0.1920
 7437SOL    HW133773   2.964   2.781   4.420 -2.5312  0.7324 -0.3495
 7437SOL    HW233774   3.089   2.861   4.461 -0.0644  2.9741  0.6897
 7438SOL     OW33775   3.588   0.917   6.926 -0.5882  0.1040  0.4508
 7438SOL    HW133776   3.539   0.877   6.998 -2.3084 -0.7121 -1.1848
 7438SOL    HW233777   3.609   1.004   6.959 -2.6795  0.8806 -0.2198
 7439SOL     OW33778   1.819   0.538  11.430  0.6543  0.4946  0.2254
 7439SOL    HW133779   1.805   0.602  11.499  1.2603  0.3908  0.4465
 7439SOL    HW233780   1.764   0.465  11.459  1.1218  0.1571  0.2686
 7440SOL     OW33781   0.314   2.643   5.971 -0.6648 -0.4182 -0.5149
 7440SOL    HW133782   0.249   2.598   6.026  0.3595 -3.4405 -1.7751
 7440SOL    HW233783   0.328   2.721   6.025  2.2337 -0.4475 -1.2343
 7441SOL     OW33784   2.065   2.432   4.883 -0.1625  0.3897  0.3837
 7441SOL    HW133785   2.084   2.505   4.823  0.5108  0.7773  1.0598
 7441SOL    HW233786   1.975   2.448   4.913  0.0521  1.6745  0.3400
 7442SOL     OW33787   2.693   1.307   7.774  0.1925 -0.1487 -0.2881
 7442SOL    HW133788   2.710   1.213   7.779 -1.0702 -0.2569  2.2178
 7442SOL    HW233789   2.778   1.349   7.780 -0.6535  1.2604  1.8516
 7443SOL     OW33790   0.757   2.910   5.869 -0.8346 -0.6690 -0.1925
 7443SOL    HW133791   0.709   2.839   5.827 -0.2314  0.2508 -2.4630
 7443SOL    HW233792   0.694   2.937   5.936  0.5991  1.3684  0.3247
 7444SOL     OW33793   4.618   2.176  11.191  0.3116  0.2067 -0.2881
 7444SOL    HW133794   4.656   2.103  11.142 -1.7552 -1.5406  0.7045
 7444SOL    HW233795   4.701   2.215  11.216 -0.6988  1.1942  1.4978
 7445SOL     OW33796   0.937   3.888   4.046 -0.5111  0.7322  0.0252
 7445SOL    HW133797   1.012   3.828   4.049 -0.7596  0.4271  0.0487
 7445SOL    HW233798   0.882   3.838   3.987  1.1398 -0.1074 -0.8128
 7446SOL     OW33799   0.894   0.379  10.845  0.1710 -0.1241  0.3642
 7446SOL    HW133800   0.832   0.378  10.918 -1.2723  0.7215 -0.8578
 7446SOL    HW233801   0.973   0.424  10.875 -0.5277 -0.4607  2.7263
 7447SOL     OW33802   3.362   3.115  10.614  0.1730  0.7098 -0.1937
 7447SOL    HW133803   3.335   3.044  10.555 -1.0420  1.1331 -0.1504
 7447SOL    HW233804   3.455   3.093  10.615 -0.1665 -0.6584  2.7022
 7448SOL     OW33805   1.906   4.700   1.220 -0.1968  0.5134 -0.0801
 7448SOL    HW133806   2.000   4.712   1.206  0.3107 -0.4582  2.4405
 7448SOL    HW233807   1.892   4.609   1.194  3.3288 -0.1866  0.4180
 7449SOL     OW33808   0.874   0.801   3.728 -0.4140  0.8691  0.4313
 7449SOL    HW133809   0.932   0.825   3.801 -0.5472 -1.7176  1.4025
 7449SOL    HW233810   0.918   0.732   3.677  0.1228  0.4326  1.4708
 7450SOL     OW33811   3.948   0.715  12.250  0.2700  0.1110  0.1986
 7450SOL    HW133812   3.886   0.701  12.321  1.1273  0.4549  1.0229
 7450SOL    HW233813   3.890   0.691  12.177  2.8413 -1.0346 -1.4633
 7451SOL     OW33814   3.343   3.495  12.195 -0.6271 -0.1645  0.1370
 7451SOL    HW133815   3.306   3.454  12.273  0.4845 -2.9778 -0.7931
 7451SOL    HW233816   3.320   3.585  12.216  2.1754  0.8688 -1.2237
 7452SOL     OW33817   4.692   3.544   2.569  0.6904  0.0611  0.1135
 7452SOL    HW133818   0.002   3.634   2.559  0.9995  0.1012  1.4989
 7452SOL    HW233819   4.606   3.543   2.528  1.1111 -0.5923 -0.7716
 7453SOL     OW33820   3.022   3.247   6.169  0.4026  0.6872 -0.0766
 7453SOL    HW133821   2.950   3.209   6.119  1.1981  0.1208 -0.7834
 7453SOL    HW233822   3.052   3.169   6.216 -1.8575 -0.3617 -0.3859
 7454SOL     OW33823   4.167   0.429  15.670  0.1165  0.2633  0.2420
 7454SOL    HW133824   4.240   0.457  15.615 -0.4279 -1.3218 -1.2502
 7454SOL    HW233825   4.107   0.410  15.598  1.5879  0.2793 -0.9710
 7455SOL     OW33826   1.905   0.246  16.697 -0.0709  0.8948 -0.0049
 7455SOL    HW133827   1.988   0.293  16.696  0.7980 -0.6183 -0.0156
 7455SOL    HW233828   1.851   0.320  16.670 -0.5265  0.0656 -1.4205
 7456SOL     OW33829   4.649   3.737   3.560  0.6899  0.1897 -0.2189
 7456SOL    HW133830   4.618   3.647   3.552  0.7582  0.0355  1.1915
 7456SOL    HW233831   4.580   3.783   3.608 -0.4626 -3.2085  1.3749
 7457SOL     OW33832   0.718   1.845   6.886 -0.0089  0.0632 -0.3341
 7457SOL    HW133833   0.737   1.855   6.979 -0.4716  0.8540 -0.3271
 7457SOL    HW233834   0.805   1.819   6.852  0.5662  0.5198  0.8078
 7458SOL     OW33835   1.251   2.713   0.713  0.3048 -0.5524  0.7187
 7458SOL    HW133836   1.280   2.625   0.738  0.4947 -0.6020  0.3243
 7458SOL    HW233837   1.294   2.721   0.628  0.8425 -4.0130  0.6866
 7459SOL     OW33838   3.426   0.780   3.882  0.2131 -0.1891  0.4251
 7459SOL    HW133839   3.484   0.705   3.868 -1.4795 -1.8061  2.1752
 7459SOL    HW233840   3.490   0.836   3.925 -0.6588  1.4773 -0.4621
 7460SOL     OW33841   1.693   3.750   9.803 -0.1939 -0.3404 -0.4307
 7460SOL    HW133842   1.664   3.659   9.811  0.4429 -0.5050 -0.0183
 7460SOL    HW233843   1.770   3.723   9.753  0.8847 -1.0916  1.6051
 7461SOL     OW33844   3.230   4.060   6.250 -0.5270  0.0497  0.0175
 7461SOL    HW133845   3.213   4.152   6.268  0.8767  0.2328  0.4399
 7461SOL    HW233846   3.214   4.054   6.156  0.4554  1.1769 -0.2239
 7462SOL     OW33847   0.420   1.655   4.962  0.1816  0.3704 -0.4912
 7462SOL    HW133848   0.484   1.680   5.029  0.0164 -0.2202 -0.1057
 7462SOL    HW233849   0.344   1.706   4.991  1.0066  1.1775  0.2616
 7463SOL     OW33850   1.405   1.872   9.450 -0.4096  0.4902  0.0472
 7463SOL    HW133851   1.348   1.856   9.375 -1.5732  0.8119  0.8629
 7463SOL    HW233852   1.485   1.825   9.428 -2.4414 -1.9553 -2.0276
 7464SOL     OW33853   0.527   2.843   2.152 -0.2238  0.3321 -0.5242
 7464SOL    HW133854   0.436   2.871   2.158  0.3254  1.6198  1.8483
 7464SOL    HW233855   0.568   2.922   2.114  1.8884  0.1371  1.3597
 7465SOL     OW33856   2.869   4.086   8.242  0.5165 -0.6650 -0.6081
 7465SOL    HW133857   2.936   4.126   8.187 -0.7109 -0.4010 -1.9183
 7465SOL    HW233858   2.830   4.020   8.185 -1.4557 -0.4442  0.4787
 7466SOL     OW33859   4.412   2.220  17.581  0.3235  0.4398 -0.7268
 7466SOL    HW133860   4.448   2.142  17.538 -0.5308  0.2094 -1.0198
 7466SOL    HW233861   4.404   2.277  17.504 -1.6559 -1.5069 -1.9672
 7467SOL     OW33862   3.707   2.422   5.808  0.0774 -0.0456 -0.2436
 7467SOL    HW133863   3.753   2.361   5.866 -1.6963 -0.7464  0.4086
 7467SOL    HW233864   3.770   2.446   5.740  0.0532 -0.6453 -0.4755
 7468SOL     OW33865   1.271   4.556   6.737  0.2162 -0.1097 -0.0534
 7468SOL    HW133866   1.196   4.530   6.791 -1.1819  0.9666 -1.4776
 7468SOL    HW233867   1.280   4.645   6.770  0.7029 -0.1168 -0.1754
 7469SOL     OW33868   4.609   3.780   7.769 -0.2911  0.0641 -0.0595
 7469SOL    HW133869   4.596   3.741   7.682  0.5384 -2.8978  1.1458
 7469SOL    HW233870   4.565   3.863   7.750 -0.7832 -0.3528 -0.7602
 7470SOL     OW33871   1.344   1.081   7.250  0.3790 -0.2062  0.0664
 7470SOL    HW133872   1.389   1.075   7.166  1.1110 -1.2882  0.5456
 7470SOL    HW233873   1.292   1.158   7.229 -0.1252 -0.5612  0.0078
 7471SOL     OW33874   0.061   1.049   8.145 -0.2918 -0.3011  0.0633
 7471SOL    HW133875   0.143   1.038   8.194 -0.3129 -0.9010 -0.0463
 7471SOL    HW233876   0.016   0.971   8.176 -1.5531  0.8168  1.0279
 7472SOL     OW33877   3.030   2.387   3.828  0.9656 -0.4686 -0.6701
 7472SOL    HW133878   3.007   2.304   3.786 -1.4055 -0.1698  0.0172
 7472SOL    HW233879   3.040   2.353   3.917 -2.5859 -1.2983 -0.5778
 7473SOL     OW33880   2.818   1.496  15.602  0.0022 -0.1080 -0.3527
 7473SOL    HW133881   2.781   1.482  15.689  1.4368  0.4618  0.3475
 7473SOL    HW233882   2.790   1.585  15.580  1.2102  0.0513 -1.2515
 7474SOL     OW33883   3.629   3.331   4.134 -0.0298  0.2281  0.4428
 7474SOL    HW133884   3.542   3.343   4.172 -0.7817  1.4118 -1.6361
 7474SOL    HW233885   3.638   3.236   4.138 -1.5997  0.1565  2.2086
 7475SOL     OW33886   4.114   4.221   5.701  0.0523 -0.1855  0.0423
 7475SOL    HW133887   4.019   4.230   5.696  0.0660 -0.5215 -0.9280
 7475SOL    HW233888   4.141   4.217   5.609  0.9243 -1.6979  0.3648
 7476SOL     OW33889   0.007   3.958   6.627 -0.2672 -0.4959 -0.6079
 7476SOL    HW133890   0.024   4.029   6.565  0.7003 -0.6482 -0.5132
 7476SOL    HW233891   4.655   3.980   6.684 -1.5904 -1.2899 -1.9764
 7477SOL     OW33892   2.481   1.315  12.493  0.2217 -0.1227  0.1636
 7477SOL    HW133893   2.482   1.343  12.584  0.9985  1.2858 -0.2795
 7477SOL    HW233894   2.427   1.235  12.496  0.4761 -0.2065  1.9217
 7478SOL     OW33895   0.177   1.441  14.706  0.1887 -0.0859  0.0541
 7478SOL    HW133896   0.086   1.469  14.714  0.2185 -0.1276  0.5537
 7478SOL    HW233897   0.153   1.357  14.667  0.7001  0.2601 -1.0222
 7479SOL     OW33898   0.205   1.055  10.573 -0.0524  0.4384 -0.5216
 7479SOL    HW133899   0.234   0.965  10.588 -1.3664 -0.2462 -1.9879
 7479SOL    HW233900   0.291   1.095  10.562 -0.6393  1.2776 -1.9878
 7480SOL     OW33901   1.131   3.683   4.116  0.3590 -0.5526 -0.0017
 7480SOL    HW133902   1.210   3.726   4.148  1.0863 -0.2555 -2.1522
 7480SOL    HW233903   1.174   3.603   4.087  2.2774  1.0691 -1.6491
 7481SOL     OW33904   4.328   3.746   7.488 -0.1896  0.1237 -0.6961
 7481SOL    HW133905   4.413   3.703   7.479  0.7928  1.5468  1.8881
 7481SOL    HW233906   4.333   3.804   7.412 -0.1412  1.5112  0.3781
 7482SOL     OW33907   3.046   4.075   3.336  0.4172  0.1988  0.1580
 7482SOL    HW133908   3.121   4.131   3.315 -1.1670  2.5154  0.5815
 7482SOL    HW233909   2.982   4.142   3.361 -0.4065 -0.6640  0.3285
 7483SOL     OW33910   1.808   3.363  11.424  0.1314  0.2561 -0.5628
 7483SOL    HW133911   1.807   3.395  11.515  0.1198  1.7742 -1.0878
 7483SOL    HW233912   1.760   3.436  11.384 -0.1615  0.1272 -0.4494
 7484SOL     OW33913   3.568   2.385   3.460  0.0021  0.3393  0.4116
 7484SOL    HW133914   3.603   2.380   3.371  0.0425 -0.3996  0.4730
 7484SOL    HW233915   3.562   2.477   3.487  2.3683  0.1162  1.6592
 7485SOL     OW33916   2.903   4.235   2.630 -0.1274 -0.1402 -0.1553
 7485SOL    HW133917   2.818   4.192   2.638  0.7814 -2.1398 -1.1505
 7485SOL    HW233918   2.892   4.311   2.573 -1.0205  0.4060  0.7356
 7486SOL     OW33919   1.823   0.659  11.012  0.1974  0.3081 -0.0842
 7486SOL    HW133920   1.868   0.712  10.946  0.4580 -1.2992 -1.2242
 7486SOL    HW233921   1.790   0.590  10.954  2.0800 -1.3076  0.7681
 7487SOL     OW33922   3.009   3.314  15.339  1.0472 -0.1719  0.3145
 7487SOL    HW133923   2.993   3.221  15.352  0.1912 -0.4343 -2.6464
 7487SOL    HW233924   3.103   3.317  15.357  0.8665  0.9352  1.1184
 7488SOL     OW33925   0.539   2.088   6.826 -0.0699  0.1283 -0.1461
 7488SOL    HW133926   0.495   2.026   6.883  2.3332 -0.7179  0.8096
 7488SOL    HW233927   0.622   2.039   6.831  0.5300  1.2486  0.8283
 7489SOL     OW33928   1.686   2.608   6.567  0.3295 -0.3833 -0.1428
 7489SOL    HW133929   1.647   2.632   6.483  1.1689  0.8450 -0.1691
 7489SOL    HW233930   1.745   2.683   6.570  0.9879 -0.9507  0.8892
 7490SOL     OW33931   4.409   4.338  11.936  0.5317 -0.0648  0.0520
 7490SOL    HW133932   4.342   4.302  11.993 -0.6851 -2.7196 -3.0492
 7490SOL    HW233933   4.451   4.266  11.889 -0.0113 -0.4498  0.1651
 7491SOL     OW33934   0.008   3.491  16.201  0.1785 -0.5842 -0.0596
 7491SOL    HW133935   4.693   3.575  16.229  1.4653 -0.9361  2.6547
 7491SOL    HW233936   4.686   3.478  16.116  0.6899  3.4219 -0.9582
 7492SOL     OW33937   2.485   1.408   5.105 -0.4254 -0.2142  0.2475
 7492SOL    HW133938   2.418   1.400   5.172 -3.0144 -2.4037 -2.5599
 7492SOL    HW233939   2.435   1.409   5.023  0.4033  2.7056 -0.2085
 7493SOL     OW33940   3.187   3.756  12.531  0.0342 -0.2758  0.4135
 7493SOL    HW133941   3.149   3.681  12.575 -0.1161 -0.1202  0.5495
 7493SOL    HW233942   3.120   3.824  12.537  1.8422  1.7550 -2.2238
 7494SOL     OW33943   4.038   4.452   3.358 -0.2308 -0.5819  0.1562
 7494SOL    HW133944   4.061   4.481   3.270 -0.5822  0.1150  0.2968
 7494SOL    HW233945   3.960   4.506   3.371 -1.5205 -2.3703 -0.0698
 7495SOL     OW33946   3.206   2.919   7.791  0.4420  0.0072  0.3461
 7495SOL    HW133947   3.113   2.934   7.807 -0.1127 -0.8984 -2.0190
 7495SOL    HW233948   3.222   2.944   7.700  0.5628  1.8467  0.8793
 7496SOL     OW33949   1.411   3.570   6.602 -0.4539  0.8630 -0.3322
 7496SOL    HW133950   1.487   3.620   6.632  1.8317 -2.5786 -0.4043
 7496SOL    HW233951   1.425   3.479   6.629  3.0505  1.1342 -1.2407
 7497SOL     OW33952   0.534   0.763   6.901  0.3354  0.3240  0.4344
 7497SOL    HW133953   0.488   0.810   6.832 -1.1732  0.0042  1.2296
 7497SOL    HW233954   0.615   0.815   6.909  0.9225 -0.4788 -0.2426
 7498SOL     OW33955   2.849   0.202   1.502 -0.5935 -0.0098  0.2529
 7498SOL    HW133956   2.932   0.248   1.491  0.8632 -2.5054  0.8034
 7498SOL    HW233957   2.862   0.149   1.581 -0.5291  0.2015  0.3832
 7499SOL     OW33958   4.299   4.122  16.329 -0.5485 -0.1571  0.4130
 7499SOL    HW133959   4.210   4.137  16.359  0.0607  2.2719  1.0201
 7499SOL    HW233960   4.345   4.194  16.373 -1.3163  0.8097 -0.3605
 7500SOL     OW33961   3.269   0.226   5.545 -0.0653 -0.1031  0.5686
 7500SOL    HW133962   3.297   0.305   5.593  0.9615 -1.3605  2.0357
 7500SOL    HW233963   3.177   0.211   5.567 -0.2734  1.3797  0.7511
 7501SOL     OW33964   4.571   4.418   2.145 -0.3120 -0.2280  0.1254
 7501SOL    HW133965   4.482   4.382   2.147  0.0330 -1.1287 -0.9100
 7501SOL    HW233966   4.566   4.484   2.077  0.0649  1.1225  1.3998
 7502SOL     OW33967   0.819   1.817   5.095 -0.2795  0.0515  0.0499
 7502SOL    HW133968   0.892   1.757   5.080 -0.7252 -0.9873  2.0591
 7502SOL    HW233969   0.750   1.755   5.115 -1.3942  1.4263  0.4386
 7503SOL     OW33970   3.391   2.641   1.186 -0.1653  0.4677  0.2622
 7503SOL    HW133971   3.470   2.673   1.229  0.4504  0.4634 -0.8839
 7503SOL    HW233972   3.361   2.726   1.153 -1.9110 -0.3167 -0.1505
 7504SOL     OW33973   2.735   3.158  13.221 -0.2302 -0.3398  0.1120
 7504SOL    HW133974   2.742   3.081  13.164  1.1800  0.5675 -0.9265
 7504SOL    HW233975   2.677   3.129  13.292  2.0989  0.2833  2.2468
 7505SOL     OW33976   1.675   0.240   1.329  0.2647 -0.0759  0.0986
 7505SOL    HW133977   1.621   0.302   1.377 -0.6360 -1.5926  1.0383
 7505SOL    HW233978   1.712   0.296   1.260 -0.5507  0.6373  0.2465
 7506SOL     OW33979   1.308   4.631   4.490  0.2764 -0.0045 -0.2783
 7506SOL    HW133980   1.225   4.660   4.453 -0.2758 -1.9501 -0.5767
 7506SOL    HW233981   1.305   4.543   4.452 -3.1429 -0.6048  1.3985
 7507SOL     OW33982   0.980   4.020  13.212 -0.1647 -0.0077 -0.1000
 7507SOL    HW133983   0.934   4.102  13.231  0.7135  0.4231  0.1764
 7507SOL    HW233984   0.946   3.961  13.279  0.1404  1.0566  0.9980
 7508SOL     OW33985   4.075   1.351  14.897 -0.2683  0.1074  0.2357
 7508SOL    HW133986   4.027   1.411  14.954  3.0989  2.4259  0.6463
 7508SOL    HW233987   4.165   1.359  14.927 -0.2297  0.7005 -0.0427
 7509SOL     OW33988   2.854   4.571   3.417 -0.1053 -0.1601 -0.3134
 7509SOL    HW133989   2.920   4.597   3.353 -0.3063  1.5781  0.1877
 7509SOL    HW233990   2.910   4.510   3.465  0.8912  1.1846  0.2510
 7510SOL     OW33991   3.508   3.692   7.378 -0.0166 -0.6012  0.5438
 7510SOL    HW133992   3.499   3.610   7.330 -2.6375  0.3018 -0.5279
 7510SOL    HW233993   3.415   3.711   7.391 -0.0615  0.5177 -1.4411
 7511SOL     OW33994   3.725   2.356   4.837  0.6378  0.2550  0.1494
 7511SOL    HW133995   3.701   2.341   4.929  1.6398 -1.4479  0.1378
 7511SOL    HW233996   3.668   2.297   4.789 -0.4109  2.6328 -1.5070
 7512SOL     OW33997   4.300   2.280   5.559 -0.0312  0.1341 -0.7609
 7512SOL    HW133998   4.338   2.360   5.595 -2.1173  1.1098 -0.7533
 7512SOL    HW233999   4.381   2.243   5.523 -0.3442  0.6151 -1.9699
 7513SOL     OW34000   3.840   2.776   2.548 -1.1869 -0.2024  0.3836
 7513SOL    HW134001   3.794   2.854   2.517 -0.4127 -0.0737 -0.4499
 7513SOL    HW234002   3.895   2.765   2.470  2.7412 -1.9111  3.3539
 7514SOL     OW34003   2.110   2.359   2.883 -0.1447 -0.1936 -0.2327
 7514SOL    HW134004   2.168   2.308   2.826  2.6590  1.5009  1.1541
 7514SOL    HW234005   2.020   2.327   2.872  0.3625 -1.3213 -1.1330
 7515SOL     OW34006   1.600   3.921  12.762 -0.2303 -0.1262 -0.0470
 7515SOL    HW134007   1.524   3.936  12.706  0.1925  2.4757  0.0756
 7515SOL    HW234008   1.550   3.919  12.844 -0.0808 -1.7419  0.0008
 7516SOL     OW34009   1.001   3.638   9.189  0.6373  0.3214  0.1335
 7516SOL    HW134010   0.971   3.548   9.196  0.6474  0.0893 -2.4721
 7516SOL    HW234011   0.974   3.680   9.271  1.6002  0.6598  0.2773
 7517SOL     OW34012   3.815   2.735   4.998  0.0903 -0.1209  0.2093
 7517SOL    HW134013   3.772   2.741   5.084 -0.2697  2.7038 -0.1643
 7517SOL    HW234014   3.743   2.707   4.942  0.5072 -0.6721 -0.0386
 7518SOL     OW34015   3.131   1.458   1.317 -0.0912 -0.3481  0.1249
 7518SOL    HW134016   3.193   1.529   1.304 -0.8086  0.0751 -0.9078
 7518SOL    HW234017   3.054   1.507   1.346 -1.1659 -1.5900 -0.6215
 7519SOL     OW34018   1.831   0.904   9.177  0.1585  0.0450  0.5563
 7519SOL    HW134019   1.784   0.844   9.235  1.9303 -0.7406  1.1897
 7519SOL    HW234020   1.798   0.985   9.217  0.6986  1.0980 -1.1342
 7520SOL     OW34021   0.527   0.754  13.570  0.0634 -0.1168  0.8043
 7520SOL    HW134022   0.590   0.682  13.570  0.7322  0.4680  0.8882
 7520SOL    HW234023   0.512   0.775  13.663 -3.0420 -0.0857  0.2875
 7521SOL     OW34024   1.644   4.014   5.037  0.3684 -0.1665  0.6217
 7521SOL    HW134025   1.680   4.077   5.100  3.3626 -1.3190  0.0585
 7521SOL    HW234026   1.713   3.995   4.974 -0.1387  3.3793 -1.0084
 7522SOL     OW34027   2.726   0.728   6.561  0.3636  0.1724 -0.3043
 7522SOL    HW134028   2.660   0.778   6.512  0.1556  1.5411  1.3733
 7522SOL    HW234029   2.757   0.667   6.494  0.9675  0.0640  0.0807
 7523SOL     OW34030   1.783   1.710  10.817 -0.6670 -0.2794 -0.0682
 7523SOL    HW134031   1.819   1.677  10.900  0.8366 -1.9940 -1.4216
 7523SOL    HW234032   1.814   1.651  10.749 -0.4923  0.5678 -0.7215
 7524SOL     OW34033   1.925   2.534  12.347  0.4650 -0.3817 -0.3939
 7524SOL    HW134034   1.955   2.547  12.257 -0.4501  0.6070 -0.5579
 7524SOL    HW234035   1.837   2.572  12.338  0.9989  1.4720  2.2948
 7525SOL     OW34036   0.002   1.934  16.487 -0.2911 -0.2885  0.0950
 7525SOL    HW134037   4.711   2.017  16.532  0.8271  0.2670 -0.6064
 7525SOL    HW234038   0.049   1.888  16.557  2.4206  1.2954 -0.6734
 7526SOL     OW34039   1.799   3.516   6.507  0.1019 -0.0444 -0.2637
 7526SOL    HW134040   1.811   3.609   6.486 -0.8711  0.0247 -0.5442
 7526SOL    HW234041   1.750   3.523   6.590 -3.3218  0.3561 -2.3117
 7527SOL     OW34042   1.682   2.122   5.522  0.2633 -0.1678 -0.1097
 7527SOL    HW134043   1.731   2.187   5.472 -0.0694 -0.3902 -0.7340
 7527SOL    HW234044   1.596   2.116   5.478 -0.4799 -0.6514  1.4080
 7528SOL     OW34045   3.282   3.180   7.253  0.6646 -0.0852  0.5163
 7528SOL    HW134046   3.339   3.206   7.181  1.3315 -0.8134  0.7834
 7528SOL    HW234047   3.340   3.120   7.300  0.1310 -0.3634  0.8105
 7529SOL     OW34048   2.118   2.987   5.355  0.0938  0.0281  0.1782
 7529SOL    HW134049   2.072   2.949   5.280 -0.8044  0.3633  0.5586
 7529SOL    HW234050   2.137   3.075   5.323 -1.9097  0.5331  0.3974
 7530SOL     OW34051   3.314   0.936   4.683  0.2091 -0.4874 -0.0394
 7530SOL    HW134052   3.408   0.946   4.668 -0.5113  1.2018 -3.3988
 7530SOL    HW234053   3.312   0.990   4.762 -0.0679 -1.4485  0.6186
 7531SOL     OW34054   3.203   1.044   2.467  0.3659  0.1403  0.3191
 7531SOL    HW134055   3.164   1.118   2.513  1.4379  1.8708 -1.5650
 7531SOL    HW234056   3.194   0.972   2.529 -0.5796  0.6019  0.7281
 7532SOL     OW34057   1.194   2.355   8.650  0.1233  0.0102  0.2758
 7532SOL    HW134058   1.188   2.266   8.616  1.8012  0.7622 -2.0022
 7532SOL    HW234059   1.289   2.366   8.661  0.3777  1.3265 -3.1211
 7533SOL     OW34060   1.921   0.351  16.985 -0.2625  0.4165 -0.4806
 7533SOL    HW134061   1.989   0.360  16.918 -0.2218 -0.0553 -0.5033
 7533SOL    HW234062   1.848   0.387  16.935 -0.8920  1.3016  1.0804
 7534SOL     OW34063   4.558   2.386   8.345 -0.4521 -0.4895 -0.0423
 7534SOL    HW134064   4.639   2.437   8.339  0.0992 -1.3443  0.0611
 7534SOL    HW234065   4.582   2.301   8.383 -1.1287 -1.2749 -1.3764
 7535SOL     OW34066   3.386   3.474   7.972  0.2711  0.1047 -0.2038
 7535SOL    HW134067   3.310   3.520   8.008  0.0421 -1.4089  1.2469
 7535SOL    HW234068   3.460   3.531   7.994 -0.5844  1.0768  0.1927
 7536SOL     OW34069   4.552   1.403  13.699  0.5074  0.1458  0.2259
 7536SOL    HW134070   4.627   1.434  13.648 -0.7058 -0.1500 -1.7300
 7536SOL    HW234071   4.521   1.488  13.730  0.6591 -0.0730  0.9673
 7537SOL     OW34072   1.831   2.421   6.159 -0.1151 -0.0061 -0.0903
 7537SOL    HW134073   1.748   2.387   6.191  0.2711 -0.5561  0.3379
 7537SOL    HW234074   1.881   2.431   6.241  1.7324 -0.5062 -1.1477
 7538SOL     OW34075   4.079   3.256   8.383  0.0798 -0.1654  0.0923
 7538SOL    HW134076   4.110   3.335   8.426 -1.8832 -0.7582  2.5630
 7538SOL    HW234077   4.070   3.288   8.293  1.6286 -0.8361 -0.3049
 7539SOL     OW34078   3.527   2.032   2.932  0.0843 -0.2983  0.0429
 7539SOL    HW134079   3.618   2.001   2.942  0.3092  0.7388  1.2526
 7539SOL    HW234080   3.485   1.970   2.992  1.8235 -0.5552  1.0288
 7540SOL     OW34081   2.693   0.755   7.218  0.2439  0.1406  0.0482
 7540SOL    HW134082   2.695   0.685   7.283 -1.5570  0.6938  0.7072
 7540SOL    HW234083   2.606   0.794   7.227  0.4905  0.3331  1.6622
 7541SOL     OW34084   2.179   1.912  11.729  0.4445  0.4378 -0.4457
 7541SOL    HW134085   2.271   1.935  11.738  0.5998 -0.3673 -0.0170
 7541SOL    HW234086   2.156   1.999  11.697 -0.2423  0.8370  1.0978
 7542SOL     OW34087   1.874   2.550   3.068 -0.0580  0.3675 -0.0717
 7542SOL    HW134088   1.863   2.627   3.012  2.7293  1.2740  0.6433
 7542SOL    HW234089   1.812   2.570   3.139  1.1784  1.6532  0.6402
 7543SOL     OW34090   1.821   4.151   7.947 -0.0104  0.0301 -0.0760
 7543SOL    HW134091   1.796   4.222   7.887  0.0482 -0.8856 -1.1940
 7543SOL    HW234092   1.879   4.193   8.009 -0.2264 -0.6837  0.6097
 7544SOL     OW34093   4.515   2.710   4.114  0.2781  0.2887 -0.4314
 7544SOL    HW134094   4.496   2.621   4.145  0.7973  0.2153 -0.3174
 7544SOL    HW234095   4.437   2.762   4.134  0.9551  0.6450  1.3195
 7545SOL     OW34096   3.270   2.046  17.505 -0.1871  0.1383 -0.2744
 7545SOL    HW134097   3.218   1.967  17.492 -1.8722  1.4260 -1.4286
 7545SOL    HW234098   3.357   2.013  17.525 -0.0786 -0.2516 -1.3958
 7546SOL     OW34099   0.813   1.796   3.745 -0.0134  0.6071 -0.0172
 7546SOL    HW134100   0.876   1.736   3.784 -1.6822 -2.2032 -1.6100
 7546SOL    HW234101   0.731   1.748   3.753 -0.2740  1.2535  1.1809
 7547SOL     OW34102   0.764   0.100   8.184  0.2479 -0.2021  0.0429
 7547SOL    HW134103   0.682   0.143   8.211  2.1875  4.1625 -1.1093
 7547SOL    HW234104   0.733   0.023   8.138  1.2146  0.1142 -1.1183
 7548SOL     OW34105   1.606   3.082   6.904 -0.0423 -0.1483 -0.5678
 7548SOL    HW134106   1.630   3.036   6.985 -1.2497  3.8852  2.0638
 7548SOL    HW234107   1.692   3.097   6.865  0.3208  0.8599  0.6151
 7549SOL     OW34108   2.201   2.713   8.621 -0.3574  0.0188  0.2960
 7549SOL    HW134109   2.124   2.658   8.634  0.0353 -0.3413  1.1037
 7549SOL    HW234110   2.216   2.706   8.527 -1.2203 -2.0772  0.3148
 7550SOL     OW34111   0.184   2.484  17.308  0.4318  0.5910  0.2568
 7550SOL    HW134112   0.213   2.432  17.383 -1.5143 -0.6853  0.1287
 7550SOL    HW234113   0.217   2.571  17.331  0.0448  0.5828  0.8504
 7551SOL     OW34114   3.941   3.584  17.490  0.3879 -0.3746  0.1195
 7551SOL    HW134115   3.876   3.654  17.492 -0.6124 -1.2635 -0.9138
 7551SOL    HW234116   3.890   3.508  17.518 -0.7033 -0.3798 -1.8689
 7552SOL     OW34117   2.274   0.198   6.231 -0.2063  0.4944 -0.0298
 7552SOL    HW134118   2.222   0.124   6.199 -0.3097 -0.1238  1.5896
 7552SOL    HW234119   2.268   0.268   6.166  0.1004 -0.1480 -0.7576
 7553SOL     OW34120   0.881   0.565   4.764  0.0022  0.0142 -0.7141
 7553SOL    HW134121   0.854   0.623   4.693 -1.1920  0.9794  0.5172
 7553SOL    HW234122   0.804   0.562   4.821 -1.0549  1.3592 -2.0403
 7554SOL     OW34123   2.016   3.394   9.537 -0.1658 -0.1822  0.0518
 7554SOL    HW134124   1.952   3.431   9.477  3.1589  0.4264 -3.0766
 7554SOL    HW234125   1.990   3.305   9.561  2.0823 -0.9466 -0.2933
 7555SOL     OW34126   2.082   4.511  11.848 -0.6526 -0.5289 -0.0269
 7555SOL    HW134127   2.047   4.573  11.912  0.8629 -1.2639  1.5321
 7555SOL    HW234128   2.120   4.576  11.788 -1.2213 -1.1303 -1.0369
 7556SOL     OW34129   0.935   0.128   7.299 -0.0286 -0.2856 -0.2426
 7556SOL    HW134130   0.951   0.116   7.393  1.4708  0.6746 -0.3642
 7556SOL    HW234131   0.967   0.218   7.286  0.0017 -0.3285 -0.4576
 7557SOL     OW34132   1.810   4.419  15.950  0.3973  0.0120 -0.1016
 7557SOL    HW134133   1.721   4.417  15.985 -0.4461 -0.0212 -2.2175
 7557SOL    HW234134   1.864   4.366  16.008 -0.4466  2.1352  2.6459
 7558SOL     OW34135   2.723   3.856   8.688  0.2945  0.0118  0.6109
 7558SOL    HW134136   2.649   3.889   8.636  0.8508 -1.0032 -0.8194
 7558SOL    HW234137   2.693   3.877   8.777 -3.2198  0.1598 -0.5883
 7559SOL     OW34138   2.320   3.981   9.351  0.3410  0.3444 -0.4089
 7559SOL    HW134139   2.326   3.890   9.381 -1.6174  0.8698  1.5821
 7559SOL    HW234140   2.342   4.020   9.435 -0.5230  1.2593 -0.6047
 7560SOL     OW34141   3.420   4.032  13.317 -0.6193 -0.2738 -0.2756
 7560SOL    HW134142   3.374   3.954  13.286 -1.4665  0.5652 -1.1502
 7560SOL    HW234143   3.452   4.003  13.402  2.6231 -0.3948 -1.5641
 7561SOL     OW34144   2.578   2.378  10.372  0.4635 -0.2340  0.1405
 7561SOL    HW134145   2.550   2.453  10.425  0.5208  0.3500 -0.6572
 7561SOL    HW234146   2.500   2.365  10.318 -0.4788  0.9825  1.1813
 7562SOL     OW34147   3.175   2.687   5.639 -0.1328 -0.5925  0.4076
 7562SOL    HW134148   3.168   2.596   5.667 -0.5749  0.1726  2.8396
 7562SOL    HW234149   3.269   2.691   5.656 -0.3618 -4.6377  2.6673
 7563SOL     OW34150   1.914   3.628  14.877  0.9059  0.3130 -0.0807
 7563SOL    HW134151   1.969   3.652  14.952  1.0848  1.2463 -0.5017
 7563SOL    HW234152   1.967   3.650  14.799  2.1842 -1.5146  0.2738
 7564SOL     OW34153   0.786   4.717   5.273 -0.1532  0.2335 -0.1420
 7564SOL    HW134154   0.718   0.043   5.224  0.9348  0.8117 -1.0870
 7564SOL    HW234155   0.736   4.637   5.288  0.2284 -0.6076 -3.3556
 7565SOL     OW34156   4.369   2.242   7.790  0.1277 -0.2869 -0.0480
 7565SOL    HW134157   4.379   2.157   7.831  4.0359 -1.1113 -2.7303
 7565SOL    HW234158   4.353   2.212   7.700 -0.8868  1.7567 -0.5629
 7566SOL     OW34159   2.719   2.760   3.110 -0.1649 -0.0103  0.5196
 7566SOL    HW134160   2.719   2.669   3.140  1.3153  0.3856  1.7541
 7566SOL    HW234161   2.641   2.794   3.154 -0.3541  1.1907 -0.7379
 7567SOL     OW34162   0.717   2.519   5.228  0.0474  0.1981 -0.1531
 7567SOL    HW134163   0.779   2.449   5.206  0.1043  0.4807 -0.8947
 7567SOL    HW234164   0.665   2.463   5.285 -0.4163  1.1409  0.3478
 7568SOL     OW34165   4.298   4.140   0.935 -0.0589 -0.3503 -0.1917
 7568SOL    HW134166   4.221   4.151   0.990  0.2373  2.9852 -0.4132
 7568SOL    HW234167   4.310   4.046   0.930 -1.8848 -0.7246  2.5665
 7569SOL     OW34168   3.127   0.040  13.268  0.1306 -0.3389  0.1032
 7569SOL    HW134169   3.185   0.102  13.223 -0.6834 -0.1838 -0.7191
 7569SOL    HW234170   3.057   0.019  13.207  0.6484  1.4945 -1.1292
 7570SOL     OW34171   3.879   3.009   1.446  0.3099  0.3704 -0.2732
 7570SOL    HW134172   3.903   3.094   1.484  0.9404 -0.0011  0.1667
 7570SOL    HW234173   3.800   3.035   1.398 -1.7779 -1.0700  2.3394
 7571SOL     OW34174   3.382   4.690   5.520  0.8902 -0.2024 -0.1106
 7571SOL    HW134175   3.364   4.671   5.428  0.1531 -1.8378  0.3655
 7571SOL    HW234176   3.339   0.054   5.531 -0.4973 -1.1601  1.8353
 7572SOL     OW34177   0.051   2.515   0.180  0.0822 -0.1696 -0.2570
 7572SOL    HW134178   0.034   2.501   0.273 -1.6579  0.3685 -0.4895
 7572SOL    HW234179   4.696   2.476   0.136 -0.6439 -0.0122  0.8728
 7573SOL     OW34180   1.966   0.033  17.655  0.0656 -0.1968  0.1665
 7573SOL    HW134181   2.002   0.034  17.566  1.8380 -3.3787  0.8677
 7573SOL    HW234182   2.026   0.091   0.014  0.4429 -0.1560 -0.3687
 7574SOL     OW34183   4.258   2.348   7.493 -0.2326 -0.1520 -0.0447
 7574SOL    HW134184   4.263   2.431   7.445  1.8374  0.3317  1.0440
 7574SOL    HW234185   4.167   2.327   7.472 -0.5296 -0.0607  1.1434
 7575SOL     OW34186   0.901   3.408   3.052  0.8102 -0.1838 -0.3286
 7575SOL    HW134187   0.902   3.424   3.147 -1.2496 -0.0396 -0.3321
 7575SOL    HW234188   0.960   3.477   3.025  0.2658  0.6788  0.6730
 7576SOL     OW34189   2.466   0.680   8.715 -0.2133  0.0167 -0.3910
 7576SOL    HW134190   2.431   0.762   8.681 -2.5766 -0.9990 -0.4877
 7576SOL    HW234191   2.403   0.655   8.783  0.2851 -0.6566 -0.1823
 7577SOL     OW34192   2.602   4.133   4.411 -1.0239  0.3721 -1.1080
 7577SOL    HW134193   2.532   4.093   4.462 -0.3447 -1.3447 -1.5226
 7577SOL    HW234194   2.585   4.225   4.430 -0.1142  0.2108  0.4970
 7578SOL     OW34195   2.042   1.034   1.185  0.2371 -0.2904 -0.0097
 7578SOL    HW134196   2.133   1.010   1.170 -0.0842 -1.7477  0.3368
 7578SOL    HW234197   2.016   0.952   1.227 -0.2575 -2.0730 -3.8308
 7579SOL     OW34198   1.565   1.412  13.431 -0.4898 -0.5629  0.8609
 7579SOL    HW134199   1.475   1.440  13.445 -0.0418  1.5220 -0.4563
 7579SOL    HW234200   1.598   1.408  13.521 -0.6149  0.4393  0.9488
 7580SOL     OW34201   1.146   4.313   3.031 -0.1408  0.3040  0.1842
 7580SOL    HW134202   1.206   4.241   3.050 -0.0949 -0.1258 -1.6877
 7580SOL    HW234203   1.166   4.318   2.938  1.6665  1.9572  0.6500
 7581SOL     OW34204   4.468   3.642   8.395 -0.0815 -0.4380 -0.2422
 7581SOL    HW134205   4.493   3.734   8.392 -1.2978 -0.0430  2.0655
 7581SOL    HW234206   4.552   3.596   8.400  0.0133 -0.2015  0.2509
 7582SOL     OW34207   0.163   0.262   5.676  0.1992 -0.1756  0.3387
 7582SOL    HW134208   0.175   0.291   5.766 -0.3331  0.9002  0.0681
 7582SOL    HW234209   0.233   0.316   5.640 -0.1732 -0.5338 -0.9557
 7583SOL     OW34210   0.634   0.340  12.835  0.1919  0.2044  0.3810
 7583SOL    HW134211   0.609   0.276  12.902 -0.8540 -1.5583 -1.7085
 7583SOL    HW234212   0.553   0.361  12.790  0.0278 -0.7659  0.2249
 7584SOL     OW34213   1.994   3.009   7.265  0.0149 -0.0551  0.5448
 7584SOL    HW134214   2.062   2.991   7.200  0.0319 -1.1165  0.8653
 7584SOL    HW234215   2.047   2.994   7.343  2.5272  0.4016 -1.0918
 7585SOL     OW34216   4.676   1.892  17.235  0.6744 -0.7903  0.9520
 7585SOL    HW134217   0.002   1.954  17.180 -2.3605 -1.7321 -2.7366
 7585SOL    HW234218   4.607   1.859  17.178 -0.4613  3.0729  0.0696
 7586SOL     OW34219   2.646   2.259   2.884 -0.6792 -0.4504 -0.7628
 7586SOL    HW134220   2.702   2.187   2.912 -0.6441 -1.0383 -2.3721
 7586SOL    HW234221   2.701   2.332   2.913 -1.3114 -0.8411  1.4368
 7587SOL     OW34222   1.345   0.891   5.008  0.6347 -0.5086  0.4432
 7587SOL    HW134223   1.317   0.843   5.086  0.1376 -0.1871  0.4609
 7587SOL    HW234224   1.412   0.835   4.969 -0.4406 -2.1479  0.9424
 7588SOL     OW34225   0.438   4.043  13.811 -0.2374 -0.9267  0.1997
 7588SOL    HW134226   0.464   4.114  13.871 -0.8918 -1.2036  0.8119
 7588SOL    HW234227   0.359   4.012  13.855  0.7473 -2.7003  0.6852
 7589SOL     OW34228   3.840   2.896   2.027  0.1587  0.2472  0.1920
 7589SOL    HW134229   3.766   2.846   2.062 -0.6327  0.2744 -1.4159
 7589SOL    HW234230   3.813   2.987   2.043  1.9454  0.7873  0.1219
 7590SOL     OW34231   0.218   0.147   5.026 -0.4380 -0.3959  0.0417
 7590SOL    HW134232   0.293   0.099   4.990 -0.0360 -0.6791  1.2695
 7590SOL    HW234233   0.256   0.213   5.085 -1.4387  0.4134 -0.2208
 7591SOL     OW34234   1.644   0.837   6.591 -0.2239 -0.1252 -0.1999
 7591SOL    HW134235   1.661   0.775   6.661 -0.0418  1.0420  0.7881
 7591SOL    HW234236   1.662   0.789   6.510 -0.5045 -0.3177 -0.1472
 7592SOL     OW34237   2.880   2.004  16.014  0.0248  0.0994 -0.3516
 7592SOL    HW134238   2.896   1.983  16.106  1.4095 -0.7431 -0.7838
 7592SOL    HW234239   2.796   2.049  16.025 -0.0129  0.0639 -0.4960
 7593SOL     OW34240   3.987   1.858   5.804 -0.4669 -0.6912 -0.0173
 7593SOL    HW134241   4.029   1.910   5.736 -1.5173  0.5514  0.2763
 7593SOL    HW234242   4.026   1.772   5.797 -1.9695 -1.2022 -2.1468
 7594SOL     OW34243   1.481   3.220  15.604  0.2316 -0.5715  0.2744
 7594SOL    HW134244   1.410   3.284  15.606 -0.7479 -1.6442 -0.7072
 7594SOL    HW234245   1.517   3.255  15.686  1.5502  0.1023 -0.6031
 7595SOL     OW34246   1.973   1.640  14.624 -0.1675  0.0712 -0.5030
 7595SOL    HW134247   1.932   1.683  14.550  0.9781  2.5742  0.3183
 7595SOL    HW234248   1.900   1.590  14.661  1.2921 -1.7756 -0.0754
 7596SOL     OW34249   1.660   4.512  16.316  1.0033 -0.4944 -0.2567
 7596SOL    HW134250   1.571   4.536  16.291  0.7489 -1.3486 -0.1722
 7596SOL    HW234251   1.667   4.434  16.262  1.0024  0.4618 -1.6262
 7597SOL     OW34252   0.983   1.767   1.727  0.0352 -0.3668 -0.0542
 7597SOL    HW134253   1.030   1.851   1.728  2.1708 -1.5431 -1.4474
 7597SOL    HW234254   1.048   1.707   1.763 -2.6116 -3.0450  0.2648
 7598SOL     OW34255   0.053   3.660  17.562 -0.5288 -0.4083 -0.2955
 7598SOL    HW134256   0.011   3.709  17.633 -0.4361  0.6571 -0.9834
 7598SOL    HW234257   0.138   3.704  17.564 -2.2139  2.7584  1.5219
 7599SOL     OW34258   1.006   4.137  12.952  0.4841 -0.0244 -0.4553
 7599SOL    HW134259   0.937   4.196  12.983 -1.5441 -2.0976 -1.0117
 7599SOL    HW234260   1.022   4.090  13.034 -0.8820 -0.6582 -0.5473
 7600SOL     OW34261   2.224   2.727  16.160 -0.5056 -0.1778  0.0305
 7600SOL    HW134262   2.311   2.721  16.199  0.9449 -0.1963 -3.2247
 7600SOL    HW234263   2.239   2.766  16.074  2.6625 -0.9556  0.2264
 7601SOL     OW34264   3.476   1.446   0.278  0.0724 -0.0157 -0.7793
 7601SOL    HW134265   3.559   1.408   0.249 -0.0406  0.1767 -1.3590
 7601SOL    HW234266   3.437   1.472   0.194  0.0023  0.1879 -0.6838
 7602SOL     OW34267   1.804   3.520  11.639  1.0205 -0.1130  0.0944
 7602SOL    HW134268   1.770   3.465  11.711 -2.2236 -0.9926 -2.1095
 7602SOL    HW234269   1.824   3.604  11.679 -0.7424  0.6766 -0.6945
 7603SOL     OW34270   4.569   4.410   3.761 -0.3882  0.2336 -0.4759
 7603SOL    HW134271   4.659   4.427   3.732  0.0310 -0.8752  0.1922
 7603SOL    HW234272   4.575   4.396   3.855 -1.1442 -2.3871 -0.8116
 7604SOL     OW34273   0.340   4.054   4.195  0.4127  0.0996 -0.3573
 7604SOL    HW134274   0.406   4.095   4.139  1.0161  0.1237  0.3649
 7604SOL    HW234275   0.259   4.102   4.181 -1.0021 -2.3446 -0.5979
 7605SOL     OW34276   3.470   0.876   9.351  0.1527 -0.1916 -0.6399
 7605SOL    HW134277   3.500   0.797   9.307 -3.1395 -1.9123  0.1710
 7605SOL    HW234278   3.488   0.853   9.442  0.8021  2.2217 -0.1646
 7606SOL     OW34279   1.030   0.085   4.722 -0.3639  1.0759 -0.6960
 7606SOL    HW134280   1.055   4.721   4.688 -2.4511 -0.1893  0.9684
 7606SOL    HW234281   1.085   0.089   4.800  0.3871  2.9414 -1.3122
 7607SOL     OW34282   1.587   4.198   0.402  0.0066  0.2349 -0.1932
 7607SOL    HW134283   1.620   4.249   0.476 -1.1948 -1.3400  1.4141
 7607SOL    HW234284   1.654   4.129   0.407 -0.1054  0.2389  1.2520
 7608SOL     OW34285   1.430   1.486  15.978  0.1231  0.0534 -0.3260
 7608SOL    HW134286   1.404   1.442  15.897 -1.0285 -1.1487  0.6894
 7608SOL    HW234287   1.455   1.573  15.948  1.1460 -0.1578 -0.0866
 7609SOL     OW34288   1.241   3.803   5.685 -0.1251 -0.3179  0.2063
 7609SOL    HW134289   1.253   3.866   5.756 -0.2679  0.6574 -0.6403
 7609SOL    HW234290   1.272   3.718   5.717  2.0241  0.2925 -0.2136
 7610SOL     OW34291   3.284   4.332   6.328 -0.2418 -0.2906 -0.3425
 7610SOL    HW134292   3.295   4.415   6.282  1.4365 -0.4112 -0.1441
 7610SOL    HW234293   3.320   4.363   6.411 -2.3694  2.0122 -0.2899
 7611SOL     OW34294   0.380   3.943  10.094 -0.0463 -0.4513 -0.2261
 7611SOL    HW134295   0.394   3.853  10.066  1.6575  0.4894 -2.3936
 7611SOL    HW234296   0.285   3.940  10.083  0.0849 -1.1280 -1.1523
 7612SOL     OW34297   0.837   2.517   8.436 -0.3491 -0.2474 -0.0147
 7612SOL    HW134298   0.920   2.549   8.471 -0.4581 -0.5998  0.5548
 7612SOL    HW234299   0.790   2.507   8.519 -0.8934 -1.1257 -0.4239
 7613SOL     OW34300   2.312   0.880   6.602  0.3530 -0.1803 -0.0530
 7613SOL    HW134301   2.344   0.957   6.647  1.0669 -1.3771  1.4890
 7613SOL    HW234302   2.391   0.851   6.557  1.6880  0.4461  1.8973
 7614SOL     OW34303   1.067   4.645   6.273 -0.1234  0.1895  0.4817
 7614SOL    HW134304   1.150   4.656   6.319  0.4214 -3.2524  0.2913
 7614SOL    HW234305   1.005   4.669   6.341  0.4837  0.8615  0.8005
 7615SOL     OW34306   2.041   0.228   9.088 -0.1398 -0.4236  0.0517
 7615SOL    HW134307   2.078   0.308   9.124  0.1144 -0.6775  0.3473
 7615SOL    HW234308   1.946   0.240   9.093 -0.0140  0.6670 -0.1071
 7616SOL     OW34309   1.478   3.319   6.000 -0.7146 -0.5392  0.2127
 7616SOL    HW134310   1.514   3.364   5.924 -0.3876  1.1281  1.3419
 7616SOL    HW234311   1.559   3.333   6.050 -0.8349 -3.2057  1.1350
 7617SOL     OW34312   0.581   4.292  12.556  0.1999  0.2437  0.2927
 7617SOL    HW134313   0.631   4.227  12.606  1.5602  1.6783  0.8216
 7617SOL    HW234314   0.493   4.276  12.592  0.0947  0.1128 -0.0268
 7618SOL     OW34315   2.331   3.348  10.657 -0.5313  0.6389 -0.3179
 7618SOL    HW134316   2.354   3.262  10.694  0.4166  1.8010  1.8045
 7618SOL    HW234317   2.391   3.360  10.584 -1.6411 -0.4380 -1.4002
 7619SOL     OW34318   2.644   1.360   4.077  0.6491  0.0817  0.7203
 7619SOL    HW134319   2.734   1.391   4.066 -0.7559  3.8060 -0.1901
 7619SOL    HW234320   2.637   1.289   4.013  0.9212 -1.3554  2.2829
 7620SOL     OW34321   3.618   2.821  10.149 -0.1202 -0.0528  0.5138
 7620SOL    HW134322   3.640   2.903  10.192 -1.1854  0.3117  0.3786
 7620SOL    HW234323   3.533   2.808  10.190 -0.5593  2.3288  0.3833
 7621SOL     OW34324   1.642   2.975  15.339  0.6092  0.2943  0.4021
 7621SOL    HW134325   1.608   3.052  15.293  0.5139  1.0894  1.8081
 7621SOL    HW234326   1.648   3.005  15.430  0.6114 -0.0990  0.5306
 7622SOL     OW34327   1.116   0.538   1.068  0.5897 -0.0132  0.3124
 7622SOL    HW134328   1.073   0.621   1.051  3.2306  1.3607  0.2809
 7622SOL    HW234329   1.154   0.557   1.154  0.0783  1.2238  0.2685
 7623SOL     OW34330   2.068   4.506  11.544 -0.4731 -0.4701 -0.0204
 7623SOL    HW134331   2.111   4.564  11.481  1.8470  0.7176  2.6466
 7623SOL    HW234332   2.131   4.436  11.561 -0.5920 -0.6541 -0.3369
 7624SOL     OW34333   2.938   4.635   7.110  0.0659  0.1353 -0.1823
 7624SOL    HW134334   3.000   4.588   7.053  2.2376  2.8210 -0.0428
 7624SOL    HW234335   2.945   4.587   7.192  3.3934  0.2268 -0.4133
 7625SOL     OW34336   2.491   3.242   4.077  0.3973 -0.1053 -0.5868
 7625SOL    HW134337   2.425   3.176   4.100  0.7940 -0.5458 -0.7203
 7625SOL    HW234338   2.564   3.210   4.130  1.9859  1.6367 -1.6988
 7626SOL     OW34339   0.890   2.055   8.632  0.6669  0.2914  0.2616
 7626SOL    HW134340   0.817   2.009   8.673 -0.1654 -0.8231 -2.4930
 7626SOL    HW234341   0.854   2.072   8.545  0.0315 -4.1457 -0.3228
 7627SOL     OW34342   3.341   3.396   6.604  0.0050  0.4273  0.3989
 7627SOL    HW134343   3.317   3.303   6.596  0.2589  0.5020 -1.0796
 7627SOL    HW234344   3.259   3.429   6.642  0.7680  1.0575  1.5048
 7628SOL     OW34345   1.946   4.321   5.416  0.0933 -0.2495  0.4921
 7628SOL    HW134346   1.961   4.400   5.364 -0.4667 -1.1642 -1.0871
 7628SOL    HW234347   2.026   4.270   5.403 -0.6232 -0.8417 -1.6761
 7629SOL     OW34348   3.059   2.796   2.770  0.1987  0.4014 -0.2275
 7629SOL    HW134349   3.130   2.743   2.734  0.7076 -2.6738  5.3290
 7629SOL    HW234350   3.015   2.806   2.685  0.1024  3.2439  0.1478
 7630SOL     OW34351   2.045   3.532   6.789 -0.0408  0.2399 -0.1639
 7630SOL    HW134352   2.045   3.464   6.722 -0.4490 -0.1597  0.2438
 7630SOL    HW234353   1.961   3.574   6.768  0.7695  1.2420 -1.3900
 7631SOL     OW34354   0.462   2.005   4.153  0.6781 -0.2012  0.2695
 7631SOL    HW134355   0.534   2.054   4.192  1.1519 -0.8134  0.1655
 7631SOL    HW234356   0.398   2.008   4.224 -0.3001 -0.0821 -0.6111
 7632SOL     OW34357   2.069   1.312   7.966  0.0228 -0.0864 -0.0003
 7632SOL    HW134358   2.027   1.284   7.885  1.3974  0.0143 -0.7386
 7632SOL    HW234359   2.132   1.376   7.933  1.7846 -0.8781  1.7845
 7633SOL     OW34360   2.921   1.610   1.423  0.3192 -0.3445  0.7236
 7633SOL    HW134361   2.912   1.691   1.474 -0.0669 -1.0906  1.8489
 7633SOL    HW234362   2.843   1.563   1.452 -0.4135  0.6729  0.4389
 7634SOL     OW34363   0.981   2.226   7.284  0.5849 -0.3056 -0.0525
 7634SOL    HW134364   0.969   2.152   7.344  2.1027  0.6597  1.4405
 7634SOL    HW234365   0.987   2.182   7.199 -0.1678  1.4630 -1.0130
 7635SOL     OW34366   3.084   1.379   6.723  0.2592  0.2600 -0.2768
 7635SOL    HW134367   3.070   1.327   6.802  1.0147  1.0496  0.3750
 7635SOL    HW234368   3.164   1.335   6.694 -1.0271 -1.3807 -1.2829
 7636SOL     OW34369   0.265   1.485   1.293 -0.3255 -1.0773  0.2819
 7636SOL    HW134370   0.223   1.402   1.272 -2.9824  0.4970 -0.5881
 7636SOL    HW234371   0.233   1.533   1.217 -2.2454 -1.2109  1.0010
 7637SOL     OW34372   0.832   2.305   9.341  0.3847 -0.0633 -0.1808
 7637SOL    HW134373   0.825   2.338   9.252 -1.2670 -0.9819 -0.3961
 7637SOL    HW234374   0.826   2.210   9.325  0.2512 -0.4385  2.1591
 7638SOL     OW34375   1.830   1.469   9.492 -0.0283  0.1917  0.0457
 7638SOL    HW134376   1.866   1.551   9.528  1.2176  0.0649 -0.9163
 7638SOL    HW234377   1.914   1.432   9.466 -0.8574 -0.2264 -2.0742
 7639SOL     OW34378   0.443   4.290   3.068 -0.2357 -0.0427 -0.2548
 7639SOL    HW134379   0.428   4.219   3.006  2.4151  0.4694 -1.4910
 7639SOL    HW234380   0.538   4.296   3.064 -0.3186 -0.3624 -2.5835
 7640SOL     OW34381   1.791   3.960   6.148 -0.3852  0.6148 -0.3532
 7640SOL    HW134382   1.874   4.007   6.160 -1.5116  2.4057  0.4276
 7640SOL    HW234383   1.803   3.930   6.058  2.0260  0.9952 -0.1661
 7641SOL     OW34384   1.653   4.447   2.402  0.0207 -0.0869 -0.2292
 7641SOL    HW134385   1.565   4.442   2.438 -0.0623 -0.7433 -0.5218
 7641SOL    HW234386   1.706   4.415   2.475 -2.5532 -0.3145  1.5147
 7642SOL     OW34387   1.944   1.905   2.207  0.4692  0.6307  0.3084
 7642SOL    HW134388   1.989   1.822   2.195 -2.4435 -0.9897  0.6582
 7642SOL    HW234389   1.851   1.892   2.193  0.4769  2.0958 -1.0986
 7643SOL     OW34390   2.841   1.774  10.118 -0.2791  0.1814  0.1308
 7643SOL    HW134391   2.888   1.847  10.077 -1.4394  0.3561 -0.8844
 7643SOL    HW234392   2.899   1.700  10.098 -1.5740 -1.2933  1.8406
 7644SOL     OW34393   4.293   1.556   4.837  0.6283 -0.4703 -1.4136
 7644SOL    HW134394   4.217   1.514   4.879  1.1075  0.5458  0.4357
 7644SOL    HW234395   4.326   1.611   4.907 -1.4916 -1.1578  0.1321
 7645SOL     OW34396   1.888   1.243   4.109  0.1619 -0.1971  0.2873
 7645SOL    HW134397   1.882   1.187   4.031  1.4902  0.8764 -0.5626
 7645SOL    HW234398   1.882   1.171   4.173  1.3881 -0.9863 -0.4944
 7646SOL     OW34399   1.105   3.609   3.044  0.0782  0.1347 -0.3559
 7646SOL    HW134400   1.158   3.629   3.121  0.8266 -2.3761 -0.2194
 7646SOL    HW234401   1.113   3.691   2.995 -2.1125 -0.2615 -1.3767
 7647SOL     OW34402   0.183   0.988   1.887 -0.2540 -0.6651 -0.3003
 7647SOL    HW134403   0.166   1.075   1.852 -1.5838 -1.2056 -0.9966
 7647SOL    HW234404   0.234   1.021   1.961  1.1439 -1.6618 -0.8124
 7648SOL     OW34405   2.498   0.788   1.864  0.0189  0.2388 -0.0374
 7648SOL    HW134406   2.408   0.807   1.893 -0.4008 -1.6163 -0.1546
 7648SOL    HW234407   2.484   0.704   1.821 -2.0488  0.0189  1.0757
 7649SOL     OW34408   1.591   3.759   8.453 -0.6358  0.7838 -0.1538
 7649SOL    HW134409   1.496   3.767   8.463 -1.0653 -1.8711 -2.0852
 7649SOL    HW234410   1.606   3.678   8.500  1.5798  0.4562 -1.4315
 7650SOL     OW34411   4.666   0.020  15.981 -0.7185 -0.5919  0.0156
 7650SOL    HW134412   0.004   0.088  16.012 -2.2620  0.9359 -0.3418
 7650SOL    HW234413   4.605   0.068  15.925 -1.1198  2.0416  2.6806
 7651SOL     OW34414   2.827   4.311  13.810  0.6219  0.1443 -0.7507
 7651SOL    HW134415   2.869   4.227  13.793  1.7079  0.4883  0.2225
 7651SOL    HW234416   2.787   4.334  13.726  0.9551  0.7449 -0.7472
 7652SOL     OW34417   2.660   3.706   2.710 -0.2256  0.0156 -0.4448
 7652SOL    HW134418   2.700   3.629   2.751  0.2443 -0.4682 -1.8446
 7652SOL    HW234419   2.578   3.667   2.679  0.2955 -1.7168  0.3414
 7653SOL     OW34420   1.016   1.903   1.144 -0.2526 -0.1972 -0.5919
 7653SOL    HW134421   1.002   1.993   1.173  1.0521 -0.6177  1.3523
 7653SOL    HW234422   0.981   1.913   1.056  0.4833 -1.1074 -0.9857
 7654SOL     OW34423   3.856   1.671   7.697  0.3485  1.3870 -0.3824
 7654SOL    HW134424   3.823   1.597   7.749  0.2645  1.1106 -0.8267
 7654SOL    HW234425   3.929   1.621   7.661 -1.6799 -2.1033  0.3455
 7655SOL     OW34426   4.509   0.353  15.991  0.7041 -0.1886 -0.6558
 7655SOL    HW134427   4.442   0.412  15.958  0.8460  0.3802  0.0777
 7655SOL    HW234428   4.512   0.286  15.922  2.1555 -1.5399  0.7150
 7656SOL     OW34429   2.751   2.552   0.018 -0.0130  0.1028  0.0065
 7656SOL    HW134430   2.844   2.532   0.027 -0.1564 -0.1908  0.7877
 7656SOL    HW234431   2.751   2.532  17.612  2.0861 -1.9222  0.4615
 7657SOL     OW34432   2.052   2.280   8.929  0.4856  0.8623 -0.0810
 7657SOL    HW134433   1.982   2.256   8.989 -0.0115 -0.5227 -1.2165
 7657SOL    HW234434   2.114   2.207   8.931  0.4807  0.8611  0.0207
 7658SOL     OW34435   4.474   3.517   7.133 -0.3367 -0.1081  0.7985
 7658SOL    HW134436   4.448   3.450   7.196  2.8131 -0.3914  1.7851
 7658SOL    HW234437   4.440   3.596   7.173 -1.0588  0.7214 -1.4243
 7659SOL     OW34438   3.546   3.536   0.068 -0.0397  0.1537 -0.8373
 7659SOL    HW134439   3.453   3.557   0.082 -0.0658 -0.5900  0.1528
 7659SOL    HW234440   3.593   3.593   0.128  0.6060 -0.1201 -1.0864
 7660SOL     OW34441   1.539   0.360   8.537 -0.2502 -0.4672  0.2342
 7660SOL    HW134442   1.454   0.322   8.557  0.1170 -1.2464  0.3068
 7660SOL    HW234443   1.579   0.279   8.505  0.4061  0.2261 -0.6938
 7661SOL     OW34444   1.049   0.650   7.738 -0.0653  0.8060  0.6673
 7661SOL    HW134445   0.963   0.693   7.729  0.3655  1.6892  0.7471
 7661SOL    HW234446   1.097   0.723   7.699 -1.4134  0.6871 -1.2178
 7662SOL     OW34447   4.504   2.250   2.409 -0.3617 -0.6027  0.0396
 7662SOL    HW134448   4.583   2.304   2.401 -1.1613  0.5695  0.0989
 7662SOL    HW234449   4.440   2.303   2.361  0.1442 -1.4763 -1.6249
 7663SOL     OW34450   2.046   0.599   0.890  0.1375 -0.0009  0.6690
 7663SOL    HW134451   2.117   0.545   0.925 -0.0362 -1.1682 -0.7708
 7663SOL    HW234452   2.045   0.678   0.944  1.6655 -0.7878  1.8552
 7664SOL     OW34453   3.015   2.801   4.827  0.5953 -0.0462  0.1096
 7664SOL    HW134454   2.938   2.858   4.821  1.2844  1.1555  2.9543
 7664SOL    HW234455   3.042   2.810   4.918  0.5662 -0.1399  0.1273
 7665SOL     OW34456   3.763   0.942   5.827 -0.5238  0.0363  0.4474
 7665SOL    HW134457   3.841   0.965   5.776 -0.9217 -3.1692 -1.6510
 7665SOL    HW234458   3.692   0.997   5.794 -0.6013  0.9754  2.1886
 7666SOL     OW34459   0.499   2.192   1.552  0.0531 -0.8445 -0.0485
 7666SOL    HW134460   0.513   2.106   1.592  0.6016 -1.5601 -1.7838
 7666SOL    HW234461   0.527   2.261   1.612 -0.4512 -0.7872  0.1182
 7667SOL     OW34462   3.055   0.946   7.045  0.0823  0.3667  0.8220
 7667SOL    HW134463   3.140   0.957   7.002 -0.6693  1.1391 -0.5026
 7667SOL    HW234464   3.082   0.885   7.113 -0.1868 -1.1060 -0.3932
 7668SOL     OW34465   3.636   3.127   7.119 -0.1907  0.2590  0.0116
 7668SOL    HW134466   3.659   3.099   7.208 -0.5660 -0.0880 -0.0002
 7668SOL    HW234467   3.627   3.043   7.074 -0.2388  0.6711 -0.7410
 7669SOL     OW34468   4.591   4.525   1.350  0.6590  0.0412 -0.0016
 7669SOL    HW134469   4.563   4.518   1.441 -0.2902 -3.0930 -0.5277
 7669SOL    HW234470   4.635   4.440   1.338  1.1057  0.6164 -2.3419
 7670SOL     OW34471   3.487   0.427  16.155  0.3001  0.3330  0.0135
 7670SOL    HW134472   3.413   0.373  16.127  1.2501 -0.9542 -0.0400
 7670SOL    HW234473   3.444   0.506  16.187  0.4977  0.5053 -0.1458
 7671SOL     OW34474   0.730   3.534   1.662 -0.8405 -1.0815 -0.0972
 7671SOL    HW134475   0.748   3.440   1.670  0.8933 -0.7423 -0.0349
 7671SOL    HW234476   0.715   3.538   1.567  1.8294  0.3301 -0.4807
 7672SOL     OW34477   0.976   0.671   3.166 -0.5174  0.5002 -0.2288
 7672SOL    HW134478   1.061   0.631   3.149 -3.2262 -5.0362 -0.9777
 7672SOL    HW234479   0.997   0.741   3.228 -0.3390  2.0228 -2.0112
 7673SOL     OW34480   1.556   2.049   7.799 -0.1379 -0.3765  0.1351
 7673SOL    HW134481   1.645   2.014   7.795 -1.9596 -5.0869  0.4170
 7673SOL    HW234482   1.555   2.083   7.889  2.7486 -0.0438  0.0330
 7674SOL     OW34483   1.053   0.546   2.712 -0.2044 -0.6533 -0.3332
 7674SOL    HW134484   1.046   0.639   2.693  1.0383 -0.4501  0.1881
 7674SOL    HW234485   1.025   0.513   2.627  2.2158 -1.7224 -0.7388
 7675SOL     OW34486   3.225   1.179   6.445  0.1082  0.0583  0.0355
 7675SOL    HW134487   3.207   1.122   6.370  0.9810  0.3532 -0.3913
 7675SOL    HW234488   3.153   1.241   6.442  1.0333  1.0592 -1.2969
 7676SOL     OW34489   2.775   1.840   6.126  0.5023 -0.0424  0.4468
 7676SOL    HW134490   2.736   1.769   6.075  3.2110 -0.0886 -1.6162
 7676SOL    HW234491   2.712   1.910   6.112  0.1540 -0.6197 -0.9412
 7677SOL     OW34492   4.254   3.083   1.310 -0.3847 -0.0579  0.2607
 7677SOL    HW134493   4.294   3.076   1.223 -1.4291 -0.2070 -0.2197
 7677SOL    HW234494   4.321   3.132   1.357  1.0809 -1.0760 -0.7769
 7678SOL     OW34495   2.571   0.149   2.421 -0.0307 -0.1435 -0.1106
 7678SOL    HW134496   2.512   0.176   2.349  1.5377  1.8476 -0.6653
 7678SOL    HW234497   2.549   0.061   2.450  1.1871  0.0335  1.2970
 7679SOL     OW34498   1.546   3.814   5.262 -0.6279  0.5535 -0.2302
 7679SOL    HW134499   1.512   3.772   5.341  0.7714  1.4536  0.8576
 7679SOL    HW234500   1.636   3.781   5.268 -0.4865  0.8604 -0.6706
 7680SOL     OW34501   4.038   0.617  17.234 -0.0394 -0.2674  0.0965
 7680SOL    HW134502   4.093   0.568  17.297 -1.0232 -0.3706  0.8833
 7680SOL    HW234503   3.959   0.620  17.288  0.5017  0.5983  0.8541
 7681SOL     OW34504   2.473   1.232   4.421  0.5931 -0.1562 -0.3401
 7681SOL    HW134505   2.485   1.324   4.399  0.5522 -0.1547 -0.3555
 7681SOL    HW234506   2.464   1.190   4.336 -1.3809 -1.4053  0.4973
 7682SOL     OW34507   0.183   0.513   3.570  0.4068 -0.0547  0.3455
 7682SOL    HW134508   0.146   0.456   3.637  0.2652 -0.3927 -0.0238
 7682SOL    HW234509   0.255   0.551   3.621  1.2248 -2.8512  1.2877
 7683SOL     OW34510   0.177   4.089   1.149 -0.3835  0.4292 -0.8224
 7683SOL    HW134511   0.172   4.082   1.054  0.3832  0.7368 -0.8823
 7683SOL    HW234512   0.264   4.127   1.160 -1.0996  1.5726  0.9014
 7684SOL     OW34513   2.626   1.591   6.947  0.4989  0.2238  0.7019
 7684SOL    HW134514   2.536   1.620   6.959  0.4728 -0.1552  1.4071
 7684SOL    HW234515   2.671   1.617   7.027  1.0267  0.8899  0.1894
 7685SOL     OW34516   4.714   0.406   2.227 -0.0929  0.6405  0.0239
 7685SOL    HW134517   0.035   0.452   2.299  0.0264  0.2370  0.2128
 7685SOL    HW234518   4.626   0.441   2.220 -0.4165 -0.3272 -0.7453
 7686SOL     OW34519   0.537   1.743  13.590 -0.8139 -0.1359 -0.0242
 7686SOL    HW134520   0.572   1.678  13.528 -1.1614  0.4492 -0.8381
 7686SOL    HW234521   0.449   1.757  13.555 -1.4880 -0.1937  1.6603
 7687SOL     OW34522   0.633   2.973   1.413 -0.3946 -0.1558 -0.1609
 7687SOL    HW134523   0.569   3.039   1.440  2.4595  1.7962  1.8268
 7687SOL    HW234524   0.601   2.953   1.325  0.4576 -0.2127 -0.4510
 7688SOL     OW34525   4.717   1.333   2.792  0.0954  0.5403  0.1267
 7688SOL    HW134526   4.662   1.284   2.730  1.7474  0.0698 -0.9724
 7688SOL    HW234527   0.068   1.337   2.730  0.6778 -0.9554  0.7130
 7689SOL     OW34528   3.535   0.364   9.172 -0.8675  0.0523  0.6587
 7689SOL    HW134529   3.538   0.358   9.268 -1.6773 -0.7592  0.6394
 7689SOL    HW234530   3.491   0.281   9.154 -0.5940  0.3659 -1.3974
 7690SOL     OW34531   1.485   2.438  15.825  0.1280  0.0827 -0.4719
 7690SOL    HW134532   1.501   2.344  15.834  0.2369 -0.2786 -4.2468
 7690SOL    HW234533   1.560   2.460  15.770 -0.6555  2.1235 -0.7403
 7691SOL     OW34534   3.027   1.815  11.995  0.2276 -0.0881 -0.6973
 7691SOL    HW134535   3.121   1.804  12.006  0.0383 -2.4727 -1.5079
 7691SOL    HW234536   3.019   1.735  11.944  0.4930  0.0547 -0.9651
 7692SOL     OW34537   2.217   1.709  11.205  0.1645  0.2122  0.0519
 7692SOL    HW134538   2.186   1.671  11.123  2.4910  1.7400 -1.5440
 7692SOL    HW234539   2.310   1.685  11.210 -0.8034 -3.4792 -0.2991
 7693SOL     OW34540   3.524   3.611   0.539  0.3656  0.1194  0.0270
 7693SOL    HW134541   3.593   3.636   0.478 -0.0170  1.0076 -0.0359
 7693SOL    HW234542   3.566   3.637   0.620  0.4241 -1.0240  0.3674
 7694SOL     OW34543   4.591   2.319   5.597  0.3154  0.3927 -0.7383
 7694SOL    HW134544   4.675   2.343   5.636 -0.9004 -1.4083  2.9622
 7694SOL    HW234545   4.588   2.224   5.606  1.9001  0.4556  0.5221
 7695SOL     OW34546   2.444   3.020  15.775  1.0813  0.1837 -0.0139
 7695SOL    HW134547   2.406   3.097  15.734 -2.2031 -0.4103  1.9246
 7695SOL    HW234548   2.422   2.958  15.706  0.2636  0.3822  0.0651
 7696SOL     OW34549   2.817   0.061   9.570 -0.0921  0.1545 -0.3336
 7696SOL    HW134550   2.878   0.064   9.496  1.0035 -1.0689  0.5268
 7696SOL    HW234551   2.880   0.064   9.642  1.4173 -0.5580 -1.6024
 7697SOL     OW34552   3.788   1.550  11.102  0.6691 -0.5460 -0.3327
 7697SOL    HW134553   3.794   1.455  11.089 -0.3627 -0.6367 -0.1326
 7697SOL    HW234554   3.880   1.571  11.118  0.1987 -0.0354  1.6854
 7698SOL     OW34555   1.980   2.611   0.051  0.1316  0.9721  0.2020
 7698SOL    HW134556   1.899   2.598   0.101  0.9338  2.4250  1.8973
 7698SOL    HW234557   2.039   2.650   0.115 -0.1045  1.4162  0.1467
 7699SOL     OW34558   1.466   0.140   1.627 -0.1459 -0.1125 -0.2047
 7699SOL    HW134559   1.410   0.062   1.626  0.1397 -0.3092 -0.7693
 7699SOL    HW234560   1.474   0.139   1.723 -3.0599  1.3127  0.0731
 7700SOL     OW34561   1.015   0.482   1.615 -0.3024 -0.1328 -0.1373
 7700SOL    HW134562   1.035   0.556   1.557  1.4747  0.2875  1.0135
 7700SOL    HW234563   1.093   0.469   1.669  0.1157  1.1733 -0.4241
 7701SOL     OW34564   2.703   1.977   3.982  0.3539  0.6290  0.3216
 7701SOL    HW134565   2.691   1.882   3.988  2.1466  0.3620 -0.6334
 7701SOL    HW234566   2.781   1.976   3.927 -0.8086 -3.1265 -1.2481
 7702SOL     OW34567   0.669   4.202   8.319 -0.0020 -0.2110  0.1935
 7702SOL    HW134568   0.630   4.271   8.372  0.5554  0.0711  0.2345
 7702SOL    HW234569   0.758   4.202   8.355  0.5627  1.0509 -1.2637
 7703SOL     OW34570   4.514   2.674  11.501  0.5979  0.3560  0.2539
 7703SOL    HW134571   4.527   2.678  11.596  1.1531 -1.0266  0.2199
 7703SOL    HW234572   4.517   2.582  11.476  1.9947  0.4754  0.0041
 7704SOL     OW34573   1.382   1.988   6.320  0.3154  0.0436 -0.0499
 7704SOL    HW134574   1.399   2.051   6.391 -1.3274 -1.5897  1.8024
 7704SOL    HW234575   1.461   1.934   6.327  0.3117 -0.2807 -2.7967
 7705SOL     OW34576   0.858   0.010   4.251  0.5969  0.2900  0.0521
 7705SOL    HW134577   0.851   0.098   4.215  2.1907  0.9168  1.2919
 7705SOL    HW234578   0.823   0.022   4.339 -1.7232 -0.4403 -0.7734
 7706SOL     OW34579   2.064   1.992   1.118 -0.9215 -0.2669  0.0103
 7706SOL    HW134580   2.018   1.912   1.143  0.4951 -1.5739 -1.5625
 7706SOL    HW234581   1.999   2.015   1.051 -0.0636 -1.6503 -1.2997
 7707SOL     OW34582   1.649   2.097   7.122  0.0581  0.5987  0.0678
 7707SOL    HW134583   1.644   2.190   7.144  1.6918  0.9651 -1.1168
 7707SOL    HW234584   1.660   2.053   7.206  2.8039  0.8707 -0.1556
 7708SOL     OW34585   4.028   3.716  13.675 -0.0394 -0.1500  0.4817
 7708SOL    HW134586   4.115   3.754  13.659  0.3004 -1.0329  0.2592
 7708SOL    HW234587   4.038   3.625  13.650  2.4674 -0.1952  1.6583
 7709SOL     OW34588   4.608   0.219   3.274 -0.0680 -0.4782  0.0079
 7709SOL    HW134589   4.652   0.192   3.194 -1.0910  2.6253 -1.6053
 7709SOL    HW234590   4.531   0.162   3.282  0.0520 -1.0005 -2.6482
 7710SOL     OW34591   2.770   3.255   8.025  0.4071  0.1691  0.7921
 7710SOL    HW134592   2.710   3.316   8.068 -0.8813  1.5959 -3.0542
 7710SOL    HW234593   2.782   3.186   8.091 -0.4124 -0.8377 -0.1183
 7711SOL     OW34594   4.373   1.431  10.174  0.6113  0.4837  0.4829
 7711SOL    HW134595   4.344   1.398  10.089  5.3392 -1.0342 -0.5896
 7711SOL    HW234596   4.292   1.407  10.218 -0.6876 -0.6417 -2.5240
 7712SOL     OW34597   2.508   1.719  15.390 -0.3750  0.6264 -0.0494
 7712SOL    HW134598   2.436   1.726  15.453 -0.2169  0.3060  0.1680
 7712SOL    HW234599   2.573   1.709  15.460 -0.7220  1.8594  0.4505
 7713SOL     OW34600   2.129   1.739   5.734 -0.5461 -0.2072  0.4182
 7713SOL    HW134601   2.216   1.755   5.770 -1.1846  2.8126  0.5924
 7713SOL    HW234602   2.096   1.829   5.741 -0.5559 -0.1475 -0.4237
 7714SOL     OW34603   4.718   3.300   3.339  0.6768 -0.0382  0.3040
 7714SOL    HW134604   0.041   3.353   3.273 -0.2337 -0.2942 -0.5040
 7714SOL    HW234605   4.635   3.349   3.340  1.4530  1.2723 -0.1569
 7715SOL     OW34606   3.520   0.765   9.880 -0.2455 -0.0718 -0.6656
 7715SOL    HW134607   3.518   0.733   9.970  0.6711  1.1046 -0.2241
 7715SOL    HW234608   3.613   0.783   9.869 -0.1202  0.3231  1.1990
 7716SOL     OW34609   4.101   2.139   3.997  0.2513 -0.0812 -0.0384
 7716SOL    HW134610   4.100   2.146   4.093  0.9126  2.0220 -0.1893
 7716SOL    HW234611   4.078   2.047   3.981 -0.4924  0.2257 -0.7010
 7717SOL     OW34612   2.376   3.736   9.465  0.0979 -0.5502  0.0608
 7717SOL    HW134613   2.358   3.718   9.557  0.0032  0.1737  0.1791
 7717SOL    HW234614   2.455   3.789   9.463 -0.3964  0.1515 -0.6697
 7718SOL     OW34615   2.894   3.607   2.360 -0.0830  0.0546  0.3012
 7718SOL    HW134616   2.925   3.682   2.409  0.4255 -0.2845  0.4972
 7718SOL    HW234617   2.901   3.539   2.427 -0.1459 -0.9546 -0.6878
 7719SOL     OW34618   4.000   4.107   9.152 -0.6148 -0.0595 -0.0501
 7719SOL    HW134619   4.039   4.077   9.071  1.1539  1.4528  0.2314
 7719SOL    HW234620   3.920   4.151   9.123 -0.7756  0.0192  0.5038
 7720SOL     OW34621   4.463   3.603  17.655 -0.1835  0.2683  0.0278
 7720SOL    HW134622   4.382   3.553  17.657 -0.1623  0.1893 -0.9542
 7720SOL    HW234623   4.524   3.551   0.020  0.0400  0.4110 -0.0881
 7721SOL     OW34624   1.386   0.906  14.318 -0.0540 -0.8401  0.0073
 7721SOL    HW134625   1.323   0.838  14.341 -0.6509 -0.4229 -0.3707
 7721SOL    HW234626   1.332   0.979  14.349 -1.2197 -0.7423 -2.2487
 7722SOL     OW34627   3.052   4.509   8.304 -0.5193  0.3030 -0.2364
 7722SOL    HW134628   2.997   4.575   8.263  0.4114  2.1200  1.4513
 7722SOL    HW234629   2.991   4.450   8.349  0.2395 -0.3573 -0.0526
 7723SOL     OW34630   1.138   3.725   7.575  0.1843  1.0097 -0.3363
 7723SOL    HW134631   1.074   3.658   7.549  0.1315  0.8756  0.1552
 7723SOL    HW234632   1.160   3.761   7.489 -2.4792 -0.0851 -1.4824
 7724SOL     OW34633   1.889   0.364  16.402  0.1872 -0.5225 -0.0229
 7724SOL    HW134634   1.943   0.325  16.471 -0.6768 -2.1229 -0.2435
 7724SOL    HW234635   1.880   0.459  16.410 -1.2299 -0.8563  2.2754
 7725SOL     OW34636   0.472   2.250   5.801 -0.1183 -0.2429 -0.1516
 7725SOL    HW134637   0.500   2.249   5.709  0.0029  0.4607 -0.1200
 7725SOL    HW234638   0.528   2.181   5.833  0.3326 -0.2953 -1.0514
 7726SOL     OW34639   4.406   1.660  13.737  0.1914  0.6160  0.0662
 7726SOL    HW134640   4.397   1.702  13.822 -0.4460  1.7906 -0.5819
 7726SOL    HW234641   4.323   1.614  13.724  0.9130 -1.0115  1.2053
 7727SOL     OW34642   4.259   1.468   8.367 -0.0447 -0.0244 -0.0860
 7727SOL    HW134643   4.164   1.479   8.379 -0.2209 -2.0071  0.3625
 7727SOL    HW234644   4.268   1.373   8.366  2.2051  0.1825  1.9468
 7728SOL     OW34645   2.752   1.199   1.910 -0.3609  0.3419  0.4326
 7728SOL    HW134646   2.662   1.166   1.921 -0.2587  0.2936  1.1043
 7728SOL    HW234647   2.795   1.122   1.873  1.4406  0.4889  2.2613
 7729SOL     OW34648   0.471   1.959  14.971 -0.1975 -0.1016 -0.1749
 7729SOL    HW134649   0.457   1.934  15.062 -0.4631  0.5280 -0.0430
 7729SOL    HW234650   0.451   1.875  14.931 -1.8806  0.1662  0.1356
 7730SOL     OW34651   3.344   2.831   2.963  0.1022 -0.1028 -0.1218
 7730SOL    HW134652   3.431   2.832   2.923  1.0248 -2.9133  1.7742
 7730SOL    HW234653   3.305   2.910   2.925 -2.4787 -0.9372  0.8631
 7731SOL     OW34654   2.622   2.649   3.502 -0.6894 -0.0620 -0.1025
 7731SOL    HW134655   2.543   2.594   3.503 -0.6361 -0.1464 -0.5905
 7731SOL    HW234656   2.680   2.587   3.458  0.7385  0.1784  1.4314
 7732SOL     OW34657   0.510   1.708   4.185  0.4572 -0.0783  0.3680
 7732SOL    HW134658   0.597   1.686   4.152  0.0482  1.4901 -1.7353
 7732SOL    HW234659   0.496   1.803   4.182  0.4023 -0.0670  1.0354
 7733SOL     OW34660   4.263   2.408   4.444 -0.6197  0.0216 -0.3902
 7733SOL    HW134661   4.247   2.471   4.514  2.9414 -0.8998  1.2337
 7733SOL    HW234662   4.273   2.338   4.508  0.2416  1.4083  0.9962
 7734SOL     OW34663   2.371   1.918  16.479  0.8638 -0.0596 -0.4075
 7734SOL    HW134664   2.328   1.886  16.558 -1.8175  0.1247 -1.8194
 7734SOL    HW234665   2.445   1.963  16.522  1.6521 -2.1207  0.3662
 7735SOL     OW34666   0.246   2.600  12.695  0.3100  0.1412  0.1442
 7735SOL    HW134667   0.278   2.549  12.621 -0.6917 -1.4610  0.8339
 7735SOL    HW234668   0.191   2.656  12.640 -0.0759 -0.8051 -0.4124
 7736SOL     OW34669   3.006   1.562   5.726  0.7353  0.1246 -0.0327
 7736SOL    HW134670   2.954   1.489   5.759  0.2415  0.9990  1.1017
 7736SOL    HW234671   3.096   1.529   5.729  0.8799  0.4303 -0.8050
 7737SOL     OW34672   1.385   1.420   2.686  0.6260 -0.3207 -0.2538
 7737SOL    HW134673   1.419   1.410   2.597 -1.8090 -0.3874 -1.1537
 7737SOL    HW234674   1.349   1.509   2.686 -0.8307 -0.9202  1.2017
 7738SOL     OW34675   4.248   4.223   8.953  0.3667  0.0616  0.4784
 7738SOL    HW134676   4.260   4.316   8.935  4.7193 -1.2551 -3.2841
 7738SOL    HW234677   4.265   4.212   9.047 -1.9367 -0.6886  0.8116
 7739SOL     OW34678   1.945   1.236   6.824  0.2201 -0.1591  0.1162
 7739SOL    HW134679   1.989   1.289   6.889  0.8657  0.1847 -0.6012
 7739SOL    HW234680   1.906   1.171   6.883  0.2116  0.1657  0.4644
 7740SOL     OW34681   2.105   1.278   7.387  0.1892  0.0475 -0.4613
 7740SOL    HW134682   2.037   1.326   7.340  1.7077  2.9378  0.2807
 7740SOL    HW234683   2.189   1.295   7.344  1.0372 -1.1283  0.7368
 7741SOL     OW34684   0.566   1.054   6.131 -0.2431 -0.3697 -0.6280
 7741SOL    HW134685   0.610   1.048   6.047 -0.2109  0.6366 -0.6820
 7741SOL    HW234686   0.639   1.059   6.192  0.4741  1.1819 -1.6244
 7742SOL     OW34687   4.074   0.261   5.558 -0.2473  0.7316 -0.5359
 7742SOL    HW134688   4.162   0.299   5.548 -0.2502  1.3178  1.7320
 7742SOL    HW234689   4.096   0.206   5.634 -3.0331 -0.6032 -0.7187
 7743SOL     OW34690   1.029   2.474   4.138  0.1252 -0.6435 -0.0098
 7743SOL    HW134691   1.081   2.472   4.058 -0.8035  1.4331 -0.6722
 7743SOL    HW234692   1.037   2.567   4.161 -0.3964 -0.9633  1.4482
 7744SOL     OW34693   2.566   1.543   2.115 -0.2764 -0.1475  0.0065
 7744SOL    HW134694   2.500   1.476   2.098  0.8894 -1.1526 -0.5031
 7744SOL    HW234695   2.549   1.600   2.040 -2.3632 -0.4969  0.2202
 7745SOL     OW34696   3.744   3.506   6.519 -0.5323 -0.0900 -0.8282
 7745SOL    HW134697   3.717   3.592   6.488 -1.8825 -0.8353 -1.7293
 7745SOL    HW234698   3.792   3.514   6.601 -2.2311 -0.2623  0.1838
 7746SOL     OW34699   2.016   3.368   3.522  0.7892  0.1727 -1.2042
 7746SOL    HW134700   2.099   3.321   3.531  0.5662  0.0301  0.1952
 7746SOL    HW234701   1.955   3.327   3.584 -0.5203  0.3582 -2.3862
 7747SOL     OW34702   3.829   2.224   8.249 -0.6255  0.1389 -0.5754
 7747SOL    HW134703   3.784   2.303   8.280  0.7301  0.2568  1.1039
 7747SOL    HW234704   3.887   2.254   8.179 -0.1197 -0.2256 -0.3137
 7748SOL     OW34705   1.112   0.869  13.348  0.4902 -0.0027 -0.2627
 7748SOL    HW134706   1.100   0.839  13.438  0.9434 -0.1133 -0.2416
 7748SOL    HW234707   1.204   0.849  13.332  0.1619 -1.6859 -0.0270
 7749SOL     OW34708   2.799   0.035   3.143 -0.5898  0.0911 -0.3763
 7749SOL    HW134709   2.725   4.698   3.162 -0.7435  0.2335 -0.5428
 7749SOL    HW234710   2.822   0.008   3.055 -2.4491 -1.5306 -0.3662
 7750SOL     OW34711   2.453   1.232  10.542 -0.4153  0.1329  0.1743
 7750SOL    HW134712   2.390   1.266  10.606  1.1968  1.3366  1.1320
 7750SOL    HW234713   2.472   1.315  10.499  0.7581 -1.4841 -2.4337
 7751SOL     OW34714   0.629   0.262   2.473  0.5641 -0.3964 -0.1925
 7751SOL    HW134715   0.593   0.278   2.386  0.3104  0.7244  0.1241
 7751SOL    HW234716   0.713   0.306   2.462 -0.1972  0.8942 -0.7936
 7752SOL     OW34717   3.086   3.448   6.362 -0.1845  0.2671 -0.0474
 7752SOL    HW134718   3.112   3.379   6.423  2.2169  3.0819  2.1584
 7752SOL    HW234719   3.057   3.396   6.288 -1.1003 -0.3202  0.7191
 7753SOL     OW34720   4.276   3.592   3.116 -0.2174 -0.0825  0.1951
 7753SOL    HW134721   4.201   3.539   3.089  2.8761 -3.0683 -2.4693
 7753SOL    HW234722   4.264   3.671   3.062  0.5363  1.1027  1.7707
 7754SOL     OW34723   1.200   0.505   8.681 -0.6936  0.8505 -0.0068
 7754SOL    HW134724   1.276   0.564   8.684 -1.0442  1.4248 -2.3721
 7754SOL    HW234725   1.242   0.439   8.626 -0.4443 -0.2063  1.4653
 7755SOL     OW34726   2.200   1.598  12.286  0.0960 -0.4425 -0.2292
 7755SOL    HW134727   2.236   1.510  12.292 -3.3542 -1.9766 -1.9648
 7755SOL    HW234728   2.187   1.615  12.193 -1.6472 -0.6533 -0.0275
 7756SOL     OW34729   2.325   3.038   4.662 -0.1740  0.0654  0.0811
 7756SOL    HW134730   2.288   3.031   4.750  0.4099  0.5531  0.3647
 7756SOL    HW234731   2.410   3.062   4.699  0.6241 -0.4854 -1.3930
 7757SOL     OW34732   2.571   0.521   5.586 -0.2809  0.5829 -0.0107
 7757SOL    HW134733   2.570   0.580   5.512 -1.6904 -0.4814 -0.8431
 7757SOL    HW234734   2.552   0.435   5.549 -2.8353  1.8416 -1.6339
 7758SOL     OW34735   3.633   1.146   7.096 -0.3509 -0.5488  0.7429
 7758SOL    HW134736   3.688   1.223   7.082 -1.0352 -0.3266 -0.7692
 7758SOL    HW234737   3.584   1.177   7.172  0.5230 -1.0045  1.4857
 7759SOL     OW34738   4.718   3.662   7.236 -0.5929 -0.1129 -0.1259
 7759SOL    HW134739   0.044   3.588   7.274 -2.1931 -1.1960 -0.2661
 7759SOL    HW234740   4.706   3.624   7.148  0.5647 -1.7587  0.4157
 7760SOL     OW34741   3.114   3.592  16.898  0.0023  0.2505 -0.1087
 7760SOL    HW134742   3.191   3.536  16.894  0.6197  1.0430  0.6932
 7760SOL    HW234743   3.058   3.571  16.823  1.8169  0.5387 -1.5497
 7761SOL     OW34744   3.473   3.448   7.245  0.0111 -0.1261 -0.2902
 7761SOL    HW134745   3.453   3.382   7.178  0.5492  0.1741 -0.7464
 7761SOL    HW234746   3.545   3.406   7.293  0.7839  2.7481  1.0472
 7762SOL     OW34747   0.065   3.567   5.285 -0.6134 -0.2418 -0.0414
 7762SOL    HW134748   0.023   3.508   5.347  0.9405 -0.1284  1.1158
 7762SOL    HW234749   0.134   3.511   5.250  0.4272 -0.1869  1.9663
 7763SOL     OW34750   4.480   3.301  16.174 -0.0972  0.7813  0.2197
 7763SOL    HW134751   4.526   3.324  16.255 -0.5779 -0.6342  0.8924
 7763SOL    HW234752   4.539   3.336  16.108 -1.6787  2.8361 -0.0884
 7764SOL     OW34753   0.523   2.433  16.020  0.4101  0.2217  0.7207
 7764SOL    HW134754   0.473   2.499  16.067 -0.5442  1.7180 -2.3824
 7764SOL    HW234755   0.448   2.399  15.973  2.3829  0.7384 -2.8085
 7765SOL     OW34756   0.894   0.400   1.844 -0.2226  0.0312 -0.4732
 7765SOL    HW134757   0.844   0.467   1.890  1.4279  0.5910  0.5222
 7765SOL    HW234758   0.931   0.458   1.778  0.6636 -0.0794 -0.0765
 7766SOL     OW34759   4.484   2.157  10.703  0.4501 -0.2894 -0.0471
 7766SOL    HW134760   4.518   2.079  10.659 -0.7673 -1.2396  0.7042
 7766SOL    HW234761   4.415   2.123  10.760  0.6568 -2.0644 -0.8787
 7767SOL     OW34762   3.930   3.189   3.232  0.2673  0.1517 -0.2215
 7767SOL    HW134763   3.859   3.247   3.203 -1.9653 -2.5992 -0.2140
 7767SOL    HW234764   3.889   3.127   3.292  1.1524 -0.8968 -0.7098
 7768SOL     OW34765   0.237   0.000   4.687 -0.4822  0.0561 -0.2474
 7768SOL    HW134766   0.173   0.053   4.736  1.1618  1.1454  0.7260
 7768SOL    HW234767   0.228   0.018   4.594  1.1087  0.2131 -0.3678
 7769SOL     OW34768   2.309   0.470   7.164  0.2717  0.3631  1.0725
 7769SOL    HW134769   2.220   0.505   7.152  1.2683  2.6748  0.4065
 7769SOL    HW234770   2.347   0.459   7.077  0.7515  1.3363  1.1548
 7770SOL     OW34771   2.769   0.285   9.840  0.0702  0.3136  0.5891
 7770SOL    HW134772   2.682   0.246   9.848  0.6386 -0.4920  2.9297
 7770SOL    HW234773   2.816   0.218   9.790  0.4743 -0.0812  1.4843
 7771SOL     OW34774   3.778   4.009  15.252  0.0980 -0.1392 -0.1290
 7771SOL    HW134775   3.697   4.036  15.295  1.9798  2.1676  1.9884
 7771SOL    HW234776   3.749   3.968  15.171  0.0290 -1.3412  0.5076
 7772SOL     OW34777   3.474   4.708  12.424 -0.2572  0.1714  0.1983
 7772SOL    HW134778   3.444   0.014  12.510 -0.0137  1.0146  0.0149
 7772SOL    HW234779   3.524   4.628  12.443 -0.7081  0.0761  0.9888
 7773SOL     OW34780   1.064   1.603   9.376 -0.6554  0.4441 -0.3901
 7773SOL    HW134781   1.013   1.631   9.300 -1.4477  1.3227  0.4522
 7773SOL    HW234782   1.156   1.614   9.355 -0.7179 -2.2612 -2.0245
 7774SOL     OW34783   2.562   2.545   9.057  0.1605  0.3418 -0.4410
 7774SOL    HW134784   2.475   2.577   9.033 -0.0892 -0.8403 -1.0894
 7774SOL    HW234785   2.613   2.581   8.984 -1.4972  1.4248 -1.0737
 7775SOL     OW34786   2.009   1.721   6.977  0.2370  0.3655  0.3889
 7775SOL    HW134787   2.073   1.792   6.977  1.0538 -0.3694 -0.5007
 7775SOL    HW234788   2.012   1.680   6.891 -1.2618 -0.7085  0.8482
 7776SOL     OW34789   1.854   2.961  11.688 -0.5749  0.0279  0.1649
 7776SOL    HW134790   1.849   3.035  11.626  1.9594 -0.4745 -0.6205
 7776SOL    HW234791   1.771   2.918  11.668 -0.1523  0.3627 -2.3864
 7777SOL     OW34792   0.992   2.106   5.167 -0.0747 -0.5908  0.0741
 7777SOL    HW134793   1.042   2.034   5.206  1.1928  0.5293  0.5361
 7777SOL    HW234794   0.971   2.077   5.079 -1.3853 -0.3815  0.3130
 7778SOL     OW34795   0.264   3.408  12.155 -0.0114  0.2246 -0.5542
 7778SOL    HW134796   0.340   3.352  12.170  0.2740  0.1832 -2.1291
 7778SOL    HW234797   0.299   3.447  12.075  1.1505 -1.6243 -0.9541
 7779SOL     OW34798   4.410   0.671   7.819 -0.1266 -0.5384 -0.3779
 7779SOL    HW134799   4.329   0.722   7.818 -0.1376 -0.4905  2.3486
 7779SOL    HW234800   4.384   0.618   7.895  0.6833 -0.3720  0.0129
 7780SOL     OW34801   0.015   0.224   8.455  0.2533 -0.3609  0.5239
 7780SOL    HW134802   4.701   0.310   8.478  0.7211  0.0705 -0.3705
 7780SOL    HW234803   4.671   0.164   8.491 -0.4148  0.7876  1.2427
 7781SOL     OW34804   0.892   3.242   8.733  0.2086  0.2080 -0.1895
 7781SOL    HW134805   0.819   3.299   8.707  0.6705  0.3997 -1.0625
 7781SOL    HW234806   0.852   3.157   8.714  0.7868 -0.0056 -0.4472
 7782SOL     OW34807   1.984   2.622   9.079  0.7965  0.0499 -0.1305
 7782SOL    HW134808   2.016   2.625   8.988 -3.1952 -1.2719 -1.5982
 7782SOL    HW234809   2.007   2.707   9.115 -0.2839  0.1426  0.3339
 7783SOL     OW34810   2.264   3.814  10.886 -0.0040  0.2245  0.3986
 7783SOL    HW134811   2.261   3.718  10.885 -0.1713  0.2286  0.4806
 7783SOL    HW234812   2.336   3.822  10.949  0.6508 -0.6575 -0.2433
 7784SOL     OW34813   1.148   4.064   3.987 -0.4102 -0.2994  0.0460
 7784SOL    HW134814   1.156   4.041   3.894 -0.3610 -0.7753  0.1685
 7784SOL    HW234815   1.060   4.029   4.002 -1.2698  0.6429 -2.7424
 7785SOL     OW34816   3.127   1.115   5.208  0.6002  0.1840 -0.0193
 7785SOL    HW134817   3.175   1.032   5.203  1.3142  0.3925  3.1539
 7785SOL    HW234818   3.093   1.105   5.297  0.3084  2.2279  0.1064
 7786SOL     OW34819   0.971   2.851   5.691 -0.6573 -0.0056  0.3058
 7786SOL    HW134820   0.919   2.858   5.771 -0.3708 -0.8925  0.5629
 7786SOL    HW234821   1.062   2.857   5.718 -0.7998  1.0650  0.5428
 7787SOL     OW34822   0.956   4.183   3.539 -0.6788 -0.0135  0.6766
 7787SOL    HW134823   0.899   4.209   3.467 -0.6945 -2.5455 -0.2156
 7787SOL    HW234824   1.032   4.152   3.490 -1.2224 -0.1578 -0.0718
 7788SOL     OW34825   3.407   0.650   6.497  0.5822  0.3764 -0.4564
 7788SOL    HW134826   3.446   0.670   6.582 -2.6256 -0.1137  1.1466
 7788SOL    HW234827   3.424   0.722   6.437 -1.0190  1.3092  0.2005
 7789SOL     OW34828   0.536   4.217   6.081  0.7261 -0.0191  0.2701
 7789SOL    HW134829   0.483   4.143   6.051  2.1737 -0.5719 -0.9128
 7789SOL    HW234830   0.494   4.289   6.034  2.3810  0.4601 -0.4643
 7790SOL     OW34831   3.985   1.323  16.493  0.7046 -0.0689 -0.3145
 7790SOL    HW134832   3.932   1.244  16.488  0.0210  0.5308 -2.5407
 7790SOL    HW234833   3.943   1.369  16.566  1.5582 -3.0540  2.0494
 7791SOL     OW34834   1.202   4.141  16.745  0.2546 -0.2681  0.2142
 7791SOL    HW134835   1.133   4.154  16.811  0.2741  3.4431 -0.4842
 7791SOL    HW234836   1.178   4.054  16.715 -1.0558  0.7827 -1.7417
 7792SOL     OW34837   1.052   4.014   2.888  0.2767 -0.1746 -0.4344
 7792SOL    HW134838   1.143   4.045   2.887  0.7844 -1.6674 -1.3159
 7792SOL    HW234839   1.038   4.012   2.793 -0.2758 -2.8141 -0.2827
 7793SOL     OW34840   1.589   2.166   5.769 -0.1324  0.0010  0.6499
 7793SOL    HW134841   1.666   2.169   5.827 -0.6863 -1.4293  1.4638
 7793SOL    HW234842   1.629   2.160   5.682  4.5364 -2.5871  2.9804
 7794SOL     OW34843   0.920   0.067   2.263  0.4064  0.0888 -0.0746
 7794SOL    HW134844   0.944   4.718   2.203  0.4639  0.0229  0.0275
 7794SOL    HW234845   0.855   0.110   2.206  0.8315  0.3925 -0.3403
 7795SOL     OW34846   3.198   4.679   3.935  0.7152 -0.4099 -0.5775
 7795SOL    HW134847   3.245   4.655   3.855  0.5591 -0.8272 -0.5488
 7795SOL    HW234848   3.114   4.638   3.914  2.0027 -2.6562 -1.3586
 7796SOL     OW34849   2.535   3.851   9.739  0.2283 -0.2560 -0.0671
 7796SOL    HW134850   2.449   3.808   9.741  0.4471 -0.6647  0.9802
 7796SOL    HW234851   2.551   3.834   9.832  0.3119  0.3644  0.0315
 7797SOL     OW34852   4.186   1.470   2.355  0.1153  0.6104 -0.0523
 7797SOL    HW134853   4.231   1.484   2.438 -2.3797  0.0621  1.3796
 7797SOL    HW234854   4.095   1.482   2.383  0.2651 -1.2538  1.1823
 7798SOL     OW34855   1.931   3.375  15.508  0.8574  0.2974  0.1266
 7798SOL    HW134856   1.941   3.429  15.430 -1.4889 -0.9491 -1.0591
 7798SOL    HW234857   1.862   3.432  15.543 -0.2436  0.2033 -1.8705
 7799SOL     OW34858   1.884   3.032  14.896 -0.0632 -0.8028 -0.0306
 7799SOL    HW134859   1.902   2.943  14.868  3.2650 -0.0076 -0.3712
 7799SOL    HW234860   1.858   3.011  14.986 -2.8893  0.2483 -0.5895
 7800SOL     OW34861   4.666   0.068   4.770  0.2263  0.2613 -0.6996
 7800SOL    HW134862   4.578   0.089   4.803  0.8518 -1.8348  2.2486
 7800SOL    HW234863   4.655   0.001   4.703  2.2150  1.8840 -2.6579
 7801SOL     OW34864   3.941   2.952   1.753  0.5719  0.7265  0.2905
 7801SOL    HW134865   3.899   2.930   1.837 -1.4072  0.6851 -0.7142
 7801SOL    HW234866   4.019   2.999   1.783 -0.4273  1.2719  2.0754
 7802SOL     OW34867   3.382   3.848   3.950 -0.1691  0.8648  0.0305
 7802SOL    HW134868   3.315   3.899   3.904  1.7555  2.5896 -0.8949
 7802SOL    HW234869   3.444   3.831   3.879  1.3639  1.6724  1.1710
 7803SOL     OW34870   3.447   2.685   5.681  0.2124  0.2227  0.0993
 7803SOL    HW134871   3.476   2.657   5.768 -2.3707 -1.3169  0.4479
 7803SOL    HW234872   3.536   2.696   5.648  1.3718 -2.0040  2.5200
 7804SOL     OW34873   1.373   4.103   1.258 -0.3559  0.3679 -0.0075
 7804SOL    HW134874   1.389   4.089   1.164 -1.7203 -0.0906 -0.1629
 7804SOL    HW234875   1.278   4.097   1.259 -0.2760 -0.5409  1.9096
 7805SOL     OW34876   0.938   0.480  10.572 -0.1233  0.7327  0.2827
 7805SOL    HW134877   0.857   0.462  10.620  1.1787  0.4308  2.3445
 7805SOL    HW234878   0.903   0.498  10.485  0.4062 -2.0537 -0.5178
 7806SOL     OW34879   3.104   0.714  13.734  0.2092 -0.0716  0.5360
 7806SOL    HW134880   3.058   0.671  13.662  0.0038  1.9944 -0.5874
 7806SOL    HW234881   3.196   0.710  13.711  0.5539 -0.3708  2.0041
 7807SOL     OW34882   3.402   3.362  15.593 -0.0582 -0.6407 -0.1037
 7807SOL    HW134883   3.337   3.326  15.653  0.6398 -1.8024 -0.0571
 7807SOL    HW234884   3.382   3.456  15.590 -0.6578 -0.7657  0.0914
 7808SOL     OW34885   2.842   2.467   2.865  0.0612 -0.0825  0.0785
 7808SOL    HW134886   2.872   2.519   2.940  2.4638  0.5780 -1.3066
 7808SOL    HW234887   2.923   2.425   2.836 -0.7083 -0.5518 -1.3602
 7809SOL     OW34888   3.820   1.510   4.977  0.3119 -0.6656 -0.7671
 7809SOL    HW134889   3.809   1.590   5.028 -3.2581 -1.3362 -0.4579
 7809SOL    HW234890   3.800   1.540   4.888  0.0365 -0.8729 -0.7739
 7810SOL     OW34891   3.324   1.246   8.973  0.6130 -0.2313  0.4151
 7810SOL    HW134892   3.366   1.315   9.025 -1.1543  0.6039  0.7012
 7810SOL    HW234893   3.377   1.174   9.006 -2.4553 -2.9459 -0.6441
 7811SOL     OW34894   3.846   4.238   5.929 -0.2805 -0.5594 -0.0576
 7811SOL    HW134895   3.900   4.180   5.982  0.7548  0.2068 -0.2592
 7811SOL    HW234896   3.851   4.201   5.841  2.7060 -3.1426  1.2019
 7812SOL     OW34897   3.178   0.252  16.833  0.6389 -0.2329  0.0985
 7812SOL    HW134898   3.103   0.310  16.841  0.0057 -0.8835 -1.0444
 7812SOL    HW234899   3.231   0.256  16.913 -1.5018 -0.3667  1.5176
 7813SOL     OW34900   0.370   3.015  15.847  0.4810  0.4649 -0.1881
 7813SOL    HW134901   0.371   3.111  15.838 -2.6766  0.6440  1.2880
 7813SOL    HW234902   0.389   2.980  15.760 -0.0481 -0.0740 -0.0865
 7814SOL     OW34903   3.941   2.769  15.299  0.3127  0.1629 -0.1081
 7814SOL    HW134904   4.002   2.755  15.372  0.2839 -2.3080 -0.5783
 7814SOL    HW234905   3.925   2.677  15.279  0.8584  0.1484 -0.4719
 7815SOL     OW34906   3.997   0.836   3.199 -0.2263  0.4054  0.1436
 7815SOL    HW134907   3.992   0.930   3.213 -0.4714  1.0673 -4.3487
 7815SOL    HW234908   3.959   0.802   3.280  0.8146 -0.4315  0.2933
 7816SOL     OW34909   1.004   2.252  15.999  0.8232  0.5147 -0.6992
 7816SOL    HW134910   1.009   2.156  15.991  1.1895  0.5097 -0.4193
 7816SOL    HW234911   0.934   2.257  15.934 -0.7395  0.5671  0.9902
 7817SOL     OW34912   3.314   0.221  13.147  0.2611 -0.3880  0.3029
 7817SOL    HW134913   3.253   0.276  13.197 -0.2925 -0.3108 -0.4561
 7817SOL    HW234914   3.389   0.277  13.130  0.2896 -0.4008  0.3868
 7818SOL     OW34915   0.877   2.385   8.741 -0.0851 -0.1384  0.0364
 7818SOL    HW134916   0.939   2.360   8.673  1.7441 -1.7290  2.2941
 7818SOL    HW234917   0.934   2.445   8.789 -2.9967  0.2090  3.0704
 7819SOL     OW34918   0.801   1.870  16.846 -0.1621 -0.9151  0.3710
 7819SOL    HW134919   0.869   1.924  16.888 -1.2530  0.4820  0.3591
 7819SOL    HW234920   0.828   1.863  16.755 -0.9390  0.8089 -0.0110
 7820SOL     OW34921   3.931   1.217  10.924 -0.6391  0.3295  0.1266
 7820SOL    HW134922   3.990   1.146  10.900 -0.5675 -0.5003  2.7391
 7820SOL    HW234923   3.982   1.295  10.903 -1.4483  0.8067 -0.0644
 7821SOL     OW34924   0.613   3.787  16.247  0.7144 -0.1595  0.6056
 7821SOL    HW134925   0.681   3.722  16.232  0.1654 -0.9385  1.4658
 7821SOL    HW234926   0.665   3.858  16.283 -1.8601  2.4516 -0.7799
 7822SOL     OW34927   4.551   0.890   7.055 -0.0471  0.0721  0.2798
 7822SOL    HW134928   4.517   0.800   7.060 -1.5649  0.7736  2.8909
 7822SOL    HW234929   4.479   0.937   7.014 -2.0342 -1.1611  2.3246
 7823SOL     OW34930   4.175   0.814  12.385 -0.4140  0.4181 -0.3818
 7823SOL    HW134931   4.113   0.772  12.325 -0.2172 -1.2666  0.5983
 7823SOL    HW234932   4.232   0.742  12.411  1.3839  1.7198 -0.7251
 7824SOL     OW34933   4.596   1.349   9.913  0.1992 -0.2970 -0.1087
 7824SOL    HW134934   4.680   1.391   9.932 -0.2357  0.3919  0.3176
 7824SOL    HW234935   4.544   1.410   9.861 -0.8487  0.4649  1.8151
 7825SOL     OW34936   0.431   3.763   1.471 -0.6198 -0.5817  0.0694
 7825SOL    HW134937   0.370   3.695   1.441 -0.0182 -1.8981  1.8818
 7825SOL    HW234938   0.416   3.827   1.401  3.8688  1.1837  0.7589
 7826SOL     OW34939   0.620   1.095  14.197  0.2264  0.0780  0.5859
 7826SOL    HW134940   0.546   1.039  14.224 -0.0756 -0.0118 -0.3994
 7826SOL    HW234941   0.597   1.115  14.106 -3.0671  0.8183  1.5741
 7827SOL     OW34942   2.240   0.499   1.036  0.3136 -0.6766 -0.0135
 7827SOL    HW134943   2.308   0.541   1.088  1.1099 -2.5066  0.4158
 7827SOL    HW234944   2.165   0.508   1.094  0.8501 -2.3000  0.9117
 7828SOL     OW34945   4.572   1.620   9.711  0.0282 -0.1242 -0.1368
 7828SOL    HW134946   4.536   1.685   9.650 -1.2740  0.3471  1.1138
 7828SOL    HW234947   4.513   1.545   9.701  0.1840 -0.0629 -1.4328
 7829SOL     OW34948   0.993   1.218  13.009 -0.5716  0.0691 -0.3726
 7829SOL    HW134949   0.987   1.127  13.036  0.1845  0.5467  1.3713
 7829SOL    HW234950   1.088   1.226  13.005 -0.4907  0.2146  2.1765
 7830SOL     OW34951   3.131   2.804   0.988  0.2063  0.8135  0.7623
 7830SOL    HW134952   3.190   2.879   0.996 -0.4690  1.3886  0.3791
 7830SOL    HW234953   3.082   2.822   1.068 -1.3706 -0.4314  0.0810
 7831SOL     OW34954   0.775   1.181   8.153  0.3281  0.4817  0.5709
 7831SOL    HW134955   0.832   1.119   8.199  2.2502  1.9100  0.0989
 7831SOL    HW234956   0.762   1.138   8.068  0.6047 -0.8400  1.1861
 7832SOL     OW34957   4.219   3.582  10.927 -0.1608 -1.2099 -0.2304
 7832SOL    HW134958   4.309   3.593  10.957  0.2822 -1.5827 -1.4117
 7832SOL    HW234959   4.192   3.510  10.983  2.6267 -1.7081  0.4497
 7833SOL     OW34960   3.764   1.347   3.177  0.2537  0.6162 -0.2737
 7833SOL    HW134961   3.717   1.272   3.142  0.2576  0.6277 -0.3037
 7833SOL    HW234962   3.822   1.308   3.243 -1.3447 -1.1117  0.0891
 7834SOL     OW34963   0.625   4.405  13.311 -0.1172 -0.2609 -0.6227
 7834SOL    HW134964   0.672   4.466  13.367 -0.6442 -0.0930 -0.3546
 7834SOL    HW234965   0.553   4.376  13.368 -1.0012 -0.4285 -1.8342
 7835SOL     OW34966   1.908   1.423   5.944  0.1588 -0.2401 -0.4331
 7835SOL    HW134967   1.910   1.364   6.019 -1.5164 -2.3025 -1.9998
 7835SOL    HW234968   1.986   1.474   5.968 -0.6234  1.3419 -1.2127
 7836SOL     OW34969   0.438   3.990   5.954  0.2846  0.2426  0.5245
 7836SOL    HW134970   0.361   3.941   5.927 -1.0926  3.8289 -2.0554
 7836SOL    HW234971   0.504   3.923   5.972  1.3582  0.4752 -2.6304
 7837SOL     OW34972   4.340   0.890   7.485 -0.3601 -0.6585  0.1251
 7837SOL    HW134973   4.432   0.915   7.494 -0.2225 -1.3018  0.5033
 7837SOL    HW234974   4.337   0.797   7.464  0.5959 -0.6802  0.0909
 7838SOL     OW34975   2.883   2.528   3.526  0.1215 -0.0130 -0.8453
 7838SOL    HW134976   2.972   2.539   3.558 -0.0658 -1.8223  0.2740
 7838SOL    HW234977   2.894   2.517   3.431 -0.7438 -2.0200 -0.7271
 7839SOL     OW34978   3.527   0.083   6.139  0.4780  0.1967  0.3997
 7839SOL    HW134979   3.538   0.177   6.128  1.9000 -0.1370 -1.0814
 7839SOL    HW234980   3.545   0.067   6.231  0.1027 -2.4195  0.0205
 7840SOL     OW34981   2.145   0.927   9.414 -0.3729  0.2316  0.5929
 7840SOL    HW134982   2.209   0.924   9.485  0.1292  0.8093  0.1579
 7840SOL    HW234983   2.071   0.974   9.453 -0.3980  1.1795 -0.5722
 7841SOL     OW34984   1.241   3.291  11.911 -0.0386  0.1116  0.6986
 7841SOL    HW134985   1.251   3.385  11.924  2.1236 -0.1979  1.1906
 7841SOL    HW234986   1.333   3.270  11.900 -0.5273 -1.0767 -1.0346
 7842SOL     OW34987   3.734   3.426   7.672 -0.5290  0.4068 -0.2917
 7842SOL    HW134988   3.684   3.431   7.754 -0.8498 -2.0706 -0.3397
 7842SOL    HW234989   3.728   3.518   7.647 -0.5997  0.2588 -0.8086
 7843SOL     OW34990   3.036   0.237   8.409  0.1745  0.1301  0.1057
 7843SOL    HW134991   2.975   0.260   8.478  1.0751  0.1041  0.9068
 7843SOL    HW234992   3.057   0.145   8.428 -0.4465  0.1457  0.8228
 7844SOL     OW34993   4.076   3.185  11.687  0.1654  0.4783 -0.6357
 7844SOL    HW134994   4.013   3.206  11.756  1.1060  0.4703  0.2137
 7844SOL    HW234995   4.091   3.091  11.700 -1.7621  0.4643  1.4359
 7845SOL     OW34996   4.400   1.152   3.748  0.4183  1.0473 -0.6013
 7845SOL    HW134997   4.475   1.098   3.725 -0.5284  0.2528 -1.8448
 7845SOL    HW234998   4.366   1.162   3.659 -0.4507 -0.5205 -0.4503
 7846SOL     OW34999   0.954   1.667   2.214 -0.2738 -0.0043  1.4457
 7846SOL    HW135000   0.897   1.713   2.152 -1.6232  0.1329  2.7861
 7846SOL    HW235001   0.889   1.653   2.282  0.1375  1.0708  2.0582
 7847SOL     OW35002   4.695   2.074   3.920 -0.0990  0.0301  0.3937
 7847SOL    HW135003   4.664   1.999   3.970 -0.3806 -0.4399 -0.4906
 7847SOL    HW235004   4.716   2.141   3.986 -2.3502  0.9959  0.1248
 7848SOL     OW35005   4.490   1.744   8.374  0.2793  0.5631 -0.1711
 7848SOL    HW135006   4.480   1.658   8.415  0.6010  0.6479  0.0862
 7848SOL    HW235007   4.540   1.789   8.442  1.0670  0.0702 -0.4211
 7849SOL     OW35008   4.678   0.803   8.166  0.0515  0.7348  0.1110
 7849SOL    HW135009   4.620   0.826   8.093 -0.1249 -0.3582 -0.0907
 7849SOL    HW235010   0.021   0.744   8.127  1.3360  1.5921  0.9118
 7850SOL     OW35011   4.636   1.968   4.564  0.2371 -0.4120  0.3539
 7850SOL    HW135012   4.546   1.960   4.596  0.1179  0.4915  0.2554
 7850SOL    HW235013   4.671   1.881   4.548  1.5681  0.0532  0.7817
 7851SOL     OW35014   4.175   2.438   8.917 -0.0947  0.1231  0.4041
 7851SOL    HW135015   4.213   2.464   8.833  2.2226 -1.7146  0.8620
 7851SOL    HW235016   4.086   2.418   8.888  0.8899 -0.0845 -2.4860
 7852SOL     OW35017   1.651   2.260   0.218  0.8049  0.7593 -0.5256
 7852SOL    HW135018   1.584   2.281   0.283  0.1697  2.0047 -1.5617
 7852SOL    HW235019   1.722   2.310   0.257  0.5185  0.1913  0.7152
 7853SOL     OW35020   3.499   1.411   3.741  1.1293  0.1889  0.3110
 7853SOL    HW135021   3.529   1.327   3.706 -0.2579  0.2119 -0.9307
 7853SOL    HW235022   3.469   1.377   3.825  0.4245  0.2522  0.0851
 7854SOL     OW35023   3.573   2.872  12.556  0.3095 -0.5459  0.4129
 7854SOL    HW135024   3.499   2.931  12.571  2.0946  2.1313 -1.4205
 7854SOL    HW235025   3.641   2.925  12.598  0.4640  1.7616 -2.7622
 7855SOL     OW35026   3.590   4.463   3.378 -0.4066  0.0271 -0.9682
 7855SOL    HW135027   3.596   4.482   3.284  1.5293  0.1309 -0.8219
 7855SOL    HW235028   3.653   4.391   3.376 -0.2132  0.2125 -1.6223
 7856SOL     OW35029   0.212   3.368   5.166  0.1836 -0.4771 -0.0597
 7856SOL    HW135030   0.259   3.339   5.244  0.0903  0.5531  0.3707
 7856SOL    HW235031   0.230   3.292   5.111 -0.0248  0.0547 -0.8683
 7857SOL     OW35032   2.022   0.996   0.484 -0.0994 -0.3969  0.4313
 7857SOL    HW135033   2.050   0.913   0.523  0.0047 -0.8571 -0.6069
 7857SOL    HW235034   2.061   1.066   0.537  3.0266 -0.3790 -1.8418
 7858SOL     OW35035   1.368   1.093   2.196  0.1216  0.1474  0.0028
 7858SOL    HW135036   1.373   1.012   2.145  3.6268  0.0536  0.4825
 7858SOL    HW235037   1.273   1.100   2.200  0.1550  1.1719 -1.2001
 7859SOL     OW35038   0.150   0.486   8.290 -0.2489  0.2870  0.1029
 7859SOL    HW135039   0.209   0.542   8.239 -0.4179 -0.2093 -0.6383
 7859SOL    HW235040   0.176   0.395   8.278  0.5863  0.3379  1.6118
 7860SOL     OW35041   4.294   0.175   2.666 -0.3098 -0.2974 -0.2749
 7860SOL    HW135042   4.359   0.157   2.599 -1.1248 -1.0452 -0.8716
 7860SOL    HW235043   4.315   0.265   2.689 -0.3239 -0.5432  0.7055
 7861SOL     OW35044   3.992   4.435   9.004  0.2404  0.3511 -0.3166
 7861SOL    HW135045   3.946   4.417   9.086  0.7055 -1.0075 -0.3562
 7861SOL    HW235046   4.045   4.507   9.039 -0.6904  1.8046 -1.9136
 7862SOL     OW35047   1.039   2.201  10.867 -0.0971 -0.0900 -0.3843
 7862SOL    HW135048   1.069   2.262  10.799 -0.0420  0.3120  0.0019
 7862SOL    HW235049   1.061   2.121  10.819 -0.6423 -1.2978  1.3893
 7863SOL     OW35050   0.959   3.825  11.525 -0.6045  0.0302 -0.6332
 7863SOL    HW135051   0.872   3.833  11.563 -1.0413  0.1462 -1.6689
 7863SOL    HW235052   0.942   3.775  11.445  0.2177 -2.8934  1.0080
 7864SOL     OW35053   1.759   4.667   2.839  0.0347  0.2576  0.3648
 7864SOL    HW135054   1.785   0.014   2.901  1.5263 -0.8104  0.9354
 7864SOL    HW235055   1.722   4.602   2.899  2.2267 -1.0979  0.2787
 7865SOL     OW35056   1.406   0.386  16.721  0.3806 -0.7161 -0.5872
 7865SOL    HW135057   1.326   0.359  16.676  0.1721 -1.2803  0.1305
 7865SOL    HW235058   1.402   0.482  16.721 -1.5818 -0.7897  3.5153
 7866SOL     OW35059   2.046   0.238  14.027  0.2749 -0.2487  0.1605
 7866SOL    HW135060   1.961   0.276  14.006 -0.1399 -1.3712 -0.1453
 7866SOL    HW235061   2.036   0.179  14.101  1.9500 -0.9609 -0.1788
 7867SOL     OW35062   2.507   0.044   0.910  0.0606 -0.0294 -0.0110
 7867SOL    HW135063   2.480   0.126   0.869  1.5555  0.7654  0.6062
 7867SOL    HW235064   2.482   4.698   0.846 -0.0375 -1.2869  1.3506
 7868SOL     OW35065   0.574   3.657   3.511  0.1713 -0.3526 -0.3910
 7868SOL    HW135066   0.622   3.708   3.446 -2.4309  0.9885 -1.2434
 7868SOL    HW235067   0.601   3.704   3.590  0.1139 -1.6713  0.4150
 7869SOL     OW35068   0.638   2.377   2.218 -0.0609  0.1293 -0.4686
 7869SOL    HW135069   0.619   2.300   2.166 -1.6342 -0.5565  1.0991
 7869SOL    HW235070   0.731   2.366   2.234 -0.7126 -1.9498  1.9029
 7870SOL     OW35071   0.398   2.469   3.726  0.5229 -0.4822  0.3786
 7870SOL    HW135072   0.377   2.542   3.668  1.2552 -1.0902 -0.6553
 7870SOL    HW235073   0.438   2.418   3.656  0.2838  0.4985 -0.4736
 7871SOL     OW35074   1.936   0.125   3.308 -0.7880 -0.0969 -0.3545
 7871SOL    HW135075   1.881   0.051   3.285 -1.4876  0.2379  0.2363
 7871SOL    HW235076   1.907   0.143   3.398  1.4676 -1.1501  0.6062
 7872SOL     OW35077   0.325   2.373   9.115  0.1709 -0.4480 -0.4641
 7872SOL    HW135078   0.239   2.391   9.153  0.5764  2.7914 -1.0839
 7872SOL    HW235079   0.377   2.351   9.192 -2.4872 -1.4473  1.0728
 7873SOL     OW35080   3.912   2.003   5.481 -0.4512 -0.4502  0.1462
 7873SOL    HW135081   3.842   2.063   5.456 -0.8349 -1.2899 -0.7766
 7873SOL    HW235082   3.884   1.914   5.460 -0.2877 -0.3326 -0.5846
 7874SOL     OW35083   0.252   3.414  14.355 -0.0936 -0.3652  0.1839
 7874SOL    HW135084   0.265   3.331  14.310  1.5684 -0.9201  1.7018
 7874SOL    HW235085   0.233   3.468  14.279  0.8953  1.5079  1.2693
 7875SOL     OW35086   1.028   0.852   7.940  0.5996 -0.1858 -0.2951
 7875SOL    HW135087   1.047   0.930   7.993  2.9657  0.4964 -2.1433
 7875SOL    HW235088   1.007   0.905   7.863  0.5112 -0.1915 -0.2744
 7876SOL     OW35089   1.335   1.646   4.464 -0.4567  0.5258  0.2040
 7876SOL    HW135090   1.427   1.653   4.488 -0.6576 -0.8173  1.3666
 7876SOL    HW235091   1.297   1.710   4.525 -0.9589 -0.4883  0.9453
 7877SOL     OW35092   3.216   0.927   8.697  0.5775 -0.1974 -0.6323
 7877SOL    HW135093   3.193   0.981   8.622 -1.1566 -1.1182 -0.7708
 7877SOL    HW235094   3.131   0.904   8.735  0.8821 -1.4598 -0.7067
 7878SOL     OW35095   1.929   1.349   5.198 -0.6403  0.6392  0.2380
 7878SOL    HW135096   1.910   1.284   5.266 -0.7242 -0.4187 -0.7987
 7878SOL    HW235097   2.001   1.398   5.239  0.0508 -0.9502  0.9168
 7879SOL     OW35098   2.354   3.552   3.108 -0.7244  0.3815  0.2648
 7879SOL    HW135099   2.434   3.587   3.146 -0.7423 -1.4772  2.0310
 7879SOL    HW235100   2.290   3.556   3.180 -1.2355  1.7151 -0.2665
 7880SOL     OW35101   1.170   3.209   9.006  0.2884 -0.6424 -0.7078
 7880SOL    HW135102   1.213   3.242   9.085 -1.3158 -1.6588  0.5869
 7880SOL    HW235103   1.244   3.203   8.946  0.2328 -3.4281 -0.4647
 7881SOL     OW35104   2.709   3.193   4.250 -0.3285 -0.0669  0.2561
 7881SOL    HW135105   2.785   3.227   4.297  0.5885 -1.6342 -0.0701
 7881SOL    HW235106   2.711   3.104   4.284  0.2225 -0.2691 -0.2927
 7882SOL     OW35107   0.631   1.425   7.927  0.0511 -0.0857 -0.1302
 7882SOL    HW135108   0.715   1.466   7.905 -1.7914  3.6508 -0.0448
 7882SOL    HW235109   0.619   1.371   7.849  0.8061 -0.9629  0.3517
 7883SOL     OW35110   0.970   0.690   8.506 -0.0086  0.1715 -0.0074
 7883SOL    HW135111   0.985   0.691   8.601 -0.0996  2.0226 -0.0139
 7883SOL    HW235112   0.908   0.618   8.516 -0.2973  0.2418 -1.3413
 7884SOL     OW35113   0.475   3.693   8.012  0.2333  0.0465  0.1119
 7884SOL    HW135114   0.537   3.619   8.012  0.9729  0.6561 -1.9557
 7884SOL    HW235115   0.403   3.661   7.958  0.9208 -1.9639  0.3552
 7885SOL     OW35116   2.614   3.899   9.479 -0.1478 -0.2896  0.3917
 7885SOL    HW135117   2.617   3.879   9.572 -0.5885  1.3306  0.7561
 7885SOL    HW235118   2.615   3.994   9.489  3.3344 -0.5397  2.3242
 7886SOL     OW35119   0.302   1.423  13.052  0.7324  0.2116 -0.6764
 7886SOL    HW135120   0.378   1.395  13.103 -1.0774 -0.8729  1.4433
 7886SOL    HW235121   0.275   1.499  13.104  0.7342  0.7235 -1.4304
 7887SOL     OW35122   1.358   3.851  10.095 -0.1498  0.3243  0.6875
 7887SOL    HW135123   1.308   3.838  10.175  0.3335 -0.1422  0.9135
 7887SOL    HW235124   1.447   3.817  10.111 -0.1813  0.7186  1.6968
 7888SOL     OW35125   0.393   2.384   5.093 -0.2342  0.3303 -0.4015
 7888SOL    HW135126   0.362   2.294   5.089 -0.0226  0.2616 -0.4809
 7888SOL    HW235127   0.467   2.378   5.152 -1.4318  0.2293  1.0908
 7889SOL     OW35128   1.315   1.120   5.688  0.2024  0.0190  0.3408
 7889SOL    HW135129   1.309   1.185   5.617  2.1576 -0.0486  0.1161
 7889SOL    HW235130   1.405   1.126   5.720  0.1696 -2.4571  0.8809
 7890SOL     OW35131   1.067   0.316   5.006  0.3748 -0.1469 -0.7911
 7890SOL    HW135132   1.104   0.228   5.008 -1.0484 -0.7557 -0.9979
 7890SOL    HW235133   0.977   0.284   4.996 -0.2068  1.2147  0.1849
 7891SOL     OW35134   2.156   4.363   9.437 -0.3750 -0.1405  0.0550
 7891SOL    HW135135   2.177   4.275   9.469  2.1367  0.9345  1.4367
 7891SOL    HW235136   2.233   4.412   9.468 -0.9377  0.0871  1.0900
 7892SOL     OW35137   1.674   3.669   9.395 -0.3646 -0.4086  0.1276
 7892SOL    HW135138   1.741   3.601   9.403 -0.1707 -0.2862 -0.4245
 7892SOL    HW235139   1.627   3.638   9.318 -1.5632  1.1662  0.2363
 7893SOL     OW35140   2.056   2.234  16.515  0.1716  0.1237  0.6176
 7893SOL    HW135141   1.982   2.291  16.536  1.1860  1.8293 -0.4165
 7893SOL    HW235142   2.022   2.178  16.446 -0.9647  1.3682  0.1754
 7894SOL     OW35143   0.589   3.669   7.653 -0.3202 -0.1529  0.1984
 7894SOL    HW135144   0.526   3.672   7.725  0.2891  1.3802  0.6471
 7894SOL    HW235145   0.598   3.576   7.633  0.6056 -0.1424  0.5967
 7895SOL     OW35146   3.990   4.549  17.230 -0.0225 -0.0119  0.1566
 7895SOL    HW135147   4.051   4.553  17.303 -0.1773 -0.0044  0.2842
 7895SOL    HW235148   3.982   4.454  17.223 -0.3820  0.1320 -1.4837
 7896SOL     OW35149   1.699   2.785   8.656  0.7350 -0.2351  0.0371
 7896SOL    HW135150   1.763   2.736   8.709  2.1419  1.4931 -0.0814
 7896SOL    HW235151   1.658   2.709   8.615 -1.9860  0.9951  0.4462
 7897SOL     OW35152   0.983   3.394   7.889 -0.2648  0.3214 -0.3861
 7897SOL    HW135153   1.033   3.394   7.807  1.2148 -0.7294  0.5124
 7897SOL    HW235154   0.912   3.455   7.867  0.7625  1.7003  0.1029
 7898SOL     OW35155   1.414   0.891   6.173 -0.5143 -0.3677 -0.5288
 7898SOL    HW135156   1.432   0.803   6.142 -0.9672 -0.1813 -1.3301
 7898SOL    HW235157   1.408   0.937   6.089  1.5815  0.2181 -0.3588
 7899SOL     OW35158   2.069   4.473   4.153 -0.1067 -0.3806 -0.0467
 7899SOL    HW135159   2.074   4.566   4.178 -0.3874 -0.7070  1.2020
 7899SOL    HW235160   2.144   4.447   4.206 -1.5326 -1.2198  1.5532
 7900SOL     OW35161   2.762   2.660  15.510  0.3506  0.3442 -0.4407
 7900SOL    HW135162   2.841   2.677  15.562 -0.8082  1.8079  0.8338
 7900SOL    HW235163   2.797   2.680  15.423  1.0872 -1.7855 -0.6573
 7901SOL     OW35164   0.425   3.513   4.768 -0.5630 -0.4671  0.0209
 7901SOL    HW135165   0.460   3.600   4.749 -2.8534  0.2514 -0.9459
 7901SOL    HW235166   0.355   3.541   4.827 -0.4288  1.4028 -0.6947
 7902SOL     OW35167   2.880   2.263   3.174 -0.4403  0.2767 -0.5944
 7902SOL    HW135168   2.915   2.221   3.096 -1.8422  1.5077 -1.8689
 7902SOL    HW235169   2.841   2.188   3.219 -0.2567  0.5404  0.0116
 7903SOL     OW35170   1.805   3.420  13.054  0.3496 -0.3752  0.5025
 7903SOL    HW135171   1.900   3.430  13.066  0.7743 -2.2291 -1.3352
 7903SOL    HW235172   1.798   3.398  12.961 -1.3376  0.1578  0.5140
 7904SOL     OW35173   2.533   3.998   8.522 -0.1217  0.2041  0.0311
 7904SOL    HW135174   2.529   3.966   8.432  1.7678 -3.4064  1.2524
 7904SOL    HW235175   2.556   4.089   8.506 -1.1326  0.9434  2.8332
 7905SOL     OW35176   1.713   1.636   4.103  0.1080  0.2798 -0.0363
 7905SOL    HW135177   1.804   1.608   4.102  0.1240  0.3426 -0.5274
 7905SOL    HW235178   1.666   1.554   4.118 -2.8812  1.8067 -0.9880
 7906SOL     OW35179   2.382   4.215   7.546 -0.0780  0.1442 -1.0971
 7906SOL    HW135180   2.455   4.153   7.542  0.4753  0.5939  1.6859
 7906SOL    HW235181   2.378   4.248   7.457  2.1126  1.0079 -0.8746
 7907SOL     OW35182   3.918   0.763   6.614 -0.4037 -0.0609  0.3015
 7907SOL    HW135183   3.871   0.681   6.603  0.0712 -0.6637  2.7016
 7907SOL    HW235184   3.969   0.740   6.692  0.0275  0.8502  0.2956
 7908SOL     OW35185   1.089   0.974  13.834  0.6901 -0.3473 -0.1512
 7908SOL    HW135186   1.026   0.978  13.907  0.7904  1.3757 -0.1458
 7908SOL    HW235187   1.144   0.898  13.851 -0.1818 -1.2434 -1.3879
 7909SOL     OW35188   2.921   1.463   4.088  0.0852 -0.4224 -0.1086
 7909SOL    HW135189   2.893   1.438   4.176 -1.8685  0.2891 -0.5270
 7909SOL    HW235190   3.015   1.477   4.105  0.0049 -0.5037  0.4018
 7910SOL     OW35191   0.287   2.320  15.871 -0.0061  0.4974  0.7342
 7910SOL    HW135192   0.200   2.324  15.833 -0.7589  0.4530  2.4538
 7910SOL    HW235193   0.340   2.309  15.792 -0.1546  1.6930  0.4610
 7911SOL     OW35194   0.053   3.013  17.615 -0.2908  0.2490  0.0357
 7911SOL    HW135195   0.043   2.919  17.627  0.2769  0.5737  2.8863
 7911SOL    HW235196   0.047   3.018  17.519 -3.2758 -2.0115  0.0950
 7912SOL     OW35197   4.469   3.851   4.240  0.8492 -0.3608  0.0630
 7912SOL    HW135198   4.520   3.770   4.237 -2.2711 -2.2909 -0.8075
 7912SOL    HW235199   4.396   3.810   4.287  0.3171 -0.1845 -0.6198
 7913SOL     OW35200   1.228   0.914   3.095 -0.0351 -0.0449 -0.0548
 7913SOL    HW135201   1.190   0.837   3.053 -2.3639  0.8735  0.3830
 7913SOL    HW235202   1.296   0.881   3.155  1.2263  1.2003 -0.8033
 7914SOL     OW35203   3.773   4.522   2.489  0.0195  0.3109  0.2818
 7914SOL    HW135204   3.757   4.461   2.561  2.7488 -1.6125 -0.7464
 7914SOL    HW235205   3.840   4.582   2.522 -0.3263 -0.0086  1.5645
 7915SOL     OW35206   4.598   2.513  10.909 -0.3231  0.1490 -0.4366
 7915SOL    HW135207   4.557   2.590  10.947 -0.6989 -0.9159  1.3777
 7915SOL    HW235208   4.678   2.553  10.876  0.2882 -0.7324 -0.0370
 7916SOL     OW35209   4.531   4.721   1.712 -0.4216 -0.0284 -0.2744
 7916SOL    HW135210   4.472   4.695   1.783 -0.0044 -2.4981 -0.8339
 7916SOL    HW235211   4.475   4.714   1.634 -1.4450  1.6461  0.3068
 7917SOL     OW35212   2.324   2.437   6.863 -0.2810 -0.1304 -0.2427
 7917SOL    HW135213   2.255   2.417   6.926  1.5861 -1.7223  1.3008
 7917SOL    HW235214   2.382   2.496   6.911 -0.3819  0.0443 -0.3357
 7918SOL     OW35215   2.180   1.346  15.211 -0.6261  0.6504  0.6404
 7918SOL    HW135216   2.173   1.419  15.273  2.4747  0.3522  1.3391
 7918SOL    HW235217   2.175   1.392  15.127  3.0324 -2.7598 -1.4365
 7919SOL     OW35218   1.349   4.087   0.368 -0.4539 -0.0963  0.1024
 7919SOL    HW135219   1.430   4.137   0.350 -0.6761  0.2956  0.1867
 7919SOL    HW235220   1.369   4.057   0.456  3.1590 -0.2486 -0.7536
 7920SOL     OW35221   0.548   2.461   8.961  0.6756  0.0532 -0.6486
 7920SOL    HW135222   0.457   2.448   8.987  1.2027 -0.3033  1.0133
 7920SOL    HW235223   0.565   2.535   9.020 -1.3575  0.4810 -0.6233
 7921SOL     OW35224   1.015   0.214   2.783  0.0776 -0.7877 -0.1442
 7921SOL    HW135225   1.010   0.297   2.734 -0.3732 -0.4319  0.4979
 7921SOL    HW235226   0.958   0.227   2.858 -1.0123 -0.3615 -1.0401
 7922SOL     OW35227   4.070   1.251   3.766 -0.7789 -0.0544 -0.1298
 7922SOL    HW135228   3.978   1.240   3.790 -0.9931  0.8514 -0.5268
 7922SOL    HW235229   4.104   1.303   3.839 -0.5088  0.8626 -0.9111
 7923SOL     OW35230   4.632   4.684   5.651 -0.1299 -0.4642  0.0451
 7923SOL    HW135231   4.636   4.590   5.630  0.7399 -0.1347 -1.2615
 7923SOL    HW235232   4.552   4.706   5.603 -1.0201 -0.8333  1.3842
 7924SOL     OW35233   2.644   2.615   5.207 -0.1589 -0.2979 -0.0414
 7924SOL    HW135234   2.734   2.593   5.231 -0.1763 -0.2320  0.0861
 7924SOL    HW235235   2.647   2.711   5.206 -0.7642 -0.2352  3.0642
 7925SOL     OW35236   0.795   4.546   8.112  0.0542  0.2595  0.3475
 7925SOL    HW135237   0.807   4.558   8.206  1.0116  0.3976  0.2058
 7925SOL    HW235238   0.750   4.463   8.097  0.2395  0.4183 -1.0819
 7926SOL     OW35239   2.739   0.549   5.306 -0.0399  0.4540 -0.1887
 7926SOL    HW135240   2.717   0.492   5.232  1.2748  1.6463 -1.4994
 7926SOL    HW235241   2.792   0.493   5.362 -0.3166  0.3249 -0.0570
 7927SOL     OW35242   0.863   1.791   4.119 -0.3400 -0.2018  0.0730
 7927SOL    HW135243   0.958   1.783   4.116 -0.3950 -1.2053  0.8520
 7927SOL    HW235244   0.844   1.698   4.125 -0.1586 -0.0777  2.6377
 7928SOL     OW35245   0.451   2.791   8.133 -0.2281  0.0398 -0.2725
 7928SOL    HW135246   0.515   2.792   8.204  1.6202 -0.5182 -1.9468
 7928SOL    HW235247   0.488   2.863   8.082 -0.7978  0.8419  0.4489
 7929SOL     OW35248   2.879   4.595   1.416 -0.1448  0.6478 -0.9394
 7929SOL    HW135249   2.959   4.645   1.437 -1.2316  2.1073 -0.2730
 7929SOL    HW235250   2.901   4.571   1.327  3.1244 -0.0127  0.0319
 7930SOL     OW35251   0.288   2.374   6.882 -0.0874 -0.1001 -0.1503
 7930SOL    HW135252   0.231   2.301   6.858  1.1240 -1.9623  2.6370
 7930SOL    HW235253   0.307   2.350   6.972  1.5472  2.1959  0.1164
 7931SOL     OW35254   0.045   4.590   1.981  0.0819 -0.1457 -0.2304
 7931SOL    HW135255   4.674   4.616   1.980 -0.0886 -0.6253  2.2268
 7931SOL    HW235256   0.075   4.610   1.892  2.2650  0.2509  0.5856
 7932SOL     OW35257   0.099   1.896   5.646 -0.4586  0.4593 -0.8768
 7932SOL    HW135258   0.102   1.802   5.660  2.7931  1.1455  2.9062
 7932SOL    HW235259   0.169   1.932   5.700  0.4797 -0.6420 -1.3818
 7933SOL     OW35260   4.713   0.058   7.053 -0.2879 -0.2096  0.0945
 7933SOL    HW135261   0.029   0.006   7.124 -0.0638 -0.3362 -0.1175
 7933SOL    HW235262   4.619   0.052   7.071 -0.4353  0.8725 -0.2878
 7934SOL     OW35263   3.702   3.414   8.204  1.0018  0.2283 -0.1456
 7934SOL    HW135264   3.685   3.321   8.217  1.6522  0.0269 -0.7532
 7934SOL    HW235265   3.746   3.435   8.286 -0.1205  0.7571  0.3174
 7935SOL     OW35266   2.762   1.968   8.504  0.1328 -0.1462  0.1355
 7935SOL    HW135267   2.775   1.991   8.412  0.9714  0.2711  0.3667
 7935SOL    HW235268   2.809   1.885   8.517  1.8556  0.6101 -1.3461
 7936SOL     OW35269   1.546   4.346   7.550 -0.4724 -0.0229 -0.2104
 7936SOL    HW135270   1.626   4.296   7.531  0.3376  1.3297 -0.3525
 7936SOL    HW235271   1.504   4.293   7.618  1.5310  0.4611  1.3994
 7937SOL     OW35272   2.019   1.979   9.454 -0.0665 -0.1206  0.2095
 7937SOL    HW135273   2.087   2.026   9.504  1.3865  1.0693 -2.9108
 7937SOL    HW235274   2.007   2.035   9.378 -0.5562 -0.9149 -0.2917
 7938SOL     OW35275   0.877   1.996   5.856 -0.4779  0.4329 -0.3537
 7938SOL    HW135276   0.925   2.071   5.890 -1.1230  1.8566 -2.5769
 7938SOL    HW235277   0.927   1.991   5.775 -0.3516 -0.0641 -0.2434
 7939SOL     OW35278   4.716   3.389   7.451 -0.4213  0.2449  0.1619
 7939SOL    HW135279   4.702   3.361   7.542  0.2581  1.2319  0.5657
 7939SOL    HW235280   0.030   3.310   7.412  0.8690 -0.4850  2.7988
 7940SOL     OW35281   0.219   0.826  16.732  0.2880 -0.7266 -0.5116
 7940SOL    HW135282   0.203   0.812  16.826 -0.1174 -1.0939 -0.6347
 7940SOL    HW235283   0.256   0.914  16.738 -0.4310 -0.5684  1.8754
 7941SOL     OW35284   0.071   3.391   8.602  0.0523  0.0079  0.3510
 7941SOL    HW135285   0.020   3.472   8.610 -0.4653 -0.4165  1.3984
 7941SOL    HW235286   0.019   3.340   8.664  0.4374  0.7743  1.2903
 7942SOL     OW35287   2.797   0.926  11.405 -0.1027 -0.1796 -0.3806
 7942SOL    HW135288   2.714   0.972  11.420 -1.0896 -1.2841 -2.3811
 7942SOL    HW235289   2.770   0.892  11.319  0.0219  0.9296 -0.8598
 7943SOL     OW35290   0.005   2.995   3.627  0.1795 -0.0837 -0.1577
 7943SOL    HW135291   0.020   3.012   3.534 -0.5454 -0.6811 -0.3785
 7943SOL    HW235292   4.703   2.902   3.629  1.7005 -0.5463 -2.9978
 7944SOL     OW35293   2.725   3.859   1.654  0.3692 -0.5804  0.1638
 7944SOL    HW135294   2.706   3.952   1.639 -0.4155 -0.9719 -1.2507
 7944SOL    HW235295   2.642   3.828   1.690 -0.3532 -0.2063 -1.1575
 7945SOL     OW35296   1.782   2.287  16.065  0.0801  0.1886 -0.0452
 7945SOL    HW135297   1.827   2.323  15.988  2.4579  1.3664  1.8664
 7945SOL    HW235298   1.866   2.256  16.101  0.5257  1.3083 -0.1105
 7946SOL     OW35299   0.236   3.895   7.709 -0.1124  0.0293 -0.3985
 7946SOL    HW135300   0.242   3.984   7.674 -1.0071  0.0104 -0.6089
 7946SOL    HW235301   0.307   3.903   7.773 -0.0793  0.3111 -0.4676
 7947SOL     OW35302   1.808   2.975  17.093  0.0765 -0.1823  0.0962
 7947SOL    HW135303   1.728   2.953  17.045 -0.2640  3.3156 -0.9703
 7947SOL    HW235304   1.817   2.913  17.165 -0.1206 -0.5999 -0.2380
 7948SOL     OW35305   2.300   4.063   3.971 -1.0759  0.0598 -0.0858
 7948SOL    HW135306   2.309   4.083   3.878  1.6583 -1.0230 -0.0660
 7948SOL    HW235307   2.352   4.130   4.015 -3.0289  1.6024 -0.1401
 7949SOL     OW35308   1.203   0.190   2.121  0.4538 -0.5670 -0.2047
 7949SOL    HW135309   1.197   0.283   2.100 -1.2267 -1.0317 -1.6779
 7949SOL    HW235310   1.123   0.167   2.074 -0.5763  1.5049  0.5545
 7950SOL     OW35311   3.203   1.458   2.187 -0.2103  0.0814  0.0555
 7950SOL    HW135312   3.285   1.505   2.200  0.7325 -1.1354 -1.3967
 7950SOL    HW235313   3.232   1.406   2.111  0.2561  0.8759 -0.3045
 7951SOL     OW35314   1.037   0.998   0.866  0.0970 -0.3347 -0.1758
 7951SOL    HW135315   0.977   1.022   0.796  0.5993 -2.5014 -1.3450
 7951SOL    HW235316   1.066   1.087   0.887 -1.8486 -0.2201  2.0107
 7952SOL     OW35317   2.599   1.684   3.432 -0.0632 -0.4447 -0.1888
 7952SOL    HW135318   2.683   1.693   3.479 -0.7914  1.0582  0.8168
 7952SOL    HW235319   2.624   1.620   3.365  1.0914 -0.3555  0.1594
 7953SOL     OW35320   2.603   3.239   2.755  0.0403 -0.1993  0.5070
 7953SOL    HW135321   2.535   3.209   2.815 -1.2978  0.1078 -0.8429
 7953SOL    HW235322   2.649   3.157   2.739 -0.4341 -0.4601  0.4895
 7954SOL     OW35323   1.006   0.581   6.787 -0.2580 -0.4820  0.2627
 7954SOL    HW135324   1.002   0.673   6.812 -3.4205 -0.3128 -1.0120
 7954SOL    HW235325   1.073   0.557   6.852  1.1517  2.3385 -0.1361
 7955SOL     OW35326   3.861   3.209  10.718  0.4017 -0.0284 -0.0044
 7955SOL    HW135327   3.819   3.290  10.687 -0.4711 -0.0441  1.1259
 7955SOL    HW235328   3.887   3.240  10.805 -0.9296 -1.9991  1.0860
 7956SOL     OW35329   3.061   1.878   1.207 -0.2360  0.6716 -0.3002
 7956SOL    HW135330   3.115   1.807   1.241 -2.1923 -0.6325  0.0699
 7956SOL    HW235331   3.129   1.922   1.156  0.9922 -0.5812  0.2819
 7957SOL     OW35332   4.493   3.058  12.087 -0.3746 -0.0301  0.1045
 7957SOL    HW135333   4.585   3.041  12.069  0.2721 -0.3347  3.6230
 7957SOL    HW235334   4.479   3.144  12.047 -2.2098 -0.7745 -0.8642
 7958SOL     OW35335   2.758   2.648  15.224  0.2742  0.4481 -0.4164
 7958SOL    HW135336   2.830   2.611  15.173 -0.4685  0.3196 -1.3875
 7958SOL    HW235337   2.778   2.741  15.237  2.6882 -0.5802  2.9193
 7959SOL     OW35338   0.180   0.080  14.826 -0.5608 -0.1916  0.3018
 7959SOL    HW135339   0.129   0.004  14.855  1.1013 -0.3311  2.8382
 7959SOL    HW235340   0.127   0.113  14.753 -0.0146 -3.0084 -1.4073
 7960SOL     OW35341   4.161   3.871  17.261  0.1568  0.0915  0.6070
 7960SOL    HW135342   4.198   3.835  17.342  1.9467 -0.2901 -0.3785
 7960SOL    HW235343   4.177   3.798  17.201 -0.2159  0.1152  0.4809
 7961SOL     OW35344   0.064   2.652   1.782  0.5598  0.0539 -0.1364
 7961SOL    HW135345   0.009   2.673   1.857  0.3721 -0.1652 -0.2106
 7961SOL    HW235346   0.071   2.557   1.796 -0.6242  0.0885  0.7261
 7962SOL     OW35347   1.201   0.470  10.676  0.6863 -0.7503  0.3846
 7962SOL    HW135348   1.112   0.455  10.646  1.2878  0.7154 -2.2090
 7962SOL    HW235349   1.181   0.505  10.762  1.8540 -2.7841  1.4802
 7963SOL     OW35350   1.239   2.226  16.246 -0.1631  0.7107  0.2238
 7963SOL    HW135351   1.254   2.143  16.291 -1.1228  0.4216  0.0139
 7963SOL    HW235352   1.308   2.279  16.286 -1.1682  0.6428  2.0454
 7964SOL     OW35353   2.255   2.850  15.912 -0.3983 -0.8798 -0.0887
 7964SOL    HW135354   2.192   2.921  15.922  1.0170  0.0215  2.6004
 7964SOL    HW235355   2.311   2.874  15.839 -1.0990  1.1314  0.0301
 7965SOL     OW35356   0.579   0.251   5.435 -0.2862  0.3724  0.3855
 7965SOL    HW135357   0.562   0.205   5.352  1.0650 -1.1632  0.9564
 7965SOL    HW235358   0.537   0.335   5.419 -1.9786 -0.3924  0.7542
 7966SOL     OW35359   1.485   4.020   1.678  0.6117  0.5704 -0.2579
 7966SOL    HW135360   1.492   4.103   1.632  1.1857  0.4748 -0.3415
 7966SOL    HW235361   1.492   3.949   1.614  0.8626 -1.1491  1.6652
 7967SOL     OW35362   1.255   1.087   6.290  0.2604  0.1609 -1.0208
 7967SOL    HW135363   1.328   1.095   6.352  0.4197 -0.1214 -1.1733
 7967SOL    HW235364   1.287   1.002   6.262  1.0224 -0.1151  0.6946
 7968SOL     OW35365   2.531   2.146   0.824  0.4188 -0.1304 -0.1559
 7968SOL    HW135366   2.439   2.171   0.830  0.5857  0.1530  1.0582
 7968SOL    HW235367   2.539   2.175   0.733 -3.4516 -1.9406 -1.0784
 7969SOL     OW35368   4.229   1.227  13.676 -0.4383  0.2830 -0.6805
 7969SOL    HW135369   4.154   1.217  13.734 -0.8640  1.0448 -1.0964
 7969SOL    HW235370   4.300   1.237  13.740  0.3266  0.2003 -1.5124
 7970SOL     OW35371   3.492   1.421   1.958  0.8737  0.2415  0.2791
 7970SOL    HW135372   3.432   1.348   1.953  0.2045  0.9690 -2.2953
 7970SOL    HW235373   3.440   1.482   1.906 -1.2629 -0.0745  2.0734
 7971SOL     OW35374   0.054   1.851   0.480  0.4429 -0.2888  0.5121
 7971SOL    HW135375   0.049   1.757   0.496  1.4058 -0.6036 -1.0164
 7971SOL    HW235376   0.148   1.859   0.465  0.4067  0.6210  0.7447
 7972SOL     OW35377   1.872   2.769  16.093 -0.3893  0.2825 -0.3871
 7972SOL    HW135378   1.848   2.826  16.166 -0.9058  0.8287 -0.9800
 7972SOL    HW235379   1.836   2.685  16.119 -0.0468  0.2864  0.0938
 7973SOL     OW35380   0.275   0.570   1.138 -0.4303 -0.0695 -0.1864
 7973SOL    HW135381   0.335   0.530   1.075  0.8353  1.9251 -0.2572
 7973SOL    HW235382   0.264   0.500   1.202 -1.9557  0.4462  0.0950
 7974SOL     OW35383   4.628   3.638   6.737 -0.0169  0.0219  0.0925
 7974SOL    HW135384   4.555   3.680   6.692  1.0797  1.3425 -0.4718
 7974SOL    HW235385   4.616   3.555   6.692 -0.2685 -0.0951  0.3833
 7975SOL     OW35386   1.117   0.475  10.971 -0.2138  0.9325 -0.3862
 7975SOL    HW135387   1.113   0.382  10.992  0.1493  0.7356 -1.1604
 7975SOL    HW235388   1.143   0.517  11.053  0.5095 -1.6216  0.6777
 7976SOL     OW35389   1.645   2.944   3.192  0.3186  0.1740 -0.5141
 7976SOL    HW135390   1.580   2.986   3.135  0.7573  3.0007  1.0412
 7976SOL    HW235391   1.630   2.972   3.282  0.3217  0.2807 -0.5466
 7977SOL     OW35392   0.446   2.191  15.685  0.6732 -0.3068  0.2437
 7977SOL    HW135393   0.503   2.175  15.760  0.2460 -2.7501  0.0776
 7977SOL    HW235394   0.470   2.109  15.641 -1.8515  0.2855 -2.2321
 7978SOL     OW35395   2.683   1.962  11.863  0.6717  0.6663 -0.0742
 7978SOL    HW135396   2.767   1.939  11.902  1.0331 -2.1918 -2.5266
 7978SOL    HW235397   2.713   2.002  11.782 -1.3208  0.8297 -0.7413
 7979SOL     OW35398   3.436   1.180   0.125 -0.1183  0.2032 -0.1284
 7979SOL    HW135399   3.497   1.174   0.199 -0.3639  2.0973  0.2129
 7979SOL    HW235400   3.447   1.271   0.098  0.0535  0.5370  1.0826
 7980SOL     OW35401   4.615   1.253  10.287 -0.0080 -0.4194 -0.0004
 7980SOL    HW135402   4.553   1.292  10.226  0.8275  0.0210 -0.5642
 7980SOL    HW235403   4.652   1.327  10.335 -3.8857  1.7641 -0.4345
 7981SOL     OW35404   4.615   3.357   1.208 -0.3967  0.5592  0.4906
 7981SOL    HW135405   4.615   3.370   1.302 -3.5939 -1.2746  0.7426
 7981SOL    HW235406   4.595   3.265   1.190  1.1783 -0.2237  2.8484
 7982SOL     OW35407   0.072   3.327  11.026  0.1191 -0.0428 -0.3183
 7982SOL    HW135408   0.146   3.338  10.967 -1.0215 -1.5343 -2.0257
 7982SOL    HW235409   0.003   3.354  10.965  0.1950  0.3775 -0.2179
 7983SOL     OW35410   4.447   3.237   8.160  0.5660 -0.1012  0.1316
 7983SOL    HW135411   4.489   3.219   8.075 -0.1203 -1.3833  0.0601
 7983SOL    HW235412   4.360   3.212   8.129  0.1612 -0.5413  1.6017
 7984SOL     OW35413   0.720   3.858   3.293 -0.0844 -0.8536  0.4262
 7984SOL    HW135414   0.672   3.941   3.296  0.4775 -0.5193  0.1505
 7984SOL    HW235415   0.792   3.875   3.233 -0.8977  2.2574  0.3408
 7985SOL     OW35416   3.241   2.680   6.759  0.3669 -0.0077  0.1082
 7985SOL    HW135417   3.160   2.628   6.762  0.3453  0.0069 -0.1788
 7985SOL    HW235418   3.243   2.704   6.666  1.8811 -0.1969  0.0998
 7986SOL     OW35419   3.676   2.941  16.925 -0.4611  0.5196 -0.3830
 7986SOL    HW135420   3.600   2.988  16.891 -0.9844  1.0184  1.4891
 7986SOL    HW235421   3.693   2.985  17.008  0.5855 -0.5188 -0.0411
 7987SOL     OW35422   3.224   4.336   2.552  0.2099 -0.3713 -0.2597
 7987SOL    HW135423   3.264   4.360   2.635 -2.6943  0.7884  0.8157
 7987SOL    HW235424   3.242   4.417   2.506  1.0198 -0.4644 -0.1060
 7988SOL     OW35425   1.602   4.298  13.045  0.0574 -0.0123  0.1675
 7988SOL    HW135426   1.530   4.336  13.094 -0.5779 -0.3226 -0.5252
 7988SOL    HW235427   1.672   4.336  13.099  1.3892 -1.9060 -0.2399
 7989SOL     OW35428   0.920   2.126   9.538 -0.2656  0.3817  0.0849
 7989SOL    HW135429   0.978   2.176   9.595 -0.1226  2.8125 -2.1891
 7989SOL    HW235430   0.867   2.192   9.493  1.6472  1.2887 -0.8128
 7990SOL     OW35431   4.009   3.477   3.037  0.3482 -0.7887 -0.0333
 7990SOL    HW135432   3.936   3.450   3.093  1.0154 -1.1090  0.6886
 7990SOL    HW235433   3.992   3.571   3.041  1.4320 -0.6906  2.2748
 7991SOL     OW35434   1.696   2.558  10.642  0.2094  0.1120  0.0030
 7991SOL    HW135435   1.717   2.468  10.614  1.9028  0.8305 -1.0454
 7991SOL    HW235436   1.730   2.556  10.732 -0.1167  2.2180  0.1663
 7992SOL     OW35437   1.419   2.277   8.317 -0.1807  0.3020 -0.1292
 7992SOL    HW135438   1.389   2.190   8.291 -0.7824  0.6704 -0.6756
 7992SOL    HW235439   1.344   2.334   8.301 -0.8986 -0.0593  2.0201
 7993SOL     OW35440   3.111   2.129   2.493 -0.4472 -0.2925 -0.7001
 7993SOL    HW135441   3.028   2.082   2.490 -0.2402 -0.6096 -1.4582
 7993SOL    HW235442   3.104   2.173   2.408  0.6828 -0.8457 -1.0769
 7994SOL     OW35443   0.811   0.689  14.791  0.2882 -0.2341 -0.6048
 7994SOL    HW135444   0.818   0.638  14.872 -0.7429  2.2351  1.0203
 7994SOL    HW235445   0.753   0.761  14.814 -0.1632 -0.1050 -2.1854
 7995SOL     OW35446   2.108   0.665  16.762  0.3947 -0.2418 -0.4032
 7995SOL    HW135447   2.026   0.618  16.776 -0.8216  1.6983 -0.9611
 7995SOL    HW235448   2.088   0.755  16.790 -0.2384 -0.7422  0.7790
 7996SOL     OW35449   3.755   3.468  12.746  0.4526  0.1494 -0.9905
 7996SOL    HW135450   3.734   3.531  12.676  2.3142 -0.2657 -1.9224
 7996SOL    HW235451   3.748   3.392  12.688 -0.4206 -0.1821 -0.4526
 7997SOL     OW35452   1.986   3.726  10.706 -0.9036 -0.4260  0.4501
 7997SOL    HW135453   1.982   3.770  10.790 -0.0317 -1.1677  0.8814
 7997SOL    HW235454   2.065   3.767  10.670 -1.6346  0.5864  0.0049
 7998SOL     OW35455   2.035   0.819   8.324 -0.0596 -0.0513 -0.6391
 7998SOL    HW135456   2.087   0.876   8.268  1.2749  0.7564  1.4215
 7998SOL    HW235457   2.052   0.736   8.280 -1.1360 -0.3591 -0.4742
 7999SOL     OW35458   1.822   3.443   8.151 -0.0573  0.1300 -0.7685
 7999SOL    HW135459   1.832   3.501   8.226  0.9099 -1.7650  0.5984
 7999SOL    HW235460   1.850   3.502   8.081 -1.1191  1.5385  0.0093
 8000SOL     OW35461   2.069   3.797   9.127 -0.1832 -0.4733  0.2193
 8000SOL    HW135462   2.131   3.859   9.089 -0.7866 -2.2463 -3.6043
 8000SOL    HW235463   2.124   3.721   9.145 -2.7074 -2.3466 -0.0192
 8001SOL     OW35464   0.794   1.382  16.910 -0.1861 -0.0888 -0.1006
 8001SOL    HW135465   0.754   1.429  16.837 -1.8435 -2.4095 -0.6978
 8001SOL    HW235466   0.728   1.372  16.977 -0.9867 -1.7473 -1.1476
 8002SOL     OW35467   3.909   2.676   3.467 -0.0379 -0.3806  0.3602
 8002SOL    HW135468   3.900   2.667   3.373  1.0156 -0.2934  0.2533
 8002SOL    HW235469   3.959   2.603   3.503 -0.1958  0.0187  1.3938
 8003SOL     OW35470   4.137   3.196   0.423 -0.1693 -0.3627 -0.3870
 8003SOL    HW135471   4.073   3.229   0.486 -0.2483  3.8557 -2.7059
 8003SOL    HW235472   4.092   3.115   0.401 -0.7482  0.1072 -0.9263
 8004SOL     OW35473   3.820   3.621   8.405  0.4649  0.1983  0.4475
 8004SOL    HW135474   3.907   3.606   8.369 -0.8922 -1.3976 -2.2053
 8004SOL    HW235475   3.825   3.598   8.498  0.2332  1.1251  0.6919
 8005SOL     OW35476   3.423   3.763   5.978  0.1208  0.0027 -0.6059
 8005SOL    HW135477   3.440   3.686   6.032 -4.3565  1.2599  2.5856
 8005SOL    HW235478   3.463   3.832   6.031 -3.0875  0.6798  0.8909
 8006SOL     OW35479   4.364   0.217   6.686 -0.5144 -0.2131 -0.7232
 8006SOL    HW135480   4.437   0.225   6.747 -1.5210  3.0775  0.0141
 8006SOL    HW235481   4.407   0.154   6.628  0.8424  0.7222 -0.7466
 8007SOL     OW35482   0.878   3.802   5.277  0.2240 -0.1021  0.5807
 8007SOL    HW135483   0.805   3.750   5.311 -0.9553  1.8252  0.9788
 8007SOL    HW235484   0.823   3.869   5.235  0.2846 -1.2565 -1.3810
 8008SOL     OW35485   1.285   4.540   5.263 -0.2398  0.2994 -0.2086
 8008SOL    HW135486   1.336   4.619   5.246 -2.0069  1.5243  0.2437
 8008SOL    HW235487   1.355   4.475   5.264  0.3818  0.9575 -0.4007
 8009SOL     OW35488   4.245   1.237   4.379  0.2090  0.0079 -0.1651
 8009SOL    HW135489   4.238   1.237   4.474  2.5841  2.8274 -0.0025
 8009SOL    HW235490   4.340   1.246   4.378  0.2907 -0.8902 -0.6061
 8010SOL     OW35491   4.696   3.687  14.191  0.8580  0.4917  0.1266
 8010SOL    HW135492   4.685   3.709  14.283 -1.9776 -0.4377  0.0255
 8010SOL    HW235493   0.026   3.606  14.193  0.9404  0.5614  0.7471
 8011SOL     OW35494   0.319   3.526   3.462 -0.4040  0.2420 -0.4489
 8011SOL    HW135495   0.403   3.569   3.472  0.9823 -2.7219  0.7788
 8011SOL    HW235496   0.274   3.585   3.523  0.9975  1.5249 -0.6630
 8012SOL     OW35497   0.306   0.084   2.530  0.4974  0.5628  0.2269
 8012SOL    HW135498   0.252   0.018   2.488  0.6740  0.6215 -0.0880
 8012SOL    HW235499   0.263   0.087   2.615  1.8265 -2.3213  1.0168
 8013SOL     OW35500   3.535   0.104   4.508  0.0174 -0.0250 -0.1538
 8013SOL    HW135501   3.544   0.011   4.527  2.8806  0.3720  0.4923
 8013SOL    HW235502   3.543   0.108   4.412  0.9454  1.6857 -0.0059
 8014SOL     OW35503   4.564   0.073   8.898  0.0075  0.1638 -0.3996
 8014SOL    HW135504   4.562   0.101   8.807  1.3329 -0.5472 -0.6429
 8014SOL    HW235505   4.533   4.704   8.893 -1.3985  0.6853 -1.1125
 8015SOL     OW35506   4.268   1.362   1.702  0.1800 -0.0754  0.4324
 8015SOL    HW135507   4.331   1.433   1.710  0.2459 -0.0955  0.1141
 8015SOL    HW235508   4.216   1.390   1.626 -0.3466  0.8372  1.1326
 8016SOL     OW35509   1.434   2.602   7.731  0.2836  0.6119 -0.0998
 8016SOL    HW135510   1.434   2.509   7.754 -2.4698 -0.1741 -3.2654
 8016SOL    HW235511   1.402   2.600   7.641  0.7472 -1.2087 -0.2262
 8017SOL     OW35512   1.320   0.721   1.782  0.2906 -0.0462 -0.3997
 8017SOL    HW135513   1.312   0.644   1.726  1.4951  0.8576 -1.8129
 8017SOL    HW235514   1.236   0.719   1.827 -0.0305  0.9783 -0.9453
 8018SOL     OW35515   3.294   1.605   5.151 -0.6380  0.4976 -0.1895
 8018SOL    HW135516   3.228   1.646   5.208 -0.8336  0.7064 -0.5714
 8018SOL    HW235517   3.263   1.516   5.134 -0.0798  0.1905  0.3737
 8019SOL     OW35518   3.165   2.144   5.179 -0.4614 -0.0206  0.2999
 8019SOL    HW135519   3.107   2.188   5.240 -0.3204  0.1133  0.3397
 8019SOL    HW235520   3.168   2.205   5.105 -2.3228  1.8851  1.8065
 8020SOL     OW35521   4.253   2.443  11.270 -0.5992 -0.0886  0.4950
 8020SOL    HW135522   4.348   2.447  11.278 -0.4553 -2.0021 -0.2189
 8020SOL    HW235523   4.244   2.349  11.255 -1.5083  0.3155 -1.5355
 8021SOL     OW35524   0.310   2.119  16.926 -0.6692  0.7999  0.0469
 8021SOL    HW135525   0.285   2.168  16.847  1.8571  0.3773 -0.9923
 8021SOL    HW235526   0.377   2.061  16.890 -1.4860 -0.8431  1.2014
 8022SOL     OW35527   0.256   0.676   2.076  0.1548  0.1909 -0.1014
 8022SOL    HW135528   0.234   0.678   1.983  1.2989 -1.0738 -0.3980
 8022SOL    HW235529   0.168   0.672   2.113 -0.2903  0.3792 -1.1397
 8023SOL     OW35530   3.039   2.029   4.174  0.1214 -0.0521 -0.3972
 8023SOL    HW135531   3.094   2.096   4.216  1.3920 -1.7506  0.6316
 8023SOL    HW235532   3.099   1.992   4.109 -1.0816 -3.3364  0.4095
 8024SOL     OW35533   3.577   1.921  16.469 -0.2352  0.2167 -0.3259
 8024SOL    HW135534   3.558   1.956  16.556  1.5271 -1.5210  0.7430
 8024SOL    HW235535   3.499   1.871  16.448 -0.1272 -0.0609 -0.0716
 8025SOL     OW35536   2.257   0.923   9.684  0.1566 -0.0209  0.1206
 8025SOL    HW135537   2.346   0.918   9.719  0.8110 -0.0224 -1.5376
 8025SOL    HW235538   2.225   0.835   9.702 -1.4061  0.4919 -0.1630
 8026SOL     OW35539   3.438   3.289   2.435 -0.0572  0.2119 -0.8308
 8026SOL    HW135540   3.457   3.340   2.356  1.7679  2.5280  1.0624
 8026SOL    HW235541   3.396   3.214   2.394 -1.2229  0.1673  0.4414
 8027SOL     OW35542   0.427   0.666   6.448  0.0340 -0.3439 -0.0371
 8027SOL    HW135543   0.479   0.647   6.370 -0.9120 -2.1879 -0.2351
 8027SOL    HW235544   0.481   0.720   6.506 -0.9527 -1.2144  1.7296
 8028SOL     OW35545   1.176   2.150   4.707  0.1366  0.2691  0.4018
 8028SOL    HW135546   1.259   2.122   4.668 -0.4369 -2.1036  0.9006
 8028SOL    HW235547   1.159   2.227   4.652  0.3735  0.8044  1.0709
 8029SOL     OW35548   2.498   3.587   8.239 -0.1219 -0.0790  0.2589
 8029SOL    HW135549   2.414   3.584   8.193  1.2515 -3.5434 -2.0067
 8029SOL    HW235550   2.501   3.679   8.267  0.8173  0.4291 -1.5573
 8030SOL     OW35551   0.242   1.755   4.697 -0.4383  0.2339 -0.3868
 8030SOL    HW135552   0.296   1.827   4.728 -1.9627  1.2174 -0.0397
 8030SOL    HW235553   0.251   1.691   4.769 -2.2927 -1.1715 -1.4164
 8031SOL     OW35554   4.063   4.042  14.953  0.0203 -0.5275  0.3906
 8031SOL    HW135555   4.020   4.067  15.035 -1.1896 -1.0238 -0.1004
 8031SOL    HW235556   4.082   3.949  14.961 -0.6536 -0.9132 -2.5937
 8032SOL     OW35557   0.803   3.378  12.483 -0.2734 -0.2695  0.5871
 8032SOL    HW135558   0.893   3.382  12.516 -1.3118  0.9605  3.2153
 8032SOL    HW235559   0.804   3.286  12.459 -3.8850 -0.0163 -0.4800
 8033SOL     OW35560   1.259   3.542   7.375  0.0329  0.1727 -0.3611
 8033SOL    HW135561   1.294   3.454   7.361  0.6919  0.2613  0.7629
 8033SOL    HW235562   1.330   3.606   7.372  1.0474 -0.9418 -0.2154
 8034SOL     OW35563   1.805   4.428   4.454  0.3733  0.3432 -0.5897
 8034SOL    HW135564   1.817   4.338   4.485  2.7844  0.8980  0.0815
 8034SOL    HW235565   1.721   4.420   4.409  0.6046  1.3364 -1.2034
 8035SOL     OW35566   4.109   4.073  14.456  0.4424 -0.4189 -0.2358
 8035SOL    HW135567   4.125   4.149  14.512 -0.8745  0.1656 -0.6421
 8035SOL    HW235568   4.024   4.093  14.417  1.5485 -0.5295 -2.7653
 8036SOL     OW35569   2.414   1.049   2.778  0.3993 -0.3726 -0.3975
 8036SOL    HW135570   2.321   1.066   2.791  0.6134 -0.9893  2.0881
 8036SOL    HW235571   2.458   1.117   2.830 -1.5505  0.5273  0.0773
 8037SOL     OW35572   2.126   1.957   8.409  0.0490 -0.2079  0.3684
 8037SOL    HW135573   2.035   1.927   8.417  0.7747 -2.0731  1.5247
 8037SOL    HW235574   2.114   2.044   8.449 -1.4257  0.0575 -0.6436
 8038SOL     OW35575   2.302   4.503  14.410 -0.0586  0.0747  0.3825
 8038SOL    HW135576   2.259   4.426  14.372 -3.4120  1.0757  2.0773
 8038SOL    HW235577   2.387   4.461  14.424  0.4151  1.3367  1.2682
 8039SOL     OW35578   3.719   1.744   5.102 -0.3768  0.4940  0.1938
 8039SOL    HW135579   3.691   1.741   5.193  0.1895  2.3763  0.4294
 8039SOL    HW235580   3.635   1.743   5.056 -0.0590  2.4510 -0.4490
 8040SOL     OW35581   1.086   3.690   4.554 -0.4053 -0.4590  0.2816
 8040SOL    HW135582   1.018   3.627   4.578 -0.8488  0.1111  0.5261
 8040SOL    HW235583   1.165   3.649   4.588  0.4797 -0.2543 -1.5701
 8041SOL     OW35584   4.159   0.081   7.403  0.7400  0.1237  0.6300
 8041SOL    HW135585   4.107   0.004   7.384  3.0578 -0.8209 -1.8050
 8041SOL    HW235586   4.181   0.063   7.495 -0.1591 -1.2047  0.5768
 8042SOL     OW35587   1.568   1.424  10.294 -0.7667 -0.5798 -0.1011
 8042SOL    HW135588   1.511   1.390  10.225 -1.3433  3.6027 -1.6866
 8042SOL    HW235589   1.653   1.441  10.255  0.8016 -2.5285  2.4574
 8043SOL     OW35590   2.174   3.775  16.242  0.0207 -0.8775  0.4379
 8043SOL    HW135591   2.111   3.729  16.298  0.0376  1.8037  2.6802
 8043SOL    HW235592   2.223   3.698  16.213  2.0290 -0.1250  1.7758
 8044SOL     OW35593   0.649   2.380   1.829 -0.3638 -0.1546  0.3626
 8044SOL    HW135594   0.648   2.312   1.897 -2.5890  1.1301  1.6307
 8044SOL    HW235595   0.679   2.456   1.880  0.2567 -1.5595  2.0917
 8045SOL     OW35596   4.245   1.696   6.725  0.3434 -0.4108  0.4866
 8045SOL    HW135597   4.217   1.676   6.814  0.6738  1.3537  0.9949
 8045SOL    HW235598   4.323   1.643   6.709  0.2303 -0.6311  0.6737
 8046SOL     OW35599   4.651   1.713   4.887  0.1073  0.1474 -0.4772
 8046SOL    HW135600   4.668   1.715   4.981 -0.4145  0.6466 -0.3921
 8046SOL    HW235601   4.674   1.621   4.871 -1.1607 -0.2360 -0.0850
 8047SOL     OW35602   3.741   1.371   4.231 -0.4014  0.1018 -0.0317
 8047SOL    HW135603   3.753   1.384   4.325 -0.6699 -2.1156  0.2946
 8047SOL    HW235604   3.659   1.327   4.208  0.5119 -0.5764 -2.0247
 8048SOL     OW35605   1.053   3.674  15.437 -0.0185 -0.7254  0.0847
 8048SOL    HW135606   0.965   3.651  15.468  0.2817 -1.0746  0.6941
 8048SOL    HW235607   1.052   3.645  15.346  0.0623  2.0327 -0.7987
 8049SOL     OW35608   4.186   2.296   0.245  0.0773  0.7072  0.0677
 8049SOL    HW135609   4.270   2.249   0.252  0.9577  2.0953 -1.0792
 8049SOL    HW235610   4.199   2.347   0.325 -1.4117  0.0559  0.7181
 8050SOL     OW35611   4.062   1.143   0.059  0.3501 -0.5848 -0.0917
 8050SOL    HW135612   4.117   1.191   0.120 -1.4070 -1.0657  1.8642
 8050SOL    HW235613   4.111   1.066   0.031 -2.6647 -2.6140  0.1745
 8051SOL     OW35614   1.347   0.625   6.774  0.2995  0.7724 -0.6464
 8051SOL    HW135615   1.418   0.664   6.825  0.3686 -1.0845  0.6717
 8051SOL    HW235616   1.326   0.698   6.716 -1.6689  1.5687  1.0503
 8052SOL     OW35617   3.420   2.617   2.309  0.4163  0.1223  0.3628
 8052SOL    HW135618   3.407   2.532   2.267 -1.6089  0.9829 -0.7613
 8052SOL    HW235619   3.384   2.603   2.396  3.6126  1.1920  1.8817
 8053SOL     OW35620   1.793   1.752   5.358 -0.2889  0.0452 -0.4000
 8053SOL    HW135621   1.711   1.783   5.319 -1.0941 -0.5023  0.8532
 8053SOL    HW235622   1.843   1.814   5.306  0.0367  1.0882  1.1686
 8054SOL     OW35623   1.132   0.204   6.702  0.1980 -0.0212 -0.6360
 8054SOL    HW135624   1.194   0.265   6.663 -0.1481  0.0738 -1.0391
 8054SOL    HW235625   1.072   0.265   6.745  1.5098 -0.0742  1.2621
 8055SOL     OW35626   0.042   1.823   2.359  0.4228  0.1732  0.2855
 8055SOL    HW135627   0.074   1.801   2.446 -0.4741  1.4335  0.9195
 8055SOL    HW235628   0.072   1.913   2.347  0.1612 -0.1518 -3.0327
 8056SOL     OW35629   3.558   1.456   8.819 -0.2473 -0.0152 -0.0211
 8056SOL    HW135630   3.603   1.382   8.860  0.2016 -1.4988 -3.2178
 8056SOL    HW235631   3.506   1.492   8.890 -0.8592 -0.0642 -0.4492
 8057SOL     OW35632   2.772   2.790  10.637 -0.0123 -0.0537 -0.7072
 8057SOL    HW135633   2.840   2.809  10.701 -0.5218  0.3121 -0.2760
 8057SOL    HW235634   2.830   2.800  10.562  2.2802  1.7582  1.3252
 8058SOL     OW35635   0.351   3.313  12.473  0.1781  0.6556  0.0475
 8058SOL    HW135636   0.286   3.342  12.536 -1.8652 -0.9550 -1.3227
 8058SOL    HW235637   0.429   3.351  12.514 -0.8468  2.4550  0.3053
 8059SOL     OW35638   4.320   4.364   2.194  0.3282 -0.4845 -0.3151
 8059SOL    HW135639   4.257   4.312   2.243  1.9361 -1.4085  0.7731
 8059SOL    HW235640   4.306   4.443   2.246 -1.2534 -1.1157  0.2188
 8060SOL     OW35641   0.415   1.934   5.284 -0.3344 -0.0030 -0.3882
 8060SOL    HW135642   0.338   1.877   5.278 -1.1040  1.0553 -0.4671
 8060SOL    HW235643   0.384   1.972   5.366 -0.8662 -1.6486  0.1693
 8061SOL     OW35644   3.020   0.239  16.578 -0.2463  0.1266 -0.1870
 8061SOL    HW135645   2.979   0.209  16.660 -2.0866 -3.5855 -2.4539
 8061SOL    HW235646   2.955   0.302  16.545  1.0407  0.4159 -2.1294
 8062SOL     OW35647   4.114   0.242   4.424  0.2091  0.1820  0.1627
 8062SOL    HW135648   4.089   0.186   4.497 -0.1840 -1.0396 -0.9111
 8062SOL    HW235649   4.034   0.294   4.421 -0.7677 -1.3921 -0.8796
 8063SOL     OW35650   3.728   2.294  16.127 -0.3013 -0.1758  0.4196
 8063SOL    HW135651   3.653   2.261  16.077 -1.6084  0.8988  1.6791
 8063SOL    HW235652   3.780   2.216  16.145  0.2553  0.0207 -0.3195
 8064SOL     OW35653   1.011   1.778   3.067 -0.2742 -0.4706  0.1225
 8064SOL    HW135654   1.049   1.690   3.060  0.0428 -0.1282 -2.2275
 8064SOL    HW235655   1.084   1.830   3.033 -1.2549  0.6855 -0.1964
 8065SOL     OW35656   2.724   1.466   4.505  0.4792  0.3447  0.7500
 8065SOL    HW135657   2.802   1.519   4.492 -0.3090  1.5114  0.8046
 8065SOL    HW235658   2.753   1.383   4.466 -1.0246 -0.5052  1.4321
 8066SOL     OW35659   2.737   3.824   5.861 -0.2304 -0.5499  0.4918
 8066SOL    HW135660   2.768   3.808   5.950 -0.8090 -1.7209  0.4850
 8066SOL    HW235661   2.749   3.918   5.846  1.8975 -0.4059  3.0034
 8067SOL     OW35662   4.064   4.336   6.821 -0.1297 -0.1152  0.6411
 8067SOL    HW135663   4.057   4.301   6.910 -1.5657 -1.3077  0.0603
 8067SOL    HW235664   4.063   4.431   6.832 -1.0091 -0.1186  0.5380
 8068SOL     OW35665   1.361   2.354   5.773 -0.1531 -0.4467  0.2539
 8068SOL    HW135666   1.385   2.269   5.737 -2.5548 -1.8965  2.0779
 8068SOL    HW235667   1.336   2.410   5.700 -0.1712 -1.5320 -0.5650
 8069SOL     OW35668   3.512   2.792   3.409  0.2315 -0.1672 -0.1727
 8069SOL    HW135669   3.495   2.781   3.502  0.1369  1.9944  0.0643
 8069SOL    HW235670   3.425   2.780   3.371 -1.1222  0.4752  2.7950
 8070SOL     OW35671   4.463   1.051  11.149  0.4047 -0.0426  0.4802
 8070SOL    HW135672   4.447   0.978  11.209 -1.8591 -0.1213 -0.2171
 8070SOL    HW235673   4.553   1.035  11.121 -0.2699 -0.8748 -1.1970
 8071SOL     OW35674   4.118   3.164  17.254 -0.7635  0.5709 -0.3183
 8071SOL    HW135675   4.081   3.173  17.342 -2.1851  3.2389 -1.1891
 8071SOL    HW235676   4.133   3.070  17.241  1.5178  0.9751 -0.5033
 8072SOL     OW35677   4.674   1.523   3.475  0.5109  0.0400 -0.4338
 8072SOL    HW135678   0.040   1.534   3.438  0.4574  0.1045 -0.5426
 8072SOL    HW235679   4.614   1.515   3.400 -1.5899 -3.9206  1.6736
 8073SOL     OW35680   3.585   4.637  11.685 -0.0609 -0.3725  0.5471
 8073SOL    HW135681   3.514   4.600  11.633 -0.8168  0.5229  0.9558
 8073SOL    HW235682   3.537   4.714  11.716 -1.5885 -1.5388  1.1031
 8074SOL     OW35683   4.152   3.826  16.658 -0.4076  0.0698 -0.1597
 8074SOL    HW135684   4.080   3.876  16.619 -0.3257 -1.4274 -2.2123
 8074SOL    HW235685   4.231   3.846  16.609 -0.9562 -0.1301 -1.1176
 8075SOL     OW35686   4.174   3.708   5.884 -0.1171  0.1473 -0.6771
 8075SOL    HW135687   4.136   3.785   5.841  0.3024  2.2181  2.6823
 8075SOL    HW235688   4.266   3.732   5.889 -0.6305  1.8115  0.6218
 8076SOL     OW35689   0.299   2.026   8.927  0.0160  0.6949 -0.0901
 8076SOL    HW135690   0.300   1.993   9.017 -0.8949 -1.2094 -0.7884
 8076SOL    HW235691   0.264   2.115   8.936 -2.8248 -0.3595 -0.8448
 8077SOL     OW35692   1.495   3.763   8.057  0.0949 -0.4411  0.4062
 8077SOL    HW135693   1.584   3.796   8.043 -0.1870  1.1705  2.5055
 8077SOL    HW235694   1.510   3.668   8.056  0.8319 -0.3283  1.9468
 8078SOL     OW35695   1.355   0.187   9.939  0.1282  0.2539  0.1966
 8078SOL    HW135696   1.358   0.119   9.872  0.1408  0.5750 -0.1292
 8078SOL    HW235697   1.401   0.142  10.010  0.6762 -1.3143 -1.1630
 8079SOL     OW35698   0.897   1.192   6.731 -0.4941  0.4571  0.2655
 8079SOL    HW135699   0.925   1.180   6.640 -0.8532  1.1062  0.0733
 8079SOL    HW235700   0.962   1.254   6.763 -2.5587  1.3346  2.7582
 8080SOL     OW35701   3.707   1.951   7.345  0.4504 -0.3567 -0.2023
 8080SOL    HW135702   3.695   2.001   7.264 -1.7209  0.3670  0.5750
 8080SOL    HW235703   3.659   1.868   7.352 -0.1709 -0.3488 -4.0476
 8081SOL     OW35704   3.499   3.058   5.104  0.4938  0.3155 -0.1181
 8081SOL    HW135705   3.567   3.072   5.169 -0.5964  2.1189  0.6320
 8081SOL    HW235706   3.538   3.107   5.032  2.9249 -1.5438 -0.0692
 8082SOL     OW35707   1.402   2.740   7.031  0.4478 -0.2189 -0.5425
 8082SOL    HW135708   1.319   2.725   7.076  0.3332  1.2112 -0.2728
 8082SOL    HW235709   1.425   2.652   7.003  0.1180  0.3712 -2.6961
 8083SOL     OW35710   1.434   3.670   7.769  0.2193 -0.2892 -0.1447
 8083SOL    HW135711   1.504   3.634   7.825  0.7857  1.1465  0.0745
 8083SOL    HW235712   1.438   3.608   7.695  1.2199  0.5734 -0.8101
 8084SOL     OW35713   3.462   4.413   2.720 -0.1020 -0.3222  0.5121
 8084SOL    HW135714   3.451   4.361   2.800 -1.6737  0.6872  0.9398
 8084SOL    HW235715   3.557   4.423   2.728 -0.2436 -0.8048  2.8659
 8085SOL     OW35716   3.639   2.883   7.957  0.3460  0.2151 -0.2870
 8085SOL    HW135717   3.574   2.817   7.933 -0.0093 -0.2851  2.0844
 8085SOL    HW235718   3.696   2.884   7.880  0.8122 -2.7041  0.0426
 8086SOL     OW35719   4.517   0.717   3.124  0.1380  0.4481  0.3743
 8086SOL    HW135720   4.526   0.621   3.117  0.1639  0.2460  3.0842
 8086SOL    HW235721   4.428   0.727   3.155 -0.0492  1.4619 -0.4909
 8087SOL     OW35722   2.036   4.568  13.700  0.4699  0.0818 -0.2518
 8087SOL    HW135723   2.102   4.529  13.643 -0.0350 -0.2505 -0.6042
 8087SOL    HW235724   1.963   4.573  13.638 -0.3721  2.5310  0.9341
 8088SOL     OW35725   4.192   2.006  11.606  0.3766 -0.0684 -0.3772
 8088SOL    HW135726   4.226   1.998  11.696  0.7844 -0.9344 -0.6080
 8088SOL    HW235727   4.209   1.921  11.565  2.4256  0.6324 -0.9590
 8089SOL     OW35728   3.212   2.771   3.818 -0.2967  0.4431  0.0603
 8089SOL    HW135729   3.164   2.760   3.736 -1.8589 -0.7822  1.1667
 8089SOL    HW235730   3.255   2.854   3.795  0.4583 -0.7914 -2.9871
 8090SOL     OW35731   3.827   0.712  13.323  0.2647  0.6940  0.1287
 8090SOL    HW135732   3.777   0.638  13.288 -0.5164  1.2402  0.0816
 8090SOL    HW235733   3.755   0.775  13.328 -0.3208  0.0783 -0.4752
 8091SOL     OW35734   2.957   0.236   4.824  0.1951  0.0240 -0.2511
 8091SOL    HW135735   2.940   0.328   4.805  1.6425 -0.3524 -3.4572
 8091SOL    HW235736   2.898   0.194   4.761  0.0054  0.3575 -0.2911
 8092SOL     OW35737   3.330   0.197  15.129 -0.6888  0.0424  0.0198
 8092SOL    HW135738   3.411   0.146  15.126 -0.1837  0.6905  2.1567
 8092SOL    HW235739   3.308   0.208  15.221 -2.5089  0.8000 -0.5192
 8093SOL     OW35740   3.605   1.083  13.592 -0.4697  0.3012  0.3841
 8093SOL    HW135741   3.612   1.172  13.625 -1.0337  0.2591  0.6117
 8093SOL    HW235742   3.516   1.091  13.557  0.5891 -2.7994 -3.0864
 8094SOL     OW35743   1.168   2.085   8.610 -0.2170  0.8249 -0.0586
 8094SOL    HW135744   1.166   2.045   8.697 -1.4275  1.3155  0.1361
 8094SOL    HW235745   1.073   2.082   8.601 -0.1318  0.7898 -0.9571
 8095SOL     OW35746   0.770   1.520   4.124  0.2432  0.0151 -0.3932
 8095SOL    HW135747   0.844   1.485   4.076 -0.0527 -4.8701  2.7221
 8095SOL    HW235748   0.780   1.494   4.216  0.0448 -1.0414 -0.6708
 8096SOL     OW35749   0.171   3.478   3.237 -0.1664 -0.0354  0.1961
 8096SOL    HW135750   0.228   3.507   3.309  0.9534 -2.7501  0.3649
 8096SOL    HW235751   0.191   3.552   3.179 -1.2899 -0.7122 -1.0431
 8097SOL     OW35752   0.023   1.757  15.235 -0.6714  0.2998 -0.1196
 8097SOL    HW135753   4.694   1.772  15.315  0.1941 -0.0014  0.4797
 8097SOL    HW235754   0.109   1.729  15.264 -0.5727  0.7517  0.0325
 8098SOL     OW35755   0.173   2.100   6.675  0.3984 -0.3687  0.0179
 8098SOL    HW135756   0.145   2.117   6.764 -1.6685  0.0995 -0.7181
 8098SOL    HW235757   0.112   2.031   6.647 -0.6471 -0.2758  2.0575
 8099SOL     OW35758   3.837   1.000  12.688  0.4598  0.0279 -0.0294
 8099SOL    HW135759   3.849   0.906  12.677 -2.0381 -0.4769  1.3279
 8099SOL    HW235760   3.801   0.995  12.777  0.6049  0.1432  0.0352
 8100SOL     OW35761   1.052   4.639   7.674  0.2672  0.8204 -0.5038
 8100SOL    HW135762   1.021   4.626   7.764  0.3165 -0.1770 -0.6338
 8100SOL    HW235763   1.125   4.578   7.668  0.0222  0.2355  2.3153
 8101SOL     OW35764   1.051   4.616   5.154 -0.2434  0.7435 -0.4918
 8101SOL    HW135765   1.009   4.677   5.214  0.7559 -0.8664  1.8487
 8101SOL    HW235766   1.135   4.598   5.196  0.6404  1.4404 -1.9592
 8102SOL     OW35767   2.842   4.475   9.134  0.0050 -0.4962  0.2813
 8102SOL    HW135768   2.755   4.440   9.156  0.5091 -1.4025  0.8642
 8102SOL    HW235769   2.840   4.486   9.039  2.0973  0.2537  0.3292
 8103SOL     OW35770   3.267   1.992   0.159 -0.2149  0.1496 -0.2525
 8103SOL    HW135771   3.228   2.023   0.240 -3.1075 -3.3990 -0.2711
 8103SOL    HW235772   3.356   1.982   0.192 -0.7423  1.3544  1.5429
 8104SOL     OW35773   2.266   0.973   4.011  0.5592  0.6645  0.1451
 8104SOL    HW135774   2.171   0.988   4.019  0.5304 -0.6581  2.3959
 8104SOL    HW235775   2.281   0.947   3.920  1.5775 -0.7699  0.7286
 8105SOL     OW35776   2.401   0.654   5.780 -0.3840  0.5635 -0.1154
 8105SOL    HW135777   2.454   0.588   5.736 -1.3674 -1.2880  1.4618
 8105SOL    HW235778   2.427   0.639   5.871  2.2767  2.3002 -0.5821
 8106SOL     OW35779   0.134   1.717   0.756 -0.2674 -0.0713 -0.3186
 8106SOL    HW135780   0.228   1.730   0.754 -0.0703 -1.3738  0.3350
 8106SOL    HW235781   0.125   1.665   0.676 -0.8536 -1.2622  0.5220
 8107SOL     OW35782   1.013   3.010  16.843 -0.5421 -0.2469  0.4751
 8107SOL    HW135783   1.041   3.063  16.918 -1.6699  1.6382 -0.4108
 8107SOL    HW235784   1.095   2.970  16.816 -1.3303 -1.0516 -0.7172
 8108SOL     OW35785   4.248   3.782   5.395  0.5983 -0.1572 -0.0404
 8108SOL    HW135786   4.263   3.856   5.336  0.5569 -0.0230  0.1160
 8108SOL    HW235787   4.155   3.788   5.416 -0.0730  1.5557 -3.5406
 8109SOL     OW35788   2.276   0.151   7.098  0.0104  0.0354 -0.2945
 8109SOL    HW135789   2.236   0.235   7.121  0.5479  0.5354 -1.1423
 8109SOL    HW235790   2.206   0.086   7.103 -1.3097  1.5309  0.5536
 8110SOL     OW35791   2.087   1.012   4.306  0.2173  0.2477 -0.2766
 8110SOL    HW135792   2.136   0.997   4.387  3.0952  1.0163 -1.8726
 8110SOL    HW235793   2.072   1.106   4.319  1.5571  0.7906 -2.6515
 8111SOL     OW35794   1.950   2.725  17.097  0.3680 -0.2655 -0.1180
 8111SOL    HW135795   1.966   2.661  17.027 -0.0557  0.2592 -0.6915
 8111SOL    HW235796   2.031   2.775  17.090  0.3816 -0.4997 -1.5718
 8112SOL     OW35797   2.286   0.916   5.992  0.0927  0.0540 -0.3089
 8112SOL    HW135798   2.370   0.895   6.032 -0.2966 -2.5348 -0.8354
 8112SOL    HW235799   2.296   1.010   5.985 -0.4182 -0.0390 -2.3073
 8113SOL     OW35800   4.328   4.496  17.026 -0.3913  0.3322  0.1003
 8113SOL    HW135801   4.339   4.524  17.117  0.1912  0.2396  0.0615
 8113SOL    HW235802   4.283   4.579  17.008 -0.8052  0.0925  0.0429
 8114SOL     OW35803   1.919   3.988   4.296 -0.1134  0.2373 -0.0234
 8114SOL    HW135804   1.990   4.052   4.296  0.4423 -0.3786 -0.2397
 8114SOL    HW235805   1.905   3.979   4.202  0.4992 -1.7996  0.0882
 8115SOL     OW35806   0.195   2.455  16.302 -0.5329 -0.6792  0.1694
 8115SOL    HW135807   0.232   2.368  16.320 -0.9134 -0.7684  0.5128
 8115SOL    HW235808   0.150   2.440  16.219 -1.2280  0.5269  0.3382
 8116SOL     OW35809   2.999   4.297   5.152  0.1984 -0.1830  0.3799
 8116SOL    HW135810   2.969   4.350   5.226 -1.5001 -2.3104  1.2183
 8116SOL    HW235811   3.089   4.312   5.181  0.0764  1.2115 -0.0083
 8117SOL     OW35812   2.805   1.661   3.609  0.0885 -0.5272  0.0456
 8117SOL    HW135813   2.817   1.687   3.700  0.7242  1.2561 -0.5553
 8117SOL    HW235814   2.891   1.668   3.569  0.4634  3.2172  1.5421
 8118SOL     OW35815   4.581   3.122   3.995 -0.1545  0.4423  0.2468
 8118SOL    HW135816   4.497   3.126   3.949  0.1849 -0.1137 -0.4162
 8118SOL    HW235817   4.569   3.194   4.056  0.7624  1.5418 -0.8727
 8119SOL     OW35818   1.498   0.130   3.557 -0.1514  0.3850 -0.2355
 8119SOL    HW135819   1.498   0.087   3.471 -0.7528  0.7318 -0.4038
 8119SOL    HW235820   1.511   0.220   3.529 -1.4800  0.6763  0.1132
 8120SOL     OW35821   3.752   2.800  10.625 -0.0897 -0.1105  0.2092
 8120SOL    HW135822   3.823   2.801  10.560 -0.4620  1.1044 -0.1834
 8120SOL    HW235823   3.680   2.779  10.565  0.2563 -0.7499  0.0144
 8121SOL     OW35824   0.769   2.425  10.374  0.2383 -0.1768  0.0604
 8121SOL    HW135825   0.823   2.452  10.449 -0.7972  2.8323 -0.3056
 8121SOL    HW235826   0.719   2.357  10.419  3.4055 -1.8749  1.0931
 8122SOL     OW35827   4.403   2.030   4.916 -0.0427 -0.0268 -0.0483
 8122SOL    HW135828   4.312   2.052   4.895 -0.6140 -1.5573  0.8077
 8122SOL    HW235829   4.448   2.112   4.901  1.1823 -0.8822 -1.0402
 8123SOL     OW35830   0.768   3.466  14.404 -0.5347  0.0815 -0.2116
 8123SOL    HW135831   0.788   3.560  14.398 -3.8085  0.7936  0.2726
 8123SOL    HW235832   0.680   3.463  14.368  0.2027 -1.7394 -1.8778
 8124SOL     OW35833   2.628   3.557  12.500  0.4287 -0.0317 -0.8489
 8124SOL    HW135834   2.589   3.497  12.436  0.4259 -0.8810 -0.0475
 8124SOL    HW235835   2.661   3.500  12.570  0.1820  0.3960 -0.3862
 8125SOL     OW35836   1.207   0.444  17.576 -0.2282 -0.1179 -0.0921
 8125SOL    HW135837   1.201   0.534  17.544  1.1501  0.0969  0.2517
 8125SOL    HW235838   1.225   0.468  17.667 -1.1006 -3.0766  0.8747
 8126SOL     OW35839   2.948   1.953   3.501 -0.1720  0.0094  0.4074
 8126SOL    HW135840   2.910   1.958   3.589 -0.1846 -1.2546  0.4749
 8126SOL    HW235841   2.997   1.870   3.504  0.0865  0.1848  0.9315
 8127SOL     OW35842   3.879   0.029  14.449 -0.2429  0.4702 -0.7136
 8127SOL    HW135843   3.848   4.666  14.482 -0.0365  0.0403 -1.6062
 8127SOL    HW235844   3.943   0.062  14.512  0.4146 -0.1386 -1.0607
 8128SOL     OW35845   1.272   2.451   0.806 -0.1629 -0.0147  0.1682
 8128SOL    HW135846   1.361   2.480   0.826  0.0894 -1.2816  0.9044
 8128SOL    HW235847   1.284   2.417   0.717  0.4820 -1.2024  0.6982
 8129SOL     OW35848   4.597   0.380   2.520  0.2766  0.7927 -0.2588
 8129SOL    HW135849   4.692   0.367   2.520 -0.1432 -2.1559 -0.8637
 8129SOL    HW235850   4.564   0.292   2.536 -1.0400  1.3569  0.1517
 8130SOL     OW35851   3.631   2.101   0.652 -0.0249 -0.2423 -0.3259
 8130SOL    HW135852   3.714   2.102   0.700  0.7159 -0.5131 -1.6288
 8130SOL    HW235853   3.617   2.195   0.639  1.2275 -0.1912 -1.2517
 8131SOL     OW35854   1.744   2.025   7.390 -0.2148  0.0112  0.9190
 8131SOL    HW135855   1.816   1.962   7.399 -0.5549 -0.2904  1.5549
 8131SOL    HW235856   1.667   1.969   7.402  0.8140 -2.0315 -2.0555
 8132SOL     OW35857   0.885   4.266   3.944 -0.0411 -0.4307 -0.2334
 8132SOL    HW135858   0.871   4.350   3.989  1.7284  0.5503 -1.5079
 8132SOL    HW235859   0.924   4.302   3.864 -0.5954  1.2372  0.2495
 8133SOL     OW35860   2.837   4.058   5.532 -0.3590 -0.4702 -0.3420
 8133SOL    HW135861   2.747   4.030   5.515 -0.3870 -1.5995  1.7569
 8133SOL    HW235862   2.828   4.153   5.547 -1.4337 -0.5802 -0.2574
 8134SOL     OW35863   2.230   1.765   4.309 -0.3184  0.2853 -0.4189
 8134SOL    HW135864   2.293   1.798   4.245 -0.0448  3.3767  1.4529
 8134SOL    HW235865   2.186   1.700   4.254 -2.8594 -0.2709  2.2604
 8135SOL     OW35866   1.975   3.139   8.543 -0.4912 -0.0092  0.1078
 8135SOL    HW135867   2.056   3.190   8.550  0.4144 -1.3062 -1.0724
 8135SOL    HW235868   1.989   3.078   8.471  0.8679  1.7092 -1.0899
 8136SOL     OW35869   2.735   1.592   2.664  0.0889  1.0207 -0.2771
 8136SOL    HW135870   2.684   1.591   2.583  0.8263  3.6453 -0.7930
 8136SOL    HW235871   2.821   1.575   2.626 -1.0021 -1.7408 -1.4752
 8137SOL     OW35872   2.767   1.940   6.401 -0.2317  0.1115 -0.8376
 8137SOL    HW135873   2.760   2.008   6.334 -1.9418  1.3170  0.5612
 8137SOL    HW235874   2.743   1.860   6.354  0.1911 -1.1282  1.0568
 8138SOL     OW35875   4.285   2.256   6.932  0.3310  0.3615 -0.1080
 8138SOL    HW135876   4.255   2.165   6.923 -1.7725  1.1541 -0.9805
 8138SOL    HW235877   4.273   2.271   7.026  2.0858 -0.1306  0.1889
 8139SOL     OW35878   4.673   3.078   6.059  0.3322  0.1911 -0.2793
 8139SOL    HW135879   4.635   3.077   6.147  1.5055 -0.0390  0.2256
 8139SOL    HW235880   4.707   3.167   6.061  3.4466 -0.9786 -1.1647
 8140SOL     OW35881   1.901   3.777   0.675  0.2678 -0.2054 -0.2640
 8140SOL    HW135882   1.952   3.696   0.667  2.2109  0.8046  2.3005
 8140SOL    HW235883   1.835   3.747   0.738  0.4977 -0.1468 -0.0009
 8141SOL     OW35884   1.125   2.557  12.356  0.0124  0.2828  0.7240
 8141SOL    HW135885   1.077   2.514  12.427  0.6593  0.6200  1.3568
 8141SOL    HW235886   1.079   2.640  12.347  1.8497  1.3586  1.2772
 8142SOL     OW35887   2.588   4.373   6.147  0.0567  0.2790 -0.4003
 8142SOL    HW135888   2.578   4.300   6.209  0.6353  0.6972  0.1918
 8142SOL    HW235889   2.579   4.451   6.202  0.3379  0.6116 -0.8251
 8143SOL     OW35890   2.509   0.184   3.732 -0.0673 -0.2151 -0.2711
 8143SOL    HW135891   2.550   0.114   3.681 -0.6448 -1.6535  1.2548
 8143SOL    HW235892   2.561   0.258   3.699  0.2399 -0.0990  0.4787
 8144SOL     OW35893   1.867   2.877  11.260 -0.5854 -0.4672 -0.2187
 8144SOL    HW135894   1.900   2.844  11.176 -2.7544  2.0658 -2.0603
 8144SOL    HW235895   1.826   2.806  11.309 -0.3186 -0.1796  0.4126
 8145SOL     OW35896   4.695   3.941   9.768 -0.3644 -0.1650  0.1819
 8145SOL    HW135897   4.652   3.923   9.852 -0.1918 -1.5967 -0.0335
 8145SOL    HW235898   0.062   3.908   9.783 -0.9609 -2.6103 -1.7459
 8146SOL     OW35899   0.639   2.080  15.341 -0.5051 -0.1869 -0.1093
 8146SOL    HW135900   0.696   2.003  15.339 -0.6014 -0.2294 -1.4618
 8146SOL    HW235901   0.583   2.063  15.417  1.1056 -1.5855  0.7663
 8147SOL     OW35902   3.717   4.112   9.569  0.6755 -0.7738  0.0678
 8147SOL    HW135903   3.728   4.021   9.597 -0.2568 -1.0108 -0.3260
 8147SOL    HW235904   3.740   4.161   9.648  0.2995 -1.5817  0.6809
 8148SOL     OW35905   1.600   0.762   5.863 -0.0541 -0.2085  0.6294
 8148SOL    HW135906   1.626   0.737   5.952 -2.1676  0.6181  1.4742
 8148SOL    HW235907   1.511   0.725   5.868 -0.0489 -0.4675 -1.1063
 8149SOL     OW35908   2.048   3.061   4.035  0.3068 -0.4290 -1.1104
 8149SOL    HW135909   1.995   2.982   4.042 -0.3412  0.2785  2.1396
 8149SOL    HW235910   1.996   3.123   3.984  1.0160 -0.6959 -2.1511
 8150SOL     OW35911   4.428   0.387   8.355 -0.0122  0.1307 -0.0402
 8150SOL    HW135912   4.356   0.422   8.302 -0.6174  1.1539  1.4576
 8150SOL    HW235913   4.484   0.462   8.375 -0.1784  0.8658 -2.2414
 8151SOL     OW35914   3.805   3.615  14.615 -0.8914  0.0917  0.3314
 8151SOL    HW135915   3.860   3.593  14.690  0.8486  0.5640 -0.8161
 8151SOL    HW235916   3.816   3.710  14.607  0.9230 -0.0694  0.7685
 8152SOL     OW35917   1.119   0.713   6.138 -0.2335  0.4117 -0.4426
 8152SOL    HW135918   1.092   0.626   6.165 -2.2590  0.3154 -2.7166
 8152SOL    HW235919   1.152   0.751   6.219 -1.5933 -0.3164  0.4391
 8153SOL     OW35920   2.917   0.387   7.719 -0.1853  0.5553  0.0644
 8153SOL    HW135921   2.891   0.328   7.648  2.8728  0.4543 -1.0004
 8153SOL    HW235922   2.868   0.361   7.797 -1.2291 -1.3338 -1.2145
 8154SOL     OW35923   1.677   0.359  17.245 -0.3258 -0.1699 -0.0365
 8154SOL    HW135924   1.596   0.334  17.289  0.4544 -3.1754 -0.3083
 8154SOL    HW235925   1.706   0.274  17.212 -0.4164 -0.9710  1.9937
 8155SOL     OW35926   0.596   0.667   9.090 -0.1933 -0.0630  0.1242
 8155SOL    HW135927   0.534   0.622   9.147  2.1352 -2.2482  0.9381
 8155SOL    HW235928   0.648   0.591   9.063  2.0342  1.6151 -0.2744
 8156SOL     OW35929   2.641   0.701   9.379 -0.7086 -0.1486 -0.3137
 8156SOL    HW135930   2.622   0.644   9.454  1.4805 -1.4384 -0.7428
 8156SOL    HW235931   2.607   0.651   9.306 -2.0894 -0.1189  0.3020
 8157SOL     OW35932   3.027   1.548   3.232  0.0803  0.3707  0.4846
 8157SOL    HW135933   3.014   1.628   3.182  0.5111  0.3255  0.2996
 8157SOL    HW235934   3.094   1.504   3.180 -1.3178  0.1232 -1.1309
 8158SOL     OW35935   0.381   3.726  17.226 -0.4414 -0.4875  0.5205
 8158SOL    HW135936   0.290   3.753  17.218 -0.6656 -1.7561 -1.0532
 8158SOL    HW235937   0.376   3.666  17.301  0.2623 -0.2144  0.7919
 8159SOL     OW35938   4.116   1.490   7.915 -0.4497  0.0538  0.0052
 8159SOL    HW135939   4.208   1.492   7.891 -0.0886 -0.4567  1.3292
 8159SOL    HW235940   4.118   1.580   7.947  0.5152  1.2395 -3.4388
 8160SOL     OW35941   2.787   4.344  15.505  0.5149 -0.2705  0.1841
 8160SOL    HW135942   2.860   4.360  15.564 -1.4111 -0.6106  2.6459
 8160SOL    HW235943   2.824   4.277  15.447  0.8193  1.8889 -2.1363
 8161SOL     OW35944   2.497   3.432   5.411  0.0033 -0.3605 -0.1391
 8161SOL    HW135945   2.488   3.346   5.452 -0.0252 -0.2087  0.1745
 8161SOL    HW235946   2.467   3.415   5.321  0.1907 -1.7018  0.0433
 8162SOL     OW35947   4.007   3.489  13.863 -0.5456 -0.4527  0.3726
 8162SOL    HW135948   4.054   3.563  13.901  1.9196 -1.3169 -1.0161
 8162SOL    HW235949   4.063   3.418  13.832  0.5470  1.2383 -1.5966
 8163SOL     OW35950   1.949   0.970   3.462  0.3937  0.4185  0.1767
 8163SOL    HW135951   1.896   0.951   3.385 -0.7712 -0.8113  1.2720
 8163SOL    HW235952   1.987   1.056   3.444  1.8794 -0.5619 -1.3880
 8164SOL     OW35953   0.184   1.598   0.150  0.7178 -0.4350  0.4416
 8164SOL    HW135954   0.091   1.603   0.171  0.8545 -2.1204  1.5273
 8164SOL    HW235955   0.211   1.518   0.197 -0.2635 -0.8314  0.3261
 8165SOL     OW35956   3.013   2.798  11.834 -0.3240 -0.3349  0.2681
 8165SOL    HW135957   3.072   2.733  11.795 -2.6293 -0.8402 -2.3557
 8165SOL    HW235958   2.977   2.824  11.749 -1.6898  0.7825  1.1874
 8166SOL     OW35959   2.285   2.266  11.911 -0.2329 -0.4768  0.5008
 8166SOL    HW135960   2.309   2.288  11.821  0.6042 -1.6078  0.4464
 8166SOL    HW235961   2.321   2.177  11.913 -0.2110 -0.5116 -1.8113
 8167SOL     OW35962   1.405   1.459   8.270 -0.2413  0.2224  0.2763
 8167SOL    HW135963   1.477   1.423   8.320  0.4955  0.9366 -0.2568
 8167SOL    HW235964   1.329   1.443   8.326 -0.7121  0.1543 -0.3744
 8168SOL     OW35965   4.240   2.387   7.975 -0.1632  0.0716  0.3523
 8168SOL    HW135966   4.275   2.337   8.049 -0.3272  0.3106  0.5901
 8168SOL    HW235967   4.269   2.337   7.899  1.1609 -1.6925  2.0066
 8169SOL     OW35968   0.142   1.771   8.133  1.0444  0.4513  0.4459
 8169SOL    HW135969   0.090   1.831   8.187  0.2833 -0.4755  0.7221
 8169SOL    HW235970   0.175   1.721   8.207  0.3751 -1.0941 -0.3100
 8170SOL     OW35971   2.780   0.769   8.256 -0.8023  0.3906  0.2306
 8170SOL    HW135972   2.784   0.677   8.281 -0.6908  0.4880  0.5774
 8170SOL    HW235973   2.860   0.764   8.203  1.0166  0.0672  2.9783
 8171SOL     OW35974   2.999   1.684   6.075  0.0252  0.3100 -0.9687
 8171SOL    HW135975   2.938   1.748   6.109 -0.4880  0.5464 -2.3414
 8171SOL    HW235976   2.936   1.612   6.076 -0.1400  0.4777  0.2668
 8172SOL     OW35977   2.535   1.963   0.525  0.5583 -0.1401  0.5062
 8172SOL    HW135978   2.474   2.036   0.533 -0.7936 -0.9181 -2.6367
 8172SOL    HW235979   2.620   2.005   0.529 -0.7377  2.7314 -2.2937
 8173SOL     OW35980   4.178   1.105   3.561  0.2362  0.0037 -0.5247
 8173SOL    HW135981   4.148   1.031   3.613  0.0284  0.5273  0.1001
 8173SOL    HW235982   4.131   1.170   3.614  0.4223  0.4470 -0.8958
 8174SOL     OW35983   3.637   2.761   7.302 -0.1389  0.3085  0.3161
 8174SOL    HW135984   3.641   2.827   7.372 -0.2481  0.2210  0.4034
 8174SOL    HW235985   3.587   2.807   7.235 -0.7667  0.2416  0.7392
 8175SOL     OW35986   2.016   2.506  12.995 -0.3551 -0.0302  0.0398
 8175SOL    HW135987   2.020   2.412  13.011  3.1168  0.1432  0.1779
 8175SOL    HW235988   2.034   2.540  13.083 -1.2097 -0.0462  0.2204
 8176SOL     OW35989   4.623   4.102   8.641  0.2328  0.8388 -0.0126
 8176SOL    HW135990   4.692   4.107   8.575  1.0985 -0.2084  0.8144
 8176SOL    HW235991   4.646   4.021   8.688  0.0215 -0.1397 -1.6051
 8177SOL     OW35992   4.113   1.827   7.727  0.2570  0.4884  0.1880
 8177SOL    HW135993   4.044   1.814   7.663  1.0320  1.5701 -0.8679
 8177SOL    HW235994   4.073   1.820   7.814 -0.2338 -3.5271 -0.3726
 8178SOL     OW35995   1.507   3.150  13.641 -0.3599  0.7779 -0.2299
 8178SOL    HW135996   1.489   3.144  13.734  0.8582 -2.6377 -0.1700
 8178SOL    HW235997   1.473   3.235  13.615 -3.5909 -0.9988 -1.9095
 8179SOL     OW35998   3.241   2.337   3.017 -0.1239 -0.1188  0.0720
 8179SOL    HW135999   3.269   2.274   3.084  0.7737 -1.4837 -1.5886
 8179SOL    HW236000   3.241   2.423   3.059 -0.3194  0.7250 -1.6677
 8180SOL     OW36001   1.185   1.152  14.081 -0.4690  0.2641  0.0680
 8180SOL    HW136002   1.232   1.097  14.019  0.8185  0.2683  1.0403
 8180SOL    HW236003   1.178   1.237  14.038  3.8487  0.0821 -0.9883
 8181SOL     OW36004   2.052   3.272   9.063  0.0424  0.2673 -0.3397
 8181SOL    HW136005   2.128   3.330   9.055 -1.1380  1.9020  0.3577
 8181SOL    HW236006   2.069   3.239   9.151 -0.1829  0.1860 -0.3258
 8182SOL     OW36007   2.239   2.839   3.571 -0.0834 -0.4086 -0.9893
 8182SOL    HW136008   2.223   2.882   3.487  2.1365  0.0151 -1.1981
 8182SOL    HW236009   2.333   2.857   3.583 -0.0301 -2.0616  1.0655
 8183SOL     OW36010   2.932   2.068  12.010  0.4480 -0.2781 -0.1042
 8183SOL    HW136011   2.895   2.078  12.098  2.5019  0.6744  0.6533
 8183SOL    HW236012   2.982   1.988  12.027 -0.1121 -0.9567 -1.6472
 8184SOL     OW36013   1.805   2.463   3.428  0.3247  0.1151  0.3547
 8184SOL    HW136014   1.891   2.446   3.389  0.8764 -1.3408  2.2152
 8184SOL    HW236015   1.784   2.547   3.387 -1.1767  0.3104  1.5317
 8185SOL     OW36016   4.030   2.927   6.504  0.5337  0.1338  0.1260
 8185SOL    HW136017   4.021   2.877   6.586 -1.6484 -1.0398 -0.8385
 8185SOL    HW236018   4.123   2.911   6.487  0.5251  0.2075  0.0138
 8186SOL     OW36019   0.591   0.746   4.801 -0.6239 -0.4933 -0.3731
 8186SOL    HW136020   0.509   0.778   4.763 -1.7789 -0.3586  2.1739
 8186SOL    HW236021   0.559   0.673   4.853 -2.0445 -0.5463 -1.3354
 8187SOL     OW36022   2.747   0.131   7.772 -0.1174 -0.3322 -0.3545
 8187SOL    HW136023   2.707   0.174   7.848 -2.2712 -5.3457  1.4094
 8187SOL    HW236024   2.777   0.058   7.827 -0.2866  0.2513  0.5208
 8188SOL     OW36025   3.379   0.122   2.842  0.5046 -0.0702  0.1451
 8188SOL    HW136026   3.289   0.154   2.839  0.9486  0.9215 -3.0290
 8188SOL    HW236027   3.399   0.110   2.935 -0.3206 -1.5361  0.1322
 8189SOL     OW36028   4.554   0.881   4.885  0.0711  0.1937  0.0483
 8189SOL    HW136029   4.569   0.947   4.817 -0.8565  1.9102  1.5484
 8189SOL    HW236030   4.518   0.932   4.957 -1.3133  1.0315 -1.2282
 8190SOL     OW36031   4.418   2.030   3.278  0.2530 -0.4844  0.3673
 8190SOL    HW136032   4.388   1.957   3.333  0.3585  1.6042  3.1778
 8190SOL    HW236033   4.508   2.004   3.259  0.7203  0.6122  1.1165
 8191SOL     OW36034   3.259   3.034   2.551 -0.4375 -0.1204 -0.6465
 8191SOL    HW136035   3.304   3.055   2.469 -1.1638  0.6809 -0.8467
 8191SOL    HW236036   3.333   3.052   2.609 -2.5013  0.1879  1.8883
 8192SOL     OW36037   0.214   0.777   0.051  0.4483 -0.2138 -0.0064
 8192SOL    HW136038   0.220   0.702  17.678 -0.1907  0.8468 -1.4117
 8192SOL    HW236039   0.121   0.800   0.041  0.5505  0.5324  0.8218
 8193SOL     OW36040   2.350   1.948   2.743  0.3571  0.0144  0.8470
 8193SOL    HW136041   2.435   1.955   2.700 -0.7566 -1.2911 -1.5428
 8193SOL    HW236042   2.332   2.042   2.749  0.3841  0.2524 -2.8654
 8194SOL     OW36043   2.780   3.013   1.013 -0.2008 -0.1664 -0.3948
 8194SOL    HW136044   2.811   3.104   1.010 -1.5354  0.2362 -1.8527
 8194SOL    HW236045   2.799   2.994   1.105 -1.5751 -1.8694 -0.4789
 8195SOL     OW36046   0.449   2.203  17.172 -0.2961  0.8706  0.6393
 8195SOL    HW136047   0.528   2.241  17.133 -1.6442  2.4904 -0.4820
 8195SOL    HW236048   0.400   2.208  17.090 -2.7988 -0.7470  2.0586
 8196SOL     OW36049   1.560   2.132   3.291 -0.6404 -0.3950  0.2991
 8196SOL    HW136050   1.510   2.205   3.254 -0.2826  1.3122  3.1215
 8196SOL    HW236051   1.527   2.129   3.381  2.5986  0.0921  1.5337
 8197SOL     OW36052   1.783   1.297   4.848  0.0044  0.4115 -0.2770
 8197SOL    HW136053   1.876   1.279   4.843 -0.2546 -0.4294 -2.0083
 8197SOL    HW236054   1.784   1.368   4.912  1.6922  0.0089  0.1375
 8198SOL     OW36055   3.868   4.416   9.255 -0.6258 -0.3732  0.3429
 8198SOL    HW136056   3.792   4.464   9.286 -0.0909  0.4049  0.4303
 8198SOL    HW236057   3.886   4.367   9.335 -1.0139 -1.5782 -0.2945
 8199SOL     OW36058   1.224   3.392  10.298 -0.4480 -0.5654  0.1673
 8199SOL    HW136059   1.242   3.298  10.295 -0.7974 -0.6012 -0.8984
 8199SOL    HW236060   1.255   3.416  10.385  0.7296 -1.3670 -0.0318
 8200SOL     OW36061   1.227   0.215   5.655 -0.5100  0.2247  0.0178
 8200SOL    HW136062   1.201   0.185   5.742 -3.2639  0.4465 -0.7504
 8200SOL    HW236063   1.269   0.295   5.685 -2.3091  0.3972  1.9984
 8201SOL     OW36064   1.574   4.630   9.335  0.4585 -0.2215 -0.0221
 8201SOL    HW136065   1.658   4.616   9.291  0.2988 -0.9541 -0.0900
 8201SOL    HW236066   1.535   4.699   9.280  2.0653  1.0166  0.3939
 8202SOL     OW36067   3.122   0.987   6.016  0.3240  0.2097 -0.1429
 8202SOL    HW136068   3.116   1.080   6.037  0.0986  0.5847 -1.8867
 8202SOL    HW236069   3.043   0.961   6.064  0.4356 -0.7304 -0.4588
 8203SOL     OW36070   1.225   0.726   5.199  0.5446  0.3178  0.0324
 8203SOL    HW136071   1.159   0.657   5.206 -0.0294  0.8950  0.2474
 8203SOL    HW236072   1.237   0.751   5.291  1.3356 -0.5235  0.1569
 8204SOL     OW36073   3.835   1.920   7.897 -0.2518  0.0662  0.1790
 8204SOL    HW136074   3.864   1.979   7.827 -0.4062  0.5505  0.5246
 8204SOL    HW236075   3.878   1.975   7.962  1.3315 -1.4575  0.4222
 8205SOL     OW36076   1.866   0.472   2.638 -0.1139 -0.1842  0.8201
 8205SOL    HW136077   1.796   0.436   2.691  1.0438  0.4042  2.7596
 8205SOL    HW236078   1.855   0.567   2.645  1.9177  0.2549 -1.6594
 8206SOL     OW36079   4.270   1.357   9.901 -0.0619  0.3428  0.0147
 8206SOL    HW136080   4.192   1.391   9.858  0.1249  0.1777 -0.4527
 8206SOL    HW236081   4.314   1.317   9.825  2.4746  0.2386  1.5213
 8207SOL     OW36082   1.776   3.387   3.218  0.1874 -0.0765  0.5559
 8207SOL    HW136083   1.847   3.452   3.213  0.8455 -0.8658 -0.4370
 8207SOL    HW236084   1.801   3.327   3.148 -0.1873  1.7225 -1.1056
 8208SOL     OW36085   3.597   2.394   2.429  0.1806 -0.0207 -0.5133
 8208SOL    HW136086   3.576   2.485   2.452 -0.2427  0.4820 -2.9817
 8208SOL    HW236087   3.634   2.359   2.510 -0.9151  0.7499  0.3255
 8209SOL     OW36088   3.058   0.955  11.474  0.0900 -0.2947  0.0718
 8209SOL    HW136089   3.037   0.984  11.563 -0.7653 -0.6649 -0.0119
 8209SOL    HW236090   2.970   0.930  11.446  0.2696  0.2660 -0.9543
 8210SOL     OW36091   1.099   1.797   7.651  0.2062  0.2161 -0.2984
 8210SOL    HW136092   1.178   1.845   7.677  1.2133 -1.4416 -0.3496
 8210SOL    HW236093   1.125   1.776   7.562  2.0556 -2.2718  0.8339
 8211SOL     OW36094   3.711   3.070   0.562  0.4123 -0.1733 -0.5123
 8211SOL    HW136095   3.675   2.981   0.562  2.6684 -1.0786  2.2119
 8211SOL    HW236096   3.664   3.107   0.487 -1.3276 -1.0823  0.1324
 8212SOL     OW36097   2.816   3.603   0.273  0.4170 -0.0405  0.1392
 8212SOL    HW136098   2.810   3.635   0.183 -2.7521 -1.5139 -0.1581
 8212SOL    HW236099   2.725   3.582   0.294  0.8422  0.7303  2.8599
 8213SOL     OW36100   3.158   2.064  12.405  0.4399 -0.3833 -0.4599
 8213SOL    HW136101   3.228   2.044  12.344  2.8257  2.5554  1.2728
 8213SOL    HW236102   3.101   1.989  12.390  0.9744 -1.0545  0.8994
 8214SOL     OW36103   1.687   3.421  14.599 -0.7719  0.5098 -0.1352
 8214SOL    HW136104   1.696   3.357  14.529  0.2979 -0.0690  0.5454
 8214SOL    HW236105   1.717   3.497  14.549 -1.7393 -0.3582 -2.0316
 8215SOL     OW36106   0.831   0.230  16.162  0.0371  0.5786  0.1241
 8215SOL    HW136107   0.857   0.141  16.188  0.8670  0.4850 -1.0533
 8215SOL    HW236108   0.885   0.296  16.206  3.3844 -0.6426 -2.1281
 8216SOL     OW36109   4.542   2.805  12.279 -0.0798  0.0081 -0.1248
 8216SOL    HW136110   4.593   2.779  12.202  0.1538 -0.0720  0.0576
 8216SOL    HW236111   4.587   2.884  12.309  0.3522  0.5268 -2.1568
 8217SOL     OW36112   0.207   1.662  13.192 -0.2059  0.4522 -0.0662
 8217SOL    HW136113   0.250   1.735  13.146  0.2733 -0.0871 -0.4795
 8217SOL    HW236114   0.116   1.692  13.195 -0.5023 -0.5754  1.1679
 8218SOL     OW36115   4.398   1.234  12.480 -0.4391  0.7096  0.4256
 8218SOL    HW136116   4.369   1.158  12.431 -2.1571  2.0569 -0.6176
 8218SOL    HW236117   4.489   1.238  12.450 -0.3400 -0.2421  0.6049
 8219SOL     OW36118   1.389   0.734   0.229  0.1291  0.0978 -0.1767
 8219SOL    HW136119   1.463   0.701   0.280 -0.8317  0.0774  1.1994
 8219SOL    HW236120   1.340   0.652   0.219 -2.5851  1.6920  0.0940
 8220SOL     OW36121   4.664   3.960   9.042  0.4280  0.5252 -0.6894
 8220SOL    HW136122   4.623   4.041   9.012 -3.7318 -2.0245 -1.9658
 8220SOL    HW236123   4.584   3.907   9.037 -0.0749  1.2965 -0.8331
 8221SOL     OW36124   1.963   3.139   9.588 -0.0862  0.3310  1.2941
 8221SOL    HW136125   1.943   3.093   9.670  0.1136  0.0004  1.1609
 8221SOL    HW236126   1.886   3.113   9.538  0.3306  0.6263  0.5016
 8222SOL     OW36127   1.919   0.385   5.944 -0.2988  0.3253  0.0221
 8222SOL    HW136128   1.968   0.445   5.887  0.0317 -0.9651 -1.0429
 8222SOL    HW236129   1.840   0.415   5.899 -0.3316 -1.1153 -0.8890
 8223SOL     OW36130   2.623   4.084   5.909 -0.3395  0.0543  0.3397
 8223SOL    HW136131   2.640   4.178   5.914 -0.2993  0.1737 -1.8632
 8223SOL    HW236132   2.543   4.080   5.857 -0.0804  0.4134 -0.0927
 8224SOL     OW36133   3.184   1.866   8.582 -0.3126  0.3627  0.0751
 8224SOL    HW136134   3.158   1.791   8.636 -2.8586  1.8161  0.9151
 8224SOL    HW236135   3.257   1.896   8.636 -0.1679 -0.4783  0.3459
 8225SOL     OW36136   1.651   1.238   5.576  0.8564  0.0075  0.3706
 8225SOL    HW136137   1.653   1.170   5.509  0.3985  0.6172 -0.2581
 8225SOL    HW236138   1.687   1.307   5.520  0.5557 -0.7036 -0.7060
 8226SOL     OW36139   4.258   0.043   7.674 -0.1823  0.3730  0.0030
 8226SOL    HW136140   4.345   0.013   7.700 -0.0676  1.5469  0.9547
 8226SOL    HW236141   4.204   4.690   7.698  1.4522 -1.3649 -1.6865
 8227SOL     OW36142   4.100   3.482  12.678  0.0976  0.3278 -0.3344
 8227SOL    HW136143   4.127   3.514  12.592 -1.6008 -1.2563 -1.4653
 8227SOL    HW236144   4.063   3.397  12.653  0.4891  0.4464 -1.2986
 8228SOL     OW36145   3.512   1.920   8.061 -0.0351  0.2678 -0.5764
 8228SOL    HW136146   3.452   1.846   8.076 -1.6945  1.6776 -0.2649
 8228SOL    HW236147   3.494   1.972   8.139  1.5039  0.1150 -0.1348
 8229SOL     OW36148   3.085   3.172  10.584 -0.4417  0.0423  0.0693
 8229SOL    HW136149   3.129   3.087  10.574  0.3493  0.6114 -1.2807
 8229SOL    HW236150   3.002   3.138  10.618  1.2897 -1.1143  3.1619
 8230SOL     OW36151   2.368   2.668   4.803 -0.4669 -0.0426 -0.1783
 8230SOL    HW136152   2.433   2.724   4.761 -0.2233 -0.7633 -0.7698
 8230SOL    HW236153   2.357   2.715   4.886  0.6140  1.6502 -1.0052
 8231SOL     OW36154   0.206   2.354  14.769  0.1278 -0.1025 -0.4845
 8231SOL    HW136155   0.140   2.360  14.700  0.9774 -0.9272 -1.3724
 8231SOL    HW236156   0.254   2.275  14.742  1.0020  0.1622  0.2971
 8232SOL     OW36157   1.145   4.219   7.848  0.6549  0.9310 -0.1327
 8232SOL    HW136158   1.083   4.203   7.919  0.6115  0.3063 -0.3123
 8232SOL    HW236159   1.210   4.149   7.857  0.8524  1.4900  2.8652
 8233SOL     OW36160   0.314   4.129   4.914 -0.8539  0.7781 -0.3629
 8233SOL    HW136161   0.243   4.122   4.850  0.8668  0.0536 -2.1999
 8233SOL    HW236162   0.267   4.085   4.984  1.9594 -1.3931  0.1298
 8234SOL     OW36163   3.063   1.866   5.102  0.2354 -0.6126  0.3009
 8234SOL    HW136164   3.037   1.948   5.142 -0.4459 -1.5739  1.8281
 8234SOL    HW236165   3.083   1.815   5.180  1.4606  0.8412  0.9157
 8235SOL     OW36166   2.552   4.223  14.220  0.2302 -0.2462 -0.0294
 8235SOL    HW136167   2.456   4.215  14.219  0.3267 -1.3134 -0.2197
 8235SOL    HW236168   2.567   4.255  14.131 -0.0999 -0.9683 -0.3440
 8236SOL     OW36169   4.483   2.374  11.430 -0.0153 -0.2735 -0.3834
 8236SOL    HW136170   4.444   2.340  11.511  2.0633  2.5301  1.7857
 8236SOL    HW236171   4.528   2.301  11.388 -1.5014 -1.5059  0.1769
 8237SOL     OW36172   0.339   0.222  10.803  0.6315 -0.1239  0.0381
 8237SOL    HW136173   0.269   0.239  10.741  1.0716  0.2384 -0.3550
 8237SOL    HW236174   0.332   0.296  10.863  0.5606 -1.7610  2.0761
 8238SOL     OW36175   1.681   4.697   1.108 -0.3935  0.5522  0.8690
 8238SOL    HW136176   1.612   0.036   1.079 -1.0975 -1.1283 -0.9674
 8238SOL    HW236177   1.739   0.030   1.160  2.6036 -0.9271 -0.9541
 8239SOL     OW36178   0.091   2.692   9.907  0.3430  0.7058  0.4048
 8239SOL    HW136179   0.158   2.742   9.860  0.2267  1.1695  0.7271
 8239SOL    HW236180   0.022   2.756   9.923 -3.3255 -3.4349  1.1773
 8240SOL     OW36181   4.446   1.629  10.464  0.5759  0.4307 -0.4326
 8240SOL    HW136182   4.454   1.690  10.392 -1.1129  1.7989  0.5454
 8240SOL    HW236183   4.408   1.689  10.528  1.3682  1.2404 -0.7327
 8241SOL     OW36184   0.272   4.571   7.140 -0.5370  0.1582 -0.2110
 8241SOL    HW136185   0.330   4.614   7.077  1.1205  0.1517  1.2864
 8241SOL    HW236186   0.254   4.483   7.108  0.3717 -0.4576  0.9697
 8242SOL     OW36187   2.568   2.085   3.475  0.3239  0.4498 -0.1113
 8242SOL    HW136188   2.577   2.068   3.569  0.8659 -1.6451 -0.5330
 8242SOL    HW236189   2.475   2.098   3.461  0.5500  2.5336  0.2546
 8243SOL     OW36190   4.662   0.408   7.122  0.7236 -0.7287  0.4809
 8243SOL    HW136191   4.707   0.453   7.051  0.2923 -0.2284  0.5236
 8243SOL    HW236192   4.661   0.322   7.081 -1.2227  0.5459 -2.1208
 8244SOL     OW36193   1.416   2.079  15.602 -0.7394  0.2629  0.7028
 8244SOL    HW136194   1.423   1.988  15.574  0.5285 -0.0457  1.9820
 8244SOL    HW236195   1.350   2.119  15.546 -1.0807 -0.5489  0.5307
 8245SOL     OW36196   3.620   2.992   1.680  0.2257 -0.1476 -0.6605
 8245SOL    HW136197   3.677   3.064   1.706  0.0191 -0.2232 -0.0192
 8245SOL    HW236198   3.555   2.991   1.750  0.7832 -2.1883 -0.1543
 8246SOL     OW36199   4.266   1.614   1.865  0.6357 -0.0017 -0.0806
 8246SOL    HW136200   4.247   1.533   1.913 -1.8796  0.6027 -0.0742
 8246SOL    HW236201   4.362   1.618   1.871  0.5521  0.1603  1.0758
 8247SOL     OW36202   4.475   3.707   2.851 -0.6565  0.3052  0.2299
 8247SOL    HW136203   4.517   3.756   2.922 -0.5661 -0.6911  0.8545
 8247SOL    HW236204   4.531   3.630   2.846  1.3559  1.8601 -1.4243
 8248SOL     OW36205   2.495   1.496   8.297  0.2066  0.3130 -0.6634
 8248SOL    HW136206   2.487   1.592   8.296 -1.6945  0.1492 -0.3254
 8248SOL    HW236207   2.403   1.482   8.319  0.7698  0.3027  1.6583
 8249SOL     OW36208   4.188   0.558  14.234  0.5793 -0.4063 -0.0042
 8249SOL    HW136209   4.273   0.529  14.200  0.5891  0.2915 -0.5683
 8249SOL    HW236210   4.202   0.648  14.265  0.5498 -0.4354  0.0952
 8250SOL     OW36211   3.101   4.532  10.112  0.1691 -0.4865 -0.2414
 8250SOL    HW136212   3.061   4.610  10.073  0.0251 -0.5576 -0.2365
 8250SOL    HW236213   3.106   4.472  10.037  0.9980 -2.6014  1.5142
 8251SOL     OW36214   4.671   2.697   8.034 -0.6252 -0.2034  0.1806
 8251SOL    HW136215   4.700   2.617   7.991 -2.2367 -0.0026 -1.2608
 8251SOL    HW236216   4.592   2.664   8.076 -1.1772  1.3238  0.3641
 8252SOL     OW36217   1.110   0.523   4.243  0.2386  0.2967 -0.5145
 8252SOL    HW136218   1.089   0.430   4.250 -0.4090  0.3933 -1.1568
 8252SOL    HW236219   1.092   0.540   4.150 -0.7946 -0.9248 -0.5338
 8253SOL     OW36220   4.032   3.556  14.741  0.3579 -0.2519 -0.0058
 8253SOL    HW136221   4.023   3.574  14.835 -0.8976 -1.6482  0.1459
 8253SOL    HW236222   4.104   3.493  14.729  0.7278 -0.3298  2.5970
 8254SOL     OW36223   3.774   4.287   3.599  0.0661  0.1156 -0.3019
 8254SOL    HW136224   3.793   4.242   3.517 -0.4166 -0.6440  0.0007
 8254SOL    HW236225   3.857   4.334   3.607  0.6356 -1.1701  1.4550
 8255SOL     OW36226   4.133   3.517   4.633  0.0655  0.6909 -0.2392
 8255SOL    HW136227   4.095   3.507   4.721  1.2120 -2.2255 -0.0718
 8255SOL    HW236228   4.135   3.612   4.619  2.6150  0.7235  0.2970
 8256SOL     OW36229   0.740   2.486   6.264  0.1278  0.0507  0.3997
 8256SOL    HW136230   0.699   2.572   6.251  1.2137  0.6831  1.2110
 8256SOL    HW236231   0.668   2.441   6.309 -0.9958  1.6143  0.1832
 8257SOL     OW36232   1.673   2.887   7.773  0.3898 -0.1352 -0.0165
 8257SOL    HW136233   1.685   2.974   7.811  0.4422 -0.4607  0.7268
 8257SOL    HW236234   1.718   2.900   7.689 -0.2254  0.9378 -0.1844
 8258SOL     OW36235   2.097   1.540  15.013  0.1847 -0.5431  0.1024
 8258SOL    HW136236   2.072   1.617  15.065 -1.2305 -2.8594  2.7868
 8258SOL    HW236237   2.021   1.488  15.037 -0.5425  1.5015  2.1961
 8259SOL     OW36238   0.775   3.005   1.723 -0.1532  0.2612  0.5971
 8259SOL    HW136239   0.835   2.954   1.669  0.0189  1.8935 -0.7257
 8259SOL    HW236240   0.702   2.943   1.726  0.5556 -0.5044  2.1640
 8260SOL     OW36241   2.138   4.643   4.751  0.3017  0.2398 -0.0159
 8260SOL    HW136242   2.118   0.009   4.786 -3.0838 -0.2772 -0.7001
 8260SOL    HW236243   2.054   4.597   4.753  0.5112 -0.1434 -0.1615
 8261SOL     OW36244   1.951   3.860  10.947  0.0760 -0.1709  0.0967
 8261SOL    HW136245   2.022   3.874  11.010  0.1653 -1.5508  0.2884
 8261SOL    HW236246   1.876   3.884  11.001  0.7005  0.2750  0.7745
 8262SOL     OW36247   2.221   3.315   7.248 -0.5834 -0.0504  0.2956
 8262SOL    HW136248   2.138   3.270   7.262 -1.8509  1.9557 -0.7355
 8262SOL    HW236249   2.270   3.287   7.326 -0.3536  1.5063  0.7177
 8263SOL     OW36250   3.025   2.815   5.806  0.4044 -0.1107 -0.4599
 8263SOL    HW136251   3.084   2.760   5.755  0.5434 -0.8949  0.5364
 8263SOL    HW236252   3.030   2.892   5.750 -1.2413  0.9418  0.8502
 8264SOL     OW36253   0.416   2.722   8.606  0.0930 -0.3485  0.2282
 8264SOL    HW136254   0.465   2.788   8.557  0.4827  1.1962  2.6816
 8264SOL    HW236255   0.459   2.722   8.691  0.2498  0.1997  0.1456
 8265SOL     OW36256   0.585   2.780   1.865 -0.7008 -0.6114 -0.6092
 8265SOL    HW136257   0.631   2.716   1.920 -0.1966  0.6899  0.4811
 8265SOL    HW236258   0.579   2.856   1.922 -1.8122  0.7191 -2.5355
 8266SOL     OW36259   4.294   1.788  11.889  0.3676 -0.0849 -0.5565
 8266SOL    HW136260   4.267   1.733  11.816  0.7287 -0.4738 -0.3980
 8266SOL    HW236261   4.387   1.783  11.867  0.4876  1.6571 -0.4650
 8267SOL     OW36262   3.025   2.322   2.699  0.0776 -0.7428  0.0116
 8267SOL    HW136263   3.056   2.394   2.643  1.1636 -1.8350 -0.8065
 8267SOL    HW236264   3.074   2.248   2.661 -1.5214 -1.7715 -0.0482
 8268SOL     OW36265   0.587   3.478   4.408 -0.2846 -0.2243 -0.5637
 8268SOL    HW136266   0.647   3.538   4.364 -1.3296  0.9748 -0.3397
 8268SOL    HW236267   0.648   3.422   4.456 -2.3425 -0.4930  1.7319
 8269SOL     OW36268   4.276   2.450  15.542  0.0648 -0.5402 -0.1201
 8269SOL    HW136269   4.334   2.400  15.599 -0.1136 -0.5896  0.0213
 8269SOL    HW236270   4.282   2.404  15.459 -0.5504  0.2997 -0.6380
 8270SOL     OW36271   2.330   1.587   6.884 -0.2559 -0.3700  0.2044
 8270SOL    HW136272   2.344   1.677   6.856 -0.2518 -0.8090 -1.1915
 8270SOL    HW236273   2.338   1.607   6.977  1.6966  0.4714 -0.1418
 8271SOL     OW36274   1.244   0.156   3.720  0.1646  0.3600  0.0173
 8271SOL    HW136275   1.309   0.130   3.655  1.4246  2.2648  0.5201
 8271SOL    HW236276   1.271   0.245   3.741  2.5524 -0.9922  2.5356
 8272SOL     OW36277   1.347   4.384  15.268 -0.1864 -1.3010 -0.6502
 8272SOL    HW136278   1.275   4.378  15.331 -0.0492  1.1867 -0.2531
 8272SOL    HW236279   1.409   4.326  15.312 -0.6875 -0.1571  1.5454
 8273SOL     OW36280   4.447   4.090   5.968 -0.1078  0.6670 -0.5588
 8273SOL    HW136281   4.535   4.067   5.997 -0.8250  0.6258  1.5619
 8273SOL    HW236282   4.399   4.075   6.049  0.6669 -0.5000 -0.3091
 8274SOL     OW36283   2.688   3.543   4.093 -0.3456  0.3698  0.0423
 8274SOL    HW136284   2.731   3.459   4.081  0.8712  0.8601  1.0204
 8274SOL    HW236285   2.714   3.589   4.013 -0.1210 -1.1850 -0.7828
 8275SOL     OW36286   1.053   3.036  12.811  0.3409  0.3275 -0.4871
 8275SOL    HW136287   1.145   3.016  12.791  1.0695  1.2057  1.9487
 8275SOL    HW236288   1.059   3.119  12.858  0.3869  1.1962 -2.0308
 8276SOL     OW36289   0.922   0.274  12.404 -0.6016 -0.0218  0.0064
 8276SOL    HW136290   1.016   0.265  12.389 -0.6926  0.5076 -0.9045
 8276SOL    HW236291   0.905   0.207  12.470 -1.2637 -1.0349 -1.1853
 8277SOL     OW36292   3.572   3.102   9.155 -0.0934  0.1008 -0.5978
 8277SOL    HW136293   3.544   3.053   9.233  2.5526 -0.8067 -0.2142
 8277SOL    HW236294   3.536   3.047   9.085 -0.8406  0.4044 -0.4447
 8278SOL     OW36295   0.619   4.555  12.375  0.4722 -0.4548 -0.3947
 8278SOL    HW136296   0.618   4.487  12.442  0.0250 -0.0575 -0.0050
 8278SOL    HW236297   0.705   4.536  12.337  0.9251  1.6934 -0.4787
 8279SOL     OW36298   3.465   1.283  13.855 -0.2250 -0.2747 -0.3568
 8279SOL    HW136299   3.538   1.300  13.796 -0.5263 -0.5344 -0.8007
 8279SOL    HW236300   3.497   1.209  13.907  0.4325 -0.9579 -1.7435
 8280SOL     OW36301   2.321   0.966   3.742  0.0037  0.5693  0.0642
 8280SOL    HW136302   2.228   0.961   3.719  0.0032 -3.8273  1.1207
 8280SOL    HW236303   2.357   0.996   3.659  0.2488  1.1115  0.3652
 8281SOL     OW36304   3.739   2.244  14.984 -0.2808  0.2476  0.8280
 8281SOL    HW136305   3.835   2.240  14.987 -0.3500 -2.0548  0.5021
 8281SOL    HW236306   3.712   2.238  15.075  0.6614  2.6947  1.2497
 8282SOL     OW36307   1.481   0.762   7.234 -0.9091  0.1704 -0.0577
 8282SOL    HW136308   1.517   0.777   7.322  1.1210  0.8260 -0.9904
 8282SOL    HW236309   1.414   0.694   7.234  0.8627 -1.5980 -3.0951
 8283SOL     OW36310   3.213   3.220   3.381 -0.3134 -0.4884 -0.2496
 8283SOL    HW136311   3.171   3.289   3.329  1.8348  0.0974 -1.2189
 8283SOL    HW236312   3.229   3.151   3.317 -0.8597 -2.0626  1.3240
 8284SOL     OW36313   2.759   2.276   3.630  0.2796 -0.4626  0.0618
 8284SOL    HW136314   2.726   2.356   3.588  0.0206 -0.7891 -0.3583
 8284SOL    HW236315   2.847   2.273   3.592  0.2941  0.2571  0.0383
 8285SOL     OW36316   3.338   2.614   2.598 -0.6841 -0.2503 -0.0201
 8285SOL    HW136317   3.341   2.558   2.676  2.1026  1.1133  0.8451
 8285SOL    HW236318   3.430   2.635   2.581 -0.7597  1.2133  1.3599
 8286SOL     OW36319   0.185   0.475  12.660  0.2725 -0.0669  0.0763
 8286SOL    HW136320   0.150   0.450  12.574 -1.7735 -0.0210  0.8883
 8286SOL    HW236321   0.216   0.391  12.694  0.8242 -0.4889 -1.4643
 8287SOL     OW36322   1.762   1.391   6.703 -0.4046 -0.0059  0.3964
 8287SOL    HW136323   1.739   1.336   6.628  1.9227 -1.4836  0.7802
 8287SOL    HW236324   1.822   1.325   6.736 -0.4170 -0.5456 -0.6562
 8288SOL     OW36325   2.155   1.838   3.505  0.3399  0.2139 -0.1455
 8288SOL    HW136326   2.106   1.771   3.553 -0.1247  0.1165 -0.7605
 8288SOL    HW236327   2.241   1.808   3.532  0.1817  0.8442  1.0698
 8289SOL     OW36328   1.227   0.830   4.550  0.2176 -0.2277  0.2867
 8289SOL    HW136329   1.276   0.912   4.546  2.2647 -1.5124 -0.9489
 8289SOL    HW236330   1.173   0.841   4.629  0.2414  1.2721  0.0987
 8290SOL     OW36331   2.556   0.655  15.362 -0.4227 -0.5223  0.1162
 8290SOL    HW136332   2.564   0.706  15.443 -1.5035  1.1679 -0.8270
 8290SOL    HW236333   2.573   0.565  15.390 -1.2672 -0.5905  0.4196
 8291SOL     OW36334   4.608   3.008   1.396 -0.3707  0.0656  0.6115
 8291SOL    HW136335   4.559   3.088   1.377 -0.1411  0.1571  0.4024
 8291SOL    HW236336   4.541   2.939   1.404 -0.1307 -0.0538  1.5765
 8292SOL     OW36337   2.412   4.353   5.475 -0.3919 -0.2238 -0.0090
 8292SOL    HW136338   2.506   4.335   5.480 -0.0672  1.0553 -1.5623
 8292SOL    HW236339   2.366   4.270   5.487  0.6931 -0.8327 -0.0348
 8293SOL     OW36340   0.819   2.235   3.604 -0.2642  0.5953 -0.8636
 8293SOL    HW136341   0.783   2.153   3.572  1.1724 -0.3460 -0.0618
 8293SOL    HW236342   0.912   2.211   3.604 -0.8850 -1.8367 -0.7833
 8294SOL     OW36343   0.498   2.329  16.571 -0.1670  0.0112  0.3755
 8294SOL    HW136344   0.423   2.302  16.623 -0.9888  0.6152 -0.4823
 8294SOL    HW236345   0.483   2.421  16.549  1.7635  0.6036  1.6071
 8295SOL     OW36346   4.306   3.023  12.938 -0.0236  0.2881 -0.2531
 8295SOL    HW136347   4.303   3.023  12.842 -1.5077  0.1779 -0.2159
 8295SOL    HW236348   4.389   2.975  12.944  1.3105  2.1072 -4.0548
 8296SOL     OW36349   1.886   1.237   5.730  0.7087  0.0316 -0.0301
 8296SOL    HW136350   1.793   1.238   5.706  1.1125 -3.5401 -1.7280
 8296SOL    HW236351   1.878   1.303   5.799  1.0267  0.8709 -0.7933
 8297SOL     OW36352   4.134   4.242  14.697 -0.2244 -0.4212  0.4864
 8297SOL    HW136353   4.048   4.214  14.729 -0.9699 -0.1816 -1.3572
 8297SOL    HW236354   4.185   4.242  14.778 -0.6943 -0.8396  0.7822
 8298SOL     OW36355   2.913   3.792   3.697 -0.7279 -0.2312 -0.2094
 8298SOL    HW136356   3.008   3.794   3.710 -0.7022  0.4989 -0.4740
 8298SOL    HW236357   2.905   3.887   3.683  2.0864  0.3161  1.7540
 8299SOL     OW36358   2.494   4.370   8.151 -0.1668 -0.2339  0.0681
 8299SOL    HW136359   2.483   4.378   8.056  0.8207  2.5136  0.2025
 8299SOL    HW236360   2.490   4.464   8.168  0.4380 -0.1563 -0.2368
 8300SOL     OW36361   3.582   4.565   5.956 -0.9581  0.2134 -0.3476
 8300SOL    HW136362   3.620   4.485   5.995  2.2243  0.7817 -2.2529
 8300SOL    HW236363   3.601   4.631   6.023 -2.4698  2.1276 -1.8210
 8301SOL     OW36364   2.496   4.601   2.464 -0.3662  0.7546  0.0206
 8301SOL    HW136365   2.500   4.555   2.380  1.8966  0.6637  0.1706
 8301SOL    HW236366   2.414   4.567   2.498  0.5966 -0.0508  1.5394
 8302SOL     OW36367   1.994   0.279   9.476 -0.7235 -0.4066  0.3238
 8302SOL    HW136368   1.994   0.278   9.572  0.5765  0.0212  0.3338
 8302SOL    HW236369   1.980   0.373   9.467 -0.5331 -0.3683  0.4200
 8303SOL     OW36370   0.264   1.573  17.037  0.1908 -0.3139 -0.4368
 8303SOL    HW136371   0.209   1.620  17.100  3.3862 -0.5694  2.5355
 8303SOL    HW236372   0.210   1.504  16.998  0.5068 -0.8525  0.0925
 8304SOL     OW36373   3.936   2.464   3.232 -0.0944 -0.1238 -0.5824
 8304SOL    HW136374   3.976   2.456   3.145  0.6501 -0.2593 -0.2254
 8304SOL    HW236375   3.846   2.488   3.209 -0.8062 -1.6555  0.5920
 8305SOL     OW36376   2.462   1.271  16.712  0.0766  0.2178 -0.3358
 8305SOL    HW136377   2.528   1.236  16.771 -1.0406 -0.5967  0.4359
 8305SOL    HW236378   2.479   1.361  16.738  0.9824 -0.4147  1.2734
 8306SOL     OW36379   1.111   3.128  15.719 -0.2277 -0.5063  0.0003
 8306SOL    HW136380   1.025   3.121  15.761 -0.7442 -0.6705 -1.0934
 8306SOL    HW236381   1.149   3.042  15.734  0.4524  0.1959  2.3215
 8307SOL     OW36382   3.389   4.002  13.820  0.3667  0.0734  0.0317
 8307SOL    HW136383   3.358   3.981  13.908 -1.0298 -0.0846 -0.4999
 8307SOL    HW236384   3.464   4.049  13.855  0.1044  0.2157  0.4019
 8308SOL     OW36385   4.290   2.415   2.261 -0.5216 -0.0039  0.4369
 8308SOL    HW136386   4.219   2.401   2.323 -0.5046  0.2763  0.5214
 8308SOL    HW236387   4.294   2.337   2.207 -1.4299 -0.1641  0.6043
 8309SOL     OW36388   2.405   0.473  10.945 -0.2615  0.0379  0.0327
 8309SOL    HW136389   2.391   0.458  10.852  0.6778  1.2664 -0.3028
 8309SOL    HW236390   2.322   0.518  10.959 -1.2318 -1.2829 -1.4579
 8310SOL     OW36391   3.961   2.708   6.290  0.6384 -0.0208  0.7062
 8310SOL    HW136392   3.987   2.785   6.339  0.9157 -0.0632  0.6259
 8310SOL    HW236393   3.978   2.634   6.348  1.6228  0.8881  1.5757
 8311SOL     OW36394   0.296   1.223   4.316 -0.5088  0.1477 -0.0871
 8311SOL    HW136395   0.369   1.285   4.308 -0.3537 -0.0212  0.0399
 8311SOL    HW236396   0.295   1.179   4.231 -0.4773 -0.2400  0.1158
 8312SOL     OW36397   2.132   2.114   5.950  0.3412 -0.2205  0.4436
 8312SOL    HW136398   2.045   2.121   5.910  0.0462  0.7477  1.2591
 8312SOL    HW236399   2.165   2.197   5.917  0.0612  0.3586  1.6194
 8313SOL     OW36400   0.652   3.588   5.270 -0.1087  0.5764 -0.1087
 8313SOL    HW136401   0.562   3.620   5.264 -0.2877  0.2473  0.8010
 8313SOL    HW236402   0.655   3.548   5.357  0.1403  1.0158  0.0835
 8314SOL     OW36403   4.203   4.617  11.689 -0.1130  0.2956 -0.0447
 8314SOL    HW136404   4.280   4.616  11.745 -0.3766 -1.4945  0.2846
 8314SOL    HW236405   4.176   4.525  11.692  2.3450 -0.4425 -0.3011
 8315SOL     OW36406   1.314   3.340   9.500 -0.3064  0.5512 -0.4325
 8315SOL    HW136407   1.250   3.410   9.486 -2.5123 -0.9908  1.8286
 8315SOL    HW236408   1.379   3.364   9.434  0.8019  1.2705  0.9221
 8316SOL     OW36409   0.924   2.581  10.817 -0.1765  0.1833  0.1873
 8316SOL    HW136410   0.906   2.614  10.730 -1.9077  1.0007  0.8657
 8316SOL    HW236411   1.008   2.626  10.828  1.1429 -2.4433  1.1371
 8317SOL     OW36412   2.008   4.626   1.478 -0.2740  0.1025 -0.3196
 8317SOL    HW136413   1.968   4.654   1.396  0.9829 -1.2917 -1.4113
 8317SOL    HW236414   1.967   4.539   1.472 -0.0990  0.1688 -2.4731
 8318SOL     OW36415   2.308   3.956   5.210 -0.3600  0.1403 -0.0019
 8318SOL    HW136416   2.338   3.990   5.126 -0.8723 -1.9971 -1.0460
 8318SOL    HW236417   2.382   3.898   5.227  0.4986  1.1202 -0.4174
 8319SOL     OW36418   2.506   0.047   7.203  0.0350  0.4860 -0.1897
 8319SOL    HW136419   2.424   0.078   7.164 -1.0486  1.0389  2.5451
 8319SOL    HW236420   2.573   0.109   7.175  0.1369  0.7139  0.5710
 8320SOL     OW36421   1.436   1.732   2.865 -0.3845  0.2950 -0.1655
 8320SOL    HW136422   1.383   1.811   2.865  0.2400  0.7124  1.2511
 8320SOL    HW236423   1.389   1.680   2.800  0.0447  0.0353 -0.2758
 8321SOL     OW36424   2.875   3.954   4.242  0.3976  0.6071  0.4625
 8321SOL    HW136425   2.827   3.893   4.299 -0.1926  1.5863  1.0103
 8321SOL    HW236426   2.818   3.962   4.166  1.1000  2.1153  0.1016
 8322SOL     OW36427   1.763   2.995   8.412 -0.3601 -0.7043  0.4329
 8322SOL    HW136428   1.786   3.076   8.458  0.6080 -0.1520 -1.0337
 8322SOL    HW236429   1.783   2.930   8.479 -2.5324 -0.4687  1.2848
 8323SOL     OW36430   4.434   3.525   8.119  0.4338 -0.1823 -0.3158
 8323SOL    HW136431   4.437   3.557   8.209 -2.4793 -1.0600  0.0923
 8323SOL    HW236432   4.447   3.430   8.120 -0.0916 -0.2418  0.4463
 8324SOL     OW36433   3.897   0.305   2.411 -0.0873  0.3318 -0.2406
 8324SOL    HW136434   3.973   0.362   2.398  0.5356 -0.7172 -1.1943
 8324SOL    HW236435   3.868   0.280   2.324 -1.5499  2.3346 -0.3391
 8325SOL     OW36436   2.316   1.583  13.705 -0.3484  0.1629  0.2182
 8325SOL    HW136437   2.371   1.541  13.772 -1.4977  1.8021  2.1831
 8325SOL    HW236438   2.254   1.630  13.760  0.1878  3.0286 -1.5977
 8326SOL     OW36439   2.189   2.229   5.298 -0.3176  0.2703 -0.1369
 8326SOL    HW136440   2.230   2.247   5.213  0.1621 -0.3417 -0.0295
 8326SOL    HW236441   2.136   2.309   5.306  0.9923  1.2564 -1.3575
 8327SOL     OW36442   4.467   0.366  11.440  0.5465 -0.3649  0.1992
 8327SOL    HW136443   4.463   0.279  11.401 -1.0423 -1.0900  1.9487
 8327SOL    HW236444   4.497   0.418  11.366 -1.4589 -0.1841 -0.4876
 8328SOL     OW36445   0.994   0.402   7.815  0.3172 -0.4136  0.2953
 8328SOL    HW136446   0.910   0.393   7.769  0.2943  1.2952  0.0223
 8328SOL    HW236447   1.029   0.483   7.778  1.6679 -0.6144  1.1276
 8329SOL     OW36448   0.549   2.454   9.777 -0.4217  0.0160  0.6160
 8329SOL    HW136449   0.567   2.450   9.683  2.1306  1.0756  1.0787
 8329SOL    HW236450   0.636   2.426   9.805 -0.1897 -2.0078 -2.1344
 8330SOL     OW36451   3.519   3.322   3.143 -0.8355 -0.2050  0.1321
 8330SOL    HW136452   3.574   3.244   3.156 -2.3518 -1.0803  1.2201
 8330SOL    HW236453   3.441   3.281   3.106 -0.5127  0.1335 -0.9458
 8331SOL     OW36454   4.509   2.267   6.381  0.0423  0.4919 -0.1848
 8331SOL    HW136455   4.425   2.284   6.338 -0.0279 -0.6947 -0.5189
 8331SOL    HW236456   4.567   2.283   6.308 -1.9937  0.6542 -1.7684
 8332SOL     OW36457   0.010   2.843   0.948 -0.7389  0.0068 -0.0521
 8332SOL    HW136458   0.042   2.799   1.027 -1.2730  1.4302  0.9570
 8332SOL    HW236459   0.037   2.773   0.889 -3.6537 -1.4459  0.3666
 8333SOL     OW36460   3.205   0.302  11.260  0.1292  0.7855  0.2766
 8333SOL    HW136461   3.246   0.267  11.339 -1.2953 -0.4361  0.4631
 8333SOL    HW236462   3.111   0.292  11.275  0.4112 -0.7034  0.9919
 8334SOL     OW36463   3.044   2.190  15.844 -0.4908 -0.1522 -0.0602
 8334SOL    HW136464   2.965   2.245  15.843  0.1271  0.7598  1.0421
 8334SOL    HW236465   3.034   2.142  15.926 -0.2134 -0.9281 -0.4901
 8335SOL     OW36466   0.271   3.395   4.141  0.2136  0.0098 -0.4114
 8335SOL    HW136467   0.220   3.355   4.071 -0.8672 -0.6388  0.7585
 8335SOL    HW236468   0.242   3.485   4.126 -0.1407 -0.6080 -3.3615
 8336SOL     OW36469   2.408   2.710   3.081  0.3015 -0.3733  0.5806
 8336SOL    HW136470   2.328   2.716   3.133  2.1140  1.7192  3.1414
 8336SOL    HW236471   2.377   2.647   3.016 -1.3735  1.5510 -0.5043
 8337SOL     OW36472   4.124   0.948   2.193  0.1633  0.5411 -0.1050
 8337SOL    HW136473   4.083   0.991   2.118  0.4818 -0.0293 -0.6109
 8337SOL    HW236474   4.166   1.025   2.230 -0.2959  0.5112  0.4805
 8338SOL     OW36475   3.450   3.986  12.262  0.6331  0.1802  0.3914
 8338SOL    HW136476   3.515   4.053  12.238  1.4610 -1.3471 -1.6992
 8338SOL    HW236477   3.367   4.033  12.268  0.3656 -0.3659  1.0337
 8339SOL     OW36478   3.912   0.378   0.778  0.1101 -0.3739 -0.2187
 8339SOL    HW136479   3.922   0.472   0.793  1.7530 -0.4997 -0.5086
 8339SOL    HW236480   3.978   0.350   0.841 -0.7043  0.2240  0.9021
 8340SOL     OW36481   1.993   3.259   0.100  0.0384  0.2804 -0.2293
 8340SOL    HW136482   1.900   3.235   0.100  0.5679 -1.7269 -0.9038
 8340SOL    HW236483   2.026   3.170   0.111  0.1190  0.1105 -1.9824
 8341SOL     OW36484   4.000   4.065  16.639 -0.1456 -0.0938  0.4534
 8341SOL    HW136485   4.054   4.136  16.676 -0.6127  0.6601 -0.3096
 8341SOL    HW236486   3.994   4.098  16.549 -1.3333 -3.2454 -0.5862
 8342SOL     OW36487   3.050   3.132   6.710  0.6500  0.2645  0.3605
 8342SOL    HW136488   2.984   3.191   6.744  0.0237  1.0554 -2.2322
 8342SOL    HW236489   2.991   3.088   6.648  0.7787  1.5323 -0.6638
 8343SOL     OW36490   4.408   4.137   2.408 -0.1170 -0.0444 -0.3082
 8343SOL    HW136491   4.387   4.085   2.331 -0.9090  2.4254 -1.7764
 8343SOL    HW236492   4.342   4.207   2.416 -2.2954 -2.5665  3.6722
 8344SOL     OW36493   2.121   2.468  13.463  0.4840  0.3845 -0.3400
 8344SOL    HW136494   2.121   2.530  13.536 -1.4988 -2.1888  1.8367
 8344SOL    HW236495   2.204   2.485  13.417 -0.2384  0.6826 -1.5159
 8345SOL     OW36496   1.960   1.148   8.787 -0.0947 -0.1302  0.8541
 8345SOL    HW136497   2.055   1.149   8.773 -0.3160  2.8642 -0.4574
 8345SOL    HW236498   1.941   1.225   8.840 -0.4604  1.0304 -0.9308
 8346SOL     OW36499   2.478   2.912   8.030  0.0959 -0.2499  0.2501
 8346SOL    HW136500   2.519   2.947   8.108 -1.5602  1.0287  0.5545
 8346SOL    HW236501   2.395   2.960   8.028  0.4523  0.3659  0.5666
 8347SOL     OW36502   3.798   4.665   3.417 -0.1386 -0.0998  0.2625
 8347SOL    HW136503   3.806   0.010   3.486 -1.4685  0.8806 -0.5201
 8347SOL    HW236504   3.705   4.644   3.422 -0.0380 -1.0473 -1.8164
 8348SOL     OW36505   0.690   4.588  11.254  0.1324 -0.0602  0.0344
 8348SOL    HW136506   0.747   4.529  11.205  0.6509 -1.1388  1.9184
 8348SOL    HW236507   0.664   4.541  11.334  0.4649 -2.6502 -1.3812
 8349SOL     OW36508   3.419   0.761   5.391  0.2927 -0.2816  0.3431
 8349SOL    HW136509   3.424   0.757   5.487 -4.4743  0.6214  0.6037
 8349SOL    HW236510   3.482   0.692   5.369 -1.7295 -2.5043  1.5817
 8350SOL     OW36511   4.256   0.764   4.418 -0.0165 -0.4831 -0.5491
 8350SOL    HW136512   4.246   0.823   4.492  1.1264 -1.2613  0.2380
 8350SOL    HW236513   4.229   0.824   4.349 -0.2589  0.0256 -0.0125
 8351SOL     OW36514   1.980   2.915  16.853 -0.0208 -0.2696 -0.0756
 8351SOL    HW136515   1.910   2.906  16.918  1.6919 -0.0222  1.7883
 8351SOL    HW236516   2.057   2.890  16.904  0.8657  3.8244  0.6031
 8352SOL     OW36517   1.865   1.170   1.044  0.1648 -0.0548 -0.1445
 8352SOL    HW136518   1.924   1.112   1.091 -0.8012 -0.0719  1.0364
 8352SOL    HW236519   1.819   1.218   1.113  0.2326 -0.3150  0.0816
 8353SOL     OW36520   0.201   3.565  12.419  0.2504 -0.4402 -0.5274
 8353SOL    HW136521   0.192   3.473  12.445 -1.8230 -0.7771 -2.4319
 8353SOL    HW236522   0.234   3.549  12.330 -1.2209 -2.3816 -0.7185
 8354SOL     OW36523   4.281   0.534   4.018 -0.1568 -0.1101 -0.1604
 8354SOL    HW136524   4.241   0.468   4.075  0.6898  1.1909  1.9475
 8354SOL    HW236525   4.231   0.512   3.939 -1.2450  0.3272  0.4116
 8355SOL     OW36526   0.840   1.197   1.249  0.2810  0.1762  0.1001
 8355SOL    HW136527   0.786   1.275   1.242  0.1323  0.2604  2.1556
 8355SOL    HW236528   0.793   1.125   1.206 -1.0745 -0.2261  2.2761
 8356SOL     OW36529   3.483   3.967   6.997 -0.4216  0.2123 -0.5977
 8356SOL    HW136530   3.503   3.873   6.997 -0.0080  0.3036 -1.2493
 8356SOL    HW236531   3.437   3.971   7.081 -0.0763 -1.2655 -0.3304
 8357SOL     OW36532   1.740   4.045   1.497 -0.1419 -0.3352 -0.5299
 8357SOL    HW136533   1.663   4.019   1.446  0.5817 -2.4904 -0.5204
 8357SOL    HW236534   1.787   3.963   1.508 -0.3639 -0.0388  2.6837
 8358SOL     OW36535   3.261   2.840   2.236  0.2155 -0.3658 -0.3545
 8358SOL    HW136536   3.211   2.806   2.162 -2.8406  0.0622  1.5091
 8358SOL    HW236537   3.314   2.763   2.258  0.7150  0.0683 -0.0045
 8359SOL     OW36538   3.966   0.960   8.543 -0.0757 -0.1235  0.1254
 8359SOL    HW136539   4.049   0.981   8.499  0.0744  0.8637  0.8796
 8359SOL    HW236540   3.990   0.887   8.602 -0.0479 -0.3334 -0.1453
 8360SOL     OW36541   3.448   2.170  13.013 -0.1953 -0.0126  0.3533
 8360SOL    HW136542   3.378   2.231  12.986 -1.4571 -1.7665 -0.3636
 8360SOL    HW236543   3.477   2.138  12.927 -0.6732  0.8397 -0.1342
 8361SOL     OW36544   1.845   1.023   6.949 -0.0120 -0.3437  0.0386
 8361SOL    HW136545   1.803   0.958   7.005 -2.1997  0.4369 -0.6990
 8361SOL    HW236546   1.763   1.037   6.901  0.3523  1.1012 -0.1722
 8362SOL     OW36547   0.434   2.050   6.125 -0.3601  0.3762  0.5015
 8362SOL    HW136548   0.450   2.020   6.035  0.2572  0.9725  0.4067
 8362SOL    HW236549   0.503   2.115   6.137 -0.7234  1.4608 -3.1566
 8363SOL     OW36550   1.163   3.653   7.849  0.3087 -0.2633 -0.2014
 8363SOL    HW136551   1.149   3.640   7.756  1.4534  0.2196 -0.4455
 8363SOL    HW236552   1.253   3.687   7.845  0.6407 -1.0278  0.7048
 8364SOL     OW36553   4.168   4.301   9.522  0.7902  0.2543  0.4253
 8364SOL    HW136554   4.092   4.244   9.506  1.0506  0.1586 -0.4732
 8364SOL    HW236555   4.233   4.240   9.557  0.4180  0.4097  1.3908
 8365SOL     OW36556   2.103   2.596  13.218  0.6094  0.3384  0.1643
 8365SOL    HW136557   2.147   2.669  13.263  0.5503  0.0463  0.6969
 8365SOL    HW236558   2.087   2.531  13.287  3.1530  1.9434  2.2795
 8366SOL     OW36559   1.744   2.432   0.992 -0.0182 -0.3865  0.0096
 8366SOL    HW136560   1.685   2.405   1.063  0.6283 -5.1931 -1.3071
 8366SOL    HW236561   1.753   2.526   1.008 -0.5032 -0.5242  1.0992
 8367SOL     OW36562   2.926   3.348   3.666 -0.0125  0.3430  0.0024
 8367SOL    HW136563   2.988   3.395   3.610  2.4599 -0.5411  1.9606
 8367SOL    HW236564   2.938   3.261   3.628  0.4630  1.3051 -2.0045
 8368SOL     OW36565   1.111   3.381   6.787 -0.6945 -0.1093  0.0648
 8368SOL    HW136566   1.102   3.471   6.818  0.6029  0.0422  0.0177
 8368SOL    HW236567   1.098   3.328   6.866 -1.2408  2.1419  1.4856
 8369SOL     OW36568   0.917   3.710   8.097 -0.2892 -0.5901 -0.0203
 8369SOL    HW136569   0.983   3.704   8.028 -1.6165  0.5822 -1.3828
 8369SOL    HW236570   0.927   3.629   8.147 -1.4116  0.0970  1.3225
 8370SOL     OW36571   3.286   3.062   5.851  0.0683 -0.4082  0.5359
 8370SOL    HW136572   3.321   3.097   5.769  0.6019  2.4604  1.9884
 8370SOL    HW236573   3.339   3.101   5.920 -0.0528  1.1325 -0.2457
 8371SOL     OW36574   3.163   1.366   8.589 -0.2192  0.7531  0.5703
 8371SOL    HW136575   3.236   1.305   8.580 -0.4544  0.6798 -0.8023
 8371SOL    HW236576   3.147   1.403   8.502 -2.5640 -0.9626  0.2915
 8372SOL     OW36577   0.379   0.361   6.408 -0.6439  0.3422 -1.0201
 8372SOL    HW136578   0.436   0.310   6.466 -1.2363  1.3462  0.4451
 8372SOL    HW236579   0.405   0.449   6.437 -0.8158 -0.5095  1.7503
 8373SOL     OW36580   0.455   0.886  17.617  0.3216 -0.1116 -0.0274
 8373SOL    HW136581   0.392   0.855  17.681 -1.0721  1.3651 -0.6706
 8373SOL    HW236582   0.398   0.905  17.542  0.4924 -0.5078 -0.2604
 8374SOL     OW36583   1.748   2.449   7.434  0.4192  0.0208 -0.1815
 8374SOL    HW136584   1.667   2.399   7.427 -0.2027  0.5012  3.5342
 8374SOL    HW236585   1.720   2.521   7.492  2.3871  0.4068  0.2733
 8375SOL     OW36586   2.251   1.955   6.952  0.5969  0.2074 -0.7652
 8375SOL    HW136587   2.303   2.020   6.999 -1.1297  1.8068 -1.0639
 8375SOL    HW236588   2.206   2.009   6.887  1.0142  1.0291 -0.3633
 8376SOL     OW36589   1.896   4.608   7.238  0.2577 -0.0377  0.0551
 8376SOL    HW136590   1.852   4.570   7.163  0.5078 -1.1715  0.4801
 8376SOL    HW236591   1.828   4.584   7.302  0.6840 -1.4952 -0.0377
 8377SOL     OW36592   2.796   3.569   7.482  0.1403  0.0189  0.2428
 8377SOL    HW136593   2.782   3.499   7.547 -0.6035  0.2663  0.3530
 8377SOL    HW236594   2.706   3.597   7.464  0.3784  0.6745  0.0889
 8378SOL     OW36595   4.430   4.170   3.629 -0.1792 -0.0551  0.4233
 8378SOL    HW136596   4.458   4.152   3.540 -1.0316  0.6584  0.0149
 8378SOL    HW236597   4.437   4.264   3.647  1.9603  0.5466 -3.6229
 8379SOL     OW36598   4.338   3.004   3.063 -0.2510  0.2215 -0.3146
 8379SOL    HW136599   4.264   2.953   3.029 -0.0687  0.0145 -0.4086
 8379SOL    HW236600   4.377   2.945   3.128 -1.1753 -0.8263 -0.7048
 8380SOL     OW36601   3.540   4.667   1.694  0.6197 -0.0429 -0.6223
 8380SOL    HW136602   3.577   0.033   1.683  0.0817  0.1629 -0.7693
 8380SOL    HW236603   3.607   4.636   1.756 -0.0985 -0.8231 -0.2339
 8381SOL     OW36604   2.370   0.676   8.174  0.4732  0.3053 -0.2624
 8381SOL    HW136605   2.393   0.764   8.145 -2.4079  1.1857  0.0906
 8381SOL    HW236606   2.416   0.672   8.258  2.7255  1.6612 -1.4379
 8382SOL     OW36607   1.069   1.088   0.492  0.2707  0.1991 -0.1834
 8382SOL    HW136608   1.016   1.065   0.415  0.4967 -0.6182 -0.0919
 8382SOL    HW236609   1.157   1.061   0.466 -0.0257 -0.2781 -0.7184
 8383SOL     OW36610   3.804   1.901  16.310  0.3999 -0.0795 -0.0381
 8383SOL    HW136611   3.870   1.869  16.370  1.7324  1.3083 -0.7543
 8383SOL    HW236612   3.725   1.894  16.364  0.9849 -2.7681  0.4409
 8384SOL     OW36613   0.280   1.850  12.109 -0.5414  0.0690 -0.2296
 8384SOL    HW136614   0.355   1.852  12.168 -2.9293  0.1305  2.7848
 8384SOL    HW236615   0.261   1.944  12.104  2.1409  0.5960 -0.4404
 8385SOL     OW36616   1.933   1.776  15.494  0.2606 -0.0358 -0.5004
 8385SOL    HW136617   1.925   1.786  15.399 -1.9031  0.4273 -0.2624
 8385SOL    HW236618   1.997   1.841  15.524  0.5197  0.3951 -1.9558
 8386SOL     OW36619   0.554   0.362  17.422  0.3099  0.1450  0.1927
 8386SOL    HW136620   0.649   0.357  17.419  0.3387  1.2641 -1.0074
 8386SOL    HW236621   0.531   0.360  17.329  0.2404  0.5898  0.1978
 8387SOL     OW36622   2.250   2.160   3.260 -0.1448 -0.0769  0.4644
 8387SOL    HW136623   2.306   2.110   3.200 -0.1025  0.0344  0.4117
 8387SOL    HW236624   2.272   2.120   3.344 -1.8816  1.6339  1.7165
 8388SOL     OW36625   4.109   3.425   7.651 -0.1551  0.2223 -0.4364
 8388SOL    HW136626   4.014   3.437   7.652 -0.2925 -0.7202 -1.7604
 8388SOL    HW236627   4.139   3.513   7.674  2.1398 -0.7090  0.1337
 8389SOL     OW36628   1.838   2.467   5.434 -0.7242  0.5770  0.1123
 8389SOL    HW136629   1.879   2.438   5.516 -2.9989 -0.7222  0.8027
 8389SOL    HW236630   1.830   2.379   5.397  1.7793 -0.9394  3.1570
 8390SOL     OW36631   2.474   4.664   0.589 -0.3318  0.3664 -0.0744
 8390SOL    HW136632   2.390   4.703   0.611 -0.4141  0.1265  0.0392
 8390SOL    HW236633   2.460   4.579   0.632 -0.7033  0.6375  0.3326
 8391SOL     OW36634   1.373   2.642   8.789  0.2410  0.0248  0.3650
 8391SOL    HW136635   1.373   2.559   8.740  0.5472  0.2318  0.0118
 8391SOL    HW236636   1.402   2.610   8.874 -0.3174 -2.9704 -0.5367
 8392SOL     OW36637   4.229   1.361   7.442  0.3364 -0.4835  0.0680
 8392SOL    HW136638   4.305   1.413   7.467  1.0228 -1.2159 -0.4760
 8392SOL    HW236639   4.272   1.276   7.430 -2.7231 -1.8698 -0.8507
 8393SOL     OW36640   2.730   0.868  10.576  0.7132  0.3586 -0.1518
 8393SOL    HW136641   2.817   0.874  10.538  0.1837  1.2406 -1.2309
 8393SOL    HW236642   2.751   0.806  10.646  0.8989  0.7227  0.1149
 8394SOL     OW36643   3.138   0.254   2.812  0.1664 -0.0344  0.6131
 8394SOL    HW136644   3.190   0.331   2.836  1.1774 -1.5176  3.2031
 8394SOL    HW236645   3.080   0.300   2.751 -1.1382 -0.9174  1.2134
 8395SOL     OW36646   1.464   3.218   0.716  0.3109 -0.3361 -0.2629
 8395SOL    HW136647   1.390   3.179   0.763 -0.5972  2.4140  0.5356
 8395SOL    HW236648   1.540   3.170   0.751 -0.7838  0.0390  2.6144
 8396SOL     OW36649   1.373   1.229   7.897 -0.4956  0.3273 -0.6103
 8396SOL    HW136650   1.402   1.155   7.843  0.3534 -0.7157  1.2624
 8396SOL    HW236651   1.299   1.265   7.849 -0.4599  0.6018 -0.4588
 8397SOL     OW36652   2.174   3.806   2.453 -1.2749 -0.0542  0.4577
 8397SOL    HW136653   2.176   3.711   2.465  0.4644 -0.0931 -0.1957
 8397SOL    HW236654   2.144   3.813   2.362  1.4407  1.0845 -0.3576
 8398SOL     OW36655   2.558   1.127   3.840 -0.5312  0.1504  0.2739
 8398SOL    HW136656   2.570   1.036   3.814  0.9539 -0.1392  1.9529
 8398SOL    HW236657   2.597   1.170   3.764 -0.4660  0.6349  0.5837
 8399SOL     OW36658   2.844   4.065   3.570 -0.0641  0.2666 -0.7321
 8399SOL    HW136659   2.801   4.105   3.495  0.6654  1.7228 -0.3741
 8399SOL    HW236660   2.769   4.048   3.628  0.3164 -1.2827 -0.6787
 8400SOL     OW36661   4.173   4.284   3.725  0.0692 -0.5057  0.1443
 8400SOL    HW136662   4.235   4.252   3.790  2.0651  0.7767 -1.1150
 8400SOL    HW236663   4.208   4.234   3.651  0.5064 -0.4549  0.3224
 8401SOL     OW36664   4.452   2.710   2.876  0.1610 -0.2846 -0.0735
 8401SOL    HW136665   4.385   2.721   2.944  0.8959 -0.3826  0.6710
 8401SOL    HW236666   4.469   2.616   2.886 -0.6659 -0.6540 -2.1601
 8402SOL     OW36667   1.631   3.907   3.414 -0.0360 -0.2167 -0.4999
 8402SOL    HW136668   1.663   3.919   3.503 -0.7693 -1.7863 -0.0236
 8402SOL    HW236669   1.620   3.813   3.426  1.4143 -0.2442  0.5150
 8403SOL     OW36670   1.191   2.552   1.513  0.4577  0.5778 -0.2860
 8403SOL    HW136671   1.185   2.630   1.568  0.6245 -0.5461  1.3316
 8403SOL    HW236672   1.228   2.577   1.428 -2.3905  1.2289 -1.3138
 8404SOL     OW36673   0.482   1.150  14.880  0.1634 -0.0913  0.2216
 8404SOL    HW136674   0.400   1.101  14.883  0.4758 -0.6934 -1.1218
 8404SOL    HW236675   0.451   1.235  14.849  0.5260  0.8286  2.4242
 8405SOL     OW36676   4.292   3.059   9.000 -0.0515 -0.3486 -0.4643
 8405SOL    HW136677   4.334   3.139   9.033 -1.1928 -0.2448  0.7314
 8405SOL    HW236678   4.309   2.992   9.066  1.0166 -0.2076 -0.6018
 8406SOL     OW36679   1.884   4.081   3.654  0.0726 -0.3694 -0.2297
 8406SOL    HW136680   1.854   4.133   3.728  0.8881  1.7398 -1.3905
 8406SOL    HW236681   1.980   4.078   3.656  0.0883  0.9651  1.8926
 8407SOL     OW36682   1.296   0.507   7.285 -0.2908  0.2821  0.5772
 8407SOL    HW136683   1.268   0.527   7.375  0.8934  2.2011  0.5225
 8407SOL    HW236684   1.319   0.414   7.289 -0.4504  0.3051  2.0513
 8408SOL     OW36685   0.462   2.002   1.772 -0.0044  0.0616 -0.1238
 8408SOL    HW136686   0.451   1.932   1.837 -0.0574  0.1044 -0.0864
 8408SOL    HW236687   0.496   1.947   1.701  2.1574  2.1280 -0.6679
 8409SOL     OW36688   3.523   0.380   6.416 -0.0288 -0.7615 -0.5971
 8409SOL    HW136689   3.484   0.462   6.446 -2.8629 -2.7493  1.2045
 8409SOL    HW236690   3.453   0.337   6.366 -1.3130  1.0718 -0.3607
 8410SOL     OW36691   1.662   2.289   8.460  0.1822  0.4885  0.0690
 8410SOL    HW136692   1.722   2.275   8.386 -0.6550 -2.1503 -0.1261
 8410SOL    HW236693   1.577   2.286   8.415 -0.3533  0.6816  1.0828
 8411SOL     OW36694   3.228   2.517   8.011 -0.1232 -0.3496  0.4669
 8411SOL    HW136695   3.170   2.524   8.088  0.3966 -0.3583  0.8578
 8411SOL    HW236696   3.178   2.576   7.955  1.2963 -0.6776 -1.1117
 8412SOL     OW36697   1.598   4.636   9.603 -0.2444  0.1311 -0.0380
 8412SOL    HW136698   1.640   4.551   9.619 -1.0876 -0.0622  1.1622
 8412SOL    HW236699   1.576   4.631   9.510  0.3561 -1.3905 -0.1082
 8413SOL     OW36700   0.494   3.781  11.776 -0.5207 -0.1289 -0.2234
 8413SOL    HW136701   0.507   3.772  11.870 -0.9719  0.7114 -0.0761
 8413SOL    HW236702   0.433   3.709  11.762  0.0319 -0.6998  0.3464
 8414SOL     OW36703   2.183   3.186  16.220 -0.1311 -0.1122  0.0343
 8414SOL    HW136704   2.121   3.121  16.187 -0.3441 -0.7003  1.5653
 8414SOL    HW236705   2.254   3.128  16.248  1.0380 -0.0837 -2.9052
 8415SOL     OW36706   2.075   1.070  16.677  0.3808  0.4447 -0.1178
 8415SOL    HW136707   2.037   1.011  16.742 -3.1010  0.3349 -2.2825
 8415SOL    HW236708   2.038   1.153  16.706  3.3082  2.0117 -0.9464
 8416SOL     OW36709   0.465   2.317   4.491  0.1504  0.6599  0.1086
 8416SOL    HW136710   0.515   2.285   4.416 -0.9378 -0.1311 -0.2747
 8416SOL    HW236711   0.512   2.263   4.554 -0.4521 -1.2097 -1.0598
 8417SOL     OW36712   2.523   4.357  14.458 -0.2734  0.7057 -0.2914
 8417SOL    HW136713   2.554   4.298  14.389 -0.3752  1.7924 -1.2550
 8417SOL    HW236714   2.577   4.431  14.432 -1.0448  1.9946  1.7751
 8418SOL     OW36715   2.615   0.932   4.184  0.1098 -0.1442  0.0547
 8418SOL    HW136716   2.578   1.017   4.209 -1.1213  0.1132 -2.6598
 8418SOL    HW236717   2.677   0.959   4.116  1.2537 -2.6535  0.1200
 8419SOL     OW36718   2.383   2.105   1.151 -0.0663  0.2311 -0.6289
 8419SOL    HW136719   2.470   2.130   1.182 -0.6159  0.0701  1.0321
 8419SOL    HW236720   2.331   2.109   1.231  2.0406  3.0611  0.5704
 8420SOL     OW36721   2.954   3.151  13.717 -0.2822 -0.3377  0.2317
 8420SOL    HW136722   2.867   3.117  13.739  0.2671 -1.8752  0.0007
 8420SOL    HW236723   2.956   3.132  13.623 -3.5540 -0.8177  0.2347
 8421SOL     OW36724   1.148   2.266  10.049 -0.0779 -0.4597  0.4077
 8421SOL    HW136725   1.146   2.231   9.960 -1.6539 -1.9947  1.0513
 8421SOL    HW236726   1.060   2.302  10.063  0.9702  1.8330  1.1919
 8422SOL     OW36727   1.953   2.735  17.491  0.0987 -0.7249 -0.1054
 8422SOL    HW136728   1.949   2.666  17.425 -0.2786 -0.5134 -0.3036
 8422SOL    HW236729   1.953   2.682  17.571 -0.1988  0.0293  0.4039
 8423SOL     OW36730   4.525   4.042   5.170 -0.1152 -0.3767 -0.4664
 8423SOL    HW136731   4.578   3.962   5.177 -2.6922 -1.8917  1.4317
 8423SOL    HW236732   4.508   4.049   5.076 -0.3115  1.7425 -0.2756
 8424SOL     OW36733   2.540   4.313  13.941  0.7626 -0.2276 -1.4272
 8424SOL    HW136734   2.616   4.300  13.885  0.2001  2.0543 -2.6943
 8424SOL    HW236735   2.510   4.403  13.930 -0.2082 -0.3070  0.5619
 8425SOL     OW36736   3.028   0.154   3.644  0.4552  0.0547 -0.5522
 8425SOL    HW136737   3.005   0.156   3.551  0.1653  1.9277 -0.4365
 8425SOL    HW236738   2.978   0.230   3.673 -1.7412 -0.2921 -3.3569
 8426SOL     OW36739   0.252   1.588  15.072  0.9655  0.4358 -0.1085
 8426SOL    HW136740   0.264   1.600  15.166 -1.1909 -4.3142  0.7380
 8426SOL    HW236741   0.176   1.640  15.048 -0.8629 -1.7386  0.9904
 8427SOL     OW36742   0.043   2.107   5.195  0.8260  0.5719  0.3485
 8427SOL    HW136743   4.699   2.037   5.189  0.3971  1.0301 -0.2725
 8427SOL    HW236744   4.717   2.188   5.175  1.3368  0.9532  0.6922
 8428SOL     OW36745   1.138   2.867   4.736 -0.2307  0.3360 -0.0496
 8428SOL    HW136746   1.136   2.926   4.811  1.1562  1.1951 -0.6909
 8428SOL    HW236747   1.058   2.898   4.694 -0.7425 -0.7572  0.1267
 8429SOL     OW36748   3.433   4.419  11.884  0.3011 -0.5478 -0.0357
 8429SOL    HW136749   3.357   4.432  11.826  0.4877  0.2240 -0.1175
 8429SOL    HW236750   3.508   4.402  11.827  1.9881 -0.7590  2.2884
 8430SOL     OW36751   3.759   2.415   8.884  0.5323  0.1949 -0.1458
 8430SOL    HW136752   3.694   2.397   8.952 -0.7508 -1.6411 -1.8411
 8430SOL    HW236753   3.740   2.334   8.836 -2.6259 -0.1673  1.7028
 8431SOL     OW36754   2.639   3.278   6.455  0.1436 -0.0803 -0.0840
 8431SOL    HW136755   2.709   3.342   6.438  0.6542  0.0761  2.5500
 8431SOL    HW236756   2.676   3.204   6.407  0.3784  1.0110 -1.5781
 8432SOL     OW36757   2.336   4.512   5.009  0.5931  0.7887  0.2903
 8432SOL    HW136758   2.249   4.472   5.013  0.4630  1.3400  3.5951
 8432SOL    HW236759   2.312   4.601   5.036  1.4384  1.4338 -1.0523
 8433SOL     OW36760   3.823   0.069   6.812 -0.3564  0.2348 -0.2225
 8433SOL    HW136761   3.855   0.116   6.734  1.1432 -0.0130  0.2345
 8433SOL    HW236762   3.771   4.719   6.774 -1.0905  0.6751 -0.0381
 8434SOL     OW36763   4.536   2.000  17.443 -0.1381  0.5910  0.2718
 8434SOL    HW136764   4.563   1.955  17.523 -0.8187 -1.2377 -0.5409
 8434SOL    HW236765   4.608   1.981  17.385 -0.1379  0.1216  0.4253
 8435SOL     OW36766   0.768   1.602   2.408 -0.1304  0.5331 -0.1465
 8435SOL    HW136767   0.803   1.541   2.473 -0.3195  0.7765  0.1827
 8435SOL    HW236768   0.703   1.550   2.361  1.7797 -1.1994 -0.8749
 8436SOL     OW36769   3.014   0.461   9.808 -0.2205 -0.3766  0.1863
 8436SOL    HW136770   3.064   0.435   9.885  0.6464 -0.6546 -0.4650
 8436SOL    HW236771   2.966   0.532   9.850 -0.5004  1.3829 -3.1144
 8437SOL     OW36772   3.305   2.598   6.357  0.2374 -0.1656  0.0845
 8437SOL    HW136773   3.302   2.599   6.261 -0.8118  0.7032  0.1204
 8437SOL    HW236774   3.213   2.583   6.380  0.1317  2.8379  1.6569
 8438SOL     OW36775   3.343   3.387   3.859  0.2606 -0.1266 -0.1932
 8438SOL    HW136776   3.251   3.413   3.857  0.2670 -0.0135  1.2503
 8438SOL    HW236777   3.362   3.408   3.767  1.3144 -0.1503  0.0200
 8439SOL     OW36778   3.265   2.122   2.123  0.0296 -0.1338  0.3846
 8439SOL    HW136779   3.187   2.074   2.093  0.7497 -1.2619  0.3011
 8439SOL    HW236780   3.326   2.101   2.052  1.7251  2.1311  1.1931
 8440SOL     OW36781   3.475   4.543   7.095  0.4420  0.2489 -0.1059
 8440SOL    HW136782   3.405   4.495   7.141  0.2570 -0.8531 -1.5492
 8440SOL    HW236783   3.550   4.530   7.153 -1.2534 -0.6047  1.9243
 8441SOL     OW36784   0.322   3.003   3.025  0.1232 -0.1075 -0.4482
 8441SOL    HW136785   0.362   3.014   3.111  1.5366 -1.6211 -0.9053
 8441SOL    HW236786   0.387   3.051   2.974  0.9078 -0.0375  0.6096
 8442SOL     OW36787   2.217   3.302   8.577 -0.1057  0.6918  0.2036
 8442SOL    HW136788   2.307   3.287   8.545 -0.0029  0.2932  0.6877
 8442SOL    HW236789   2.215   3.398   8.577  1.1508  0.7292 -1.3640
 8443SOL     OW36790   3.564   1.138   8.490 -0.6214  0.0003 -0.1377
 8443SOL    HW136791   3.508   1.180   8.554  0.0175  0.0089  0.4149
 8443SOL    HW236792   3.649   1.148   8.534  0.0851 -1.3846 -1.1851
 8444SOL     OW36793   1.729   2.128   8.741 -0.1046  0.2330 -0.5508
 8444SOL    HW136794   1.811   2.079   8.741 -0.1497  0.1275  1.7366
 8444SOL    HW236795   1.670   2.054   8.756  0.6945 -0.3311 -0.2116
 8445SOL     OW36796   4.620   1.617   6.786  0.3914  0.4447  0.1058
 8445SOL    HW136797   4.580   1.562   6.718 -1.5384  0.4081  1.2793
 8445SOL    HW236798   4.560   1.602   6.859 -0.6546  0.2686 -0.7776
 8446SOL     OW36799   0.010   3.311   7.073  0.3271 -0.1943 -0.2457
 8446SOL    HW136800   4.696   3.309   7.162  1.0730 -4.7834 -0.0860
 8446SOL    HW236801   0.098   3.273   7.066 -0.3610 -1.4831 -1.8955
 8447SOL     OW36802   3.817   3.036  14.739  0.0162 -0.1747 -0.0713
 8447SOL    HW136803   3.818   3.045  14.834 -1.7049  1.1305 -0.1602
 8447SOL    HW236804   3.727   3.020  14.711  1.1569 -2.4120 -2.4833
 8448SOL     OW36805   4.130   0.560   2.978  0.2968  0.0976 -0.6061
 8448SOL    HW136806   4.186   0.611   3.037  1.2781 -0.8653 -0.6956
 8448SOL    HW236807   4.115   0.615   2.902 -1.2094 -2.2674 -2.0126
 8449SOL     OW36808   4.052   2.379  14.328 -0.6449 -0.0958  0.0863
 8449SOL    HW136809   4.081   2.373  14.237  0.2404  0.3696  0.3474
 8449SOL    HW236810   4.013   2.465  14.317  1.4528  0.8299 -0.0322
 8450SOL     OW36811   3.105   1.790   8.308  0.2917  0.1323  0.6294
 8450SOL    HW136812   3.017   1.826   8.295  1.4736  2.4831 -0.9110
 8450SOL    HW236813   3.114   1.824   8.397  1.0733  1.7690 -0.0705
 8451SOL     OW36814   1.470   2.819   8.330  0.0165  0.3761  0.5607
 8451SOL    HW136815   1.529   2.883   8.368  0.9888 -1.0440  1.4234
 8451SOL    HW236816   1.507   2.811   8.242 -0.6079  0.6100  0.2779
 8452SOL     OW36817   1.273   3.565  12.050  0.3116 -0.3286  0.4722
 8452SOL    HW136818   1.193   3.613  12.033  1.3874  1.7994  1.4649
 8452SOL    HW236819   1.327   3.595  11.977  0.1934 -1.6426 -0.1629
 8453SOL     OW36820   3.430   3.051   7.417 -0.5145 -0.1753 -0.1518
 8453SOL    HW136821   3.448   3.052   7.511  1.7610 -1.9752 -0.5523
 8453SOL    HW236822   3.515   3.082   7.385 -0.3630 -0.1899  0.2367
 8454SOL     OW36823   0.994   1.171  10.238  0.1403 -0.2429 -0.2043
 8454SOL    HW136824   0.958   1.130  10.317  0.0366  0.5316  0.1475
 8454SOL    HW236825   1.030   1.094  10.192 -1.0409 -0.5801 -0.5754
 8455SOL     OW36826   1.156   0.702   8.265  0.0809  0.2925 -0.2577
 8455SOL    HW136827   1.144   0.625   8.210  1.3928  1.0836 -1.6544
 8455SOL    HW236828   1.076   0.702   8.318  0.2092 -1.1936 -0.0494
 8456SOL     OW36829   3.020   0.163   9.272 -1.0935  0.0055  0.0204
 8456SOL    HW136830   3.078   0.155   9.347 -2.1162 -2.1310  0.5609
 8456SOL    HW236831   2.966   0.085   9.281 -0.6088 -0.1622  1.4026
 8457SOL     OW36832   1.951   2.504   8.807 -0.4908  0.6752  0.2012
 8457SOL    HW136833   1.982   2.417   8.829  0.9780  1.3725  0.8768
 8457SOL    HW236834   1.862   2.477   8.785  0.1764 -1.2533 -0.0640
 8458SOL     OW36835   4.624   3.655  10.475  0.3534 -0.2728 -0.2404
 8458SOL    HW136836   4.603   3.606  10.555 -0.7091  0.4365 -0.0971
 8458SOL    HW236837   4.592   3.742  10.495  1.7531  0.0832  0.4365
 8459SOL     OW36838   4.075   1.560  12.421  0.1121  0.0238 -0.4883
 8459SOL    HW136839   4.042   1.569  12.510  0.6059  3.6864 -0.6622
 8459SOL    HW236840   4.023   1.482  12.399  1.6039 -1.4759  1.2899
 8460SOL     OW36841   3.435   1.237  14.391 -0.0758  0.1090  0.5977
 8460SOL    HW136842   3.422   1.331  14.383  1.5508  0.1836 -1.2575
 8460SOL    HW236843   3.434   1.209  14.299 -3.8488 -1.0356  0.9989
 8461SOL     OW36844   3.781   1.480   3.589 -0.1865 -0.0471  0.1649
 8461SOL    HW136845   3.785   1.569   3.624  2.1888 -0.0665 -0.0843
 8461SOL    HW236846   3.756   1.425   3.663  1.1507  1.2953  1.6276
 8462SOL     OW36847   4.374   4.446   5.420  0.2506 -0.5352  0.0811
 8462SOL    HW136848   4.310   4.498   5.468 -0.0313 -1.3365  0.5891
 8462SOL    HW236849   4.450   4.442   5.478 -0.9254  0.8027  1.7026
 8463SOL     OW36850   3.614   1.218   0.691 -0.3053 -1.0621  0.3979
 8463SOL    HW136851   3.698   1.247   0.654 -0.2604  0.8780  2.0258
 8463SOL    HW236852   3.641   1.158   0.760 -3.8257 -0.9864  1.8147
 8464SOL     OW36853   2.009   4.089  10.800 -0.7099  0.9570 -0.1450
 8464SOL    HW136854   1.985   3.999  10.822 -0.6212  0.8075 -0.6570
 8464SOL    HW236855   1.984   4.091  10.707 -0.8414  1.7500 -0.0954
 8465SOL     OW36856   3.064   4.447   3.122  0.3225 -1.0703 -0.4158
 8465SOL    HW136857   2.975   4.452   3.156  0.8481 -3.2045  1.2675
 8465SOL    HW236858   3.036   4.409   3.039  1.6180  0.7225 -1.6771
 8466SOL     OW36859   3.471   1.466   1.182  0.2981 -0.0020  0.3761
 8466SOL    HW136860   3.406   1.536   1.194 -1.8236 -1.4644 -2.4357
 8466SOL    HW236861   3.480   1.462   1.087 -3.1133  3.3390 -0.1267
 8467SOL     OW36862   0.408   0.519   5.344  0.2191  0.1469 -0.5098
 8467SOL    HW136863   0.365   0.590   5.296 -0.1114 -0.0683 -0.5336
 8467SOL    HW236864   0.490   0.561   5.370 -0.8129  1.5727  0.4508
 8468SOL     OW36865   1.987   1.702   6.022  0.5503 -0.0132  0.3478
 8468SOL    HW136866   1.940   1.739   5.946 -1.7775  0.8912  2.2342
 8468SOL    HW236867   2.055   1.648   5.981  1.4371  1.2426  0.1531
 8469SOL     OW36868   4.693   0.116   3.033  0.1584 -0.1827 -0.2950
 8469SOL    HW136869   0.059   0.088   3.058 -0.0519 -1.5580 -1.0921
 8469SOL    HW236870   4.678   0.051   2.964 -0.7650  1.3868 -1.5797
 8470SOL     OW36871   3.359   0.514   5.627  0.2417  0.0221 -0.7009
 8470SOL    HW136872   3.403   0.598   5.640  0.3133 -0.0309 -0.6028
 8470SOL    HW236873   3.390   0.473   5.707  1.1616  0.3569 -0.8735
 8471SOL     OW36874   0.940   2.304   4.338 -0.4704 -0.2293  0.2023
 8471SOL    HW136875   0.981   2.353   4.267 -1.6518 -2.3938 -1.9630
 8471SOL    HW236876   0.926   2.222   4.292 -0.1318  0.1706 -0.6134
 8472SOL     OW36877   2.630   1.942   0.974 -0.2012  0.0732  0.1617
 8472SOL    HW136878   2.694   2.011   0.989  0.5918 -0.2209 -1.8527
 8472SOL    HW236879   2.580   1.976   0.900  0.2081 -0.4758 -0.3688
 8473SOL     OW36880   0.503   3.186   3.357 -1.4552 -0.3376 -0.2960
 8473SOL    HW136881   0.521   3.095   3.331  1.9988  0.5897 -1.0812
 8473SOL    HW236882   0.420   3.201   3.311 -1.3697 -0.4057 -0.4730
 8474SOL     OW36883   0.459   1.091  10.579 -0.5698 -0.5219 -0.1405
 8474SOL    HW136884   0.519   1.151  10.623  0.2432 -2.5668  1.5703
 8474SOL    HW236885   0.518   1.042  10.521  1.5433  1.0115  0.7168
 8475SOL     OW36886   3.673   1.742  10.961  0.2661  0.5059 -0.5957
 8475SOL    HW136887   3.709   1.665  11.005 -0.8020 -0.4161 -1.3474
 8475SOL    HW236888   3.604   1.761  11.025  0.3785 -0.5221 -0.1673
 8476SOL     OW36889   0.594   2.694   0.698 -0.0895 -0.6819 -0.2482
 8476SOL    HW136890   0.613   2.683   0.791  0.7904 -2.1053 -0.5893
 8476SOL    HW236891   0.570   2.787   0.698 -1.2355 -1.0000  1.2044
 8477SOL     OW36892   1.599   4.295  16.129 -0.3404 -0.1920 -0.0128
 8477SOL    HW136893   1.653   4.220  16.108  1.2088  1.4433 -1.8958
 8477SOL    HW236894   1.520   4.249  16.158 -1.1403  1.5286  0.6042
 8478SOL     OW36895   0.570   1.014   8.711  0.0699  0.0684  0.2509
 8478SOL    HW136896   0.615   0.937   8.745  1.4419  1.1413  0.9227
 8478SOL    HW236897   0.634   1.081   8.738 -0.8351  1.3481 -0.7433
 8479SOL     OW36898   2.754   1.298   5.667 -0.5295 -0.0700 -0.5251
 8479SOL    HW136899   2.740   1.203   5.664 -1.0948 -0.0113  0.2451
 8479SOL    HW236900   2.835   1.314   5.715 -1.2174 -1.3697  1.0662
 8480SOL     OW36901   3.433   0.757   5.031 -0.0489 -0.2183 -0.0396
 8480SOL    HW136902   3.407   0.670   5.003 -1.5150  0.3982 -0.6079
 8480SOL    HW236903   3.345   0.791   5.046  0.7296  1.8522 -0.0608
 8481SOL     OW36904   1.162   2.240   0.991 -0.1852 -0.0128 -0.0901
 8481SOL    HW136905   1.072   2.260   1.013 -0.2622 -0.5886  0.1198
 8481SOL    HW236906   1.185   2.315   0.936 -0.6600 -0.0234 -0.3026
 8482SOL     OW36907   2.460   2.872   2.681 -0.2062 -0.1430  0.6055
 8482SOL    HW136908   2.382   2.921   2.708 -1.3597 -1.3834 -0.4850
 8482SOL    HW236909   2.422   2.790   2.649 -0.7111  0.5159 -0.4602
 8483SOL     OW36910   4.148   3.039  13.146  0.5598 -0.1509  0.1783
 8483SOL    HW136911   4.223   3.009  13.095  1.0242 -0.2954  0.9495
 8483SOL    HW236912   4.118   2.959  13.190 -0.3039  0.9381  1.6011
 8484SOL     OW36913   2.133   3.911   0.637  0.4781 -0.1151  0.1548
 8484SOL    HW136914   2.162   3.820   0.638 -0.8547 -0.5738 -1.6845
 8484SOL    HW236915   2.043   3.892   0.664 -0.1527  1.4426 -0.8281
 8485SOL     OW36916   3.139   2.868   7.155 -0.6091 -0.0901 -0.2756
 8485SOL    HW136917   3.084   2.935   7.196 -2.4927 -2.5147  1.1380
 8485SOL    HW236918   3.143   2.915   7.071 -0.4335 -2.4014 -1.5710
 8486SOL     OW36919   2.205   3.124   3.603  0.0106  0.2189  0.1686
 8486SOL    HW136920   2.212   3.030   3.587  0.9293 -0.2543  3.3800
 8486SOL    HW236921   2.248   3.128   3.689  2.0800 -2.5646 -0.7336
 8487SOL     OW36922   2.521   3.511  16.849 -0.2641 -0.0290  0.2852
 8487SOL    HW136923   2.466   3.489  16.773  0.9730 -1.8158 -0.0892
 8487SOL    HW236924   2.451   3.554  16.898 -1.0542 -0.0135 -0.8549
 8488SOL     OW36925   3.233   4.319   8.273 -0.2703 -0.3442  0.1562
 8488SOL    HW136926   3.174   4.393   8.289 -0.5564 -0.1971 -1.5842
 8488SOL    HW236927   3.252   4.280   8.359  0.6193  2.2555  1.1386
 8489SOL     OW36928   3.308   0.323   2.554 -0.4651 -0.1016  0.2624
 8489SOL    HW136929   3.371   0.279   2.497  3.2599  1.3515  3.1736
 8489SOL    HW236930   3.353   0.300   2.636 -3.3095 -1.9726  1.3096
 8490SOL     OW36931   2.045   4.696  14.646 -0.1231 -0.0526 -0.2740
 8490SOL    HW136932   2.068   0.035  14.717 -0.4831  0.6798 -0.7736
 8490SOL    HW236933   2.059   4.612  14.690 -3.1830 -1.2131 -1.4966
 8491SOL     OW36934   1.870   2.658   6.003  0.3745 -0.2096  0.0504
 8491SOL    HW136935   1.870   2.688   6.094 -1.7305 -0.2780  0.0826
 8491SOL    HW236936   1.841   2.568   6.020 -0.2265 -0.1667 -0.7358
 8492SOL     OW36937   2.923   1.737   6.934  0.4174 -0.7892  0.8677
 8492SOL    HW136938   2.853   1.764   6.875  1.7017  1.5286  0.4320
 8492SOL    HW236939   2.878   1.706   7.013 -1.6282  1.5812  0.6384
 8493SOL     OW36940   0.364   0.556   2.962 -0.4766 -0.3403  0.1240
 8493SOL    HW136941   0.320   0.472   2.975 -0.0711 -0.5175  0.3686
 8493SOL    HW236942   0.458   0.536   2.965  0.0567  1.9444 -1.1965
 8494SOL     OW36943   0.676   4.115   8.799  0.1746 -0.4171 -0.0387
 8494SOL    HW136944   0.744   4.182   8.803  1.7871 -1.9945 -0.8116
 8494SOL    HW236945   0.627   4.152   8.725 -1.5613 -0.5560  1.0687
 8495SOL     OW36946   3.677   0.901   2.818  0.5107 -0.1450  0.0433
 8495SOL    HW136947   3.635   0.827   2.775  0.1650 -0.0937  0.2984
 8495SOL    HW236948   3.762   0.880   2.858  2.5122  3.2521 -2.4283
 8496SOL     OW36949   2.109   2.450   7.527 -0.2648 -0.1960 -0.0473
 8496SOL    HW136950   2.108   2.491   7.441 -1.2762  0.6086  0.3444
 8496SOL    HW236951   2.050   2.376   7.512  1.4019 -1.2059 -1.6288
 8497SOL     OW36952   2.834   0.762   0.012  0.2676 -0.3741 -0.0466
 8497SOL    HW136953   2.898   0.801   0.072  0.5213 -1.7538  0.5818
 8497SOL    HW236954   2.854   0.669   0.009  2.5922  0.0766  1.3059
 8498SOL     OW36955   1.260   1.500   9.178 -0.7342  0.2003  0.4056
 8498SOL    HW136956   1.265   1.594   9.159 -0.3058  0.1020  0.0264
 8498SOL    HW236957   1.312   1.498   9.258 -0.5214 -0.8029  0.2364
 8499SOL     OW36958   1.090   2.547   2.331 -0.3307 -0.3663 -0.0067
 8499SOL    HW136959   1.126   2.470   2.286 -0.8693  0.1332 -1.3190
 8499SOL    HW236960   1.129   2.626   2.294 -1.6519  0.2576 -0.0884
 8500SOL     OW36961   2.780   1.738   8.028 -0.7310 -0.0862 -0.0879
 8500SOL    HW136962   2.802   1.684   8.104  1.5101 -0.4952 -1.0362
 8500SOL    HW236963   2.830   1.695   7.959  1.1429  2.0317 -0.0394
 8501SOL     OW36964   1.227   4.144   4.591 -0.0993  0.1195  0.0896
 8501SOL    HW136965   1.178   4.076   4.544 -0.3687 -0.3815  1.0959
 8501SOL    HW236966   1.153   4.196   4.624  1.5980  1.1544  2.2066
 8502SOL     OW36967   0.177   0.127   7.806 -0.3032  0.1785  0.0136
 8502SOL    HW136968   0.137   0.065   7.746 -0.8690  1.8749 -1.3671
 8502SOL    HW236969   0.096   0.146   7.853  0.2989  1.9378  0.3483
 8503SOL     OW36970   2.614   2.207  11.976 -0.0275  0.0958  0.6539
 8503SOL    HW136971   2.615   2.128  12.030 -0.5304 -0.9132 -0.8013
 8503SOL    HW236972   2.526   2.243  11.989 -0.9565 -1.8441 -0.2698
 8504SOL     OW36973   1.185   3.621   6.371  0.5066 -0.4340 -0.0377
 8504SOL    HW136974   1.187   3.716   6.382 -0.3107 -0.3017 -1.0685
 8504SOL    HW236975   1.236   3.612   6.290 -0.4226  0.3698 -0.7064
 8505SOL     OW36976   0.553   0.975  15.658  0.4015 -0.3974  0.4512
 8505SOL    HW136977   0.623   0.916  15.628  1.5380  1.7942 -1.1687
 8505SOL    HW236978   0.584   1.064  15.644  2.5302 -1.1470  0.3758
 8506SOL     OW36979   2.139   1.875   8.727 -0.9063  0.4028  0.3381
 8506SOL    HW136980   2.081   1.839   8.661 -0.5010  1.4854 -0.6131
 8506SOL    HW236981   2.222   1.833   8.704 -0.9351  0.0050  0.9669
 8507SOL     OW36982   3.536   4.504  12.849 -1.1529  0.1046 -0.2180
 8507SOL    HW136983   3.585   4.422  12.841 -0.8054  0.2976 -0.0515
 8507SOL    HW236984   3.590   4.551  12.913 -1.1701  0.1780 -0.2573
 8508SOL     OW36985   2.502   3.264   7.694 -0.1877  0.5384  0.1747
 8508SOL    HW136986   2.532   3.209   7.765  1.3835 -0.7213 -1.4558
 8508SOL    HW236987   2.419   3.296   7.728  0.2692 -0.0574  1.8359
 8509SOL     OW36988   1.315   2.804  14.075 -0.3689  0.3464 -0.1530
 8509SOL    HW136989   1.226   2.793  14.109 -0.0771 -0.4972  0.3293
 8509SOL    HW236990   1.314   2.740  14.003 -2.7333 -0.9062  0.9858
 8510SOL     OW36991   4.205   2.487   5.327 -0.6684  0.0737  0.2786
 8510SOL    HW136992   4.141   2.494   5.256 -2.3564  1.6440  1.9486
 8510SOL    HW236993   4.170   2.404   5.362  2.0822 -1.0484  0.3523
 8511SOL     OW36994   1.431   2.348  16.402 -0.2322  0.1585  0.8285
 8511SOL    HW136995   1.424   2.320  16.493  2.0684 -2.6694  0.1309
 8511SOL    HW236996   1.489   2.279  16.371  0.0382 -0.1922  2.1189
 8512SOL     OW36997   4.046   3.309   3.740 -0.1459 -0.2786 -0.4642
 8512SOL    HW136998   4.077   3.397   3.758 -0.4113  0.0577 -1.6846
 8512SOL    HW236999   4.004   3.313   3.655  0.4478  1.3422 -0.6777
 8513SOL     OW37000   0.799   0.753   6.102 -0.0665  0.1764 -0.3035
 8513SOL    HW137001   0.758   0.798   6.028  1.0263 -1.8445 -2.1393
 8513SOL    HW237002   0.844   0.823   6.148 -1.7398  0.4342  0.9365
 8514SOL     OW37003   2.195   1.462   1.155 -0.0915  0.2709 -0.0452
 8514SOL    HW137004   2.269   1.480   1.097 -0.7888 -0.8434 -1.3044
 8514SOL    HW237005   2.236   1.411   1.224 -1.1386 -0.7211 -0.1519
 8515SOL     OW37006   3.265   3.597   4.503  0.2358  0.7383  0.4668
 8515SOL    HW137007   3.325   3.652   4.453 -0.3493  1.0506  0.1066
 8515SOL    HW237008   3.301   3.509   4.494  1.0982  1.0905  0.4819
 8516SOL     OW37009   4.277   3.660   3.369  0.7211  0.4766  0.5258
 8516SOL    HW137010   4.268   3.611   3.287 -0.1467  1.7575 -0.1346
 8516SOL    HW237011   4.236   3.597   3.428  0.7501  1.3243  1.4490
 8517SOL     OW37012   4.451   0.202  12.255 -0.4223  0.4964 -0.3546
 8517SOL    HW137013   4.411   0.149  12.186  1.4594  1.5194 -2.2651
 8517SOL    HW237014   4.383   0.268  12.263 -0.7044 -0.0519  1.6018
 8518SOL     OW37015   3.233   3.992   8.999 -0.0396  0.4224 -0.3683
 8518SOL    HW137016   3.217   3.918   8.942  1.2569 -1.2169  1.3666
 8518SOL    HW237017   3.156   3.982   9.054  0.8721  1.5662  1.1193
 8519SOL     OW37018   0.800   0.792  13.907 -0.1027 -0.4125  0.5536
 8519SOL    HW137019   0.829   0.870  13.955  0.8191 -0.3313 -0.1421
 8519SOL    HW237020   0.878   0.738  13.897 -0.7502 -1.1818 -0.2270
 8520SOL     OW37021   3.714   4.261   0.404 -0.3445  0.7137 -0.3248
 8520SOL    HW137022   3.790   4.319   0.398  0.7155 -0.5487  0.6633
 8520SOL    HW237023   3.752   4.179   0.436 -1.4471  0.4675  0.3592
 8521SOL     OW37024   0.033   2.524   7.264 -0.6569 -0.3225 -0.0709
 8521SOL    HW137025   0.053   2.617   7.273 -1.4603 -0.1038 -0.5384
 8521SOL    HW237026   0.032   2.521   7.168 -0.6222  1.4815 -0.1294
 8522SOL     OW37027   4.279   1.216   8.425 -0.2326  0.2952  0.0396
 8522SOL    HW137028   4.257   1.123   8.432 -0.7542  0.5300  1.4711
 8522SOL    HW237029   4.350   1.221   8.488 -0.0178  0.3560 -0.2104
 8523SOL     OW37030   3.394   1.235   0.563  0.0424 -0.3544 -0.0311
 8523SOL    HW137031   3.478   1.215   0.605  0.2813  0.5841 -0.0621
 8523SOL    HW237032   3.389   1.330   0.573 -0.0554 -0.5005  1.2755
 8524SOL     OW37033   0.269   3.423   2.561  0.5927  0.2266  0.4308
 8524SOL    HW137034   0.271   3.492   2.495  0.6081 -0.2155 -0.0285
 8524SOL    HW237035   0.180   3.432   2.595  1.2236  2.6598  1.4498
 8525SOL     OW37036   0.161   0.187   2.158 -0.4648 -0.0224 -0.1875
 8525SOL    HW137037   0.104   0.260   2.183 -0.0550  0.3017 -0.1770
 8525SOL    HW237038   0.145   0.187   2.064  0.4678  1.8188 -0.3512
 8526SOL     OW37039   3.013   4.124   3.799  0.3497 -0.3538 -0.0436
 8526SOL    HW137040   2.966   4.205   3.816 -0.5414 -0.4110 -2.2914
 8526SOL    HW237041   2.991   4.117   3.706  0.8834 -2.2416 -0.0304
 8527SOL     OW37042   2.019   0.364   6.640 -0.0726 -0.8432 -0.2654
 8527SOL    HW137043   2.053   0.306   6.708  0.2887 -0.1008  0.1792
 8527SOL    HW237044   2.102   0.399   6.608 -0.1885  1.4145  1.8962
 8528SOL     OW37045   3.803   3.993  12.137 -0.1108 -0.4011  0.3713
 8528SOL    HW137046   3.800   4.065  12.074 -1.5954 -0.3664  0.4967
 8528SOL    HW237047   3.850   4.036  12.209 -0.6019  0.3566  0.2420
 8529SOL     OW37048   4.537   2.022   3.672 -0.3030 -0.2412 -0.3588
 8529SOL    HW137049   4.565   2.019   3.764  1.8043  1.7337 -0.9118
 8529SOL    HW237050   4.574   1.946   3.628 -0.0790 -0.9431  1.0209
 8530SOL     OW37051   2.069   2.810  15.161 -0.2874  0.7662  0.1771
 8530SOL    HW137052   1.985   2.856  15.159  0.6604  2.3280 -2.4837
 8530SOL    HW237053   2.082   2.779  15.251  0.6718 -0.5605 -0.4325
 8531SOL     OW37054   0.310   3.814  14.104 -0.1201  0.1642  0.2498
 8531SOL    HW137055   0.283   3.885  14.161 -0.7480  0.3561 -0.2873
 8531SOL    HW237056   0.282   3.849  14.019 -0.3160  4.1350  2.0009
 8532SOL     OW37057   3.394   3.023  15.008  0.3923 -0.0995  0.4217
 8532SOL    HW137058   3.431   3.097  14.961  0.9529 -0.9647 -0.4807
 8532SOL    HW237059   3.395   2.957  14.940  1.1252 -0.9493  1.2615
 8533SOL     OW37060   2.720   2.778   4.008 -0.4267  0.2274 -0.3168
 8533SOL    HW137061   2.695   2.836   3.936  2.9235  0.1545 -1.5430
 8533SOL    HW237062   2.782   2.722   3.960 -2.3188 -1.7664 -0.4493
 8534SOL     OW37063   3.531   1.134   3.697 -0.1895  0.5632 -0.5641
 8534SOL    HW137064   3.462   1.073   3.724 -0.1628  1.0810  0.7101
 8534SOL    HW237065   3.574   1.089   3.625 -0.6161  3.1387 -2.4351
 8535SOL     OW37066   0.471   0.836   2.881  0.0128 -0.5237  0.0130
 8535SOL    HW137067   0.518   0.753   2.886 -0.1799 -0.6907 -0.9105
 8535SOL    HW237068   0.421   0.827   2.800 -0.4963  0.6141  0.2043
 8536SOL     OW37069   0.363   1.396  14.930  0.3286 -0.2075 -0.1275
 8536SOL    HW137070   0.331   1.463  14.991  1.2252 -0.0921  0.2303
 8536SOL    HW237071   0.294   1.411  14.866  1.6966  1.1983 -1.2701
 8537SOL     OW37072   1.330   2.967   5.192  0.0800 -0.2311 -0.1718
 8537SOL    HW137073   1.411   2.976   5.243 -0.2839  0.7105  0.2305
 8537SOL    HW237074   1.302   3.058   5.180 -1.0127 -0.3609  1.4955
 8538SOL     OW37075   4.077   0.796   6.370 -0.2469 -0.6851  0.0590
 8538SOL    HW137076   4.031   0.759   6.445  1.8911  1.2904  2.3417
 8538SOL    HW237077   4.168   0.807   6.399  0.0050 -0.7722 -0.6840
 8539SOL     OW37078   2.003   0.942   6.378 -0.4118  0.1412 -0.1248
 8539SOL    HW137079   2.063   1.009   6.343 -0.8416  1.0857  0.9339
 8539SOL    HW237080   1.981   0.968   6.468 -0.0114  0.5136 -0.1322
 8540SOL     OW37081   3.609   0.767   7.620  0.6763  0.6192  0.1982
 8540SOL    HW137082   3.637   0.685   7.659  1.6741  1.3822  1.1052
 8540SOL    HW237083   3.520   0.768   7.655 -0.1002 -1.5348 -1.7200
 8541SOL     OW37084   3.100   1.172   0.219  0.5384  0.2749 -0.2216
 8541SOL    HW137085   3.108   1.207   0.308  0.6275 -2.6939  0.9415
 8541SOL    HW237086   3.186   1.193   0.185 -0.5517 -0.7353 -3.5957
 8542SOL     OW37087   0.654   3.232   6.396 -0.2862  0.3365  0.1188
 8542SOL    HW137088   0.731   3.176   6.396 -0.5526 -0.0220  1.2406
 8542SOL    HW237089   0.597   3.162   6.427  0.2215 -1.4772 -3.0779
 8543SOL     OW37090   1.755   2.946   7.101  0.2030 -0.2945  0.0628
 8543SOL    HW137091   1.751   2.965   7.194 -1.0604  0.9592 -0.2397
 8543SOL    HW237092   1.841   2.985   7.090  0.8314 -0.9261  2.9334
 8544SOL     OW37093   0.850   2.163   6.618 -0.1909 -0.0845 -0.5251
 8544SOL    HW137094   0.819   2.253   6.616  0.0557  0.0270  0.5934
 8544SOL    HW237095   0.936   2.179   6.658 -1.9652 -0.3900  3.2986
 8545SOL     OW37096   3.167   2.626   1.719  0.0015 -0.9362 -0.2827
 8545SOL    HW137097   3.194   2.661   1.804 -0.0460 -1.6813  0.0393
 8545SOL    HW237098   3.206   2.539   1.718  1.7109 -0.1786  0.0617
 8546SOL     OW37099   3.218   4.041   5.034  0.4149  0.0872  0.4968
 8546SOL    HW137100   3.191   4.044   4.942  1.0118  0.8079  0.3435
 8546SOL    HW237101   3.307   4.074   5.023  0.0676  0.0486 -2.4546
 8547SOL     OW37102   4.307   1.404  12.212 -0.6619  0.0095  1.0371
 8547SOL    HW137103   4.237   1.341  12.228 -0.8504  0.3070  1.3883
 8547SOL    HW237104   4.320   1.396  12.117  1.3005 -0.4614  1.3520
 8548SOL     OW37105   1.251   0.023   7.333 -0.2448  0.5261 -0.1252
 8548SOL    HW137106   1.242   0.047   7.426  0.6269  1.3378 -0.2483
 8548SOL    HW237107   1.243   4.651   7.351  0.7550  0.6532  1.0102
 8549SOL     OW37108   2.243   4.549  11.347  0.5415 -0.2378 -0.3493
 8549SOL    HW137109   2.260   4.630  11.300  0.0118 -0.9429 -1.7771
 8549SOL    HW237110   2.250   4.481  11.279 -1.0374  1.1922 -1.9456
 8550SOL     OW37111   3.987   3.175   4.717 -0.5310 -0.0209  0.3574
 8550SOL    HW137112   3.982   3.229   4.638  1.0491 -1.5772 -0.7776
 8550SOL    HW237113   4.076   3.142   4.714 -0.6734 -0.4859  1.4564
 8551SOL     OW37114   1.988   1.598   8.512 -0.0141 -0.5677  0.1778
 8551SOL    HW137115   1.923   1.577   8.580  0.0012  1.7072  0.9059
 8551SOL    HW237116   2.069   1.573   8.555 -0.2891 -1.2635  0.2927
 8552SOL     OW37117   3.747   4.150   8.384 -0.0053  0.6816  0.1726
 8552SOL    HW137118   3.830   4.112   8.354 -0.8412 -0.7667 -0.3032
 8552SOL    HW237119   3.771   4.182   8.471  1.6813  2.7581 -1.0535
 8553SOL     OW37120   4.033   2.458   6.400 -0.1435 -0.0654 -0.3647
 8553SOL    HW137121   4.122   2.490   6.384 -0.0863  0.8694  1.7725
 8553SOL    HW237122   4.025   2.391   6.332 -0.5990  0.5457 -0.9058
 8554SOL     OW37123   1.431   4.542   8.781 -0.1501  0.0950 -0.0719
 8554SOL    HW137124   1.523   4.521   8.799 -0.2620 -0.3818 -0.0543
 8554SOL    HW237125   1.435   4.600   8.705  0.2090 -0.0720 -0.1846
 8555SOL     OW37126   1.635   1.732   4.370  0.9189  0.0370 -0.1085
 8555SOL    HW137127   1.695   1.802   4.396  0.9738 -0.2287  0.4877
 8555SOL    HW237128   1.667   1.717   4.281  0.7164 -0.3976 -0.1056
 8556SOL     OW37129   0.260   2.459   9.746 -0.1484  0.3033  0.4598
 8556SOL    HW137130   0.245   2.549   9.717  0.7245  0.1701 -0.4101
 8556SOL    HW237131   0.355   2.463   9.741 -0.1884 -0.4004 -1.0213
 8557SOL     OW37132   2.829   1.457   6.574  0.3317  0.5288  0.0952
 8557SOL    HW137133   2.903   1.435   6.631 -0.7602 -1.5605  0.6902
 8557SOL    HW237134   2.775   1.520   6.621  0.8832  1.6992 -0.8339
 8558SOL     OW37135   1.426   0.438   6.972 -0.2292 -0.0906  0.3268
 8558SOL    HW137136   1.517   0.461   6.989 -0.1476  1.1906 -1.8624
 8558SOL    HW237137   1.405   0.472   6.885 -0.7304 -1.8535 -0.2571
 8559SOL     OW37138   3.309   3.215   2.061 -0.0798 -0.3044 -0.3771
 8559SOL    HW137139   3.287   3.223   1.968  0.7974 -0.6910 -0.6129
 8559SOL    HW237140   3.226   3.174   2.087 -0.2229  0.4008  0.3057
 8560SOL     OW37141   1.286   0.417   6.068 -0.1349  0.2409  0.5348
 8560SOL    HW137142   1.373   0.404   6.029 -0.9554 -3.1990 -0.1140
 8560SOL    HW237143   1.240   0.450   5.991 -0.7112 -0.2528  0.6628
 8561SOL     OW37144   2.700   4.023   6.882 -0.1734 -0.1518 -0.3172
 8561SOL    HW137145   2.705   4.111   6.919 -0.2032 -1.4487  2.7988
 8561SOL    HW237146   2.742   4.042   6.799  3.3375 -0.0660  1.4765
 8562SOL     OW37147   3.955   4.176   9.432 -0.0122  0.4462  0.2785
 8562SOL    HW137148   3.859   4.173   9.438 -0.0776  0.9840 -0.4075
 8562SOL    HW237149   3.962   4.128   9.349  0.5953  0.7980  0.1301
 8563SOL     OW37150   2.850   1.074   7.699  0.0895 -0.1738  0.2558
 8563SOL    HW137151   2.849   1.020   7.778 -1.6090  1.5961  1.4400
 8563SOL    HW237152   2.939   1.110   7.702 -0.6075  1.5396  0.1392
 8564SOL     OW37153   1.195   1.737  14.320  0.0747 -0.1770  0.1342
 8564SOL    HW137154   1.162   1.827  14.320 -1.4034 -0.7240  0.6304
 8564SOL    HW237155   1.116   1.684  14.328  0.3859 -0.4537  1.2968
 8565SOL     OW37156   3.855   4.327  11.557 -0.1696  0.0104 -0.3082
 8565SOL    HW137157   3.775   4.346  11.508  0.4830 -0.3484 -1.5145
 8565SOL    HW237158   3.891   4.257  11.503 -1.0073  0.0590 -0.9216
 8566SOL     OW37159   3.494   0.221  12.841  0.1692  0.0070 -0.1181
 8566SOL    HW137160   3.408   0.212  12.882 -0.4751  0.9184 -1.2884
 8566SOL    HW237161   3.548   0.264  12.908 -1.4914  0.7552  0.7428
 8567SOL     OW37162   1.904   4.649   8.566 -0.1372  0.2943  0.5275
 8567SOL    HW137163   1.862   4.668   8.482 -0.3668 -1.9679  0.1173
 8567SOL    HW237164   1.976   4.712   8.560  0.0151  0.1618  0.9130
 8568SOL     OW37165   1.493   3.989   1.955  0.0822 -0.2705  0.5696
 8568SOL    HW137166   1.472   4.017   1.866 -1.7696 -0.5010  0.9442
 8568SOL    HW237167   1.512   3.897   1.938  2.1059  0.0218  1.2644
 8569SOL     OW37168   2.411   3.911   6.904 -0.8028 -0.2962  0.4488
 8569SOL    HW137169   2.496   3.923   6.860 -0.0098 -0.6850  1.8840
 8569SOL    HW237170   2.350   3.896   6.832  1.0400  3.8893 -1.9880
 8570SOL     OW37171   3.313   3.027   0.344  0.5154  0.3778  0.3343
 8570SOL    HW137172   3.399   3.068   0.343  1.0165 -0.7753 -2.1637
 8570SOL    HW237173   3.322   2.932   0.339 -0.7721  0.2281  0.8993
 8571SOL     OW37174   3.265   0.271   7.486  0.0371  0.5454 -0.3247
 8571SOL    HW137175   3.350   0.305   7.456 -0.5279  1.2379 -1.1235
 8571SOL    HW237176   3.209   0.348   7.493 -3.3605 -1.7590 -2.5442
 8572SOL     OW37177   0.377   2.288   7.138  0.2410 -0.0012  0.5581
 8572SOL    HW137178   0.466   2.252   7.136 -0.0454 -0.6537 -0.5372
 8572SOL    HW237179   0.330   2.234   7.202  0.2108 -0.9752 -0.2939
 8573SOL     OW37180   1.409   4.346   4.987  0.9130  0.5210  0.1534
 8573SOL    HW137181   1.423   4.275   4.925 -1.6251 -0.9591  1.2678
 8573SOL    HW237182   1.425   4.425   4.934  0.8710 -0.4392 -1.2983
 8574SOL     OW37183   1.077   1.892   6.361  0.4568  0.0030 -0.5564
 8574SOL    HW137184   1.045   1.900   6.271 -1.6350  0.9451  0.2654
 8574SOL    HW237185   1.086   1.797   6.354 -0.7230  0.0709 -2.9402
 8575SOL     OW37186   3.931   4.440   3.083  0.2835  0.1464 -0.3812
 8575SOL    HW137187   4.025   4.428   3.065 -0.1018 -1.0981 -1.6687
 8575SOL    HW237188   3.929   4.535   3.089  1.0042  0.1236  0.2169
 8576SOL     OW37189   4.118   3.967  12.248  0.4163 -0.0750 -0.8901
 8576SOL    HW137190   4.156   4.039  12.197 -0.2932  0.4569 -0.6758
 8576SOL    HW237191   4.048   4.016  12.292  0.7506 -0.4939  0.1117
 8577SOL     OW37192   0.570   3.321   7.324  0.0962 -0.4863  0.5763
 8577SOL    HW137193   0.512   3.245   7.329  0.3783 -0.6397  1.4313
 8577SOL    HW237194   0.609   3.308   7.237 -1.2678  1.5118 -0.3356
 8578SOL     OW37195   3.840   0.546   5.131 -0.2876 -0.1109 -0.5956
 8578SOL    HW137196   3.771   0.560   5.067  0.9156  0.7499 -1.7107
 8578SOL    HW237197   3.802   0.478   5.186  0.0338 -0.0039 -0.2417
 8579SOL     OW37198   0.625   2.118  15.868  0.8693  0.1616  0.3376
 8579SOL    HW137199   0.701   2.127  15.810  0.5396  1.6347  0.1489
 8579SOL    HW237200   0.635   2.029  15.904 -1.2223  0.7682  2.3795
 8580SOL     OW37201   3.136   3.266  17.289  0.0673 -0.4266 -0.1596
 8580SOL    HW137202   3.216   3.250  17.240  0.1075  0.3871 -0.3564
 8580SOL    HW237203   3.101   3.338  17.237 -1.1857 -0.4218  0.6949
 8581SOL     OW37204   2.140   0.779   2.591  0.3308  0.1469 -0.3961
 8581SOL    HW137205   2.070   0.834   2.557  0.5213 -0.0887 -1.1580
 8581SOL    HW237206   2.211   0.843   2.602  0.1957  0.4285 -1.1428
 8582SOL     OW37207   0.523   1.270   9.433  0.4344  0.1112  0.0679
 8582SOL    HW137208   0.587   1.327   9.476  0.9250 -0.6838  0.4076
 8582SOL    HW237209   0.566   1.189   9.462 -0.3559 -0.9539 -1.7361
 8583SOL     OW37210   0.382   2.553   2.337  0.2181  0.0577  0.9070
 8583SOL    HW137211   0.471   2.588   2.333 -0.1234  0.8321 -0.0672
 8583SOL    HW237212   0.346   2.555   2.248  1.6022  0.9891  0.3558
 8584SOL     OW37213   0.186   1.595   3.303 -0.3556  0.3319  0.1365
 8584SOL    HW137214   0.224   1.508   3.317  0.3210  0.7216  0.6925
 8584SOL    HW237215   0.176   1.598   3.208  0.2144  0.4876  0.0829
 8585SOL     OW37216   1.607   4.268   8.299  0.1407 -0.4422 -0.4986
 8585SOL    HW137217   1.564   4.186   8.276  1.1938 -0.4217 -2.5574
 8585SOL    HW237218   1.653   4.249   8.381  1.3731  0.0854 -1.0598
 8586SOL     OW37219   0.704   3.077   2.550  0.2602  0.3432  0.4260
 8586SOL    HW137220   0.635   3.131   2.511  0.1338 -2.0685 -2.6580
 8586SOL    HW237221   0.653   3.016   2.603  0.9866 -0.6799 -0.0556
 8587SOL     OW37222   0.773   1.990   5.295  0.0347 -0.1392 -0.3152
 8587SOL    HW137223   0.837   2.057   5.271  0.6983 -0.4088  0.6697
 8587SOL    HW237224   0.793   1.916   5.238 -0.5442 -1.8593  1.7086
 8588SOL     OW37225   4.537   0.473   7.689 -0.5124 -0.1370 -0.3150
 8588SOL    HW137226   4.534   0.552   7.743  1.2719 -1.0420  1.1244
 8588SOL    HW237227   4.502   0.512   7.609  1.4585 -0.6576 -1.4324
 8589SOL     OW37228   4.128   2.257  15.301 -0.2692  0.2126  0.0484
 8589SOL    HW137229   4.086   2.171  15.300 -0.0216  0.1302 -2.8756
 8589SOL    HW237230   4.191   2.258  15.229  0.7506  2.9760  0.9756
 8590SOL     OW37231   3.803   2.970   8.153  0.2758  0.2155 -0.2243
 8590SOL    HW137232   3.732   2.936   8.100  2.2809 -1.7411 -1.6743
 8590SOL    HW237233   3.780   2.953   8.244  1.3125  1.2565  0.2372
 8591SOL     OW37234   1.497   4.540   8.284  0.4166  0.2521  0.6094
 8591SOL    HW137235   1.419   4.528   8.229  0.5755 -0.6552  0.5848
 8591SOL    HW237236   1.515   4.446   8.284  2.2323  0.6004  1.2771
 8592SOL     OW37237   3.634   4.423   8.739  0.2842  0.0895 -0.1704
 8592SOL    HW137238   3.607   4.359   8.804  0.2756  0.1204 -0.1433
 8592SOL    HW237239   3.557   4.476   8.720  1.8235  3.2764  2.4819
 8593SOL     OW37240   3.952   1.351   3.414 -0.5071  0.0380 -1.0155
 8593SOL    HW137241   4.034   1.387   3.448 -0.7331 -0.2942 -0.1150
 8593SOL    HW237242   3.892   1.388   3.479  0.6769  1.7857 -0.9301
 8594SOL     OW37243   1.569   2.776   0.483 -0.7887  0.2718 -0.7387
 8594SOL    HW137244   1.572   2.808   0.393 -0.8521  0.0886 -0.8064
 8594SOL    HW237245   1.492   2.719   0.478 -0.1588 -0.4777 -1.8555
 8595SOL     OW37246   4.044   4.569   6.506  0.0939 -0.0562  0.4118
 8595SOL    HW137247   3.965   4.617   6.529 -0.2490  0.0571 -0.9920
 8595SOL    HW237248   4.104   4.576   6.580 -0.8457 -1.3991  1.2994
 8596SOL     OW37249   4.310   1.786   4.990  0.2387  0.4331  0.0859
 8596SOL    HW137250   4.216   1.800   4.986  0.8027  4.0357 -1.3584
 8596SOL    HW237251   4.349   1.869   4.959 -0.8212  1.4050  1.3650
 8597SOL     OW37252   3.678   3.969   2.844 -0.0970  0.1684  0.0821
 8597SOL    HW137253   3.656   3.967   2.937  1.9975 -1.4548  0.5564
 8597SOL    HW237254   3.594   3.997   2.806 -0.2260 -1.6569 -0.9887
 8598SOL     OW37255   1.574   0.384  16.949 -1.0025  0.4533  0.2190
 8598SOL    HW137256   1.507   0.374  16.881  0.6933 -2.1684 -1.0829
 8598SOL    HW237257   1.525   0.403  17.029  0.4186  1.3780  0.8703
 8599SOL     OW37258   4.542   3.245   8.992  0.5375 -0.0243 -0.0380
 8599SOL    HW137259   4.571   3.251   8.901 -1.5150 -0.8442 -0.7444
 8599SOL    HW237260   4.604   3.184   9.032  0.9756  0.7955  0.5440
 8600SOL     OW37261   1.536   1.067   8.955  0.0383 -0.2300 -0.3664
 8600SOL    HW137262   1.584   1.104   8.881  2.1069 -1.2643  0.4543
 8600SOL    HW237263   1.475   1.137   8.978  0.9313  0.2505  0.5811
 8601SOL     OW37264   4.019   3.822   4.968  0.1741  0.4170 -0.3387
 8601SOL    HW137265   4.002   3.881   4.895 -1.8932  0.6731  0.3369
 8601SOL    HW237266   4.111   3.801   4.954  0.3186  0.6758  0.2323
 8602SOL     OW37267   3.819   1.755   5.422  0.3522 -0.1154  0.2139
 8602SOL    HW137268   3.894   1.702   5.397  0.9905  0.8359  0.1331
 8602SOL    HW237269   3.757   1.682   5.429  1.7843 -1.4849 -1.2869
 8603SOL     OW37270   0.120   1.631  14.469  0.0279 -0.5307 -0.2077
 8603SOL    HW137271   0.071   1.643  14.550 -0.2265  1.8302 -0.7135
 8603SOL    HW237272   0.063   1.678  14.408  0.5253  0.5201  0.1363
 8604SOL     OW37273   2.109   1.280   4.365 -0.3240 -0.3539 -0.5527
 8604SOL    HW137274   2.128   1.278   4.272 -0.2126 -0.0390 -0.5352
 8604SOL    HW237275   2.077   1.370   4.375 -2.1184 -1.4285  3.6626
 8605SOL     OW37276   1.927   2.367  10.321 -0.4034  0.8519 -0.1343
 8605SOL    HW137277   2.002   2.425  10.323  0.8703 -0.7726 -0.3090
 8605SOL    HW237278   1.926   2.345  10.414  0.5324  0.5119 -0.2038
 8606SOL     OW37279   4.037   1.447   8.724 -0.5867 -0.1648 -0.1980
 8606SOL    HW137280   4.117   1.448   8.776  0.0271  2.4003 -1.1602
 8606SOL    HW237281   3.979   1.396   8.780  0.8647 -1.4391  0.1277
 8607SOL     OW37282   0.426   2.147   6.577 -0.1336  0.2354  0.3642
 8607SOL    HW137283   0.468   2.146   6.663 -2.2504 -2.7837  1.3511
 8607SOL    HW237284   0.334   2.125   6.592  0.3892 -1.4665  1.0154
 8608SOL     OW37285   3.503   2.515   7.308  0.3272  0.3019  0.0208
 8608SOL    HW137286   3.584   2.549   7.270  0.5258 -0.5266 -0.2911
 8608SOL    HW237287   3.467   2.596   7.346  0.6739  1.1953 -1.5055
 8609SOL     OW37288   2.512   2.847  12.424  0.3204 -0.0461  0.1480
 8609SOL    HW137289   2.467   2.871  12.343  1.5585  2.7977  0.2915
 8609SOL    HW237290   2.517   2.927  12.476 -0.4803 -0.9335  1.6003
 8610SOL     OW37291   2.745   4.366   5.403  0.7510 -0.0654 -0.2206
 8610SOL    HW137292   2.709   4.316   5.330 -1.6355 -0.2452  1.0611
 8610SOL    HW237293   2.771   4.446   5.357  0.9393 -1.9450 -3.3813
 8611SOL     OW37294   3.464   3.558   6.149  0.5402 -0.3691 -0.3972
 8611SOL    HW137295   3.533   3.510   6.103  1.5881 -0.9221  1.7646
 8611SOL    HW237296   3.472   3.517   6.235  0.9402  0.3137 -0.1137
 8612SOL     OW37297   4.233   2.704  12.852 -0.1034  0.0179  0.1323
 8612SOL    HW137298   4.143   2.721  12.826 -0.6959  1.2977  3.0270
 8612SOL    HW237299   4.269   2.783  12.813 -1.1922  0.3240 -0.2385
 8613SOL     OW37300   3.287   3.811   1.149 -0.0049  0.1306 -0.4936
 8613SOL    HW137301   3.329   3.815   1.234 -0.2874 -0.4385 -0.3260
 8613SOL    HW237302   3.354   3.766   1.098 -1.5025 -1.2329 -1.2534
 8614SOL     OW37303   0.147   1.188   2.370 -0.5305 -0.1752 -0.4436
 8614SOL    HW137304   0.215   1.175   2.435  0.4321 -1.1907 -1.6504
 8614SOL    HW237305   0.190   1.151   2.293 -0.5671 -1.0900 -0.0197
 8615SOL     OW37306   0.987   0.595  12.963 -0.1845 -0.3279  0.2284
 8615SOL    HW137307   1.076   0.615  12.991 -0.6871  1.2596  0.6919
 8615SOL    HW237308   0.946   0.615  13.047 -1.8510 -0.6464 -0.5165
 8616SOL     OW37309   3.032   0.051   5.373  0.0171 -0.5079  0.2284
 8616SOL    HW137310   3.006   0.140   5.347 -0.4606 -1.3963 -2.2944
 8616SOL    HW237311   2.955   4.721   5.350 -0.7306  0.6068  0.2229
 8617SOL     OW37312   0.481   4.348   4.582 -0.1754  0.6303  0.1015
 8617SOL    HW137313   0.400   4.393   4.561 -0.6536 -0.7735 -1.0622
 8617SOL    HW237314   0.486   4.366   4.676 -0.2581 -1.9353  0.6091
 8618SOL     OW37315   1.267   1.974  16.337 -0.5734  0.3666  0.1401
 8618SOL    HW137316   1.316   1.959  16.418 -2.7096  0.9407  1.5172
 8618SOL    HW237317   1.316   1.924  16.271 -0.7636 -0.3080  0.5115
 8619SOL     OW37318   1.594   4.146   5.601 -0.8587 -0.3522  0.2128
 8619SOL    HW137319   1.509   4.174   5.567  0.6113  0.7627 -2.4786
 8619SOL    HW237320   1.644   4.225   5.583 -3.5531  2.0250  3.1362
 8620SOL     OW37321   1.990   1.025  13.872  0.0990  0.3324  0.5501
 8620SOL    HW137322   1.905   0.999  13.836  0.3591 -0.2002  0.3352
 8620SOL    HW237323   2.002   0.965  13.946 -0.2532 -0.3768  0.0200
 8621SOL     OW37324   3.698   2.510  15.155  0.1887  0.7877  0.0243
 8621SOL    HW137325   3.785   2.498  15.193 -0.3421  0.5410  1.1403
 8621SOL    HW237326   3.650   2.441  15.200 -0.0868  0.6808 -0.4314
 8622SOL     OW37327   2.886   1.014   3.325  0.2268 -0.2875  0.3721
 8622SOL    HW137328   2.921   1.102   3.315  1.5103 -0.5364  2.7094
 8622SOL    HW237329   2.821   1.008   3.254 -0.4356  0.6535  0.9039
 8623SOL     OW37330   2.331   4.147   7.045  0.0225 -0.6049  0.7467
 8623SOL    HW137331   2.365   4.061   7.018 -0.0381  0.6910 -3.4006
 8623SOL    HW237332   2.238   4.142   7.025 -0.3558  2.6127  1.7258
 8624SOL     OW37333   0.934   2.577   1.249  0.2983 -0.1362 -0.0584
 8624SOL    HW137334   0.843   2.586   1.222  0.1309 -1.4468  0.0654
 8624SOL    HW237335   0.920   2.494   1.295  1.2314 -0.3901 -0.2190
 8625SOL     OW37336   2.193   4.078  15.526  0.3783 -0.1983  0.1057
 8625SOL    HW137337   2.108   4.120  15.515  0.7512  0.8537  1.3510
 8625SOL    HW237338   2.180   4.042  15.614 -2.6017  0.5320 -0.0208
 8626SOL     OW37339   1.874   4.405   5.842 -0.1513  0.4208  0.3241
 8626SOL    HW137340   1.789   4.398   5.799 -0.5344 -1.2874  1.3686
 8626SOL    HW237341   1.853   4.386   5.933  0.2159  1.5431  0.6557
 8627SOL     OW37342   2.633   1.477  14.603  0.1824  0.0977 -0.1766
 8627SOL    HW137343   2.728   1.467  14.597  0.0846 -1.2119  0.4353
 8627SOL    HW237344   2.612   1.385  14.619  0.2525 -0.0187 -0.7579
 8628SOL     OW37345   2.720   1.286   6.298  0.2786  0.3953  0.2566
 8628SOL    HW137346   2.643   1.341   6.311  1.5336  1.9852  0.9113
 8628SOL    HW237347   2.727   1.244   6.384 -1.1249 -0.0040  0.1877
 8629SOL     OW37348   0.487   1.222   8.092  0.1876  0.8273 -0.3756
 8629SOL    HW137349   0.562   1.161   8.089 -0.3783  0.1045  0.0785
 8629SOL    HW237350   0.525   1.304   8.063  1.4107  0.6876  0.8156
 8630SOL     OW37351   4.597   0.257   1.715 -0.4426 -0.0157 -0.0624
 8630SOL    HW137352   4.600   0.163   1.728 -0.8076  0.1036  0.9150
 8630SOL    HW237353   4.673   0.263   1.657 -0.1215  2.8075  0.6447
 8631SOL     OW37354   1.849   4.180   0.099  0.1544 -0.6898 -0.3404
 8631SOL    HW137355   1.939   4.157   0.123  0.2705 -0.4298 -0.5330
 8631SOL    HW237356   1.840   4.248   0.166 -2.2062 -2.1127  0.7977
 8632SOL     OW37357   2.293   1.744  15.553 -0.4108  0.0464 -0.2120
 8632SOL    HW137358   2.260   1.831  15.531  0.5545  0.7665  1.2206
 8632SOL    HW237359   2.219   1.683  15.552  1.2358 -1.9223 -0.6705
 8633SOL     OW37360   2.294   3.992   4.405  0.0877  0.0975  0.2035
 8633SOL    HW137361   2.322   3.943   4.329  0.7665  2.8461 -1.3312
 8633SOL    HW237362   2.225   3.937   4.442  0.8629 -1.0482 -0.0792
 8634SOL     OW37363   1.106   4.473   3.989 -0.0579  0.1701 -0.3700
 8634SOL    HW137364   1.036   4.527   4.025  0.3223 -0.0037  0.6159
 8634SOL    HW237365   1.077   4.460   3.898 -2.0249  0.9681  0.1442
 8635SOL     OW37366   1.118   1.180  15.047  0.3744  0.6935  0.0889
 8635SOL    HW137367   1.056   1.185  14.975 -0.6156  1.0221  0.9565
 8635SOL    HW237368   1.162   1.101  15.016  0.6822 -0.2964  3.0103
 8636SOL     OW37369   2.053   1.708   7.636  0.5749  0.4816  0.2963
 8636SOL    HW137370   2.108   1.648   7.686  0.8445 -0.4894 -1.1752
 8636SOL    HW237371   2.071   1.784   7.691  0.7558  0.2557  0.5521
 8637SOL     OW37372   4.698   1.305  13.113 -0.0284 -0.3247  0.0977
 8637SOL    HW137373   0.046   1.239  13.106  0.2307 -0.2951  2.6238
 8637SOL    HW237374   4.710   1.369  13.042  2.8567  1.9502  2.6730
 8638SOL     OW37375   0.653   0.318   9.660 -0.0279 -0.2910 -0.3456
 8638SOL    HW137376   0.737   0.311   9.705 -0.2541  0.8066  0.2506
 8638SOL    HW237377   0.661   0.243   9.601 -1.2907 -0.1864 -0.6552
 8639SOL     OW37378   1.864   0.004   2.095 -0.0024  0.2689  0.7173
 8639SOL    HW137379   1.848   4.638   2.131  0.0040  0.6052  1.5333
 8639SOL    HW237380   1.838   0.008   2.003  0.1843 -0.5660  0.6269
 8640SOL     OW37381   0.459   1.817   5.705 -0.2352 -0.1093 -0.3736
 8640SOL    HW137382   0.501   1.838   5.621  1.0152 -0.3769  0.1841
 8640SOL    HW237383   0.447   1.723   5.710  1.5407 -0.2031  1.7697
 8641SOL     OW37384   3.017   1.179   6.890 -0.1200 -0.3380 -0.3415
 8641SOL    HW137385   2.991   1.121   6.818 -1.7071  1.7495 -1.4613
 8641SOL    HW237386   3.045   1.105   6.943  0.0012 -0.4842 -0.6113
 8642SOL     OW37387   0.426   0.182   6.847  0.1105 -0.3052 -1.1905
 8642SOL    HW137388   0.418   0.276   6.863  1.0891 -0.8605  2.5694
 8642SOL    HW237389   0.450   0.148   6.934  1.5912 -1.1950 -1.9606
 8643SOL     OW37390   2.969   3.755  17.601  0.3418  0.1112 -0.0138
 8643SOL    HW137391   3.005   3.791  17.682  1.1054 -0.4180 -0.1179
 8643SOL    HW237392   3.024   3.792  17.532  0.7750 -1.4765 -0.5312
 8644SOL     OW37393   4.002   0.101   7.894  0.5815  0.5971  0.1839
 8644SOL    HW137394   4.022   0.167   7.828 -1.2652  1.0438  0.0800
 8644SOL    HW237395   4.087   0.071   7.928 -0.0520 -0.7317  0.6360
 8645SOL     OW37396   1.769   0.320   9.023  0.2532  0.1171  0.4786
 8645SOL    HW137397   1.787   0.394   9.081 -0.2577  0.0105  0.7698
 8645SOL    HW237398   1.673   0.317   9.028  0.3987 -1.5301  2.1643
 8646SOL     OW37399   1.050   0.533   5.205 -0.0790  0.6322  0.1880
 8646SOL    HW137400   1.089   0.461   5.156  0.0821  0.7551  0.1337
 8646SOL    HW237401   0.967   0.497   5.235  0.8504 -0.3194  1.6297
 8647SOL     OW37402   3.288   0.094   5.979 -0.1984 -0.1524  0.1303
 8647SOL    HW137403   3.309   0.070   6.070  0.8623 -2.7769 -0.8032
 8647SOL    HW237404   3.342   0.031   5.932 -1.1987 -0.8801 -0.0415
 8648SOL     OW37405   4.177   0.977   2.812  0.2753 -0.3250 -0.2975
 8648SOL    HW137406   4.222   1.061   2.820 -0.4270 -0.0573  0.8359
 8648SOL    HW237407   4.171   0.976   2.717 -1.9161  0.9913 -0.1785
 8649SOL     OW37408   2.896   1.362  15.124  0.1525 -0.3479 -0.3499
 8649SOL    HW137409   2.869   1.353  15.033 -1.5513 -0.2098  0.1473
 8649SOL    HW237410   2.838   1.301  15.170  2.0672 -0.9241  1.2878
 8650SOL     OW37411   1.485   3.275  11.860 -0.0181  0.5680 -0.3593
 8650SOL    HW137412   1.499   3.220  11.782  0.5088 -0.2552  0.3050
 8650SOL    HW237413   1.533   3.353  11.834 -0.1543  0.3001 -1.4240
 8651SOL     OW37414   3.653   1.516   3.351  0.9135  0.0706 -0.2650
 8651SOL    HW137415   3.671   1.471   3.434  1.0798  0.4320 -0.1017
 8651SOL    HW237416   3.717   1.474   3.294 -0.3441 -2.6448  0.3494
 8652SOL     OW37417   3.110   1.206   7.609 -0.4845 -0.0398 -0.6256
 8652SOL    HW137418   3.156   1.159   7.539 -0.7034  1.4603 -1.7857
 8652SOL    HW237419   3.177   1.274   7.604 -0.7591  0.2608 -0.1645
 8653SOL     OW37420   1.511   3.768  11.439  0.0279 -0.8426  0.5228
 8653SOL    HW137421   1.432   3.739  11.394  0.4853 -0.9342 -0.2176
 8653SOL    HW237422   1.528   3.684  11.483 -1.2929 -2.3567 -1.8685
 8654SOL     OW37423   3.794   2.681   3.973 -0.6780  0.2880 -0.1965
 8654SOL    HW137424   3.812   2.590   3.947 -2.7625  0.0081 -0.6341
 8654SOL    HW237425   3.882   2.716   3.964 -1.3669  1.6918 -1.4326
 8655SOL     OW37426   3.968   3.829   5.534  0.0309  0.4895 -0.5114
 8655SOL    HW137427   3.881   3.858   5.506  0.8972  2.8866 -0.7112
 8655SOL    HW237428   3.971   3.865   5.623 -0.8023 -0.2657 -0.1782
 8656SOL     OW37429   0.907   2.284   7.763 -0.0123  0.0175 -0.2147
 8656SOL    HW137430   0.862   2.335   7.697 -1.9184 -1.3664  0.0262
 8656SOL    HW237431   0.871   2.314   7.846  0.4747 -3.1297  1.1431
 8657SOL     OW37432   0.657   1.726   2.022 -0.0582 -0.1714  0.1496
 8657SOL    HW137433   0.686   1.635   2.019  0.9842  0.1850 -0.6450
 8657SOL    HW237434   0.698   1.756   1.940 -2.6990  0.9345 -0.7533
 8658SOL     OW37435   0.355   3.308   6.570 -0.1210  0.3748  0.1711
 8658SOL    HW137436   0.319   3.328   6.656 -0.5257  0.4719 -0.0211
 8658SOL    HW237437   0.333   3.385   6.517  0.9763  1.0781  0.7536
 8659SOL     OW37438   2.028   1.328  17.496 -0.1292  0.1429 -0.2820
 8659SOL    HW137439   2.029   1.364  17.407 -2.2069  0.2737 -0.2538
 8659SOL    HW237440   2.120   1.301  17.496 -0.4557 -0.9141  1.4716
 8660SOL     OW37441   3.742   4.335   8.195 -0.2607 -0.3694  0.4557
 8660SOL    HW137442   3.739   4.276   8.270 -2.1877  0.9231  1.4065
 8660SOL    HW237443   3.647   4.334   8.180 -0.2076  0.2502  0.0768
 8661SOL     OW37444   3.527   3.081  14.581  0.2642 -0.2940  0.4325
 8661SOL    HW137445   3.563   3.131  14.508  0.5187 -0.9018  0.1357
 8661SOL    HW237446   3.504   3.149  14.644 -0.8743 -0.5370  0.2850
 8662SOL     OW37447   3.720   3.613   1.983 -0.4176  0.5280 -0.3408
 8662SOL    HW137448   3.635   3.597   2.025  0.0015  1.6642  0.9461
 8662SOL    HW237449   3.758   3.674   2.046 -2.6677 -0.3087  1.8310
 8663SOL     OW37450   3.782   1.280  16.061 -0.1664 -0.4668  0.1513
 8663SOL    HW137451   3.777   1.220  15.987 -0.6239 -0.1859 -0.0485
 8663SOL    HW237452   3.697   1.277  16.104  0.6526 -0.4882  1.7752
 8664SOL     OW37453   0.117   2.069  17.112 -0.2117 -0.3094 -0.0774
 8664SOL    HW137454   0.176   2.087  17.038 -1.1988 -0.5901 -0.9414
 8664SOL    HW237455   0.184   2.037  17.172 -0.6525 -2.5026 -0.7418
 8665SOL     OW37456   1.004   1.066   3.146  0.1783 -0.1779 -0.1447
 8665SOL    HW137457   1.065   1.022   3.087 -1.4243 -1.0014 -1.1796
 8665SOL    HW237458   0.921   1.024   3.123  0.9207 -1.2301 -0.9072
 8666SOL     OW37459   1.325   1.140   0.667  0.4273  0.2036 -0.5558
 8666SOL    HW137460   1.329   1.229   0.634  0.7638  0.8647  1.2639
 8666SOL    HW237461   1.349   1.092   0.587 -1.0669  0.3203 -1.0646
 8667SOL     OW37462   4.255   2.115   3.066 -0.2892  0.1214  0.2058
 8667SOL    HW137463   4.293   2.088   3.149  0.0961 -3.0235 -1.0086
 8667SOL    HW237464   4.293   2.061   2.997 -0.7705 -1.0527  0.8590
 8668SOL     OW37465   2.023   0.700  14.803  0.0831  0.1469 -0.5266
 8668SOL    HW137466   2.055   0.755  14.731  0.8963 -0.7485 -0.8502
 8668SOL    HW237467   2.006   0.612  14.769 -0.2674  0.0521 -0.1138
 8669SOL     OW37468   1.793   3.767   5.148  0.1203 -0.0251 -0.1126
 8669SOL    HW137469   1.746   3.831   5.095  0.9542 -0.6772 -1.6274
 8669SOL    HW237470   1.878   3.810   5.161 -0.8118  3.0533 -4.1309
 8670SOL     OW37471   2.749   2.502   3.199 -0.3977  0.0946 -0.7847
 8670SOL    HW137472   2.816   2.436   3.180 -0.1134 -0.2654  1.4735
 8670SOL    HW237473   2.679   2.451   3.240  1.5724 -2.6950 -0.8766
 8671SOL     OW37474   3.469   3.010   1.900  0.1675 -0.2975  0.1105
 8671SOL    HW137475   3.502   3.036   1.986 -1.7084 -3.4643  1.7864
 8671SOL    HW237476   3.373   3.016   1.894  0.1920  0.5582  0.4593
 8672SOL     OW37477   2.761   0.188  17.265  0.0877  0.6525  0.0985
 8672SOL    HW137478   2.677   0.210  17.304  0.0538 -0.7339  0.8053
 8672SOL    HW237479   2.729   0.204  17.176 -2.2372  0.2900  0.8730
 8673SOL     OW37480   0.364   4.685  10.847 -0.0149  0.5327 -0.0516
 8673SOL    HW137481   0.291   4.638  10.887  0.7668 -1.5918 -1.1346
 8673SOL    HW237482   0.337   0.056  10.852  1.3255  0.8820  0.8356
 8674SOL     OW37483   2.535   1.130   7.269 -0.0935 -0.3385 -0.2889
 8674SOL    HW137484   2.448   1.163   7.246 -0.5414 -1.5392 -0.3205
 8674SOL    HW237485   2.580   1.155   7.188 -0.0917 -0.8023 -0.4316
 8675SOL     OW37486   2.468   2.731   5.510  0.4055 -0.4640  0.6522
 8675SOL    HW137487   2.548   2.679   5.500  1.4452  0.5392  4.1455
 8675SOL    HW237488   2.500   2.813   5.547  2.5974 -0.9257 -0.1684
 8676SOL     OW37489   0.405   0.254   9.415 -0.2313 -0.5219 -0.1075
 8676SOL    HW137490   0.336   0.247   9.349  1.2485 -0.2085 -1.6868
 8676SOL    HW237491   0.355   0.298   9.484  0.2437 -0.2380  0.0571
 8677SOL     OW37492   1.445   2.294   7.720 -0.3575  0.1216 -0.5191
 8677SOL    HW137493   1.477   2.205   7.734  0.9469  0.8508  1.0577
 8677SOL    HW237494   1.485   2.312   7.635  0.8342  1.3472  0.3028
 8678SOL     OW37495   0.922   2.441   3.401 -0.3220  0.0079  0.4612
 8678SOL    HW137496   0.872   2.370   3.441 -1.3357 -0.3610 -1.4777
 8678SOL    HW237497   0.851   2.503   3.387  0.5255  1.4220  2.3777
 8679SOL     OW37498   1.623   0.654   6.394 -0.1483 -0.1995 -0.1586
 8679SOL    HW137499   1.602   0.586   6.457 -1.0010  0.2044 -0.0022
 8679SOL    HW237500   1.535   0.664   6.357  0.2497 -1.9188 -1.5584
 8680SOL     OW37501   0.521   1.796   2.272  0.5692  0.0498  0.3159
 8680SOL    HW137502   0.602   1.825   2.314 -0.4354 -0.2856  2.4553
 8680SOL    HW237503   0.559   1.754   2.196  1.2337 -0.9709  1.2200
 8681SOL     OW37504   0.219   0.878   3.361  0.0914  0.6738 -0.5013
 8681SOL    HW137505   0.246   0.955   3.412 -1.7281  1.4507 -0.7107
 8681SOL    HW237506   0.140   0.844   3.404  1.6423  1.3944  2.9660
 8682SOL     OW37507   3.803   0.206   2.177 -0.0084  0.1292  0.7657
 8682SOL    HW137508   3.716   0.242   2.164  0.8115  2.5397  1.9308
 8682SOL    HW237509   3.807   0.174   2.086 -0.6750 -0.7122  1.0317
 8683SOL     OW37510   0.733   0.196   2.082 -0.1654  0.0246  0.1923
 8683SOL    HW137511   0.703   0.133   2.016  0.0450  0.8399 -0.6872
 8683SOL    HW237512   0.821   0.213   2.050  0.0239 -2.0743 -0.3975
 8684SOL     OW37513   0.697   2.406   7.635  0.8600  0.1755 -0.0543
 8684SOL    HW137514   0.664   2.335   7.580  0.6420  1.3511 -1.4287
 8684SOL    HW237515   0.638   2.400   7.710  1.6563  1.2196  0.6575
 8685SOL     OW37516   1.056   3.628  14.335  0.0885  0.0394  0.2049
 8685SOL    HW137517   1.087   3.614  14.424 -0.0984  1.5133  0.5072
 8685SOL    HW237518   1.060   3.540  14.298  1.5717  0.9790 -1.8823
 8686SOL     OW37519   2.928   0.626   7.844 -0.4129 -0.2664  0.0497
 8686SOL    HW137520   2.862   0.582   7.898 -0.2241 -1.5003 -0.7208
 8686SOL    HW237521   2.914   0.571   7.767  0.9706 -1.6905  0.8216
 8687SOL     OW37522   2.677   1.870   5.209  0.4272  0.6071 -1.1181
 8687SOL    HW137523   2.599   1.816   5.197 -0.2929  1.2793  0.4541
 8687SOL    HW237524   2.697   1.895   5.119 -0.6141  1.2208 -1.1844
 8688SOL     OW37525   2.219   4.141  16.430 -0.1592  0.0403  0.5859
 8688SOL    HW137526   2.157   4.073  16.456  0.4555 -0.6380  0.2664
 8688SOL    HW237527   2.299   4.116  16.475 -0.6224 -0.8256  0.9411
 8689SOL     OW37528   0.123   0.582  14.254 -0.0774  0.1378  0.3765
 8689SOL    HW137529   0.105   0.526  14.329 -0.3711 -1.3168 -0.8000
 8689SOL    HW237530   0.105   0.521  14.183  0.0836 -0.4798  0.8667
 8690SOL     OW37531   4.551   3.321   5.666 -0.4746  0.5553  0.1061
 8690SOL    HW137532   4.586   3.232   5.672 -0.1306  0.8909  2.8539
 8690SOL    HW237533   4.456   3.306   5.666 -0.2019 -1.1643  2.2335
 8691SOL     OW37534   2.620   4.471   1.236 -0.5852  0.2438  0.1792
 8691SOL    HW137535   2.613   4.523   1.316  1.2192  0.0877  0.4355
 8691SOL    HW237536   2.564   4.522   1.177 -0.8702 -1.1034 -0.7207
 8692SOL     OW37537   3.532   0.643  17.126 -0.3194  0.1579 -0.1853
 8692SOL    HW137538   3.524   0.646  17.222 -2.3210 -0.9219 -0.3141
 8692SOL    HW237539   3.447   0.636  17.084 -0.8076 -0.6131  0.9184
 8693SOL     OW37540   4.085   2.899   3.254  0.2105 -0.0820 -0.3239
 8693SOL    HW137541   4.023   2.961   3.214  1.2294  0.2727 -1.3667
 8693SOL    HW237542   4.086   2.924   3.346 -0.7337  0.9797 -0.6055
 8694SOL     OW37543   4.237   3.785   2.466  0.0894 -0.6479 -0.4301
 8694SOL    HW137544   4.214   3.780   2.373 -0.1446 -3.3929 -0.2308
 8694SOL    HW237545   4.265   3.694   2.474 -1.3265 -1.1818 -1.4222
 8695SOL     OW37546   2.030   2.542  15.922  0.1580 -0.0499  0.0866
 8695SOL    HW137547   1.992   2.605  15.983 -0.2612 -0.3380  0.1191
 8695SOL    HW237548   2.097   2.494  15.970 -0.6652  0.2108  1.4994
 8696SOL     OW37549   0.161   4.321   2.962 -0.1156  0.4963  0.3055
 8696SOL    HW137550   0.202   4.271   2.892  2.7229 -1.0952  3.1342
 8696SOL    HW237551   0.169   4.412   2.934  0.3654  0.5020  0.4638
 8697SOL     OW37552   0.957   2.428  10.194  0.1928 -0.2098 -0.2099
 8697SOL    HW137553   0.898   2.407  10.267 -1.4528  1.7375 -0.9689
 8697SOL    HW237554   0.992   2.513  10.221 -1.8675 -0.5019  3.4158
 8698SOL     OW37555   2.369   3.344  13.592 -0.1862  0.6468 -0.1567
 8698SOL    HW137556   2.307   3.416  13.580 -1.1719  0.0703  1.5084
 8698SOL    HW237557   2.382   3.335  13.687 -0.1594 -1.5966 -0.3721
 8699SOL     OW37558   2.221   2.544  10.670  0.5239  0.0126 -0.1079
 8699SOL    HW137559   2.187   2.506  10.751 -1.7884  0.8664 -0.6689
 8699SOL    HW237560   2.230   2.637  10.694  0.4371 -0.6141  2.4241
 8700SOL     OW37561   0.969   1.025   7.493  0.1377 -0.1200  0.0900
 8700SOL    HW137562   0.936   1.113   7.475 -1.0362 -0.7606 -0.9350
 8700SOL    HW237563   0.965   0.990   7.404 -0.4300 -2.5291  1.0508
 8701SOL     OW37564   2.458   2.593  10.546  0.0435 -0.0217  0.1955
 8701SOL    HW137565   2.382   2.569  10.598  0.3941 -3.4952 -0.8427
 8701SOL    HW237566   2.417   2.630  10.468  1.0108 -1.0874 -0.8269
 8702SOL     OW37567   4.142   2.459  17.240 -0.4237 -0.2217  0.2817
 8702SOL    HW137568   4.121   2.465  17.334  1.4388  0.0792  0.6752
 8702SOL    HW237569   4.051   2.460  17.211 -0.3337  1.0922  0.0602
 8703SOL     OW37570   4.424   2.745   1.503  0.2185 -0.6283 -0.8170
 8703SOL    HW137571   4.331   2.746   1.482  0.0807  1.5653 -0.1204
 8703SOL    HW237572   4.441   2.653   1.527  3.3079 -0.1988 -1.3650
 8704SOL     OW37573   0.597   3.951  15.712 -0.0437 -0.3702 -0.5079
 8704SOL    HW137574   0.525   3.945  15.649  0.2373  0.3357 -0.9014
 8704SOL    HW237575   0.580   4.037  15.752  0.2400  0.0368 -1.2717
 8705SOL     OW37576   1.049   0.291   0.639  0.3494  0.0896  0.4581
 8705SOL    HW137577   1.063   0.307   0.733 -0.9165 -0.1282  0.6840
 8705SOL    HW237578   1.082   0.201   0.639 -0.5377 -0.2354  1.2519
 8706SOL     OW37579   0.777   4.129   1.194  0.0923  0.2493  0.1837
 8706SOL    HW137580   0.752   4.205   1.141  0.9394 -0.8780 -1.8312
 8706SOL    HW237581   0.716   4.127   1.267  0.2880  0.1259  0.3436
 8707SOL     OW37582   2.743   3.348   7.642 -0.8728  0.2669  0.2846
 8707SOL    HW137583   2.669   3.307   7.687  0.0338 -2.2092 -0.4882
 8707SOL    HW237584   2.800   3.369   7.715 -4.2362 -0.6080  3.1845
 8708SOL     OW37585   0.205   4.588   0.361 -0.1642  0.2418 -0.1821
 8708SOL    HW137586   0.114   4.560   0.353 -0.3200  1.3425 -2.2582
 8708SOL    HW237587   0.244   4.507   0.393 -0.1297 -0.3519 -1.7067
 8709SOL     OW37588   1.695   4.578  12.927  0.0655  0.4190 -0.0865
 8709SOL    HW137589   1.608   4.555  12.959 -0.3184 -0.6435 -1.8847
 8709SOL    HW237590   1.721   4.501  12.876  0.8799  0.8641 -0.3460
 8710SOL     OW37591   3.333   1.461   1.523  0.4700  0.1945  0.4806
 8710SOL    HW137592   3.356   1.554   1.529  1.7714  0.0951 -2.6905
 8710SOL    HW237593   3.416   1.417   1.506 -0.3138 -1.1293  0.1127
 8711SOL     OW37594   3.592   1.088  13.111 -0.7397  0.2809  0.0502
 8711SOL    HW137595   3.669   1.142  13.126  0.2101 -0.8484 -0.7519
 8711SOL    HW237596   3.525   1.130  13.165 -0.8775 -0.6750  0.6165
 8712SOL     OW37597   3.725   2.494   1.022  0.3754  0.3755  0.5120
 8712SOL    HW137598   3.816   2.524   1.027 -0.1034  1.8740  0.3929
 8712SOL    HW237599   3.711   2.497   1.117 -2.2507  0.9224  0.1068
 8713SOL     OW37600   4.592   1.544   2.348  0.0240  0.3296 -0.4417
 8713SOL    HW137601   4.648   1.484   2.298  0.6037 -0.0488  0.6558
 8713SOL    HW237602   4.645   1.622   2.361  0.7462 -0.3595  0.7353
 8714SOL     OW37603   3.681   4.675   8.342 -0.2318 -0.3134  0.3846
 8714SOL    HW137604   3.749   4.638   8.286 -1.7956  2.1265 -3.1241
 8714SOL    HW237605   3.710   0.040   8.373 -2.1582  0.2413  0.6501
 8715SOL     OW37606   3.013   0.394   2.243  0.3022  0.4719  0.2282
 8715SOL    HW137607   2.922   0.367   2.228  1.3085 -0.7532 -3.4195
 8715SOL    HW237608   3.060   0.329   2.192  0.8748  1.5083 -0.5793
 8716SOL     OW37609   2.403   0.122   2.750  0.2721 -0.0539 -0.7116
 8716SOL    HW137610   2.489   0.097   2.716  0.3764  1.0848 -1.2820
 8716SOL    HW237611   2.346   0.153   2.680  0.3660  0.1999 -0.6741
 8717SOL     OW37612   3.276   3.775  12.259 -0.0691  0.1226 -0.0984
 8717SOL    HW137613   3.334   3.851  12.254 -0.5738  0.5661  0.7894
 8717SOL    HW237614   3.255   3.770  12.352 -0.9296  0.0847 -0.2999
 8718SOL     OW37615   1.768   4.530   6.994  0.2326  0.3143  0.0861
 8718SOL    HW137616   1.789   4.479   6.915  3.8419 -1.6044  2.2966
 8718SOL    HW237617   1.673   4.531   6.985  0.2266 -1.1366 -0.0591
 8719SOL     OW37618   0.419   3.034   1.749  0.1715  0.3425  0.2854
 8719SOL    HW137619   0.385   3.098   1.686  0.2570  1.0147  0.9183
 8719SOL    HW237620   0.378   2.951   1.724 -1.9164  1.3611  0.2436
 8720SOL     OW37621   1.636   2.296   1.255  0.1841  0.0916 -0.0145
 8720SOL    HW137622   1.553   2.339   1.274  0.9194  0.9678  1.1781
 8720SOL    HW237623   1.614   2.203   1.256 -1.0788  0.3886 -0.5160
 8721SOL     OW37624   4.040   1.710  10.492 -0.3096  0.2578 -0.2504
 8721SOL    HW137625   4.031   1.719  10.587  1.1451  0.7079 -0.1476
 8721SOL    HW237626   4.115   1.769  10.480  0.5930 -0.6303  1.0379
 8722SOL     OW37627   0.252   2.176   1.745 -0.2353 -0.0989 -0.6787
 8722SOL    HW137628   0.342   2.142   1.738 -0.2530 -0.2135 -0.3586
 8722SOL    HW237629   0.232   2.188   1.652 -2.0941 -0.6498 -0.3484
 8723SOL     OW37630   0.006   4.069   6.039 -0.3243  0.7265 -0.4244
 8723SOL    HW137631   0.098   4.086   6.060 -0.1290  2.1260 -2.4661
 8723SOL    HW237632   0.010   4.079   5.944 -1.6205  2.5984 -0.2956
 8724SOL     OW37633   4.261   1.521  16.432 -0.0098 -0.2007  0.1532
 8724SOL    HW137634   4.349   1.498  16.402  0.5785  0.2812  1.5019
 8724SOL    HW237635   4.259   1.506  16.526  1.5183  0.7580  0.3388
 8725SOL     OW37636   0.970   0.980  14.601  0.0926  0.0155  0.3982
 8725SOL    HW137637   0.875   0.978  14.587  0.0666 -0.2834  0.6135
 8725SOL    HW237638   0.976   1.033  14.681  1.3237 -0.2056  0.4594
 8726SOL     OW37639   4.643   0.498   6.736  0.3435  0.4710  0.0800
 8726SOL    HW137640   4.698   0.525   6.662 -1.3188 -1.1183 -1.7414
 8726SOL    HW237641   4.702   0.428   6.765 -0.2138 -0.8058 -1.8453
 8727SOL     OW37642   0.586   0.875  14.912  0.4180  0.0346  0.0189
 8727SOL    HW137643   0.530   0.950  14.895 -2.5138 -1.5208  2.8097
 8727SOL    HW237644   0.616   0.899  14.999  2.3754  1.3305 -0.9999
 8728SOL     OW37645   4.277   2.548   2.000  0.0722  0.2663  0.9357
 8728SOL    HW137646   4.225   2.625   2.021  2.9527  1.4722  3.6285
 8728SOL    HW237647   4.214   2.477   1.984 -0.0112  0.5656 -0.0506
 8729SOL     OW37648   1.985   1.946   4.190 -0.2768  0.4353 -0.1778
 8729SOL    HW137649   1.975   1.924   4.282 -1.4418  0.1953 -0.3539
 8729SOL    HW237650   2.011   2.037   4.196 -0.8878  0.6049 -0.1054
 8730SOL     OW37651   3.268   1.725   8.088  0.2391  0.0292  0.2014
 8730SOL    HW137652   3.216   1.750   8.165  0.8582  1.7795  0.0473
 8730SOL    HW237653   3.223   1.773   8.019  0.9069 -0.0371 -0.2773
 8731SOL     OW37654   0.045   2.934   3.909  0.0511 -0.1026  0.3632
 8731SOL    HW137655   0.042   2.987   3.829 -0.0312  1.4245  1.3794
 8731SOL    HW237656   4.705   2.989   3.958 -0.7026 -1.2403  0.7009
 8732SOL     OW37657   2.814   2.222  10.260 -0.0284  0.6242  0.6830
 8732SOL    HW137658   2.744   2.279  10.291 -0.5918  0.6046 -0.5856
 8732SOL    HW237659   2.847   2.263  10.180 -0.3563 -0.0803  0.1933
 8733SOL     OW37660   3.044   1.864   7.548 -0.2149  0.5023 -0.0382
 8733SOL    HW137661   3.045   1.956   7.574 -1.6829  0.8241 -1.1304
 8733SOL    HW237662   3.135   1.836   7.559 -0.3690 -0.4000 -1.0968
 8734SOL     OW37663   0.573   1.027   4.896 -0.0613  0.1190 -0.1524
 8734SOL    HW137664   0.606   0.944   4.860  0.7515  0.6827 -0.7085
 8734SOL    HW237665   0.496   0.991   4.940 -0.8380  0.9694 -0.8036
 8735SOL     OW37666   4.013   3.898   3.321  0.3719 -0.4953 -0.1437
 8735SOL    HW137667   4.082   3.950   3.280  0.2461  0.4590  0.8655
 8735SOL    HW237668   4.043   3.807   3.318 -1.5294 -1.1333 -0.0295
 8736SOL     OW37669   1.559   4.217   0.066 -0.5650 -0.1898  0.6880
 8736SOL    HW137670   1.543   4.300   0.111  0.1015  0.1613  0.2684
 8736SOL    HW237671   1.655   4.218   0.065 -0.5745  0.3639  0.3011
 8737SOL     OW37672   0.576   4.490  10.510 -0.3668  0.2908 -0.3857
 8737SOL    HW137673   0.520   4.441  10.571  0.2994  1.5222  1.2015
 8737SOL    HW237674   0.661   4.449  10.526 -0.4492  1.0684  2.0459
 8738SOL     OW37675   3.586   3.194   4.879 -0.5847  0.1740  0.0808
 8738SOL    HW137676   3.640   3.269   4.904  1.0711 -0.9154 -0.2104
 8738SOL    HW237677   3.524   3.235   4.818 -0.1118  1.6989  0.6350
 8739SOL     OW37678   1.889   3.140   7.974 -0.1867 -0.3305  0.1865
 8739SOL    HW137679   1.810   3.112   7.928  0.0125 -0.3617 -0.1384
 8739SOL    HW237680   1.896   3.232   7.951 -0.0719 -0.6128 -0.8927
 8740SOL     OW37681   2.444   1.336   3.597  0.0225 -0.2943 -0.3322
 8740SOL    HW137682   2.442   1.373   3.685 -2.5829 -0.9412 -0.1320
 8740SOL    HW237683   2.531   1.363   3.566 -0.0593  0.3691  0.0071
 8741SOL     OW37684   0.111   1.022  13.475  0.0215  0.0794 -0.4368
 8741SOL    HW137685   0.042   1.082  13.502 -0.5663 -1.2163  0.9636
 8741SOL    HW237686   0.181   1.067  13.523 -0.5068 -0.5120  0.8966
 8742SOL     OW37687   4.014   2.241   8.600 -0.4140 -0.3149 -0.1812
 8742SOL    HW137688   4.035   2.252   8.507  1.2879 -0.2843  0.2061
 8742SOL    HW237689   4.083   2.183   8.632  0.4235  0.5712 -0.3527
 8743SOL     OW37690   2.111   2.924  16.343  0.1607  0.4898 -0.4800
 8743SOL    HW137691   2.026   2.888  16.368 -0.7603  2.1491 -1.2347
 8743SOL    HW237692   2.125   2.861  16.272 -0.5691  1.3000 -1.3520
 8744SOL     OW37693   1.716   3.233  17.263 -0.6797 -0.4855 -0.1435
 8744SOL    HW137694   1.631   3.230  17.220  0.0954  1.3689 -1.8095
 8744SOL    HW237695   1.709   3.152  17.313  0.1646 -0.8877 -0.6686
 8745SOL     OW37696   1.690   0.448  10.845 -0.1146  0.0731 -0.4632
 8745SOL    HW137697   1.685   0.431  10.751  1.5658  2.1148 -0.9091
 8745SOL    HW237698   1.599   0.433  10.872 -0.2736  1.9711  0.0017
 8746SOL     OW37699   3.716   1.729   3.968  0.1986 -0.1964  0.2682
 8746SOL    HW137700   3.782   1.673   4.008  1.0534  1.7995  1.6498
 8746SOL    HW237701   3.748   1.723   3.878  0.5274 -0.2677  0.3918
 8747SOL     OW37702   4.096   3.241   0.023  0.0118 -0.4282 -0.5582
 8747SOL    HW137703   4.054   3.216  17.628 -0.7701 -0.4031 -0.1667
 8747SOL    HW237704   4.136   3.155   0.041  0.9743  0.0474 -0.4475
 8748SOL     OW37705   0.782   4.200  10.763 -0.1512 -0.4695 -0.2814
 8748SOL    HW137706   0.695   4.228  10.736  0.2921 -0.3520 -1.5603
 8748SOL    HW237707   0.832   4.264  10.712  0.8005 -3.0300 -2.5983
 8749SOL     OW37708   4.305   1.993   0.017 -0.4204  0.4873  0.2630
 8749SOL    HW137709   4.263   1.971  17.621  0.3110 -1.8371  0.4969
 8749SOL    HW237710   4.330   2.084   0.002  1.0224  0.2814  1.3853
 8750SOL     OW37711   1.085   3.543   0.395 -0.3263  0.4731  0.0158
 8750SOL    HW137712   1.000   3.542   0.439 -0.9523 -0.0548 -1.1964
 8750SOL    HW237713   1.106   3.635   0.407 -0.1622  0.2807  1.2034
 8751SOL     OW37714   1.671   0.644  17.007 -0.2851 -0.0625  0.3346
 8751SOL    HW137715   1.725   0.645  16.928  2.3295  2.1055  2.1551
 8751SOL    HW237716   1.654   0.551  17.018 -1.6036 -0.0947 -1.9969
 8752SOL     OW37717   2.974   1.876  15.201  0.3658  0.7803 -0.1578
 8752SOL    HW137718   2.897   1.908  15.154 -1.4093  0.2974  2.4048
 8752SOL    HW237719   2.959   1.782  15.208  0.0698  0.8684  0.4142
 8753SOL     OW37720   4.134   3.643   7.299  0.4529 -0.0919 -0.3572
 8753SOL    HW137721   4.178   3.721   7.332  1.2899 -1.0996  0.9349
 8753SOL    HW237722   4.097   3.659   7.212 -1.6102 -4.6911 -0.3376
 8754SOL     OW37723   2.018   1.030   7.499  0.5209 -0.1861  0.2095
 8754SOL    HW137724   2.054   1.119   7.501 -0.7289  0.3271 -0.5243
 8754SOL    HW237725   2.091   0.987   7.454 -0.5060 -2.8187  1.0979
 8755SOL     OW37726   4.299   4.438   9.313 -0.3230 -0.7530 -0.2332
 8755SOL    HW137727   4.374   4.474   9.360  0.9710 -0.3302 -2.6480
 8755SOL    HW237728   4.250   4.396   9.384 -1.5721  0.6876 -0.2271
 8756SOL     OW37729   4.706   0.911   0.887 -0.5122 -0.3877 -0.2973
 8756SOL    HW137730   0.025   0.875   0.966 -1.1091 -2.9794 -1.1757
 8756SOL    HW237731   0.057   0.907   0.824  1.0270  1.6240  1.3199
 8757SOL     OW37732   0.422   4.381   3.833  0.0750 -0.3743 -0.1715
 8757SOL    HW137733   0.486   4.440   3.874 -1.9236  2.3178 -0.9413
 8757SOL    HW237734   0.416   4.313   3.901  0.2838  0.8084  1.0390
 8758SOL     OW37735   3.147   0.164  12.179  0.0766 -0.0588 -0.0818
 8758SOL    HW137736   3.181   0.082  12.143  1.6696 -0.1978  1.7276
 8758SOL    HW237737   3.118   0.132  12.264  1.6392  2.8930  1.5532
 8759SOL     OW37738   1.460   4.365   6.649 -0.0275 -0.3073  0.1276
 8759SOL    HW137739   1.440   4.332   6.561  0.5394  0.0742 -0.1467
 8759SOL    HW237740   1.385   4.424   6.659  2.0714  2.1942  0.9912
 8760SOL     OW37741   2.443   1.134   3.220 -0.5948  0.0835  0.2326
 8760SOL    HW137742   2.461   1.228   3.215 -2.5016  0.4438  0.3915
 8760SOL    HW237743   2.526   1.105   3.182 -0.6848  2.0240 -1.4452
 8761SOL     OW37744   0.168   2.817  15.300  0.0251 -0.1303  0.1864
 8761SOL    HW137745   0.261   2.840  15.298  0.3863 -1.6067 -0.1458
 8761SOL    HW237746   0.155   2.794  15.208  3.0304 -0.5507 -0.1196
 8762SOL     OW37747   1.605   3.773   6.233  0.0665 -0.2900 -0.0740
 8762SOL    HW137748   1.679   3.829   6.211  0.0466 -1.2678 -2.5706
 8762SOL    HW237749   1.530   3.816   6.192 -0.2063  0.0177  0.7558
 8763SOL     OW37750   3.107   2.722   1.277 -0.6205  0.0399  0.2071
 8763SOL    HW137751   3.165   2.647   1.261  0.3460  0.9414 -0.5537
 8763SOL    HW237752   3.060   2.694   1.355  0.6956 -2.5251  0.0730
 8764SOL     OW37753   3.296   4.470   7.709  0.1737 -0.3501  0.2958
 8764SOL    HW137754   3.202   4.488   7.695  0.4601  0.3510 -0.7671
 8764SOL    HW237755   3.312   4.520   7.789 -2.4828  1.3541 -0.2053
 8765SOL     OW37756   3.613   2.884   2.848 -0.1692  0.3068 -0.0275
 8765SOL    HW137757   3.688   2.944   2.849  0.8409 -0.9516 -0.5643
 8765SOL    HW237758   3.650   2.797   2.863 -2.5977 -0.9698 -1.2803
 8766SOL     OW37759   3.434   2.028   8.981  0.5363 -0.1794  0.0946
 8766SOL    HW137760   3.437   2.037   8.886 -1.5897 -2.6850 -0.2133
 8766SOL    HW237761   3.486   1.949   8.995  1.0291  0.1386  0.0541
 8767SOL     OW37762   3.006   1.491   5.350  0.0858 -0.0548  0.9217
 8767SOL    HW137763   2.918   1.461   5.326  0.5317  0.0901 -0.9075
 8767SOL    HW237764   3.017   1.567   5.293 -0.3120 -0.9882 -0.3962
 8768SOL     OW37765   1.748   4.079   4.010 -0.4220 -0.1710 -0.6331
 8768SOL    HW137766   1.752   4.172   4.032  1.7649  0.2964 -2.8778
 8768SOL    HW237767   1.839   4.053   4.027 -0.9864 -0.3414  1.9865
 8769SOL     OW37768   3.962   4.272  17.225  0.2563  0.4632  0.4242
 8769SOL    HW137769   3.983   4.237  17.139 -0.0661  0.3824  0.3794
 8769SOL    HW237770   3.918   4.209  17.282  0.0198  0.3171  0.0778
 8770SOL     OW37771   3.555   4.496  12.565 -0.1706 -0.0490 -0.1897
 8770SOL    HW137772   3.492   4.483  12.635  0.9796  0.0604  0.8746
 8770SOL    HW237773   3.610   4.418  12.564 -0.5598 -0.3365  0.6286
 8771SOL     OW37774   1.958   3.419   0.518  0.2418  0.5307 -0.1067
 8771SOL    HW137775   2.006   3.337   0.529  1.3241  1.0484 -1.0901
 8771SOL    HW237776   1.966   3.465   0.601  0.9773  1.4712 -0.7050
 8772SOL     OW37777   4.421   1.531  17.558 -0.6372 -0.8791  0.1865
 8772SOL    HW137778   4.473   1.583  17.497  0.8413 -0.5017  1.7791
 8772SOL    HW237779   4.427   1.590  17.633 -1.3891 -2.1449  1.2354
 8773SOL     OW37780   2.642   4.192   9.509 -0.1417 -0.3274  0.2835
 8773SOL    HW137781   2.610   4.219   9.595  1.1253  1.0600  0.3376
 8773SOL    HW237782   2.721   4.246   9.499  0.6314 -1.2252  1.5043
 8774SOL     OW37783   4.625   1.647  17.440 -0.3982 -0.0796 -0.1211
 8774SOL    HW137784   4.720   1.645  17.452 -0.1893 -1.2016 -1.9725
 8774SOL    HW237785   4.615   1.658  17.346  0.1513  1.9945  0.0682
 8775SOL     OW37786   1.697   0.113   2.338 -0.4039 -0.1531  0.2800
 8775SOL    HW137787   1.610   0.072   2.335  0.3520 -1.8492  1.4838
 8775SOL    HW237788   1.705   0.132   2.431 -0.2318  2.1668 -0.2194
 8776SOL     OW37789   1.778   0.537  15.838  0.1314 -0.2289  1.0544
 8776SOL    HW137790   1.730   0.611  15.802 -0.7712 -1.2372  0.1688
 8776SOL    HW237791   1.702   0.486  15.866  0.6888 -2.3508 -1.3419
 8777SOL     OW37792   0.998   2.665   0.475 -0.0393  0.1995  0.2230
 8777SOL    HW137793   1.078   2.717   0.465 -0.9435  1.1596 -1.8952
 8777SOL    HW237794   0.933   2.733   0.493 -0.7808 -1.3359  3.3880
 8778SOL     OW37795   0.538   3.802  14.241 -0.0564 -0.3093 -0.1545
 8778SOL    HW137796   0.459   3.779  14.193  2.0295 -0.6051 -3.4376
 8778SOL    HW237797   0.506   3.820  14.330 -0.4313 -1.7720  0.0116
 8779SOL     OW37798   2.827   1.225   4.380 -0.3853 -0.3941 -0.3309
 8779SOL    HW137799   2.780   1.177   4.312 -1.1932 -0.9080  0.5851
 8779SOL    HW237800   2.915   1.218   4.343 -0.6743 -2.8527 -0.5475
 8780SOL     OW37801   4.588   0.674   8.802 -0.7809 -0.6889 -0.1392
 8780SOL    HW137802   4.664   0.620   8.781 -1.0374 -0.4508 -1.6690
 8780SOL    HW237803   4.530   0.609   8.762  0.7983 -2.0397 -0.2091
 8781SOL     OW37804   1.541   4.279   1.058  0.4231  0.2056 -0.0935
 8781SOL    HW137805   1.450   4.306   1.077  0.4886  0.8788 -0.7447
 8781SOL    HW237806   1.579   4.279   1.146  2.0815 -2.7831 -0.8272
 8782SOL     OW37807   2.435   0.684  14.282 -0.6375  0.0193  0.1768
 8782SOL    HW137808   2.383   0.620  14.235 -0.8542  0.1288  0.2648
 8782SOL    HW237809   2.468   0.743  14.214  1.0842  0.1625  1.1406
 8783SOL     OW37810   4.368   1.299  11.151 -0.2526 -0.0131 -0.0232
 8783SOL    HW137811   4.392   1.210  11.124 -0.8108 -0.9973  2.7449
 8783SOL    HW237812   4.452   1.339  11.174  0.3342 -1.1313 -0.2366
 8784SOL     OW37813   1.243   1.383   4.477  0.7741 -0.0658 -0.2525
 8784SOL    HW137814   1.297   1.462   4.481  0.8564 -0.1387  0.0031
 8784SOL    HW237815   1.184   1.411   4.546  0.6877 -3.2549  0.9629
 8785SOL     OW37816   0.633   2.250   6.165 -0.1682  0.7610 -0.2014
 8785SOL    HW137817   0.702   2.198   6.205  0.9808  1.3959 -1.3931
 8785SOL    HW237818   0.679   2.333   6.177 -0.7591  1.1082 -0.3129
 8786SOL     OW37819   3.017   2.398   0.037  0.2587  0.4616 -0.4292
 8786SOL    HW137820   3.069   2.463  17.677  0.4282  0.0792 -0.7795
 8786SOL    HW237821   3.075   2.327   0.067 -0.0167  0.3437 -0.1711
 8787SOL     OW37822   0.611   0.865   4.009  0.1164  0.3161  0.2344
 8787SOL    HW137823   0.559   0.839   4.085  0.2150 -1.1990 -0.2162
 8787SOL    HW237824   0.583   0.956   3.995  0.9473  0.6513  0.7828
 8788SOL     OW37825   2.073   3.881   4.482 -0.2038  0.1203  0.4521
 8788SOL    HW137826   2.021   3.806   4.509 -1.8796  0.8969 -0.5686
 8788SOL    HW237827   2.008   3.914   4.420  1.9212  1.4768 -1.0462
 8789SOL     OW37828   4.341   1.421  15.437 -0.2157  0.5423  0.5382
 8789SOL    HW137829   4.258   1.404  15.392  1.8045 -0.6352 -2.8207
 8789SOL    HW237830   4.333   1.516  15.440  0.7043  0.6130  0.6604
 8790SOL     OW37831   3.343   2.728  10.653 -0.5380  0.1624  0.0882
 8790SOL    HW137832   3.305   2.648  10.688 -0.3128  0.8829  1.9644
 8790SOL    HW237833   3.373   2.764  10.736  2.3745 -0.9295 -0.5128
 8791SOL     OW37834   2.320   2.561   2.886  0.2143  0.9038 -0.1988
 8791SOL    HW137835   2.387   2.506   2.846  1.1143  1.2846  0.7559
 8791SOL    HW237836   2.244   2.504   2.891  2.3594 -2.1891 -3.1352
 8792SOL     OW37837   3.800   2.425   0.329  0.5759  0.5479 -0.7116
 8792SOL    HW137838   3.816   2.449   0.420  0.1779  1.6821 -0.9341
 8792SOL    HW237839   3.862   2.353   0.325 -0.3093 -0.0754 -3.6063
 8793SOL     OW37840   3.423   2.563   5.439 -0.3117  0.4556 -0.1100
 8793SOL    HW137841   3.448   2.653   5.415  0.7845  0.7410  2.0747
 8793SOL    HW237842   3.435   2.579   5.532  0.1901  1.5663 -0.3586
 8794SOL     OW37843   1.985   1.660  12.713 -0.2960 -0.3122 -0.3353
 8794SOL    HW137844   1.912   1.720  12.702  0.8362  0.7019 -2.4530
 8794SOL    HW237845   2.048   1.716  12.668  0.9778 -0.0917  1.7216
 8795SOL     OW37846   0.236   2.949   5.736  0.4151 -0.4271  0.4405
 8795SOL    HW137847   0.213   2.939   5.828  1.0748 -0.1460  0.6395
 8795SOL    HW237848   0.190   2.874   5.699 -0.8538  1.7254 -2.4289
 8796SOL     OW37849   0.187   3.210   5.548 -0.6435 -0.0304  0.1851
 8796SOL    HW137850   0.243   3.225   5.472 -0.1780  0.6987  0.6818
 8796SOL    HW237851   0.201   3.116   5.560  0.4576  0.4208  2.2919
 8797SOL     OW37852   1.151   3.398   8.742 -0.6069  0.0733 -0.1464
 8797SOL    HW137853   1.197   3.384   8.659 -1.4695 -0.5146 -0.5286
 8797SOL    HW237854   1.116   3.310   8.754  0.0175 -0.3028 -1.1056
 8798SOL     OW37855   1.156   2.810   9.589  0.2002  0.1295 -0.6307
 8798SOL    HW137856   1.150   2.809   9.494  1.0055 -0.3770 -0.6778
 8798SOL    HW237857   1.233   2.761   9.618 -0.4687 -0.7803 -0.3765
 8799SOL     OW37858   3.189   1.113   7.364 -0.2965  0.5671 -0.0221
 8799SOL    HW137859   3.150   1.196   7.337 -1.1707  0.5132  1.0725
 8799SOL    HW237860   3.140   1.056   7.305  1.3657 -1.8459  0.9593
 8800SOL     OW37861   3.947   2.476   8.711  0.1312  0.3094  0.0169
 8800SOL    HW137862   3.864   2.468   8.759  0.2098 -1.9088 -0.2217
 8800SOL    HW237863   3.971   2.388   8.684  1.1176  0.0903  1.6150
 8801SOL     OW37864   2.654   1.206  14.633 -0.4288 -0.2435  0.3788
 8801SOL    HW137865   2.619   1.127  14.673  0.7168 -0.9499 -0.0098
 8801SOL    HW237866   2.648   1.189  14.539 -0.1906  1.2793  0.0833
 8802SOL     OW37867   4.437   4.193   8.188  0.4160  0.2313  0.1255
 8802SOL    HW137868   4.419   4.229   8.275  1.5295  0.0032  0.4551
 8802SOL    HW237869   4.472   4.274   8.151  0.4997 -0.0691 -0.4640
 8803SOL     OW37870   4.020   3.150   2.486  0.1342 -0.2983 -0.2722
 8803SOL    HW137871   3.953   3.104   2.435  0.8849 -0.7346 -0.8672
 8803SOL    HW237872   4.086   3.155   2.417  0.3570 -1.2056 -0.1162
 8804SOL     OW37873   0.261   3.592   4.989  0.6601  0.0235  0.1535
 8804SOL    HW137874   0.306   3.642   5.057 -0.3893  1.8505 -0.4999
 8804SOL    HW237875   0.260   3.507   5.034  1.1959  0.5702  1.2007
 8805SOL     OW37876   3.088   1.492   0.261 -0.0002  0.7410  0.6322
 8805SOL    HW137877   3.125   1.501   0.349  0.1104  1.0085  0.5586
 8805SOL    HW237878   2.998   1.468   0.282  0.7600  1.1445  4.3087
 8806SOL     OW37879   0.236   2.200  15.509  0.2849  0.7727 -0.4282
 8806SOL    HW137880   0.241   2.111  15.475 -0.5073  0.4832  0.2124
 8806SOL    HW237881   0.317   2.203  15.559  0.0086 -0.2821  0.0861
 8807SOL     OW37882   3.040   3.143   2.650  0.4490  0.3406  0.8623
 8807SOL    HW137883   3.076   3.231   2.635  0.5067  0.4793  1.7868
 8807SOL    HW237884   3.105   3.085   2.612  0.1548  0.8656 -0.4569
 8808SOL     OW37885   1.787   4.674   8.284 -0.1647 -0.2969  0.6633
 8808SOL    HW137886   1.829   4.630   8.210  0.8378  1.4604  0.1930
 8808SOL    HW237887   1.701   4.632   8.282  0.3660 -1.3431 -0.6361
 8809SOL     OW37888   3.974   2.616   1.445  0.0899  0.6121 -0.0381
 8809SOL    HW137889   3.923   2.536   1.457 -1.9098  2.0804  1.1690
 8809SOL    HW237890   4.064   2.582   1.436 -0.8400 -1.9477  0.2777
 8810SOL     OW37891   3.060   1.684   3.478 -0.9145 -0.0549  0.4322
 8810SOL    HW137892   3.046   1.650   3.390  1.1703  0.9825 -0.3044
 8810SOL    HW237893   3.128   1.623   3.509 -0.3580  0.6366  0.5922
 8811SOL     OW37894   2.969   3.536   5.035 -0.0617 -0.0159  0.0491
 8811SOL    HW137895   2.945   3.526   4.943 -1.7767  0.4258  0.4512
 8811SOL    HW237896   3.052   3.574   5.006  0.1440 -0.0096  0.6428
 8812SOL     OW37897   0.026   1.608   5.652 -0.0968 -0.1983 -0.4831
 8812SOL    HW137898   4.719   1.527   5.695  0.8688 -0.1799  0.1904
 8812SOL    HW237899   4.666   1.646   5.620  0.0038 -1.6322 -2.4891
 8813SOL     OW37900   3.365   1.614   3.597 -0.0719  0.2400 -0.0752
 8813SOL    HW137901   3.298   1.546   3.587  0.1145 -0.1256  1.2060
 8813SOL    HW237902   3.415   1.570   3.665 -1.3873 -1.6860 -0.3610
 8814SOL     OW37903   2.384   3.163  17.477  0.1361 -0.1583  0.0714
 8814SOL    HW137904   2.291   3.186  17.474  0.5878  1.7226  0.7758
 8814SOL    HW237905   2.426   3.249  17.483  0.2974 -0.2990  0.9874
 8815SOL     OW37906   4.093   3.692   0.341 -0.6023 -0.1436  0.3136
 8815SOL    HW137907   4.096   3.676   0.247  1.2837 -2.3188  0.7581
 8815SOL    HW237908   3.999   3.711   0.346 -0.7505 -0.3248 -2.1176
 8816SOL     OW37909   1.751   2.905   5.543 -0.4289 -0.0525  0.1093
 8816SOL    HW137910   1.753   2.875   5.634  2.7896 -1.0850 -0.2712
 8816SOL    HW237911   1.703   2.835   5.499  1.9936 -1.2806 -0.5904
 8817SOL     OW37912   1.573   0.417   6.530  0.5165  0.0738 -0.2850
 8817SOL    HW137913   1.572   0.350   6.461  0.4678 -2.3516  2.0751
 8817SOL    HW237914   1.638   0.377   6.588 -0.5815 -0.0573  0.8537
 8818SOL     OW37915   1.040   1.123   5.792  0.0927  0.1856  0.1895
 8818SOL    HW137916   1.134   1.133   5.775  0.4332 -0.9902  1.4042
 8818SOL    HW237917   1.035   1.070   5.871  0.4473 -0.4029 -0.1821
 8819SOL     OW37918   1.032   1.116   3.795  0.0533  0.4153  0.2943
 8819SOL    HW137919   1.092   1.058   3.748 -1.8311 -1.3326  0.0309
 8819SOL    HW237920   0.999   1.166   3.720 -0.6596 -1.1024 -0.4067
 8820SOL     OW37921   2.791   2.677   5.802 -0.1002  0.5542 -0.7642
 8820SOL    HW137922   2.874   2.725   5.804  0.1283  0.0761  1.3259
 8820SOL    HW237923   2.816   2.587   5.779  0.4693  0.1543  1.4235
 8821SOL     OW37924   4.391   1.343   4.061  0.1126  0.6269  0.0755
 8821SOL    HW137925   4.313   1.367   4.113  0.8246  0.2762  1.3157
 8821SOL    HW237926   4.364   1.253   4.043 -1.2182  1.3568 -1.5694
 8822SOL     OW37927   3.990   1.045   2.001  0.2897 -0.2006  1.2964
 8822SOL    HW137928   3.998   1.115   1.936 -2.1489 -0.7603  0.4192
 8822SOL    HW237929   3.908   1.070   2.043  0.9353  2.3525  1.0570
 8823SOL     OW37930   1.061   0.748  10.858 -0.0164 -0.3285  0.4041
 8823SOL    HW137931   1.155   0.767  10.859 -0.1685  0.4797 -1.1510
 8823SOL    HW237932   1.052   0.699  10.940  0.8326 -2.0917 -0.5425
 8824SOL     OW37933   4.686   3.072   2.325 -0.0152 -0.2751 -0.6609
 8824SOL    HW137934   0.052   3.043   2.300  1.0221  1.5423  0.8719
 8824SOL    HW237935   4.667   2.996   2.381  0.4311  0.7647  0.8996
 8825SOL     OW37936   2.370   0.495  15.720 -0.3007  0.4038 -0.4949
 8825SOL    HW137937   2.358   0.584  15.751  0.6375 -0.6756  2.9205
 8825SOL    HW237938   2.277   0.485  15.699 -0.4540 -0.8279  0.7502
 8826SOL     OW37939   2.495   2.904   7.342 -0.1195  0.4237 -0.3530
 8826SOL    HW137940   2.548   2.966   7.293  0.8948  0.6876  1.0891
 8826SOL    HW237941   2.533   2.904   7.430  0.3919 -1.0785 -0.5915
 8827SOL     OW37942   2.417   3.944  15.406  0.1414 -0.5080  0.2839
 8827SOL    HW137943   2.461   4.003  15.344 -1.5073 -1.6752 -1.9933
 8827SOL    HW237944   2.340   3.994  15.433 -1.2221 -1.3085 -2.2041
 8828SOL     OW37945   2.200   1.956   3.877 -0.2911  0.7267  0.3512
 8828SOL    HW137946   2.183   1.986   3.788 -1.8309 -0.1784  0.3415
 8828SOL    HW237947   2.116   1.919   3.902  0.1184  0.6973  1.7086
 8829SOL     OW37948   3.847   0.853   2.256  0.0291  0.4802 -0.1382
 8829SOL    HW137949   3.930   0.865   2.210  0.3633 -1.6706 -0.1214
 8829SOL    HW237950   3.879   0.888   2.339  0.6886 -0.5121  0.0230
 8830SOL     OW37951   2.570   2.474   3.849  0.0454 -0.5944  0.4098
 8830SOL    HW137952   2.537   2.406   3.789 -0.5000  0.1273 -0.1191
 8830SOL    HW237953   2.656   2.493   3.812 -0.0149 -2.6108 -0.7835
 8831SOL     OW37954   4.494   1.627   4.212 -0.2323  0.1295 -0.0419
 8831SOL    HW137955   4.526   1.536   4.209 -2.0727 -0.5811  1.6540
 8831SOL    HW237956   4.478   1.633   4.306  2.3686 -0.3983  0.4562
 8832SOL     OW37957   2.371   4.580   4.626  0.5521  0.3284  0.4143
 8832SOL    HW137958   2.290   4.612   4.667 -0.1174  0.2451 -0.8430
 8832SOL    HW237959   2.441   4.641   4.649  0.4403  0.7881 -0.4627
 8833SOL     OW37960   0.251   2.434  10.450  0.1242  0.0874  0.0573
 8833SOL    HW137961   0.214   2.473  10.529 -1.2086  0.8715 -0.9598
 8833SOL    HW237962   0.177   2.389  10.410  0.4068 -0.7275  0.4453
 8834SOL     OW37963   2.036   3.583  13.815  0.0144  0.0971  0.3964
 8834SOL    HW137964   2.107   3.645  13.829  1.4355 -1.5155  0.2727
 8834SOL    HW237965   1.966   3.648  13.813  0.7594  0.8056 -2.1998
 8835SOL     OW37966   4.117   3.695  10.112  0.6599 -0.5410 -0.3242
 8835SOL    HW137967   4.178   3.622  10.122  1.1645  0.2540  2.4430
 8835SOL    HW237968   4.032   3.657  10.134 -0.5171  1.3790 -1.5433
 8836SOL     OW37969   2.243   2.362   4.461  0.3496 -0.2799 -0.0501
 8836SOL    HW137970   2.275   2.394   4.376  2.9639  2.2468  1.9005
 8836SOL    HW237971   2.314   2.300   4.476 -1.4587 -2.2359  0.4997
 8837SOL     OW37972   1.289   2.021   4.354 -0.1304 -0.1278 -0.7437
 8837SOL    HW137973   1.363   1.991   4.301 -0.3380 -3.2876  0.7585
 8837SOL    HW237974   1.328   2.039   4.440 -1.3719  2.8081 -0.8069
 8838SOL     OW37975   0.801   3.723  14.349  0.0968 -0.4326 -0.0906
 8838SOL    HW137976   0.755   3.778  14.286 -0.4731  0.5812  1.2087
 8838SOL    HW237977   0.884   3.692  14.312 -0.3851 -0.8282 -0.8222
 8839SOL     OW37978   2.051   4.103   7.735 -0.2448 -0.1062  0.1201
 8839SOL    HW137979   1.984   4.146   7.681 -0.5686 -0.2448  0.4146
 8839SOL    HW237980   2.034   4.129   7.825  1.3974  2.9046 -0.4261
 8840SOL     OW37981   2.253   3.440   9.638  0.1443  0.1889  0.2186
 8840SOL    HW137982   2.213   3.410   9.720 -0.8266 -1.0670 -0.7154
 8840SOL    HW237983   2.173   3.431   9.587 -0.3688 -0.7317  1.1637
 8841SOL     OW37984   4.167   1.744  12.876 -0.0189 -0.0223 -0.6383
 8841SOL    HW137985   4.201   1.752  12.965 -1.2202 -0.7271 -0.1161
 8841SOL    HW237986   4.215   1.667  12.847 -0.9511 -0.2393 -1.5886
 8842SOL     OW37987   2.783   2.195   2.634  0.5618  0.2081  0.7664
 8842SOL    HW137988   2.751   2.268   2.582 -0.8040 -0.1458  1.1185
 8842SOL    HW237989   2.862   2.228   2.677  0.5397 -1.0258  1.7467
 8843SOL     OW37990   2.949   1.311   1.135 -0.0074  0.3169 -0.7491
 8843SOL    HW137991   3.019   1.249   1.111 -0.8026 -0.7503 -0.3241
 8843SOL    HW237992   2.992   1.368   1.198 -2.7186  0.9540  0.5298
 8844SOL     OW37993   2.342   2.318  10.224 -0.0425  0.5657 -0.3332
 8844SOL    HW137994   2.322   2.289  10.135 -2.6152 -0.9358  0.7255
 8844SOL    HW237995   2.258   2.338  10.266  0.4092  1.1937  0.2699
 8845SOL     OW37996   0.262   1.980   6.330  0.1904  0.6790 -0.2772
 8845SOL    HW137997   0.313   1.981   6.249  0.2453 -1.5757 -0.2737
 8845SOL    HW237998   0.310   1.918   6.385  0.7278  0.8814 -0.5191
 8846SOL     OW37999   4.136   1.655   2.856 -0.3417  0.1305 -0.2213
 8846SOL    HW138000   4.085   1.602   2.796  0.7967 -0.4484 -0.6727
 8846SOL    HW238001   4.220   1.667   2.813  0.0550  1.5407  0.9229
 8847SOL     OW38002   3.083   2.548   0.904 -0.5038 -0.6299 -0.0519
 8847SOL    HW138003   3.004   2.581   0.862 -0.0901  0.7012  0.1977
 8847SOL    HW238004   3.111   2.634   0.938 -1.8858  0.1406 -0.8556
 8848SOL     OW38005   0.715   2.835  16.275 -0.1735 -0.0211  0.2289
 8848SOL    HW138006   0.690   2.828  16.183  0.1841  2.4305 -0.0490
 8848SOL    HW238007   0.638   2.875  16.315  0.1234  0.7096  0.0616
 8849SOL     OW38008   3.754   0.806   5.385  0.1029  0.2132  0.2594
 8849SOL    HW138009   3.812   0.861   5.332 -1.9504 -1.3192 -3.5794
 8849SOL    HW238010   3.673   0.856   5.382  0.4753  0.7596 -0.9762
 8850SOL     OW38011   1.498   4.708   3.339  0.1602 -0.2162  0.1840
 8850SOL    HW138012   1.540   4.622   3.331 -0.8798 -0.7468  0.4410
 8850SOL    HW238013   1.454   4.716   3.254 -0.4296 -3.2190  0.1819
 8851SOL     OW38014   4.229   1.885   5.395 -0.3167 -0.0436  0.0010
 8851SOL    HW138015   4.139   1.907   5.416 -0.5784 -0.2715 -0.8825
 8851SOL    HW238016   4.238   1.800   5.436  0.7954  0.2899  0.4533
 8852SOL     OW38017   1.185   1.783   2.263 -0.0065  0.0511 -0.1286
 8852SOL    HW138018   1.250   1.716   2.282  0.3769  0.7296  0.9721
 8852SOL    HW238019   1.103   1.734   2.252 -0.0036 -0.2832  1.3557
 8853SOL     OW38020   4.561   1.663   3.791 -0.2760 -0.1739  0.7076
 8853SOL    HW138021   4.491   1.646   3.854  0.4472 -1.3517  1.1961
 8853SOL    HW238022   4.641   1.622   3.824  1.5106  2.1686 -0.7422
 8854SOL     OW38023   2.709   3.969   5.096  0.5511  0.3786  0.7430
 8854SOL    HW138024   2.773   3.902   5.119  0.3162 -0.0053  0.2856
 8854SOL    HW238025   2.649   3.914   5.045  0.7464 -0.5298  1.4917
 8855SOL     OW38026   1.388   1.039   4.581  0.2509 -0.0715  0.4969
 8855SOL    HW138027   1.368   1.118   4.631  2.8243  0.7865  0.1513
 8855SOL    HW238028   1.473   1.062   4.544 -1.0721  4.7487  0.5496
 8856SOL     OW38029   0.566   0.053  11.098  0.0620  0.0295 -0.2777
 8856SOL    HW138030   0.536   4.715  11.029 -0.4237  0.5100 -0.4775
 8856SOL    HW238031   0.610   4.709  11.153  1.4844 -0.3399 -1.8659
 8857SOL     OW38032   1.524   0.438   2.290  0.1122  0.5224 -0.2744
 8857SOL    HW138033   1.585   0.449   2.363 -0.9069  0.0526  0.6426
 8857SOL    HW238034   1.473   0.518   2.295  2.8202  2.1159  2.0900
 8858SOL     OW38035   1.317   2.515   4.404 -0.3544 -0.2359  0.3912
 8858SOL    HW138036   1.300   2.432   4.359 -0.1902 -0.6530  1.1004
 8858SOL    HW238037   1.405   2.490   4.434  0.5352  3.3610  0.7438
 8859SOL     OW38038   3.509   2.577   6.536  0.1737 -0.4755  0.3096
 8859SOL    HW138039   3.450   2.585   6.462 -1.3471  1.4513  1.7441
 8859SOL    HW238040   3.457   2.620   6.604  0.1904  0.7285 -0.4407
 8860SOL     OW38041   2.035   4.494   6.520  0.2578 -0.2003 -0.2748
 8860SOL    HW138042   2.126   4.463   6.522  0.5154  0.4498 -1.6814
 8860SOL    HW238043   2.027   4.571   6.575 -0.4704 -1.5592  1.5172
 8861SOL     OW38044   3.491   1.538   6.530  0.3432 -0.3753 -0.0020
 8861SOL    HW138045   3.431   1.481   6.577  1.3065  0.2595  2.0024
 8861SOL    HW238046   3.522   1.484   6.457 -1.5629 -1.3748 -0.0595
 8862SOL     OW38047   3.199   4.364   5.323  0.6069  0.1262  0.0923
 8862SOL    HW138048   3.144   4.413   5.384 -1.2178 -1.1761 -0.4970
 8862SOL    HW238049   3.226   4.289   5.376  1.6231 -0.0556 -0.6826
 8863SOL     OW38050   3.596   0.010   6.453 -0.3674  0.4949  0.5491
 8863SOL    HW138051   3.676   0.039   6.497  0.3126 -1.6875  0.7447
 8863SOL    HW238052   3.563   4.651   6.494 -3.8049  0.8027 -1.5862
 8864SOL     OW38053   1.262   0.322   4.540  0.1943  0.0418  0.3999
 8864SOL    HW138054   1.262   0.322   4.635  2.6726  2.5113  0.3903
 8864SOL    HW238055   1.282   0.414   4.524  0.4934 -0.3458 -1.4835
 8865SOL     OW38056   3.398   0.423   5.094  0.0282 -0.3156 -0.4941
 8865SOL    HW138057   3.322   0.459   5.048 -1.3115 -0.7952  1.3304
 8865SOL    HW238058   3.351   0.358   5.146  1.6586  0.8488  2.4410
 8866SOL     OW38059   3.547   0.669   6.734 -0.5549  0.1850  0.3043
 8866SOL    HW138060   3.635   0.671   6.697 -0.8532 -1.1825 -0.4885
 8866SOL    HW238061   3.552   0.726   6.811  0.1750 -1.8765  1.7769
 8867SOL     OW38062   3.743   2.619   7.531 -0.2331 -0.1343  0.3982
 8867SOL    HW138063   3.655   2.654   7.516 -0.4279  0.6997  3.5010
 8867SOL    HW238064   3.784   2.694   7.573 -2.8008  0.4044  1.9256
 8868SOL     OW38065   4.421   4.075  10.536 -0.0776  0.2223  0.0947
 8868SOL    HW138066   4.396   3.987  10.510 -3.4109  0.3049  3.0917
 8868SOL    HW238067   4.514   4.059  10.549 -0.0297 -0.7098 -1.3947
 8869SOL     OW38068   0.729   1.763   1.762  0.0249  1.3586  0.2552
 8869SOL    HW138069   0.701   1.815   1.687 -1.6474 -1.1495 -0.8527
 8869SOL    HW238070   0.823   1.756   1.749  0.2574  3.1298  0.8716
 8870SOL     OW38071   1.949   3.873  10.380  0.2115  0.0489 -0.4490
 8870SOL    HW138072   1.918   3.786  10.353 -1.7560  0.3754  0.7630
 8870SOL    HW238073   1.990   3.900  10.298 -0.5224  2.7765  0.0972
 8871SOL     OW38074   0.525   1.637   7.063 -0.2086 -0.1157 -0.1824
 8871SOL    HW138075   0.599   1.694   7.042  0.0079  0.5521  2.4179
 8871SOL    HW238076   0.485   1.613   6.979 -1.5852 -2.3238  1.0982
 8872SOL     OW38077   0.601   3.593   7.254 -0.1439  0.0938  0.2201
 8872SOL    HW138078   0.560   3.515   7.293 -1.2205 -1.0073 -3.0933
 8872SOL    HW238079   0.689   3.562   7.232  0.3355  1.5727  0.0728
 8873SOL     OW38080   2.709   2.173  10.544 -0.0610  0.4442 -0.3875
 8873SOL    HW138081   2.657   2.188  10.465  0.0403 -1.5220 -0.8073
 8873SOL    HW238082   2.711   2.078  10.539 -4.0315  0.1757  3.2407
 8874SOL     OW38083   1.950   0.538  10.618  0.2991 -0.2523 -0.0248
 8874SOL    HW138084   2.024   0.485  10.648  1.5465  1.8103  0.5651
 8874SOL    HW238085   1.875   0.478  10.619 -0.6844  0.9984  1.3337
 8875SOL     OW38086   3.760   3.010   4.792  0.5372 -0.1854 -0.1460
 8875SOL    HW138087   3.841   3.052   4.765  0.2959 -0.3727 -1.1713
 8875SOL    HW238088   3.715   3.091   4.816 -1.6225 -1.5482  0.4156
 8876SOL     OW38089   2.255   2.750   8.321  0.2053  0.1306 -0.3821
 8876SOL    HW138090   2.242   2.828   8.267 -2.4265  0.3269  0.5346
 8876SOL    HW238091   2.244   2.673   8.264  1.7129 -0.2499 -0.1755
 8877SOL     OW38092   4.482   0.692   8.295 -0.5005  0.0837 -0.2271
 8877SOL    HW138093   4.557   0.743   8.263  0.2323  0.2005  1.7024
 8877SOL    HW238094   4.488   0.722   8.385 -1.0638  3.2299 -1.2568
 8878SOL     OW38095   4.062   2.526   3.648 -0.0698 -0.4903  0.1337
 8878SOL    HW138096   4.130   2.561   3.705  0.4828 -0.9021 -0.2697
 8878SOL    HW238097   4.079   2.432   3.659 -1.0670 -1.0014 -2.5107
 8879SOL     OW38098   0.775   3.699   2.299  0.2301  0.4745  0.6469
 8879SOL    HW138099   0.681   3.705   2.318 -0.1765  0.3554 -1.3622
 8879SOL    HW238100   0.811   3.632   2.358 -0.1674 -0.4130 -0.1222
 8880SOL     OW38101   1.474   2.483   5.223  0.4489 -0.1469  0.7501
 8880SOL    HW138102   1.497   2.507   5.133  1.9371 -0.6615  0.9859
 8880SOL    HW238103   1.489   2.567   5.265 -1.6483  0.4036  0.3994
 8881SOL     OW38104   1.353   4.669   3.887 -0.6126  0.5500 -0.0515
 8881SOL    HW138105   1.408   4.624   3.823  0.0730 -1.6846  2.0976
 8881SOL    HW238106   1.298   0.011   3.841 -0.2099 -0.3791 -1.8062
 8882SOL     OW38107   4.651   1.839   4.093  0.2286 -0.3118 -0.0158
 8882SOL    HW138108   4.709   1.846   4.168 -0.6457 -0.5249  0.6893
 8882SOL    HW238109   4.645   1.744   4.085  0.0971 -0.3606  0.7170
 8883SOL     OW38110   1.075   3.183   7.276 -0.5432  0.6042  0.4739
 8883SOL    HW138111   1.017   3.224   7.341 -1.7994  1.3219 -1.1075
 8883SOL    HW238112   1.052   3.092   7.297 -0.7180  0.3533 -0.8545
 8884SOL     OW38113   4.119   3.032   3.523 -0.1352  0.2167  0.2764
 8884SOL    HW138114   4.191   2.994   3.573  1.3913 -0.4626 -2.4114
 8884SOL    HW238115   4.044   2.980   3.549  0.4523 -0.3123  0.9243
 8885SOL     OW38116   3.806   3.512   8.683 -0.0897  0.1122 -0.3246
 8885SOL    HW138117   3.848   3.452   8.745  1.6612  1.4712 -0.1918
 8885SOL    HW238118   3.769   3.578   8.742 -0.1971  0.1883 -0.4765
 8886SOL     OW38119   0.186   0.283   9.261 -0.1443  0.1611 -0.1142
 8886SOL    HW138120   0.238   0.341   9.204  1.1859  1.8891  2.8503
 8886SOL    HW238121   0.129   0.343   9.310  0.1055 -0.9795  1.5622
 8887SOL     OW38122   4.243   1.243   4.641 -0.8279 -0.4267  0.3289
 8887SOL    HW138123   4.249   1.172   4.705  0.2532 -0.2006  0.4708
 8887SOL    HW238124   4.334   1.272   4.640 -0.5482 -1.2807  1.1595
 8888SOL     OW38125   1.999   2.244   4.484  0.5466 -0.1411 -0.0457
 8888SOL    HW138126   2.027   2.168   4.434  2.7007  1.1948 -0.8523
 8888SOL    HW238127   2.078   2.296   4.471  1.0674 -0.8254  0.3195
 8889SOL     OW38128   2.184   3.581   9.274  0.6819 -0.4720  0.2784
 8889SOL    HW138129   2.229   3.520   9.216  2.8307  0.0645  1.3663
 8889SOL    HW238130   2.263   3.628   9.302  1.4619 -1.4061 -0.3184
 8890SOL     OW38131   2.806   1.140   7.420  0.7272  0.3600  0.3932
 8890SOL    HW138132   2.714   1.158   7.403  0.4159  0.0413  1.6942
 8890SOL    HW238133   2.812   1.116   7.513  0.4843 -0.0925  0.2942
 8891SOL     OW38134   3.102   1.028  14.559 -0.6334 -0.1837  0.2935
 8891SOL    HW138135   3.132   1.101  14.614 -1.3781  0.9441 -0.7950
 8891SOL    HW238136   3.112   0.960  14.625 -0.9982  0.3054  0.8591
 8892SOL     OW38137   0.463   1.614   3.700 -0.0938  0.1994 -0.2818
 8892SOL    HW138138   0.425   1.536   3.659  1.1996  0.0885 -1.2602
 8892SOL    HW238139   0.524   1.584   3.768 -0.9662 -0.4994  0.1897
 8893SOL     OW38140   3.706   2.175  16.454  0.1752 -0.8264 -0.4332
 8893SOL    HW138141   3.635   2.186  16.391 -1.0372 -1.4005  0.8368
 8893SOL    HW238142   3.687   2.086  16.484  0.4581 -0.1789  1.7004
 8894SOL     OW38143   0.452   0.918   3.635  0.4481 -0.5454  0.0269
 8894SOL    HW138144   0.509   0.841   3.646  0.7106 -0.2529  0.6894
 8894SOL    HW238145   0.523   0.979   3.654  0.5870 -1.0124  1.0284
 8895SOL     OW38146   1.948   4.185   8.865 -0.5923  0.1669 -0.2747
 8895SOL    HW138147   1.889   4.252   8.900  0.8882  1.1647  0.2915
 8895SOL    HW238148   1.987   4.238   8.795 -1.5476 -0.7741 -1.5323
 8896SOL     OW38149   1.230   1.166   2.545  0.5904  0.2545  0.3220
 8896SOL    HW138150   1.299   1.200   2.488  0.7723 -1.9558 -0.7911
 8896SOL    HW238151   1.160   1.170   2.480 -0.0869 -1.9451  0.8930
 8897SOL     OW38152   1.293   2.946  12.349  0.2174  0.6808 -0.1005
 8897SOL    HW138153   1.338   2.863  12.365 -0.2026  0.7443  1.3948
 8897SOL    HW238154   1.360   3.011  12.368 -0.5001  1.1013  0.9923
 8898SOL     OW38155   4.181   3.136  10.690  0.2746 -0.5664  0.8264
 8898SOL    HW138156   4.087   3.133  10.708 -0.1575  3.2564 -0.7505
 8898SOL    HW238157   4.193   3.042  10.674 -1.3116 -0.3143 -1.7332
 8899SOL     OW38158   1.420   1.168   3.404  0.5955  0.3113  0.0078
 8899SOL    HW138159   1.499   1.197   3.449  0.0228  0.8186  0.6850
 8899SOL    HW238160   1.346   1.174   3.464  0.1311 -1.4211 -0.4045
 8900SOL     OW38161   4.305   4.002   8.048 -0.2931 -0.1042  0.1332
 8900SOL    HW138162   4.352   4.078   8.083 -1.2398 -0.3608  1.9599
 8900SOL    HW238163   4.339   4.003   7.958 -1.8487 -0.0436 -0.4583
 8901SOL     OW38164   0.563   1.702   5.185 -0.2702  0.1876 -0.1002
 8901SOL    HW138165   0.541   1.782   5.233 -2.8702 -0.9325  0.5939
 8901SOL    HW238166   0.532   1.637   5.248 -2.3356  0.4987 -0.7942
 8902SOL     OW38167   4.229   2.962   4.385 -0.1417  0.1255  0.2326
 8902SOL    HW138168   4.291   3.005   4.444 -0.0178 -1.5555  1.3378
 8902SOL    HW238169   4.219   2.875   4.424  1.7604  1.9331  4.7641
 8903SOL     OW38170   2.691   1.705   0.667  0.2829 -0.3029 -0.6649
 8903SOL    HW138171   2.601   1.740   0.666  0.4848  0.3009  2.7297
 8903SOL    HW238172   2.707   1.704   0.761  3.3562  1.9595 -1.1693
 8904SOL     OW38173   3.444   4.540   6.203  0.1204  0.4846 -0.0122
 8904SOL    HW138174   3.385   4.528   6.128 -1.0535  1.3978  0.7732
 8904SOL    HW238175   3.420   4.630   6.222  0.0649  0.8864 -1.9552
 8905SOL     OW38176   3.261   2.206   4.314 -0.0722  0.0772  0.5389
 8905SOL    HW138177   3.319   2.242   4.246  0.2131  0.0970  0.7956
 8905SOL    HW238178   3.236   2.294   4.342  1.8692  0.5492  0.7858
 8906SOL     OW38179   0.078   1.387   8.664 -0.1100 -0.5238  0.1734
 8906SOL    HW138180   0.140   1.349   8.601  2.3044 -0.8535  2.7463
 8906SOL    HW238181   0.033   1.305   8.684 -0.7531  0.2041  1.6679
 8907SOL     OW38182   0.094   0.946   2.671  0.2671 -0.0017 -0.1941
 8907SOL    HW138183   0.056   0.880   2.729 -0.2543  0.3070 -0.1889
 8907SOL    HW238184   0.019   0.975   2.620 -0.7472 -1.9972  0.1523
 8908SOL     OW38185   2.326   4.159   2.918  0.2029  0.2748  0.2029
 8908SOL    HW138186   2.337   4.240   2.868 -1.4216 -0.3252 -1.1114
 8908SOL    HW238187   2.416   4.149   2.951  0.9213  2.2035 -1.1826
 8909SOL     OW38188   2.586   3.246   0.430  0.4035  0.3576  0.1630
 8909SOL    HW138189   2.533   3.321   0.403 -0.6346  0.2262  1.8263
 8909SOL    HW238190   2.668   3.294   0.416  0.8906 -0.4886  0.1374
 8910SOL     OW38191   3.400   4.022   7.527  0.0049 -0.1848 -0.0512
 8910SOL    HW138192   3.448   3.972   7.592  1.6040  0.9165 -0.3878
 8910SOL    HW238193   3.438   4.109   7.538  0.4772 -0.2242 -1.3589
 8911SOL     OW38194   4.198   3.802   2.927 -0.2288 -0.2563  0.2405
 8911SOL    HW138195   4.221   3.892   2.950 -0.2570  0.0017 -0.7394
 8911SOL    HW238196   4.252   3.792   2.849  1.7878  2.4910  1.2605
 8912SOL     OW38197   1.802   0.549  16.778  0.4284  0.3309 -0.5275
 8912SOL    HW138198   1.818   0.597  16.696  1.3590  0.0293 -0.5235
 8912SOL    HW238199   1.760   0.477  16.731 -2.2854  1.3403  0.3563
 8913SOL     OW38200   4.134   3.823   0.606 -0.2640  0.1354  0.6018
 8913SOL    HW138201   4.134   3.768   0.528  2.3372 -0.6867  1.1915
 8913SOL    HW238202   4.193   3.890   0.572 -0.0790 -0.3962 -0.1307
 8914SOL     OW38203   4.026   0.158   3.980 -0.0575 -0.3530 -0.1227
 8914SOL    HW138204   3.996   0.067   3.974 -1.6683  0.2150 -0.5040
 8914SOL    HW238205   3.952   0.208   3.947 -0.5854 -0.0358  1.5924
 8915SOL     OW38206   0.592   4.479   4.001 -0.1643 -0.1751  0.3635
 8915SOL    HW138207   0.535   4.462   4.076 -1.0557  0.6565 -0.1335
 8915SOL    HW238208   0.680   4.473   4.039 -0.4910  0.4473  1.2459
 8916SOL     OW38209   3.261   2.232   0.025  0.4609  0.2881 -0.2542
 8916SOL    HW138210   3.291   2.159   0.079  0.3560  1.1854  1.0212
 8916SOL    HW238211   3.238   2.183  17.634  0.2366 -1.2658  0.8014
 8917SOL     OW38212   0.829   2.068  14.391 -0.3954 -0.2522 -0.1986
 8917SOL    HW138213   0.876   2.151  14.386 -2.2974  0.8113 -0.3103
 8917SOL    HW238214   0.775   2.066  14.469 -1.2148 -1.5572 -0.7945
 8918SOL     OW38215   3.441   1.745   3.927 -0.2015 -0.7790  0.0434
 8918SOL    HW138216   3.483   1.752   3.841 -1.0490 -0.2449 -0.3355
 8918SOL    HW238217   3.525   1.734   3.972  0.6757  0.4112 -1.3095
 8919SOL     OW38218   3.942   3.816   0.805  0.0009 -0.0245 -0.3235
 8919SOL    HW138219   4.009   3.834   0.739  0.1383  0.7750  0.0276
 8919SOL    HW238220   3.881   3.889   0.798  0.9785  0.6232 -1.9465
 8920SOL     OW38221   0.610   0.601   6.247  0.6160 -0.3715  0.3464
 8920SOL    HW138222   0.645   0.689   6.230  0.0110 -0.1243  0.3891
 8920SOL    HW238223   0.615   0.551   6.165 -0.0644 -2.9043  1.8604
 8921SOL     OW38224   1.523   0.775   8.005 -0.1544 -0.0007 -0.3454
 8921SOL    HW138225   1.471   0.850   7.976  1.0035  1.1537  0.5544
 8921SOL    HW238226   1.593   0.814   8.058  1.3295 -0.5265 -1.9194
 8922SOL     OW38227   2.133   3.579   0.367  0.3071  0.8208 -0.3560
 8922SOL    HW138228   2.085   3.526   0.431  1.9447  1.7487  1.6428
 8922SOL    HW238229   2.223   3.572   0.400 -0.2381 -0.2652  0.9098
 8923SOL     OW38230   1.435   2.893  15.796  0.1568 -0.3604 -0.1343
 8923SOL    HW138231   1.348   2.923  15.824  0.5225  1.8487 -1.3417
 8923SOL    HW238232   1.459   2.837  15.869 -0.3371 -1.6206 -0.9294
 8924SOL     OW38233   2.697   3.920   9.021 -0.4917 -1.2982  0.0812
 8924SOL    HW138234   2.681   3.829   9.045  0.3934 -1.3215  0.5583
 8924SOL    HW238235   2.789   3.925   9.047  0.0286 -2.6233 -1.5074
 8925SOL     OW38236   0.775   3.729   2.822  0.2471  0.2873 -0.2997
 8925SOL    HW138237   0.697   3.781   2.801  0.0874  0.4893  0.8184
 8925SOL    HW238238   0.788   3.734   2.917  1.7945  0.2757 -0.4997
 8926SOL     OW38239   2.267   2.993  10.511 -0.2426  0.3596  0.2091
 8926SOL    HW138240   2.358   3.023  10.517  0.2538 -1.3809  1.4274
 8926SOL    HW238241   2.287   2.914  10.461 -1.2393  0.6266 -0.6149
 8927SOL     OW38242   0.325   3.391   6.813  0.2688 -0.5452 -0.0287
 8927SOL    HW138243   0.336   3.430   6.900 -2.6018  3.6637 -1.5657
 8927SOL    HW238244   0.277   3.459   6.766 -0.8476 -2.3490 -1.4678
 8928SOL     OW38245   2.961   2.696   3.005  0.3273  1.1936  0.2027
 8928SOL    HW138246   2.874   2.728   3.030  0.0096  1.5178 -1.3043
 8928SOL    HW238247   2.984   2.750   2.929 -0.5313 -0.2328 -1.0816
 8929SOL     OW38248   4.618   3.657   1.492  0.3850 -0.5637 -0.4598
 8929SOL    HW138249   4.590   3.700   1.411 -1.4998  0.2189  0.6199
 8929SOL    HW238250   4.579   3.570   1.483  2.4417 -1.5925  0.5844
 8930SOL     OW38251   0.048   3.246   4.585  0.0096 -0.0678  0.2452
 8930SOL    HW138252   0.027   3.199   4.666  0.0416  2.7987  1.9110
 8930SOL    HW238253   4.698   3.212   4.531  0.7435 -2.0427  0.5127
 8931SOL     OW38254   3.892   2.372  13.776  0.0635  0.5974 -0.0569
 8931SOL    HW138255   3.892   2.449  13.719 -0.4634  1.4062  1.0512
 8931SOL    HW238256   3.988   2.366  13.776  0.1008  1.4723  3.3254
 8932SOL     OW38257   0.290   2.330  17.520  0.6140 -0.4921 -0.6685
 8932SOL    HW138258   0.251   2.265  17.579  0.8432 -0.7901 -0.8489
 8932SOL    HW238259   0.293   2.407  17.577  0.7556  0.5643 -2.1208
 8933SOL     OW38260   4.588   4.584   4.967 -0.2526  0.6273  0.2001
 8933SOL    HW138261   4.523   4.538   4.915 -0.0488  2.3642 -1.6006
 8933SOL    HW238262   4.550   4.561   5.052  0.7053 -0.2071  0.4071
 8934SOL     OW38263   1.827   0.269   6.240  0.0530  0.0263 -0.4305
 8934SOL    HW138264   1.827   0.363   6.220 -0.0534  0.1608  0.1977
 8934SOL    HW238265   1.914   0.246   6.272  1.6221  1.6049 -3.5319
 8935SOL     OW38266   1.424   4.618   7.988 -0.1662 -0.0886  0.5236
 8935SOL    HW138267   1.456   4.705   7.965  0.0227  0.4145  2.6331
 8935SOL    HW238268   1.493   4.560   7.957 -1.7225 -1.2828 -0.6827
 8936SOL     OW38269   2.503   0.345   6.226 -0.3498  0.0199 -0.6546
 8936SOL    HW138270   2.422   0.296   6.237  0.6000 -0.9822  1.9039
 8936SOL    HW238271   2.526   0.323   6.136  0.1511 -1.1677 -0.2312
 8937SOL     OW38272   2.028   1.669  16.777  0.4732 -0.5580  0.4364
 8937SOL    HW138273   1.947   1.622  16.796  0.3701 -1.1238 -1.4158
 8937SOL    HW238274   2.063   1.695  16.862  2.9904 -0.3867 -0.6664
 8938SOL     OW38275   3.617   0.594   3.851  0.5785 -0.1154  0.5235
 8938SOL    HW138276   3.550   0.527   3.837 -0.3078  1.0320 -0.7598
 8938SOL    HW238277   3.637   0.622   3.762  2.6122 -1.4470  0.5633
 8939SOL     OW38278   4.149   3.699   7.710  0.4093  0.0159  0.2514
 8939SOL    HW138279   4.223   3.725   7.655  0.3702 -2.1613 -0.8312
 8939SOL    HW238280   4.183   3.717   7.798 -0.5063  1.1726  0.3605
 8940SOL     OW38281   0.694   0.286  11.048  0.5208 -0.7435  0.3542
 8940SOL    HW138282   0.693   0.344  11.124 -0.4604 -1.7257  1.0993
 8940SOL    HW238283   0.649   0.205  11.074 -1.8002  0.0694 -1.1036
 8941SOL     OW38284   1.592   4.466   7.838  0.6931 -0.6467  0.0702
 8941SOL    HW138285   1.566   4.374   7.835 -1.1804 -0.1605  1.2299
 8941SOL    HW238286   1.685   4.447   7.828  0.5130 -0.1945 -2.4435
 8942SOL     OW38287   2.120   4.653  15.587 -0.4818  0.1367 -0.1221
 8942SOL    HW138288   2.067   4.714  15.639  0.2474 -0.2227  1.0554
 8942SOL    HW238289   2.094   4.573  15.635 -0.0815 -0.5734 -1.0991
 8943SOL     OW38290   3.152   3.401   7.398 -0.2058 -0.4731 -0.6604
 8943SOL    HW138291   3.117   3.359   7.477  0.2753  0.6049  0.1186
 8943SOL    HW238292   3.197   3.329   7.353  1.4270 -0.2375  0.5937
 8944SOL     OW38293   4.463   4.379   3.353  0.1369 -0.2061  0.0896
 8944SOL    HW138294   4.481   4.467   3.318 -2.3088 -0.2164 -1.1661
 8944SOL    HW238295   4.551   4.345   3.336 -0.3626 -1.9133  0.9819
 8945SOL     OW38296   4.628   2.862   1.667 -0.4684  0.0527 -0.3125
 8945SOL    HW138297   4.684   2.786   1.681 -1.6335 -0.4878  1.3948
 8945SOL    HW238298   4.570   2.844   1.593 -0.0560 -0.6152 -0.4663
 8946SOL     OW38299   0.999   4.072  14.381  0.4910 -0.2259 -0.1357
 8946SOL    HW138300   0.933   4.018  14.423 -1.3134  1.4291 -0.8595
 8946SOL    HW238301   1.001   4.148  14.441 -1.8988  0.5670 -1.0839
 8947SOL     OW38302   1.540   3.247   3.139 -0.3707  0.1227  0.1931
 8947SOL    HW138303   1.628   3.215   3.119 -0.1690  1.7792 -1.6186
 8947SOL    HW238304   1.547   3.340   3.164  1.7315 -0.2128  0.7884
 8948SOL     OW38305   4.016   2.023   6.727  0.7293 -0.3840  0.3039
 8948SOL    HW138306   3.981   2.088   6.665 -0.2751 -1.2967 -0.0830
 8948SOL    HW238307   3.990   1.941   6.684  0.7981 -0.4704  0.4313
 8949SOL     OW38308   1.254   1.233  17.615 -0.1566  0.6590 -0.1320
 8949SOL    HW138309   1.323   1.193  17.561  1.5100  2.2164  0.8579
 8949SOL    HW238310   1.296   1.249   0.012  0.2281 -2.4507  0.2879
 8950SOL     OW38311   0.366   4.458  14.239 -0.1608 -0.2721 -0.3241
 8950SOL    HW138312   0.360   4.432  14.331 -2.3088 -0.2268 -0.4618
 8950SOL    HW238313   0.453   4.498  14.230 -0.1828 -0.6555 -2.3494
 8951SOL     OW38314   0.373   0.472   7.356 -0.4498  0.1312 -0.0892
 8951SOL    HW138315   0.280   0.495   7.350 -0.9181 -1.9543 -0.5748
 8951SOL    HW238316   0.424   0.535   7.304 -0.4983  1.0839  1.0126
 8952SOL     OW38317   3.214   0.342   9.152 -0.2613  0.0425  0.0638
 8952SOL    HW138318   3.237   0.376   9.239 -1.8344 -1.3690  1.0219
 8952SOL    HW238319   3.166   0.261   9.169  0.8426 -0.6733 -0.1905
 8953SOL     OW38320   3.609   0.940   3.996 -0.0274  0.1666  0.0253
 8953SOL    HW138321   3.591   1.033   4.011  3.0356  1.1053 -2.1424
 8953SOL    HW238322   3.687   0.940   3.941 -0.3170  1.4492 -0.3793
 8954SOL     OW38323   3.168   3.241   7.645  0.2997 -0.1486 -0.2496
 8954SOL    HW138324   3.164   3.147   7.662 -1.0738 -0.2565 -1.1075
 8954SOL    HW238325   3.221   3.264   7.721 -0.0400  0.0211 -0.0660
 8955SOL     OW38326   1.672   2.903   4.649  0.7807 -0.1699  0.0352
 8955SOL    HW138327   1.673   2.846   4.572 -0.5634  2.4932 -1.9423
 8955SOL    HW238328   1.595   2.871   4.694  0.3987 -2.1402 -1.9708
 8956SOL     OW38329   3.297   2.475   0.726 -0.7011  0.3500 -0.6497
 8956SOL    HW138330   3.227   2.466   0.790  0.8160 -0.3345  0.9042
 8956SOL    HW238331   3.336   2.556   0.759  1.7561 -0.6885 -0.9313
 8957SOL     OW38332   3.473   1.246   5.988  0.1586 -0.4275 -0.3226
 8957SOL    HW138333   3.431   1.286   6.065 -0.1501  2.0161 -1.7771
 8957SOL    HW238334   3.556   1.228   6.032  0.3070  4.2173  1.3566
 8958SOL     OW38335   0.360   3.220  13.923  0.2269  0.5602  0.2615
 8958SOL    HW138336   0.453   3.230  13.944  0.7687  0.0269 -1.8329
 8958SOL    HW238337   0.355   3.275  13.845 -0.4566 -0.5532 -0.4873
 8959SOL     OW38338   1.849   3.178   3.050  0.2065  0.5363  0.1415
 8959SOL    HW138339   1.927   3.198   2.997 -0.1229  0.4887 -0.3599
 8959SOL    HW238340   1.819   3.098   3.007  1.7409 -0.3887  0.7739
 8960SOL     OW38341   3.507   0.142   1.985  0.0470  1.3264  0.6513
 8960SOL    HW138342   3.514   0.124   1.891  0.9196  0.9572  0.7867
 8960SOL    HW238343   3.488   0.051   2.007  0.0379  0.3888 -3.1438
 8961SOL     OW38344   4.505   1.386  10.694  0.0233  0.7430 -0.1389
 8961SOL    HW138345   4.503   1.441  10.615  0.8542  0.7624 -0.1533
 8961SOL    HW238346   4.411   1.381  10.709 -0.1776  2.4652 -0.8492
 8962SOL     OW38347   0.242   1.565   7.660  0.3342 -0.1344  0.6692
 8962SOL    HW138348   0.274   1.495   7.602  1.9254  0.5602  0.7039
 8962SOL    HW238349   0.260   1.529   7.747  1.8014  1.4679  1.0289
 8963SOL     OW38350   1.447   2.590   6.040  0.1779  0.1109  0.0710
 8963SOL    HW138351   1.521   2.550   5.994  2.0461  2.8570  0.6690
 8963SOL    HW238352   1.391   2.606   5.965  1.0441 -0.1161 -0.6294
 8964SOL     OW38353   3.884   1.558   4.080  0.1124  0.2459  0.1283
 8964SOL    HW138354   3.962   1.526   4.033 -0.8635 -0.5791 -0.9230
 8964SOL    HW238355   3.859   1.482   4.132  0.3959 -1.0621 -1.6190
 8965SOL     OW38356   1.112   3.102   3.991  0.0554 -0.0530  0.4107
 8965SOL    HW138357   1.027   3.076   3.955  0.6279 -0.2979 -0.7739
 8965SOL    HW238358   1.129   3.036   4.058  1.1761  1.2944  1.4723
 8966SOL     OW38359   0.981   0.179   1.961 -0.3068  0.1786  0.0977
 8966SOL    HW138360   0.974   0.273   1.940  1.0569 -0.3161 -2.5605
 8966SOL    HW238361   0.985   0.136   1.875 -1.6593  1.6279 -0.7019
 8967SOL     OW38362   0.930   1.338  10.039  0.4319  0.2736 -0.4816
 8967SOL    HW138363   0.929   1.287  10.120  0.7893  0.7518 -0.1811
 8967SOL    HW238364   0.982   1.284   9.979  1.3060  0.0107  0.5126
 8968SOL     OW38365   4.282   2.278   7.208 -0.7334  0.0183 -0.6007
 8968SOL    HW138366   4.240   2.356   7.244  1.5255  1.1913 -0.5057
 8968SOL    HW238367   4.370   2.309   7.187 -0.5633  0.8411  1.3096
 8969SOL     OW38368   0.257   3.279   9.874  0.7072 -0.8517 -0.1540
 8969SOL    HW138369   0.221   3.229   9.801  0.2690  1.4721 -1.5174
 8969SOL    HW238370   0.351   3.272   9.855  0.7993 -3.4129  1.1741
 8970SOL     OW38371   3.795   2.019  15.857 -0.4323  0.2183  0.1456
 8970SOL    HW138372   3.807   1.946  15.919  0.0373 -0.6993 -1.0308
 8970SOL    HW238373   3.776   2.093  15.914  2.0748  0.2629  0.9233
 8971SOL     OW38374   2.615   4.047  15.267  0.3511  0.3326 -0.0452
 8971SOL    HW138375   2.703   4.068  15.299  0.6675  2.6773 -2.4421
 8971SOL    HW238376   2.603   4.107  15.193 -0.3167 -0.8808 -0.9120
 8972SOL     OW38377   3.380   3.107   9.651 -0.0920  0.4346  0.5451
 8972SOL    HW138378   3.324   3.126   9.576  1.4848  0.4743 -0.6335
 8972SOL    HW238379   3.471   3.106   9.622  0.1256 -0.3121  1.2719
 8973SOL     OW38380   4.391   0.514  15.525  1.0083  0.4362 -0.0024
 8973SOL    HW138381   4.450   0.552  15.460 -0.7426  2.8572 -0.1684
 8973SOL    HW238382   4.424   0.425  15.514  0.5599  0.2437  0.2142
 8974SOL     OW38383   4.319   4.054   5.331 -0.0460 -0.3495  0.4193
 8974SOL    HW138384   4.389   4.059   5.266 -0.2296  1.5403  0.3507
 8974SOL    HW238385   4.277   4.140   5.330  0.8244  0.1138  4.7498
 8975SOL     OW38386   0.796   1.955   4.460 -0.4832  0.5947  0.1928
 8975SOL    HW138387   0.892   1.946   4.457 -0.3453  1.9843  0.6717
 8975SOL    HW238388   0.778   1.862   4.478 -0.7840  0.6514  0.1858
 8976SOL     OW38389   2.759   0.699   6.958 -0.1522 -0.3222  0.0336
 8976SOL    HW138390   2.765   0.604   6.945  0.0145 -0.3343  0.1865
 8976SOL    HW238391   2.711   0.708   7.041  0.4200  2.1917  0.0798
 8977SOL     OW38392   4.441   3.380  16.835 -0.6740 -0.0577 -0.8180
 8977SOL    HW138393   4.472   3.390  16.925  0.0822  0.0157 -1.0816
 8977SOL    HW238394   4.493   3.443  16.786 -0.6428 -1.1721 -2.2207
 8978SOL     OW38395   4.132   1.144  12.554  0.6961  0.5136 -0.5577
 8978SOL    HW138396   4.156   1.104  12.471  1.0177  1.1065 -0.7576
 8978SOL    HW238397   4.214   1.191  12.571 -0.0828  1.7949 -0.2882
 8979SOL     OW38398   4.087   4.379   4.049  0.6251  0.0234  0.2242
 8979SOL    HW138399   4.041   4.313   3.999  0.5367  1.3036 -1.3866
 8979SOL    HW238400   4.139   4.323   4.106 -1.3906 -0.9463  1.1111
 8980SOL     OW38401   1.708   3.518   4.786  0.3884 -0.1077  0.0463
 8980SOL    HW138402   1.664   3.573   4.850  0.4798 -0.2505  0.2317
 8980SOL    HW238403   1.783   3.569   4.756 -0.2870  0.1585 -1.1721
 8981SOL     OW38404   2.664   1.006  10.945 -0.2892 -0.5574 -0.0727
 8981SOL    HW138405   2.718   1.084  10.940 -0.2602 -0.5786 -0.0882
 8981SOL    HW238406   2.737   0.949  10.921  0.0255 -0.8759  1.6114
 8982SOL     OW38407   2.038   0.821  11.897  0.8204  0.8342  0.4214
 8982SOL    HW138408   1.978   0.751  11.874  0.8634  0.7651  0.5203
 8982SOL    HW238409   1.989   0.896  11.863  0.7236  0.4140 -0.3590
 8983SOL     OW38410   1.471   1.701   7.029 -0.0813 -0.1609 -0.0553
 8983SOL    HW138411   1.475   1.792   7.058 -3.1234  0.3756 -1.3563
 8983SOL    HW238412   1.507   1.649   7.100 -2.1056  0.3136  1.3229
 8984SOL     OW38413   1.390   2.672   2.914 -0.5621 -0.6470  0.1319
 8984SOL    HW138414   1.370   2.580   2.898  0.1169 -0.7377 -0.2040
 8984SOL    HW238415   1.316   2.723   2.882  0.4003  0.4861 -0.3078
 8985SOL     OW38416   1.613   3.891   0.881  0.0749 -0.3830  0.0529
 8985SOL    HW138417   1.670   3.879   0.957  2.2144  1.5256 -1.2692
 8985SOL    HW238418   1.635   3.810   0.834 -1.0917 -0.9310  0.4451
 8986SOL     OW38419   1.708   2.969   5.081 -0.4510  0.4198  0.0774
 8986SOL    HW138420   1.751   3.047   5.116 -0.4365 -0.1752  1.4171
 8986SOL    HW238421   1.755   2.967   4.998 -0.8220 -0.3473 -0.1246
 8987SOL     OW38422   0.775   2.392  11.452 -0.4554 -0.1219 -0.3991
 8987SOL    HW138423   0.851   2.342  11.421 -0.0485 -0.2698  0.8368
 8987SOL    HW238424   0.793   2.480  11.418  1.1359  0.0942  0.9536
 8988SOL     OW38425   0.060   3.147   8.341 -0.3489 -0.1002 -0.1589
 8988SOL    HW138426   4.692   3.119   8.364 -0.2970 -1.2573 -1.3990
 8988SOL    HW238427   0.095   3.171   8.427  0.2973 -1.1229 -0.1348
 8989SOL     OW38428   3.567   4.455   9.133  0.1931 -0.2247  0.3925
 8989SOL    HW138429   3.567   4.481   9.225  4.0718 -1.0822  0.6469
 8989SOL    HW238430   3.475   4.437   9.117  0.8218 -2.0034 -1.3162
 8990SOL     OW38431   1.137   4.471   2.561 -0.1282  0.4475  0.3052
 8990SOL    HW138432   1.123   4.401   2.624  2.5615  0.6609  1.1178
 8990SOL    HW238433   1.103   4.551   2.600 -1.7422  0.3357 -0.8607
 8991SOL     OW38434   1.103   1.594   1.160  0.3854 -0.4497 -0.1292
 8991SOL    HW138435   1.121   1.585   1.066 -0.1408  0.1830 -0.2840
 8991SOL    HW238436   1.095   1.689   1.170 -0.9109 -0.7593  1.7766
 8992SOL     OW38437   0.626   2.750  14.712 -0.0424  0.6391 -0.4839
 8992SOL    HW138438   0.622   2.765  14.617  1.5118  1.1100 -0.4830
 8992SOL    HW238439   0.646   2.839  14.740  0.2591  1.0427 -1.9564
 8993SOL     OW38440   2.852   3.628   8.626  0.3430 -0.3196  0.1896
 8993SOL    HW138441   2.878   3.704   8.574  0.9841 -0.6458  0.0293
 8993SOL    HW238442   2.789   3.666   8.687  0.2924  0.0840 -0.1204
 8994SOL     OW38443   3.096   3.570   3.599  0.3998  0.0539 -0.3983
 8994SOL    HW138444   3.142   3.653   3.598  0.8209 -0.1771  0.0539
 8994SOL    HW238445   3.052   3.577   3.514 -0.8888 -0.1060  0.2548
 8995SOL     OW38446   1.946   0.586   0.374  0.2055  0.5106  0.3162
 8995SOL    HW138447   1.984   0.666   0.338 -0.8446  1.0828  0.4794
 8995SOL    HW238448   1.970   0.599   0.466 -1.1479  0.7266  0.6421
 8996SOL     OW38449   4.250   3.127   4.711 -0.0687  0.5468 -0.0525
 8996SOL    HW138450   4.313   3.078   4.658  1.2835  0.0572  2.0061
 8996SOL    HW238451   4.284   3.216   4.701  1.3507 -0.0783 -0.7033
 8997SOL     OW38452   0.147   3.577   7.781 -0.6509 -0.2684  0.4557
 8997SOL    HW138453   0.159   3.631   7.703 -2.4928 -0.6103 -0.0478
 8997SOL    HW238454   0.086   3.622   7.840 -1.6272 -0.3602 -0.4888
 8998SOL     OW38455   2.560   2.306   8.308 -0.0345 -0.3643  0.4041
 8998SOL    HW138456   2.488   2.269   8.360 -0.1741 -0.7738 -0.0889
 8998SOL    HW238457   2.534   2.398   8.314 -0.0670 -0.2169 -2.3196
 8999SOL     OW38458   4.718   3.450   8.361 -0.0959 -0.1585 -0.6561
 8999SOL    HW138459   0.026   3.415   8.446 -0.3692 -1.1060 -0.9473
 8999SOL    HW238460   0.076   3.483   8.319  0.5273  0.0221  0.6617
 9000SOL     OW38461   2.450   4.544  11.553  0.7438 -0.6391 -0.3990
 9000SOL    HW138462   2.508   4.492  11.497  2.2383  0.6097  0.0005
 9000SOL    HW238463   2.396   4.578  11.482  0.3904 -0.4624 -0.0447
 9001SOL     OW38464   1.572   3.100   3.701 -0.1663  0.5831  0.0122
 9001SOL    HW138465   1.479   3.105   3.719 -0.3683 -0.8248 -0.6173
 9001SOL    HW238466   1.612   3.113   3.787 -1.5924  1.1064  0.5908
 9002SOL     OW38467   3.901   2.086   9.816 -0.0228  0.0777  0.3609
 9002SOL    HW138468   3.899   2.181   9.829  1.6733 -0.0533  1.5852
 9002SOL    HW238469   3.934   2.069   9.728 -1.1497  0.8571 -0.2077
 9003SOL     OW38470   3.910   4.133  12.358  0.0498 -0.4139  0.0304
 9003SOL    HW138471   3.837   4.128  12.421  0.3474  0.5090  0.4416
 9003SOL    HW238472   3.941   4.223  12.366 -2.6382  0.5210 -0.0894
 9004SOL     OW38473   0.751   4.271  10.416 -0.1144  0.2506  0.7789
 9004SOL    HW138474   0.846   4.266  10.408 -0.1772 -1.3823  1.0508
 9004SOL    HW238475   0.720   4.196  10.366  0.9726  0.2307  0.1225
 9005SOL     OW38476   3.783   3.438   3.178 -0.2104  0.0658  1.3141
 9005SOL    HW138477   3.690   3.420   3.163  0.3225  0.2032 -2.1906
 9005SOL    HW238478   3.774   3.494   3.255 -0.7619  1.4954  0.2101
 9006SOL     OW38479   4.515   1.817   5.398  0.4105 -0.2634 -0.0168
 9006SOL    HW138480   4.460   1.757   5.348 -2.6022  0.0268  2.9486
 9006SOL    HW238481   4.484   1.800   5.487 -0.9000  3.5766  0.2527
 9007SOL     OW38482   1.296   1.219   4.792  0.2118 -0.6401  0.5342
 9007SOL    HW138483   1.334   1.277   4.858 -1.6576  0.9663  0.2188
 9007SOL    HW238484   1.237   1.273   4.739 -0.0915 -1.2809  0.2289
 9008SOL     OW38485   1.611   0.183   5.294  0.1630 -0.5386  0.2308
 9008SOL    HW138486   1.532   0.205   5.244  0.4060 -2.1662 -0.8812
 9008SOL    HW238487   1.575   0.200   5.381 -1.1273  2.5211 -0.8928
 9009SOL     OW38488   0.662   1.069   6.653 -0.7499  0.3702  0.3058
 9009SOL    HW138489   0.731   1.133   6.673 -0.0861  0.0455 -0.9527
 9009SOL    HW238490   0.599   1.090   6.721  0.8577 -2.2094  2.5750
 9010SOL     OW38491   2.651   1.099   7.981 -0.7166  0.4421  0.2080
 9010SOL    HW138492   2.630   1.174   8.037  1.9089  0.2269  1.4580
 9010SOL    HW238493   2.743   1.124   7.975 -1.0215  1.1475 -1.5094
 9011SOL     OW38494   0.419   1.178  11.821  0.1722  0.1035 -0.0894
 9011SOL    HW138495   0.371   1.250  11.862 -0.9382  0.0231 -1.2673
 9011SOL    HW238496   0.510   1.206  11.830 -0.0059  0.3796  0.8322
 9012SOL     OW38497   4.400   3.657   6.613 -0.2629  0.4736 -0.1118
 9012SOL    HW138498   4.346   3.594   6.566 -0.9380  0.2826  0.9348
 9012SOL    HW238499   4.381   3.623   6.700  1.1609  4.1926  1.6778
 9013SOL     OW38500   3.609   4.244   2.051 -0.1462  0.6920 -0.2848
 9013SOL    HW138501   3.642   4.286   1.971 -0.8996 -0.9719 -1.4539
 9013SOL    HW238502   3.514   4.242   2.039 -0.0337  0.7555 -1.1732
 9014SOL     OW38503   0.675   1.364   2.550 -0.5018 -0.7991 -0.6577
 9014SOL    HW138504   0.632   1.375   2.465  0.9335  1.7805 -1.0584
 9014SOL    HW238505   0.610   1.401   2.609  1.3768  1.7206 -0.1395
 9015SOL     OW38506   0.624   3.859   8.835 -0.2305  0.4188 -0.1590
 9015SOL    HW138507   0.645   3.948   8.806  0.4255  0.0834 -0.7364
 9015SOL    HW238508   0.529   3.862   8.824 -0.2037  1.9014  0.0627
 9016SOL     OW38509   2.738   3.949   6.230 -0.2515  0.0618  0.6443
 9016SOL    HW138510   2.674   4.020   6.230  1.2292  1.4036 -0.4716
 9016SOL    HW238511   2.816   4.000   6.252  0.7283 -0.1746 -2.2293
 9017SOL     OW38512   2.597   4.644  10.026 -0.3381 -0.6314  0.0723
 9017SOL    HW138513   2.619   4.607  10.111  1.3333 -2.3318 -1.0939
 9017SOL    HW238514   2.656   4.718  10.013 -1.5913  0.9447  3.3320
 9018SOL     OW38515   4.256   4.429   1.192  0.1693  0.0601 -0.0855
 9018SOL    HW138516   4.243   4.337   1.211 -1.2569  0.2185 -0.2996
 9018SOL    HW238517   4.176   4.443   1.142  0.8346 -1.2238 -1.5150
 9019SOL     OW38518   2.306   2.463   8.938  0.0700 -0.0982 -0.5789
 9019SOL    HW138519   2.352   2.390   8.897  0.7461  0.0920 -0.1620
 9019SOL    HW238520   2.216   2.435   8.920  0.0736 -0.5316  0.0982
 9020SOL     OW38521   2.048   1.074  12.168 -0.2738  0.8746 -0.1205
 9020SOL    HW138522   2.033   1.124  12.248 -0.9385  0.3802  0.0684
 9020SOL    HW238523   2.067   1.139  12.101 -0.2226  1.1649  0.1750
 9021SOL     OW38524   4.245   1.203   3.192 -0.1621 -0.2420 -0.2051
 9021SOL    HW138525   4.227   1.277   3.133 -1.5341 -0.3247  0.1093
 9021SOL    HW238526   4.318   1.164   3.144  0.7619  1.6137 -0.2848
 9022SOL     OW38527   4.379   4.289  11.623  0.2490  0.1996  0.0735
 9022SOL    HW138528   4.288   4.318  11.629 -0.1313 -1.4937  2.5228
 9022SOL    HW238529   4.398   4.213  11.678  2.1376 -0.0368 -0.9066
 9023SOL     OW38530   2.482   4.624   8.235 -0.3257  0.2207  0.1771
 9023SOL    HW138531   2.549   4.664   8.290 -2.6699  0.9641  2.5136
 9023SOL    HW238532   2.402   4.634   8.287 -1.3124  0.9786 -1.4820
 9024SOL     OW38533   1.185   4.379  12.786 -0.1144 -0.2637  0.0246
 9024SOL    HW138534   1.224   4.312  12.843 -0.5802  0.1226  0.8059
 9024SOL    HW238535   1.145   4.437  12.851 -0.3451 -2.1216  1.5557
 9025SOL     OW38536   1.955   2.453  11.348 -0.1055 -0.0508  0.0039
 9025SOL    HW138537   1.885   2.388  11.337 -0.5709  0.5276 -0.4608
 9025SOL    HW238538   1.953   2.513  11.273  0.7635  0.5388  0.4543
 9026SOL     OW38539   1.958   1.801   3.969 -0.1636 -0.3988  0.0337
 9026SOL    HW138540   1.921   1.730   4.022  1.8223 -0.9430  0.6649
 9026SOL    HW238541   1.968   1.860   4.043 -0.2291  0.1423 -0.3877
 9027SOL     OW38542   3.391   1.243   8.668  0.1719  0.5091 -0.4221
 9027SOL    HW138543   3.352   1.189   8.737 -1.9232  0.6068 -1.5374
 9027SOL    HW238544   3.418   1.328   8.703  0.5895  0.3982 -0.4756
 9028SOL     OW38545   4.632   3.703  13.693  0.1252  0.2937 -0.0829
 9028SOL    HW138546   4.565   3.765  13.663  2.2980  0.9124 -3.6600
 9028SOL    HW238547   4.646   3.726  13.785  2.4450 -0.7363 -0.1923
 9029SOL     OW38548   0.926   0.725   5.789  0.0925 -0.2244  0.6104
 9029SOL    HW138549   0.838   0.754   5.812 -1.0722 -1.5795 -2.1788
 9029SOL    HW238550   0.937   0.639   5.830 -1.7566 -1.1217 -0.8075
 9030SOL     OW38551   3.558   4.649   8.937  0.6762  0.1181  0.1046
 9030SOL    HW138552   3.565   4.575   8.999  0.0420  1.0868  1.3387
 9030SOL    HW238553   3.644   4.650   8.896  0.6629  3.3177  0.2108
 9031SOL     OW38554   1.344   2.530   1.954  0.6803 -0.4171  0.3016
 9031SOL    HW138555   1.413   2.574   2.004  0.3035  0.2386  0.2443
 9031SOL    HW238556   1.380   2.513   1.867 -2.2715 -0.3056 -0.9364
 9032SOL     OW38557   4.168   0.622  16.163  0.8969  0.0311 -0.0934
 9032SOL    HW138558   4.099   0.578  16.114  1.3800 -0.6041 -0.1929
 9032SOL    HW238559   4.243   0.563  16.163 -0.4111 -1.6406 -1.2276
 9033SOL     OW38560   4.327   2.379   0.740 -0.1339  0.4861 -1.0547
 9033SOL    HW138561   4.332   2.316   0.669 -0.4838  0.8803 -1.4295
 9033SOL    HW238562   4.406   2.427   0.714  0.1679  0.1533 -0.7438
 9034SOL     OW38563   4.233   4.194  12.097 -0.0663  0.2007 -0.0386
 9034SOL    HW138564   4.167   4.205  12.028  1.7206 -0.0372 -1.8053
 9034SOL    HW238565   4.207   4.264  12.157 -0.0660  0.6940 -0.6101
 9035SOL     OW38566   2.114   0.758   9.165  0.3219  0.1167  1.0555
 9035SOL    HW138567   2.129   0.799   9.250  0.4741  0.2334  0.9736
 9035SOL    HW238568   2.036   0.803   9.134  0.8806  1.2254  1.2578
 9036SOL     OW38569   2.878   4.142   4.969 -0.0151  0.8475 -0.2106
 9036SOL    HW138570   2.924   4.179   5.044 -1.2370  0.6704  0.6290
 9036SOL    HW238571   2.812   4.090   5.014 -0.5321 -0.0599 -2.0191
 9037SOL     OW38572   1.218   1.399   5.867 -0.0069 -0.5126  0.2334
 9037SOL    HW138573   1.242   1.342   5.940 -2.0962  1.0402  2.1246
 9037SOL    HW238574   1.304   1.403   5.825  0.0827 -4.5962 -0.0351
 9038SOL     OW38575   2.583   2.945   2.908 -0.0444 -0.2635  0.1731
 9038SOL    HW138576   2.598   2.862   2.952  1.2633 -0.5250 -0.7694
 9038SOL    HW238577   2.559   2.916   2.820 -0.4885 -0.2699  0.2969
 9039SOL     OW38578   3.841   2.509   0.586  0.0738  0.2896 -0.0634
 9039SOL    HW138579   3.776   2.542   0.648 -0.4158 -0.7025 -0.0581
 9039SOL    HW238580   3.907   2.578   0.593  0.2739  0.0285  0.6520
 9040SOL     OW38581   0.258   3.988  17.073 -0.8574 -0.2359  0.2819
 9040SOL    HW138582   0.166   3.967  17.090 -0.9738  0.1964  0.1831
 9040SOL    HW238583   0.255   4.075  17.032 -0.5598 -1.2723 -1.9316
 9041SOL     OW38584   2.636   1.512   5.556  0.6174 -0.6950  0.0639
 9041SOL    HW138585   2.648   1.432   5.608  0.4171 -0.5444  0.3427
 9041SOL    HW238586   2.689   1.484   5.482 -0.6046 -1.7166 -0.4318
 9042SOL     OW38587   1.548   4.115   6.663  0.2334  0.5504  0.8391
 9042SOL    HW138588   1.551   4.208   6.685 -2.2872  0.7504  0.2948
 9042SOL    HW238589   1.457   4.106   6.636  0.9293  1.3524 -1.7449
 9043SOL     OW38590   2.170   2.761  14.892 -0.0989 -0.2368 -0.2407
 9043SOL    HW138591   2.086   2.752  14.847  0.2144  1.7116 -1.2053
 9043SOL    HW238592   2.145   2.807  14.972 -0.2733  0.2219 -0.5563
 9044SOL     OW38593   3.934   3.799   6.826 -0.0457  0.1552 -0.0095
 9044SOL    HW138594   3.983   3.871   6.785 -0.7164  0.4967 -0.2226
 9044SOL    HW238595   3.846   3.837   6.823  0.5289  1.4742 -0.3954
 9045SOL     OW38596   0.936   4.425  17.101 -0.3499  0.1496  0.0907
 9045SOL    HW138597   0.911   4.381  17.019 -0.3673 -1.3528  0.9003
 9045SOL    HW238598   1.031   4.409  17.098 -0.2100  1.0483 -0.3088
 9046SOL     OW38599   2.421   2.758   2.303 -0.3033  0.3184 -0.2168
 9046SOL    HW138600   2.414   2.775   2.210  1.5014 -0.7529 -0.5537
 9046SOL    HW238601   2.369   2.829   2.343 -0.1068 -0.3158  1.1638
 9047SOL     OW38602   3.326   1.355   8.049 -0.6562 -0.4457 -0.0153
 9047SOL    HW138603   3.395   1.421   8.061  1.3027 -2.6119  0.6022
 9047SOL    HW238604   3.255   1.402   8.006 -0.4715  1.7248  2.0422
 9048SOL     OW38605   3.016   0.814   8.121  0.1942  0.9396  0.1688
 9048SOL    HW138606   3.077   0.835   8.050  0.5802  0.0659  0.2430
 9048SOL    HW238607   3.081   0.803   8.190 -0.2917  0.0745  0.4845
 9049SOL     OW38608   2.813   3.401   0.800  0.9406 -0.4490  0.3061
 9049SOL    HW138609   2.830   3.379   0.892 -0.0359 -1.2797  0.2871
 9049SOL    HW238610   2.862   3.483   0.791  0.1686 -0.1703 -1.4349
 9050SOL     OW38611   0.995   2.846   0.096  0.0030 -0.3494 -0.1385
 9050SOL    HW138612   0.994   2.753   0.119 -2.3901 -0.1833  0.4130
 9050SOL    HW238613   1.026   2.894   0.173  0.7229 -1.3388  0.1933
 9051SOL     OW38614   4.587   1.178   2.291  0.1349 -0.1814 -0.7203
 9051SOL    HW138615   4.664   1.202   2.343 -1.0703  0.5099  0.7718
 9051SOL    HW238616   4.621   1.103   2.243  1.6074 -1.9055  2.9985
 9052SOL     OW38617   1.366   3.892   2.702 -0.3433  0.5430  0.4133
 9052SOL    HW138618   1.382   3.890   2.607  2.1758 -1.1484  0.8670
 9052SOL    HW238619   1.385   3.799   2.719 -0.8977  0.4109  0.3077
 9053SOL     OW38620   0.360   1.795   0.407  0.0553 -0.5353  0.5013
 9053SOL    HW138621   0.434   1.753   0.363 -1.3339 -2.6934  0.1938
 9053SOL    HW238622   0.398   1.832   0.487  1.7674 -0.2959 -0.4374
 9054SOL     OW38623   2.990   3.957   9.102 -0.4362 -0.0950 -0.0302
 9054SOL    HW138624   2.918   3.982   9.161  0.5661  0.2389  1.0661
 9054SOL    HW238625   2.981   4.027   9.038  0.3326  0.0240 -0.0062
 9055SOL     OW38626   2.734   4.475   7.649 -0.0179  0.3452 -0.7144
 9055SOL    HW138627   2.711   4.521   7.568 -0.4644  2.0760  0.3991
 9055SOL    HW238628   2.735   4.384   7.619 -0.6888  0.2657 -0.4951
 9056SOL     OW38629   1.819   3.743   7.747 -0.0689  0.6111  0.5183
 9056SOL    HW138630   1.766   3.822   7.739 -2.8147 -1.3335 -0.9247
 9056SOL    HW238631   1.853   3.742   7.657 -0.4683 -2.4555  0.3793
 9057SOL     OW38632   0.766   1.647   6.143  0.2743  0.2248 -0.4827
 9057SOL    HW138633   0.827   1.597   6.198  0.9997  1.0372 -0.5483
 9057SOL    HW238634   0.814   1.728   6.126  1.9042 -0.6928 -0.2787
 9058SOL     OW38635   2.831   0.500  12.083 -0.5768  0.7667  0.1049
 9058SOL    HW138636   2.797   0.564  12.145 -2.0619 -0.6305  0.7173
 9058SOL    HW238637   2.853   0.553  12.006 -1.0637  0.1068 -0.4909
 9059SOL     OW38638   0.970   1.226  14.802  0.2139 -0.4566  0.0264
 9059SOL    HW138639   0.878   1.253  14.794 -0.1548 -2.3588 -2.0219
 9059SOL    HW238640   1.008   1.289  14.741  0.7105  1.1488  2.0009
 9060SOL     OW38641   1.798   0.774   3.845 -0.4776  0.0922 -0.3180
 9060SOL    HW138642   1.741   0.841   3.883 -0.4361  0.6394 -1.2238
 9060SOL    HW238643   1.829   0.719   3.917  0.1388 -0.1902 -0.7953
 9061SOL     OW38644   3.935   2.431   5.645  0.0746  0.7049  0.5556
 9061SOL    HW138645   3.945   2.381   5.564 -3.5134 -0.1134  0.6612
 9061SOL    HW238646   3.997   2.502   5.627 -0.1739  0.5582 -0.8553
 9062SOL     OW38647   0.417   3.137  14.527 -0.5473  0.5980 -0.0669
 9062SOL    HW138648   0.399   3.121  14.434  0.7306  1.6575 -0.4902
 9062SOL    HW238649   0.354   3.199  14.563 -2.1891 -0.4570 -1.0825
 9063SOL     OW38650   2.457   4.482   4.143  0.1511  0.1320 -0.5750
 9063SOL    HW138651   2.521   4.515   4.207 -0.6596  1.5166 -0.4626
 9063SOL    HW238652   2.457   4.553   4.078  2.0481  0.3449 -0.3494
 9064SOL     OW38653   2.684   4.605   7.410  0.0697  0.0265  0.2350
 9064SOL    HW138654   2.635   4.679   7.446 -0.3072 -0.0179 -0.1778
 9064SOL    HW238655   2.615   4.567   7.355  0.7082 -0.5413 -0.1708
 9065SOL     OW38656   2.293   1.372  13.094  0.2007 -0.2590 -0.1376
 9065SOL    HW138657   2.249   1.455  13.074  1.6310  0.6389  0.3905
 9065SOL    HW238658   2.223   1.322  13.135  0.5935  0.0829  0.9276
 9066SOL     OW38659   3.376   1.301   6.639 -0.3940 -0.1293  0.0348
 9066SOL    HW138660   3.320   1.235   6.599  0.2449 -0.3169 -0.5443
 9066SOL    HW238661   3.467   1.272   6.633 -0.1688  0.5181  0.3052
 9067SOL     OW38662   4.149   0.405   5.228  0.4764  0.0424  0.2569
 9067SOL    HW138663   4.179   0.480   5.280  1.4820 -0.2888  0.1692
 9067SOL    HW238664   4.072   0.374   5.274  0.8914 -0.3291  0.7076
 9068SOL     OW38665   0.550   3.743   4.705 -0.4163 -0.2722 -0.4845
 9068SOL    HW138666   0.631   3.788   4.730 -0.4007  0.0393 -1.1146
 9068SOL    HW238667   0.481   3.786   4.755  1.0798  0.5606  0.8803
 9069SOL     OW38668   2.023   2.605  15.662 -0.3289 -0.8597 -0.1629
 9069SOL    HW138669   2.037   2.578  15.752 -0.6416  0.1684  0.2031
 9069SOL    HW238670   2.099   2.562  15.624 -0.6041 -0.5177 -1.1101
 9070SOL     OW38671   0.680   3.175  13.344  0.6761  0.7666 -0.4905
 9070SOL    HW138672   0.710   3.158  13.255  1.2373 -0.0003 -0.1574
 9070SOL    HW238673   0.625   3.251  13.326 -1.0481  0.1733  2.3303
 9071SOL     OW38674   2.130   3.616   4.690 -0.6477  0.4066  0.5727
 9071SOL    HW138675   2.217   3.624   4.730  0.4244  0.7303 -1.7792
 9071SOL    HW238676   2.150   3.600   4.598 -2.4053 -0.3201  0.3193
 9072SOL     OW38677   3.575   0.157   8.133 -0.2472  0.0550  0.5518
 9072SOL    HW138678   3.615   0.150   8.046 -1.5087  0.2992 -0.0358
 9072SOL    HW238679   3.591   0.074   8.178 -3.6394  0.2535  2.1293
 9073SOL     OW38680   2.845   3.373   3.336  0.5447  0.4021  0.2836
 9073SOL    HW138681   2.873   3.341   3.250 -2.4421 -0.5270 -0.3708
 9073SOL    HW238682   2.836   3.294   3.388  1.6862  1.2523  1.7374
 9074SOL     OW38683   0.576   0.048   7.425  0.2138 -0.5928  0.4629
 9074SOL    HW138684   0.620   0.071   7.343 -0.4380  1.8809  0.7989
 9074SOL    HW238685   0.646   0.000   7.470  0.9885  0.6017  0.5294
 9075SOL     OW38686   1.170   2.806   6.066 -0.3834  0.0739 -0.0435
 9075SOL    HW138687   1.109   2.747   6.111 -0.4609  0.1579 -0.0386
 9075SOL    HW238688   1.192   2.755   5.988 -1.1833  2.2590 -1.6814
 9076SOL     OW38689   0.943   3.760   9.465  0.5599 -0.4596 -0.3553
 9076SOL    HW138690   0.978   3.830   9.520  0.9898  0.4612 -1.7967
 9076SOL    HW238691   0.850   3.784   9.474  0.9982  0.5832  1.3067
 9077SOL     OW38692   2.987   2.901   1.526 -0.5237  0.3109 -0.5109
 9077SOL    HW138693   3.017   2.811   1.533  2.8932  1.3879 -1.5259
 9077SOL    HW238694   3.056   2.947   1.574  0.3669  1.2131 -2.6609
 9078SOL     OW38695   4.220   0.484   6.376 -0.0510 -0.3628 -0.2079
 9078SOL    HW138696   4.258   0.530   6.451 -3.3545 -0.6206  1.6135
 9078SOL    HW238697   4.129   0.513   6.377  0.8066  2.2165  1.8609
 9079SOL     OW38698   3.950   0.776   4.980  0.1049 -0.2294 -0.2352
 9079SOL    HW138699   3.907   0.724   5.048  0.0169 -0.0389 -0.1459
 9079SOL    HW238700   4.028   0.720   4.980  0.4202  0.2009 -1.9438
 9080SOL     OW38701   4.233   1.911   6.505  0.0127  0.4669 -0.0681
 9080SOL    HW138702   4.207   1.845   6.569 -2.4854  0.6981 -0.8507
 9080SOL    HW238703   4.231   1.991   6.558 -1.9253  0.0702  0.4347
 9081SOL     OW38704   2.609   2.398   6.632  0.4631 -0.1565 -0.2000
 9081SOL    HW138705   2.566   2.331   6.686  1.1896  0.7078  1.4520
 9081SOL    HW238706   2.700   2.395   6.661  0.6565  0.3470 -0.7629
 9082SOL     OW38707   4.582   3.818   6.305  0.0230  0.0845  0.1565
 9082SOL    HW138708   4.496   3.852   6.331  0.3487  0.7085  0.4228
 9082SOL    HW238709   4.580   3.833   6.211 -3.3750 -1.0644  0.0561
 9083SOL     OW38710   2.375   2.920  16.809 -0.1540 -0.7252 -0.5399
 9083SOL    HW138711   2.353   2.938  16.718  0.1026  0.9232 -0.2878
 9083SOL    HW238712   2.455   2.973  16.810 -0.7424  0.1628  0.8829
 9084SOL     OW38713   0.090   1.133   3.661  0.0896  0.0228 -0.4127
 9084SOL    HW138714   0.163   1.141   3.599 -0.4765 -1.0784 -1.2235
 9084SOL    HW238715   0.059   1.222   3.647  0.8004  0.4729  0.9464
 9085SOL     OW38716   2.122   2.789   2.064  0.0675 -0.1526 -0.0200
 9085SOL    HW138717   2.069   2.718   2.027 -0.6556  0.9607 -1.1207
 9085SOL    HW238718   2.213   2.762   2.065  0.1614  0.2409  1.3455
 9086SOL     OW38719   4.544   4.453   6.531  0.3171  0.5794  0.1145
 9086SOL    HW138720   4.559   4.420   6.620 -0.6625  3.4967  1.3522
 9086SOL    HW238721   4.634   4.467   6.504  0.9267  0.4433  2.0768
 9087SOL     OW38722   0.664   2.246   7.068 -0.0413 -0.0623  0.3724
 9087SOL    HW138723   0.615   2.209   6.994 -0.5829 -0.0463  0.7222
 9087SOL    HW238724   0.740   2.190   7.084  0.0569  0.5302  1.9838
 9088SOL     OW38725   3.028   1.643   6.686  0.0318 -0.1993 -0.6291
 9088SOL    HW138726   2.997   1.653   6.775  1.5642  1.7452 -0.3133
 9088SOL    HW238727   3.071   1.557   6.684  0.9194  0.2632 -1.3879
 9089SOL     OW38728   3.692   4.613   7.894  0.4610  0.3851  0.5842
 9089SOL    HW138729   3.611   4.612   7.843  0.9548 -0.7491 -0.1814
 9089SOL    HW238730   3.695   4.707   7.910  0.7630  0.3311  0.8468
 9090SOL     OW38731   2.555   1.479   8.644 -0.0987 -0.7053  0.2732
 9090SOL    HW138732   2.489   1.545   8.663  1.7819  0.9161  1.2001
 9090SOL    HW238733   2.601   1.472   8.728 -0.2448 -1.1173  0.3211
 9091SOL     OW38734   0.319   0.135   8.525  0.3647  0.4383  0.3715
 9091SOL    HW138735   0.272   0.204   8.477 -2.8960 -1.0754  1.3854
 9091SOL    HW238736   0.261   0.123   8.600 -0.8145 -0.7430 -0.7459
 9092SOL     OW38737   2.319   2.769   6.749  0.1912 -0.3564 -0.1553
 9092SOL    HW138738   2.273   2.836   6.799  1.3532  0.7166 -0.5242
 9092SOL    HW238739   2.343   2.717   6.826  3.4328  1.2486 -0.0791
 9093SOL     OW38740   4.207   4.342  15.687 -0.1970 -0.2409  0.1821
 9093SOL    HW138741   4.208   4.266  15.744 -2.2516 -0.4673 -0.0593
 9093SOL    HW238742   4.122   4.372  15.721 -1.1138 -2.1740 -0.4069
 9094SOL     OW38743   2.324   2.189   4.808  0.2582  0.2067 -0.1780
 9094SOL    HW138744   2.308   2.137   4.729  1.0621  1.0466 -0.8746
 9094SOL    HW238745   2.348   2.274   4.772 -0.2864 -0.0330 -1.1101
 9095SOL     OW38746   2.121   2.959  11.535 -0.1186  0.0466  0.1113
 9095SOL    HW138747   2.092   3.028  11.475  1.6904  1.5461  0.9468
 9095SOL    HW238748   2.045   2.962  11.592 -0.2187 -2.1302  0.1032
 9096SOL     OW38749   3.662   1.254   9.278  0.0140  0.2737 -0.0381
 9096SOL    HW138750   3.707   1.210   9.350  1.5569 -1.0931 -1.8635
 9096SOL    HW238751   3.602   1.184   9.252 -0.5108  0.8256 -0.3194
 9097SOL     OW38752   3.263   3.733   4.172 -0.2666 -0.3180 -0.0279
 9097SOL    HW138753   3.301   3.772   4.093  0.7466 -0.8138  0.2175
 9097SOL    HW238754   3.340   3.729   4.228  0.3662  1.1766 -0.7967
 9098SOL     OW38755   3.695   0.939   6.671  0.2536  0.0923 -0.2968
 9098SOL    HW138756   3.771   0.892   6.636  1.1734  0.7544  0.8344
 9098SOL    HW238757   3.673   0.892   6.751 -2.0428  0.6605 -0.5865
 9099SOL     OW38758   3.218   3.675   3.049 -0.0648  1.2352  0.3758
 9099SOL    HW138759   3.145   3.614   3.035  1.3589 -0.4864  0.5156
 9099SOL    HW238760   3.203   3.719   3.133 -1.6299 -2.3243  1.9665
 9100SOL     OW38761   4.004   2.112  10.834 -0.4925 -0.6566  0.1901
 9100SOL    HW138762   3.936   2.050  10.860 -1.4277  1.1295  1.9249
 9100SOL    HW238763   3.963   2.141  10.752 -0.8516  1.6678  1.2053
 9101SOL     OW38764   3.872   2.650  17.338 -0.0949 -0.2483 -0.1669
 9101SOL    HW138765   3.879   2.555  17.328 -3.2184 -0.4082 -0.9611
 9101SOL    HW238766   3.782   2.676  17.316  0.1112 -0.9536 -1.8583
 9102SOL     OW38767   0.331   1.542   8.201 -0.1964  0.6032  0.3989
 9102SOL    HW138768   0.421   1.570   8.219 -0.0501 -0.0427  0.6557
 9102SOL    HW238769   0.307   1.523   8.292  0.8478  2.0293  0.9758
 9103SOL     OW38770   0.801   1.269   6.123  0.7243 -0.0925 -0.0313
 9103SOL    HW138771   0.737   1.322   6.171  0.2715 -1.1037  0.4933
 9103SOL    HW238772   0.864   1.330   6.085 -0.6592 -1.2309 -4.1911
 9104SOL     OW38773   3.349   1.796  17.654 -0.1348  0.3257 -0.2408
 9104SOL    HW138774   3.432   1.801   0.015 -0.1792 -0.0934 -0.1183
 9104SOL    HW238775   3.301   1.867   0.008 -0.9134 -0.0447 -0.5117
 9105SOL     OW38776   3.204   2.062   6.414  0.0077  0.1674 -0.0550
 9105SOL    HW138777   3.286   2.107   6.392 -1.2411  2.4653 -0.1236
 9105SOL    HW238778   3.166   2.034   6.330 -0.5058  1.0737 -0.1385
 9106SOL     OW38779   1.747   0.674   7.659 -0.1993  0.0707  0.0291
 9106SOL    HW138780   1.794   0.601   7.618  2.4641 -0.0639  3.3197
 9106SOL    HW238781   1.823   0.726   7.685 -0.2945  0.7418 -1.0583
 9107SOL     OW38782   0.489   0.041   7.100 -0.2319 -0.2007  0.1091
 9107SOL    HW138783   0.505   0.122   7.148  1.3970  0.0137 -0.7938
 9107SOL    HW238784   0.576   0.003   7.114 -1.2785 -2.2149  1.1722
 9108SOL     OW38785   2.614   3.395   4.802 -0.4579  0.4331  0.0514
 9108SOL    HW138786   2.626   3.316   4.749 -0.2310  0.1727  0.4912
 9108SOL    HW238787   2.578   3.359   4.883  1.9863  1.2894  1.5459
 9109SOL     OW38788   0.950   4.100   7.276 -1.0263 -0.4939  0.4084
 9109SOL    HW138789   0.987   4.031   7.220  0.4741  0.7873 -0.1854
 9109SOL    HW238790   0.870   4.130   7.234 -0.7007 -2.6787 -1.7664
 9110SOL     OW38791   4.045   0.752   6.854 -0.3495 -0.3377 -0.8675
 9110SOL    HW138792   4.125   0.700   6.840  0.6962  1.3081 -1.0127
 9110SOL    HW238793   4.080   0.837   6.880 -0.3715 -0.7412  0.4732
 9111SOL     OW38794   2.760   2.110   0.516  0.3922  0.0941  0.2780
 9111SOL    HW138795   2.806   2.058   0.450 -1.5865  0.5605 -1.4763
 9111SOL    HW238796   2.796   2.198   0.506  1.6919 -0.4306  0.3231
 9112SOL     OW38797   0.857   2.916  12.683 -0.5730  0.1918  0.5172
 9112SOL    HW138798   0.923   2.950  12.743 -2.4647  2.6975  1.1521
 9112SOL    HW238799   0.852   2.822  12.703 -0.2184 -0.2134 -1.2479
 9113SOL     OW38800   2.092   2.550   4.610  0.7229 -0.1220  0.7637
 9113SOL    HW138801   2.144   2.487   4.561 -1.9667 -1.0214 -0.9028
 9113SOL    HW238802   2.130   2.636   4.590  0.2197 -0.5222 -1.9089
 9114SOL     OW38803   3.334   4.341   2.030  0.4435 -0.1017 -0.8877
 9114SOL    HW138804   3.261   4.401   2.047 -0.4260 -1.3939 -0.0539
 9114SOL    HW238805   3.345   4.355   1.936  1.1837 -2.7949 -1.2036
 9115SOL     OW38806   4.547   2.783   4.742 -0.3193  0.2343  0.4822
 9115SOL    HW138807   4.517   2.693   4.751 -0.1031  0.2160  1.0544
 9115SOL    HW238808   4.528   2.830   4.824 -0.7380  0.7944  0.0670
 9116SOL     OW38809   3.868   4.599   8.814 -0.1484  0.1680  0.4439
 9116SOL    HW138810   3.801   4.541   8.776  0.9445 -0.9805  0.2657
 9116SOL    HW238811   3.916   4.538   8.870  0.0536  1.0159  1.1885
 9117SOL     OW38812   2.828   2.581   3.808 -0.4154  0.5144 -0.3413
 9117SOL    HW138813   2.818   2.562   3.715  1.9492 -0.3335 -0.4400
 9117SOL    HW238814   2.923   2.576   3.820 -0.4344 -1.5018 -1.0535
 9118SOL     OW38815   4.110   4.445  11.999 -0.8040 -0.2011 -0.3399
 9118SOL    HW138816   4.094   4.360  11.959  0.3753 -1.1170  1.1189
 9118SOL    HW238817   4.068   4.430  12.084  0.6620 -1.1036  0.2288
 9119SOL     OW38818   3.044   0.736   1.983 -0.4144 -0.5713 -0.5950
 9119SOL    HW138819   3.009   0.810   1.933 -4.2639 -2.2457 -0.2965
 9119SOL    HW238820   2.967   0.685   2.008 -0.4674 -1.1126 -1.8221
 9120SOL     OW38821   1.543   3.369   8.152 -0.6510 -0.2450 -0.0614
 9120SOL    HW138822   1.580   3.282   8.164  1.0264  0.4179 -0.4941
 9120SOL    HW238823   1.623   3.420   8.161 -0.1406 -1.3181  1.5647
 9121SOL     OW38824   0.912   3.284   6.602  0.0622  0.0472 -0.2187
 9121SOL    HW138825   0.985   3.315   6.656  0.6288 -1.7804  0.0568
 9121SOL    HW238826   0.957   3.288   6.517 -0.7295  0.4524 -0.6193
 9122SOL     OW38827   0.598   3.308   3.599  0.3575 -0.3375  0.1728
 9122SOL    HW138828   0.546   3.384   3.573  1.5639  0.8483  1.2080
 9122SOL    HW238829   0.572   3.241   3.536 -1.7945  0.0922  0.6266
 9123SOL     OW38830   2.243   4.205  10.888 -0.1541 -0.3285 -0.0428
 9123SOL    HW138831   2.317   4.158  10.851 -1.1724 -0.8490 -1.4030
 9123SOL    HW238832   2.163   4.174  10.845 -0.8354  1.1794  0.1353
 9124SOL     OW38833   1.240   2.120   1.948 -0.2488  0.1944  0.7425
 9124SOL    HW138834   1.155   2.165   1.947  0.3037  1.1883 -0.6164
 9124SOL    HW238835   1.260   2.118   2.042 -0.0862 -1.2022  0.6861
 9125SOL     OW38836   0.403   2.921  16.109  0.2582 -0.6330 -0.0582
 9125SOL    HW138837   0.494   2.922  16.137  0.5481  1.1511 -1.1419
 9125SOL    HW238838   0.416   2.957  16.022  0.3013 -0.5737 -0.0273
 9126SOL     OW38839   3.353   1.306   4.812 -0.2686  0.1935  0.0657
 9126SOL    HW138840   3.297   1.238   4.849 -3.4144  2.2239 -0.9347
 9126SOL    HW238841   3.441   1.272   4.826 -0.3755 -0.5262 -1.0322
 9127SOL     OW38842   3.683   3.849   7.238  0.0275 -0.0552 -0.1657
 9127SOL    HW138843   3.651   3.820   7.324  1.0851 -1.9478 -0.4280
 9127SOL    HW238844   3.603   3.867   7.188  0.1917 -0.1162 -0.4459
 9128SOL     OW38845   4.126   4.564   8.181  0.9512 -0.0767 -0.0708
 9128SOL    HW138846   4.044   4.564   8.132  0.6393 -1.4055  0.4520
 9128SOL    HW238847   4.104   4.521   8.264 -2.8063  2.1662  0.0775
 9129SOL     OW38848   1.059   3.932   9.662 -0.8615 -0.4628  0.7460
 9129SOL    HW138849   1.134   3.910   9.717 -1.2573  1.2672  1.9784
 9129SOL    HW238850   1.089   3.992   9.594  2.2287 -2.3229  0.4992
 9130SOL     OW38851   0.379   2.944  15.559  0.4642 -0.2729  0.4765
 9130SOL    HW138852   0.322   3.016  15.530  1.5982  0.6654  0.6112
 9130SOL    HW238853   0.415   2.921  15.473 -1.0288  1.1946 -0.5405
 9131SOL     OW38854   1.191   4.228   5.093  0.2291 -0.0267 -0.2547
 9131SOL    HW138855   1.260   4.164   5.075 -0.2362 -0.7410  0.5137
 9131SOL    HW238856   1.228   4.306   5.052 -0.8945  0.6330 -0.0049
 9132SOL     OW38857   3.610   0.334   6.095  0.4087 -0.0960  0.1818
 9132SOL    HW138858   3.541   0.395   6.123  0.3032  0.1669 -0.6645
 9132SOL    HW238859   3.679   0.393   6.064  1.9489 -1.3296  1.2390
 9133SOL     OW38860   4.416   1.326   3.514 -0.9305 -0.0059  0.0798
 9133SOL    HW138861   4.489   1.320   3.576 -1.2823  1.0360  0.5807
 9133SOL    HW238862   4.438   1.266   3.442 -1.1976 -1.0219  0.8399
 9134SOL     OW38863   2.223   0.528   5.512  0.1671 -0.0580  0.8968
 9134SOL    HW138864   2.246   0.618   5.489 -0.9092 -0.0609 -0.2199
 9134SOL    HW238865   2.261   0.485   5.435  1.8220 -0.6343  2.0319
 9135SOL     OW38866   1.972   1.447   8.205 -0.3811 -0.1912  0.0952
 9135SOL    HW138867   2.020   1.399   8.138  1.3913  0.4177  0.9317
 9135SOL    HW238868   1.997   1.404   8.287  3.5656  1.6797 -0.1481
 9136SOL     OW38869   2.272   0.165   5.684 -0.3272 -0.1078 -0.0054
 9136SOL    HW138870   2.272   0.103   5.758  0.2734  0.4187  0.4299
 9136SOL    HW238871   2.177   0.168   5.671 -0.4068  0.0651  0.6259
 9137SOL     OW38872   3.983   2.856  17.140 -0.1011 -0.3589  0.3334
 9137SOL    HW138873   3.972   2.777  17.193 -1.5355 -1.2321 -1.2483
 9137SOL    HW238874   3.956   2.820  17.055 -0.1242 -0.6667  0.4722
 9138SOL     OW38875   0.800   4.415   2.368  0.5483  0.5261  0.0035
 9138SOL    HW138876   0.791   4.438   2.460  3.8491 -4.2301  1.5346
 9138SOL    HW238877   0.802   4.319   2.377 -0.2708  0.6586  1.6088
 9139SOL     OW38878   3.353   1.310  11.632 -0.0692  0.1608 -0.1313
 9139SOL    HW138879   3.354   1.327  11.538 -1.7775 -0.2945 -0.2306
 9139SOL    HW238880   3.442   1.331  11.661  0.2221  1.4239 -1.9461
 9140SOL     OW38881   3.116   1.210  17.044 -0.0180 -0.6050  0.1767
 9140SOL    HW138882   3.137   1.300  17.068  0.3096 -0.7571  0.4641
 9140SOL    HW238883   3.204   1.173  17.041  1.2105  2.2770  0.3376
 9141SOL     OW38884   0.024   4.094  16.802  0.4338  0.1142 -0.3711
 9141SOL    HW138885   0.118   4.104  16.813  0.4238 -0.3856  0.2161
 9141SOL    HW238886   0.010   4.049  16.886  3.5476  1.0976  0.6492
 9142SOL     OW38887   2.835   3.153   7.450  0.2205  0.3060 -0.4153
 9142SOL    HW138888   2.927   3.155   7.475 -0.4259  0.2598  2.0078
 9142SOL    HW238889   2.791   3.205   7.518 -0.6065 -0.1204 -0.6188
 9143SOL     OW38890   4.154   4.445   4.467 -0.2024 -0.0685  0.2707
 9143SOL    HW138891   4.072   4.490   4.484 -1.0814 -1.4808 -0.2146
 9143SOL    HW238892   4.174   4.479   4.380  0.0548  0.1450  0.4123
 9144SOL     OW38893   3.002   2.187   1.501 -0.0677 -0.3121 -0.1775
 9144SOL    HW138894   2.980   2.220   1.588 -0.2115  0.5917 -0.5569
 9144SOL    HW238895   3.067   2.253   1.477  0.5349 -1.6207 -2.2182
 9145SOL     OW38896   1.390   4.721   6.177  0.0075  0.0167  0.0033
 9145SOL    HW138897   1.465   0.057   6.193  1.0825 -1.2895 -0.4351
 9145SOL    HW238898   1.343   0.027   6.256  1.6706  0.8156  0.7073
 9146SOL     OW38899   1.880   3.387  10.013 -0.1999  0.3257  0.4857
 9146SOL    HW138900   1.848   3.379   9.923 -0.4453  1.5781  0.4624
 9146SOL    HW238901   1.849   3.303  10.047 -0.4495 -0.0131 -0.5707
 9147SOL     OW38902   3.287   1.018   6.921  0.1299 -0.0184 -0.0667
 9147SOL    HW138903   3.325   1.016   6.833 -1.2914 -0.8199 -0.6624
 9147SOL    HW238904   3.363   1.004   6.977 -0.0058  0.5148  0.2543
 9148SOL     OW38905   3.824   1.917  10.835  0.2424 -0.0645 -0.4091
 9148SOL    HW138906   3.766   1.919  10.759 -0.8510 -0.7870  0.4127
 9148SOL    HW238907   3.780   1.854  10.892 -0.9420  0.4704 -0.7472
 9149SOL     OW38908   2.891   0.668   2.970 -0.1522 -0.2339  0.4593
 9149SOL    HW138909   2.891   0.724   2.892  0.0447 -0.8220  0.0371
 9149SOL    HW238910   2.985   0.676   2.988 -0.3017 -0.2949  1.2240
 9150SOL     OW38911   1.235   2.453   6.204  0.2624 -0.3356  0.1690
 9150SOL    HW138912   1.278   2.522   6.153 -2.5102  2.4200  1.5828
 9150SOL    HW238913   1.294   2.378   6.192  0.7781  0.5588 -3.0078
 9151SOL     OW38914   2.915   4.446   7.301  0.3134  0.9673  0.1133
 9151SOL    HW138915   2.858   4.369   7.294  0.4331  0.9798 -1.0308
 9151SOL    HW238916   2.854   4.507   7.343 -0.6783  0.1949 -0.2135
 9152SOL     OW38917   3.857   2.036   8.469  0.4425 -0.5136  0.4852
 9152SOL    HW138918   3.859   2.105   8.536 -0.4324  0.3714 -0.3941
 9152SOL    HW238919   3.844   2.084   8.387  1.0988  0.0431  0.6974
 9153SOL     OW38920   3.887   2.434   2.673 -0.0594 -0.5123  0.2990
 9153SOL    HW138921   3.810   2.378   2.658 -2.3879  3.2370 -1.7585
 9153SOL    HW238922   3.843   2.505   2.721  0.2083 -1.2943  1.7012
 9154SOL     OW38923   3.579   2.842   2.323  0.6761  0.1664 -0.3950
 9154SOL    HW138924   3.517   2.771   2.338 -0.7606  1.5057  0.1572
 9154SOL    HW238925   3.603   2.813   2.236  1.8575 -3.1399  1.0253
 9155SOL     OW38926   4.077   3.964   5.849  0.0503 -0.1916 -0.7829
 9155SOL    HW138927   4.099   4.041   5.797 -3.1076 -0.1401 -2.0424
 9155SOL    HW238928   4.110   3.995   5.933  0.9117 -0.2991 -1.0813
 9156SOL     OW38929   2.153   3.474   5.916 -0.2796 -0.4411 -0.2771
 9156SOL    HW138930   2.156   3.379   5.907 -0.6655 -0.0641 -4.4811
 9156SOL    HW238931   2.072   3.479   5.968  1.0035  0.2639  1.6597
 9157SOL     OW38932   3.491   2.427  10.843  0.1729 -0.6015  0.3750
 9157SOL    HW138933   3.571   2.470  10.875 -0.0376  0.1993 -0.1635
 9157SOL    HW238934   3.417   2.485  10.858  1.5848  0.8885  1.5231
 9158SOL     OW38935   0.462   3.227   4.614 -0.1396  0.3191  0.2128
 9158SOL    HW138936   0.386   3.186   4.572 -0.1864  0.4186  0.2007
 9158SOL    HW238937   0.438   3.320   4.614  1.4593  0.7308 -0.0215
 9159SOL     OW38938   2.623   3.512  13.277  0.0475  0.1278  0.1565
 9159SOL    HW138939   2.633   3.491  13.371  1.6812  0.0109 -0.0353
 9159SOL    HW238940   2.530   3.529  13.263  0.1429  0.4811 -0.0310
 9160SOL     OW38941   4.452   4.334  14.207 -0.8264 -0.4244 -0.0786
 9160SOL    HW138942   4.412   4.406  14.158  1.1633  0.6091 -0.1902
 9160SOL    HW238943   4.380   4.271  14.213 -0.6986 -0.4135  1.7494
 9161SOL     OW38944   0.294   1.261   7.061 -0.5104  0.1776  0.4413
 9161SOL    HW138945   0.242   1.192   7.019 -1.8354  1.4641 -0.0541
 9161SOL    HW238946   0.232   1.298   7.125 -1.9440  0.4979 -1.1365
 9162SOL     OW38947   3.523   4.206  12.061  0.3278 -0.2071  0.0149
 9162SOL    HW138948   3.481   4.284  12.026  3.4151  1.7567  0.6681
 9162SOL    HW238949   3.545   4.236  12.150  0.6021  1.9473 -0.7914
 9163SOL     OW38950   2.479   4.670   0.309 -0.2720  0.2850  0.9040
 9163SOL    HW138951   2.484   4.678   0.404  1.3543  3.0120  0.5728
 9163SOL    HW238952   2.564   4.707   0.286 -0.6342  0.6648  0.1766
 9164SOL     OW38953   2.484   2.664  15.525  0.1987 -0.0063 -0.1234
 9164SOL    HW138954   2.578   2.648  15.511  1.0216  1.4414  3.5529
 9164SOL    HW238955   2.450   2.580  15.494  0.1060 -0.4931  1.3140
 9165SOL     OW38956   2.699   2.534   4.573 -0.4215 -0.1133  0.6017
 9165SOL    HW138957   2.659   2.464   4.625 -2.3877  1.9507  1.8539
 9165SOL    HW238958   2.626   2.595   4.564 -0.2201  0.3471  2.1418
 9166SOL     OW38959   1.545   1.101   3.152 -0.0387 -0.2966  0.5183
 9166SOL    HW138960   1.625   1.128   3.196  0.6917  0.4442 -1.2630
 9166SOL    HW238961   1.485   1.127   3.222 -0.7826  3.0999 -1.3828
 9167SOL     OW38962   1.725   2.034   2.855  0.2114  0.2350 -0.5116
 9167SOL    HW138963   1.672   2.105   2.819  1.0995  1.2478  0.2152
 9167SOL    HW238964   1.803   2.086   2.872 -0.4503  1.2678 -0.6032
 9168SOL     OW38965   2.098   0.245   8.714 -0.2251 -0.0927  0.3048
 9168SOL    HW138966   2.098   0.338   8.737 -0.5320 -0.0758  0.2276
 9168SOL    HW238967   2.077   0.201   8.797 -3.4838  3.5566  1.4093
 9169SOL     OW38968   1.223   3.482   2.421 -0.0847 -0.1232 -0.0911
 9169SOL    HW138969   1.143   3.447   2.384  0.2151 -1.2375  0.3246
 9169SOL    HW238970   1.269   3.512   2.342  0.8950  0.3033  0.6478
 9170SOL     OW38971   1.949   3.098   6.962 -0.0984  0.3808 -1.0584
 9170SOL    HW138972   1.998   3.181   6.970 -1.0026  0.9206 -1.1632
 9170SOL    HW238973   1.940   3.096   6.866  1.0119 -0.8051 -1.1469
 9171SOL     OW38974   2.617   3.397   0.011 -0.0681  0.0409 -0.3965
 9171SOL    HW138975   2.570   3.480   0.015  0.8108  0.4293  2.1126
 9171SOL    HW238976   2.576   3.368  17.617 -1.1630 -1.2408  0.5960
 9172SOL     OW38977   3.188   0.824   9.332  0.0332  0.3122 -0.2887
 9172SOL    HW138978   3.118   0.876   9.292 -2.0247 -0.8642  1.7176
 9172SOL    HW238979   3.266   0.878   9.330 -1.6374  2.6286 -2.6618
 9173SOL     OW38980   1.380   4.702   9.739 -0.2413 -0.4803 -0.0857
 9173SOL    HW138981   1.302   4.647   9.735 -0.0363 -0.9782  2.9633
 9173SOL    HW238982   1.449   4.657   9.690 -0.3164  1.1954 -1.7182
 9174SOL     OW38983   2.174   3.279   7.803 -0.3513  0.0527 -0.1992
 9174SOL    HW138984   2.098   3.337   7.807 -0.9851 -0.7457 -0.5466
 9174SOL    HW238985   2.218   3.298   7.886 -1.0268  0.8876 -0.0315
 9175SOL     OW38986   3.605   3.403   8.903 -0.5476 -0.4593  0.6536
 9175SOL    HW138987   3.550   3.480   8.914 -0.2468 -0.2149  0.4431
 9175SOL    HW238988   3.593   3.391   8.809 -0.1839 -1.4131  0.7242
 9176SOL     OW38989   2.101   1.751   3.240 -0.5702  0.2096  0.3673
 9176SOL    HW138990   2.036   1.812   3.204  1.0606  1.2058 -0.9236
 9176SOL    HW238991   2.091   1.764   3.334  2.5422 -0.0815  0.7341
 9177SOL     OW38992   2.367   1.751  15.137  0.3641  0.2865  0.0489
 9177SOL    HW138993   2.389   1.722  15.226  2.0161 -1.5924 -0.9651
 9177SOL    HW238994   2.271   1.743  15.138  0.2957  1.2437  1.7894
 9178SOL     OW38995   2.817   3.498   6.460 -0.2635 -0.4068 -0.1689
 9178SOL    HW138996   2.806   3.571   6.521  1.3483  0.8821 -1.4143
 9178SOL    HW238997   2.908   3.509   6.431 -1.0344  1.3660 -1.8965
 9179SOL     OW38998   0.469   0.329   8.807  0.5494  0.0569 -0.3438
 9179SOL    HW138999   0.482   0.313   8.714 -1.5748  1.4568 -0.8542
 9179SOL    HW239000   0.562   0.342   8.828  0.3145  0.8325  0.2374
 9180SOL     OW39001   2.734   0.696   6.050 -0.4329 -0.0448 -0.5251
 9180SOL    HW139002   2.807   0.639   6.073 -0.8603 -0.8901 -1.3085
 9180SOL    HW239003   2.747   0.721   5.959  1.2816  3.2479  0.6171
 9181SOL     OW39004   4.149   3.100   1.840 -0.3163  0.0119 -0.3247
 9181SOL    HW139005   4.220   3.060   1.789 -0.5405 -1.1655  0.2888
 9181SOL    HW239006   4.180   3.190   1.855 -0.4339 -0.2097  1.2408
 9182SOL     OW39007   2.780   1.716   1.018 -0.6363 -0.2689 -0.4949
 9182SOL    HW139008   2.724   1.788   0.989  0.4551 -0.3717 -2.8220
 9182SOL    HW239009   2.791   1.719   1.113  0.5210 -1.3464 -0.5907
 9183SOL     OW39010   2.236   0.022   8.948  0.2990 -0.0815 -0.4492
 9183SOL    HW139011   2.178   0.078   9.000  0.3872 -0.2781 -0.1417
 9183SOL    HW239012   2.315   0.027   9.002  0.4498  0.9299 -0.7534
 9184SOL     OW39013   3.321   1.663   1.306  0.3519  0.1392 -0.0789
 9184SOL    HW139014   3.292   1.724   1.374  0.3010  0.7876 -0.6828
 9184SOL    HW239015   3.408   1.696   1.281 -0.1329  2.5830  1.5497
 9185SOL     OW39016   1.648   3.055   0.790 -0.1126 -0.0076  0.6596
 9185SOL    HW139017   1.703   3.031   0.715 -0.2186  0.4367  0.4331
 9185SOL    HW239018   1.707   3.035   0.862  2.2035  0.1993 -1.1876
 9186SOL     OW39019   2.821   0.744   3.950  0.2617 -0.3129  0.1413
 9186SOL    HW139020   2.891   0.782   3.898  1.7676 -2.8128  0.3234
 9186SOL    HW239021   2.745   0.794   3.921 -0.5490 -1.2358  0.6481
 9187SOL     OW39022   3.661   0.713   2.559 -0.2628  0.0329 -0.2007
 9187SOL    HW139023   3.582   0.671   2.526 -0.4890  0.9638 -0.8235
 9187SOL    HW239024   3.727   0.649   2.533 -1.8669 -1.6760 -0.0471
 9188SOL     OW39025   0.908   0.192   3.078  0.6440 -0.6890  0.1287
 9188SOL    HW139026   0.962   0.220   3.153  2.3792 -0.9126 -1.0326
 9188SOL    HW239027   0.943   0.104   3.062 -0.0119 -0.7180 -1.1434
 9189SOL     OW39028   3.601   2.546  13.383 -0.5107 -0.5218 -0.5458
 9189SOL    HW139029   3.599   2.476  13.317  1.3316  0.1633 -1.3116
 9189SOL    HW239030   3.587   2.492  13.461  0.2558  1.8657  1.2351
 9190SOL     OW39031   2.203   3.624  13.399  0.1202 -0.4401 -0.4250
 9190SOL    HW139032   2.113   3.658  13.395  0.4410  0.5416  0.6466
 9190SOL    HW239033   2.240   3.678  13.468  1.9627 -1.2879 -0.7579
 9191SOL     OW39034   3.890   0.394   4.465  0.0612  0.6248  0.2658
 9191SOL    HW139035   3.851   0.372   4.550 -0.4667 -2.1261 -0.6783
 9191SOL    HW239036   3.828   0.461   4.436 -0.8437 -0.1653  0.3519
 9192SOL     OW39037   4.370   2.445  15.265  0.6556  0.6464 -0.0490
 9192SOL    HW139038   4.464   2.459  15.249  0.5476 -0.6215 -1.8324
 9192SOL    HW239039   4.356   2.351  15.252 -2.0613  1.0983 -0.3779
 9193SOL     OW39040   0.323   4.182   8.393 -0.2110 -0.3228 -0.1756
 9193SOL    HW139041   0.388   4.145   8.334  0.6308  0.7139  0.0940
 9193SOL    HW239042   0.344   4.275   8.408 -0.6385 -0.1661 -0.5613
 9194SOL     OW39043   4.361   3.140   8.688  0.1581  0.1280  0.1743
 9194SOL    HW139044   4.376   3.148   8.594 -0.1444 -0.0934  0.1052
 9194SOL    HW239045   4.445   3.108   8.721  0.7292  0.6392 -0.7753
 9195SOL     OW39046   3.674   2.160   8.788 -0.4037 -0.0556  0.0559
 9195SOL    HW139047   3.669   2.067   8.764  3.2847 -0.1642 -0.3586
 9195SOL    HW239048   3.583   2.178   8.810 -0.7135  0.6620 -1.8130
 9196SOL     OW39049   2.602   2.156   3.783  0.0281  0.9618  0.1931
 9196SOL    HW139050   2.673   2.195   3.731  0.5133 -1.0702 -0.6399
 9196SOL    HW239051   2.648   2.109   3.852 -0.2881 -0.5049 -0.6125
 9197SOL     OW39052   2.674   0.104   4.347  0.6810 -0.2821  0.0042
 9197SOL    HW139053   2.655   0.134   4.258  2.0921 -1.8326 -0.8025
 9197SOL    HW239054   2.697   0.193   4.374 -0.0310  0.5372 -2.0885
 9198SOL     OW39055   2.656   2.757   8.382  0.4506  0.0692  0.1176
 9198SOL    HW139056   2.679   2.848   8.361 -1.4645  0.8200  1.3299
 9198SOL    HW239057   2.737   2.728   8.425  1.5256  1.6404 -0.8115
 9199SOL     OW39058   4.231   0.626   3.483 -0.2549  0.1999  0.7359
 9199SOL    HW139059   4.227   0.638   3.388 -1.1999  1.2061  0.9078
 9199SOL    HW239060   4.314   0.578   3.494  0.1574  1.3628  2.6152
 9200SOL     OW39061   1.705   0.946  13.799  0.2199 -0.6527  0.9023
 9200SOL    HW139062   1.762   0.869  13.794  2.5765  1.1978 -0.3656
 9200SOL    HW239063   1.619   0.908  13.818 -1.0855  1.4349 -0.9308
 9201SOL     OW39064   1.546   1.455   2.447  0.3174  0.3089 -0.2783
 9201SOL    HW139065   1.630   1.488   2.415  0.2116  3.1560  2.3845
 9201SOL    HW239066   1.549   1.367   2.411  1.4915 -0.3872  1.5314
 9202SOL     OW39067   4.420   3.992   7.669  0.0130  0.1326 -0.5762
 9202SOL    HW139068   4.387   4.031   7.588  0.7338 -0.9854 -1.4028
 9202SOL    HW239069   4.363   3.916   7.676 -0.7474  0.6882 -0.7136
 9203SOL     OW39070   1.643   2.120   4.928  0.3103  0.0425 -0.2459
 9203SOL    HW139071   1.570   2.167   4.889  1.2940  0.8185 -1.1385
 9203SOL    HW239072   1.639   2.037   4.882  1.4565 -0.8597  1.2498
 9204SOL     OW39073   4.515   0.838  11.630  0.6265 -0.3354  0.0983
 9204SOL    HW139074   4.436   0.891  11.629  1.0444  0.3295  2.7089
 9204SOL    HW239075   4.479   0.753  11.603 -1.5414  0.5390  0.3069
 9205SOL     OW39076   3.826   4.408   2.748 -0.0786  0.3257 -0.1701
 9205SOL    HW139077   3.822   4.418   2.843 -0.5925 -1.2271 -0.0109
 9205SOL    HW239078   3.920   4.413   2.734  0.0391 -1.4614 -0.1189
 9206SOL     OW39079   0.343   1.157  13.616 -0.2895  0.3093 -0.5874
 9206SOL    HW139080   0.372   1.106  13.692 -1.2371  1.3564  0.4650
 9206SOL    HW239081   0.390   1.238  13.636 -0.2011  0.2162 -0.4113
 9207SOL     OW39082   1.288   2.756   7.531  0.2195 -0.0762  0.1916
 9207SOL    HW139083   1.261   2.696   7.462  1.4370 -0.2009 -0.1808
 9207SOL    HW239084   1.209   2.800   7.562  1.4600  3.1455 -1.2221
 9208SOL     OW39085   1.098   1.757   9.804 -0.3088  0.4660  0.4918
 9208SOL    HW139086   1.075   1.799   9.887  2.3282 -0.2599  1.6070
 9208SOL    HW239087   1.178   1.802   9.777  0.3881 -0.8299  0.4217
 9209SOL     OW39088   1.078   0.078   8.750 -0.5598  0.3057  0.2570
 9209SOL    HW139089   1.026   0.006   8.713 -2.0248  2.4439 -1.8036
 9209SOL    HW239090   1.129   0.036   8.819 -0.3428 -0.5431 -0.4093
 9210SOL     OW39091   0.088   0.632   5.555  0.4950  0.2460 -0.5504
 9210SOL    HW139092   0.168   0.589   5.584 -0.2153 -1.1590 -0.6868
 9210SOL    HW239093   0.056   0.672   5.636 -0.9817 -2.6464  0.2595
 9211SOL     OW39094   4.569   1.129   4.091 -0.7749 -0.0426  0.1285
 9211SOL    HW139095   4.610   1.094   4.012  0.3430  0.0941  0.6500
 9211SOL    HW239096   4.479   1.109   4.063 -1.1211 -0.6926  1.6839
 9212SOL     OW39097   0.988   3.948   8.206 -0.5752  0.0763  0.0868
 9212SOL    HW139098   0.938   3.879   8.163  0.3238 -0.4145 -0.1622
 9212SOL    HW239099   1.074   3.908   8.214 -0.0588  0.9168 -1.2119
 9213SOL     OW39100   2.474   3.824   0.275 -0.5397  0.1594  0.5644
 9213SOL    HW139101   2.420   3.798   0.349 -1.1204  0.2618  0.1827
 9213SOL    HW239102   2.453   3.753   0.214  1.1969 -2.0424  2.5815
 9214SOL     OW39103   3.819   0.288   7.676 -0.3561  0.3412  0.4771
 9214SOL    HW139104   3.862   0.304   7.592 -2.2883  2.2858 -0.1423
 9214SOL    HW239105   3.843   0.370   7.719  0.2719  1.8876 -2.8414
 9215SOL     OW39106   4.486   1.623   4.478 -0.2548  0.3655  0.4266
 9215SOL    HW139107   4.443   1.542   4.503 -2.4156  1.1335 -0.8244
 9215SOL    HW239108   4.462   1.690   4.542  1.6835  1.9897 -0.5313
 9216SOL     OW39109   2.881   1.718   8.603 -0.4211  0.1208 -0.0394
 9216SOL    HW139110   2.973   1.725   8.631 -0.2331 -1.1820 -0.3338
 9216SOL    HW239111   2.861   1.630   8.637 -1.1758  0.4235  0.3008
 9217SOL     OW39112   2.342   2.829   3.951  0.0501  0.1055  0.2901
 9217SOL    HW139113   2.371   2.815   3.861 -1.4402  0.8162 -0.2945
 9217SOL    HW239114   2.336   2.738   3.979  1.1232 -0.4665 -1.3339
 9218SOL     OW39115   2.181   4.643   8.152  0.1563  0.6682 -0.2263
 9218SOL    HW139116   2.227   0.004   8.165 -0.0946  0.7639  0.0634
 9218SOL    HW239117   2.187   4.617   8.060 -1.5678 -1.9106  0.3847
 9219SOL     OW39118   4.241   0.281   5.821  0.1079  0.4023  0.3534
 9219SOL    HW139119   4.209   0.208   5.873  0.4619  0.7786  1.0900
 9219SOL    HW239120   4.332   0.249   5.823 -0.4987 -1.2417  1.7235
 9220SOL     OW39121   4.206   4.462   3.016 -0.7125 -0.2144  0.3104
 9220SOL    HW139122   4.282   4.407   2.997 -0.8268 -0.1371 -0.3589
 9220SOL    HW239123   4.244   4.550   3.021 -0.0653 -0.5309  1.0350
 9221SOL     OW39124   4.488   2.654  17.473 -0.5768 -0.7029 -0.1964
 9221SOL    HW139125   4.477   2.612  17.388  0.0635 -0.7452 -0.2619
 9221SOL    HW239126   4.547   2.593  17.517  0.2058 -0.3884 -0.8213
 9222SOL     OW39127   4.347   1.725   4.008 -0.5470  0.3135  0.2160
 9222SOL    HW139128   4.390   1.662   4.065  0.7665 -1.5912 -2.8937
 9222SOL    HW239129   4.416   1.788   3.987  1.6478 -1.8093  1.1593
 9223SOL     OW39130   1.923   0.509   3.253 -0.2332  0.0065  0.1995
 9223SOL    HW139131   1.943   0.559   3.333  1.7227  0.1342 -0.3861
 9223SOL    HW239132   1.920   0.583   3.192  1.4537  0.7357  1.0099
 9224SOL     OW39133   0.793   3.064  10.832  0.5753 -0.0964  0.1014
 9224SOL    HW139134   0.870   3.107  10.869 -0.4439 -1.5741  3.9313
 9224SOL    HW239135   0.740   3.050  10.911 -0.0152  1.8824  0.0617
 9225SOL     OW39136   0.245   4.149   7.640 -0.2019 -0.6476  0.0197
 9225SOL    HW139137   0.273   4.200   7.564 -0.2189 -0.7669 -0.0664
 9225SOL    HW239138   0.182   4.203   7.688 -0.1529  1.3226 -2.1251
 9226SOL     OW39139   2.760   0.801   1.940  0.1359 -0.9024 -0.3201
 9226SOL    HW139140   2.759   0.770   2.030  2.0674  0.1620  0.0684
 9226SOL    HW239141   2.667   0.803   1.919 -0.1113 -4.6413  0.3930
 9227SOL     OW39142   0.139   1.652  17.573  0.0821  0.3106 -0.2671
 9227SOL    HW139143   0.165   1.634  17.663 -0.1322  1.0992 -0.0516
 9227SOL    HW239144   0.192   1.587  17.526  0.8007  0.0610  0.8869
 9228SOL     OW39145   1.215   0.532   3.157  0.5856 -0.0444 -0.0258
 9228SOL    HW139146   1.226   0.495   3.069 -1.2903 -0.4183 -0.1057
 9228SOL    HW239147   1.214   0.458   3.218 -0.8043 -0.3601 -0.4322
 9229SOL     OW39148   3.952   3.432   1.945  0.6488 -0.1747 -0.7194
 9229SOL    HW139149   3.974   3.404   2.034 -0.4646 -4.2967 -1.7619
 9229SOL    HW239150   3.870   3.479   1.962  0.9465 -0.0171  0.2962
 9230SOL     OW39151   2.225   3.438  17.496 -0.2276 -0.7251 -0.6422
 9230SOL    HW139152   2.148   3.385  17.472 -0.1084  0.0917 -2.8954
 9230SOL    HW239153   2.184   3.502  17.553  1.2507  1.0296 -1.5550
 9231SOL     OW39154   3.038   3.492  17.189 -0.6236  0.5542 -0.4375
 9231SOL    HW139155   2.986   3.539  17.254 -0.6208  0.0578 -0.0742
 9231SOL    HW239156   3.018   3.527  17.102  0.4125 -5.1855 -2.9890
 9232SOL     OW39157   0.362   3.991   8.643  0.2238  0.0939 -0.0753
 9232SOL    HW139158   0.441   3.962   8.598  0.0413 -2.1320  1.0049
 9232SOL    HW239159   0.314   4.027   8.569  1.9702 -0.3103 -1.3901
 9233SOL     OW39160   4.035   4.137  17.537  0.0423  0.3497  0.6409
 9233SOL    HW139161   4.020   4.082  17.460 -0.8346 -0.5272  1.4562
 9233SOL    HW239162   4.060   4.077  17.607  0.8016  1.5399  1.3965
 9234SOL     OW39163   0.407   3.999  17.409 -0.5390 -0.4661  0.1058
 9234SOL    HW139164   0.474   3.974  17.472 -1.1792  0.5655  1.1893
 9234SOL    HW239165   0.374   4.078  17.451 -0.9363 -0.6461  0.1379
 9235SOL     OW39166   2.549   3.328  12.369 -0.1393 -0.5883  0.8491
 9235SOL    HW139167   2.454   3.316  12.370 -0.0721 -0.9686  1.6840
 9235SOL    HW239168   2.575   3.289  12.285  2.2852  0.3122  1.1834
 9236SOL     OW39169   3.433   1.491   0.907 -0.1969  0.1670  0.6026
 9236SOL    HW139170   3.363   1.429   0.886  0.1337 -0.3747  1.0831
 9236SOL    HW239171   3.389   1.573   0.926  1.8428  1.0621  1.5180
 9237SOL     OW39172   3.373   3.461   3.316  0.2781 -0.2521 -0.2615
 9237SOL    HW139173   3.434   3.404   3.270 -0.6114 -1.0193 -0.4931
 9237SOL    HW239174   3.295   3.464   3.261 -0.6740  1.0793  1.1319
 9238SOL     OW39175   0.119   2.418   8.003 -0.0830 -0.0389  0.3846
 9238SOL    HW139176   0.110   2.390   8.094 -0.4958 -3.2426 -0.6360
 9238SOL    HW239177   0.036   2.385   7.970 -1.3304  0.6960  2.8492
 9239SOL     OW39178   3.688   3.755   8.760  0.0484  0.4245  0.2167
 9239SOL    HW139179   3.732   3.813   8.823  2.0867 -1.4487  0.5335
 9239SOL    HW239180   3.699   3.803   8.678 -0.0678 -0.1238 -0.1192
 9240SOL     OW39181   4.472   4.073  11.756  0.3236  0.3474  0.2922
 9240SOL    HW139182   4.559   4.058  11.719 -0.2649 -1.8209 -0.2120
 9240SOL    HW239183   4.436   3.984  11.754  0.8666  0.1735 -1.6911
 9241SOL     OW39184   2.157   4.333   8.254  0.3794  0.5865 -0.4649
 9241SOL    HW139185   2.072   4.298   8.280 -0.5477  0.9361 -3.0009
 9241SOL    HW239186   2.137   4.426   8.265  1.0530  0.7050 -0.2934
 9242SOL     OW39187   3.319   1.734   2.422  0.4388 -0.1867 -0.3991
 9242SOL    HW139188   3.333   1.640   2.439  1.4981  0.1017  0.3365
 9242SOL    HW239189   3.410   1.759   2.404  0.2350  1.2303  0.5763
 9243SOL     OW39190   3.450   0.414   7.998  0.7599  0.1014 -0.1567
 9243SOL    HW139191   3.482   0.327   8.022  0.5885 -0.1716 -0.9216
 9243SOL    HW239192   3.357   0.416   7.973  0.8597  2.9883 -0.2080
 9244SOL     OW39193   2.720   4.265   7.239  0.2495 -0.0430 -0.3185
 9244SOL    HW139194   2.628   4.291   7.236 -0.2583 -1.5817  1.7589
 9244SOL    HW239195   2.726   4.171   7.256  3.3685  0.1309 -0.5668
 9245SOL     OW39196   3.599   3.585   5.062  0.0871 -0.6439 -0.3195
 9245SOL    HW139197   3.566   3.661   5.015  0.2359 -0.1352  0.3995
 9245SOL    HW239198   3.686   3.614   5.089  1.0876 -3.3253 -0.6908
 9246SOL     OW39199   0.691   1.848   7.172  0.5469  0.7510  0.0873
 9246SOL    HW139200   0.691   1.781   7.241  0.1224  1.2852  0.5963
 9246SOL    HW239201   0.751   1.909   7.215  2.9617 -1.4228 -0.1257
 9247SOL     OW39202   3.126   1.530   7.378 -0.6771  0.1901 -0.3562
 9247SOL    HW139203   3.134   1.526   7.283 -0.9768  0.1830 -0.3830
 9247SOL    HW239204   3.085   1.616   7.386  0.8057  0.9468 -1.0660
 9248SOL     OW39205   2.367   1.702   4.554 -0.0983  0.0394  0.2988
 9248SOL    HW139206   2.402   1.788   4.579  2.6030 -1.0845  0.3600
 9248SOL    HW239207   2.325   1.737   4.476 -1.1406  1.8009  1.6360
 9249SOL     OW39208   4.350   4.234   6.993  0.1640  0.1983  0.2424
 9249SOL    HW139209   4.304   4.151   6.983 -0.8079  0.9266 -1.5137
 9249SOL    HW239210   4.356   4.247   7.087 -2.1600 -0.4863  0.4804
 9250SOL     OW39211   2.543   4.552   8.605 -0.2268  0.1352  0.0414
 9250SOL    HW139212   2.547   4.621   8.671  0.6199 -0.5003  0.6643
 9250SOL    HW239213   2.463   4.507   8.635 -1.2833 -0.6286 -3.9873
 9251SOL     OW39214   1.907   3.538   6.013  0.2358 -0.5483  0.0554
 9251SOL    HW139215   1.832   3.535   6.072  1.5209 -0.1203  1.6845
 9251SOL    HW239216   1.877   3.580   5.932 -1.0582 -2.7270 -0.6139
 9252SOL     OW39217   0.065   2.204  17.639  0.2487  0.1981 -0.4129
 9252SOL    HW139218   0.077   2.183   0.044  0.1856 -1.0939 -0.7121
 9252SOL    HW239219   0.048   2.118  17.602  1.8348 -1.7294  3.3599
 9253SOL     OW39220   2.938   3.114   3.534  0.3589  0.0326 -0.4214
 9253SOL    HW139221   3.030   3.097   3.514  0.1329 -1.4139 -0.2235
 9253SOL    HW239222   2.906   3.030   3.502  1.1120 -0.1001 -0.8210
 9254SOL     OW39223   3.490   4.193   8.880  0.4985  0.0185  0.3906
 9254SOL    HW139224   3.468   4.105   8.847  0.7344  0.6853 -1.5556
 9254SOL    HW239225   3.499   4.179   8.974  0.4029  1.4445  0.5980
 9255SOL     OW39226   2.456   3.844   6.269  0.4788 -0.3629 -0.2202
 9255SOL    HW139227   2.462   3.755   6.304 -1.0178 -0.3304  0.0961
 9255SOL    HW239228   2.522   3.831   6.201  1.6861  1.6811  0.5684
 9256SOL     OW39229   0.343   0.336   6.133  0.3455 -0.2659  0.1792
 9256SOL    HW139230   0.364   0.354   6.225 -0.8917  1.6828  0.0884
 9256SOL    HW239231   0.346   0.240   6.138 -1.7826 -0.3427  0.1762
 9257SOL     OW39232   2.807   1.409   0.294 -0.5728 -0.4294 -0.7137
 9257SOL    HW139233   2.736   1.419   0.357  0.7698 -2.7832  1.2029
 9257SOL    HW239234   2.795   1.317   0.270  0.0585 -1.1438  1.6888
 9258SOL     OW39235   1.735   0.910  16.540  0.8393 -0.0445 -0.2625
 9258SOL    HW139236   1.700   0.959  16.614  0.4747 -1.5020  0.5363
 9258SOL    HW239237   1.657   0.857  16.525 -0.2895  1.3976  0.5887
 9259SOL     OW39238   3.543   2.738  10.472  0.0964  1.1211 -0.0858
 9259SOL    HW139239   3.485   2.691  10.533 -0.1898 -0.1212 -1.3216
 9259SOL    HW239240   3.481   2.785  10.417 -0.6541  0.4455  0.1817
 9260SOL     OW39241   0.260   1.881  15.701 -0.6943  0.0751  0.1669
 9260SOL    HW139242   0.238   1.831  15.622  0.4122 -0.0788 -0.0441
 9260SOL    HW239243   0.177   1.925  15.722 -0.1133  1.1789  0.1484
 9261SOL     OW39244   2.837   2.131   4.360 -0.2121 -0.3875 -0.2027
 9261SOL    HW139245   2.879   2.069   4.299  0.4318  0.7171 -0.8802
 9261SOL    HW239246   2.785   2.182   4.297  0.7702  0.1973 -0.5394
 9262SOL     OW39247   3.934   3.616  12.884 -0.1020 -0.1552 -0.0291
 9262SOL    HW139248   3.992   3.608  12.808 -2.0105  1.5331 -1.6683
 9262SOL    HW239249   3.860   3.566  12.850  0.9246 -1.7662  0.1224
 9263SOL     OW39250   4.634   3.005   2.620 -0.2705 -0.1221 -0.0274
 9263SOL    HW139251   4.610   2.941   2.552 -0.2082  1.7671 -1.8315
 9263SOL    HW239252   4.547   3.011   2.660  0.4662  2.3076  1.1916
 9264SOL     OW39253   0.060   3.553   2.271 -0.0935  0.5440  0.3236
 9264SOL    HW139254   0.009   3.496   2.213  1.0356 -0.2051  0.0680
 9264SOL    HW239255   0.024   3.634   2.235 -0.9146  0.5015  1.0550
 9265SOL     OW39256   1.639   0.646   6.126 -0.4540 -0.9201  0.6386
 9265SOL    HW139257   1.732   0.641   6.106 -0.3761  0.3089  0.7161
 9265SOL    HW239258   1.644   0.634   6.221 -0.0067  2.0441  0.9868
 9266SOL     OW39259   3.708   1.240   7.542  0.1045  0.1886 -0.2551
 9266SOL    HW139260   3.699   1.320   7.594 -0.6910 -0.7086  1.0000
 9266SOL    HW239261   3.780   1.267   7.485 -0.2323  0.4463 -0.5577
 9267SOL     OW39262   3.254   4.487   6.005 -0.5186 -0.1325 -0.1879
 9267SOL    HW139263   3.225   4.400   5.977 -0.5041 -0.4292  0.7310
 9267SOL    HW239264   3.283   4.527   5.922  0.4028 -0.9836 -0.2728
 9268SOL     OW39265   3.487   1.182   9.627  0.0311 -0.5608 -0.0476
 9268SOL    HW139266   3.490   1.263   9.576 -0.9112 -0.2221  0.4252
 9268SOL    HW239267   3.578   1.154   9.615  1.0941  2.5317  0.8134
 9269SOL     OW39268   0.494   0.810   4.295 -0.3256 -0.5718 -0.4089
 9269SOL    HW139269   0.537   0.861   4.363 -2.4585  0.1985  0.3462
 9269SOL    HW239270   0.402   0.835   4.303 -0.0596  0.0552  0.6585
 9270SOL     OW39271   2.497   0.295   2.174 -0.2593 -0.1142 -0.0912
 9270SOL    HW139272   2.417   0.245   2.188  0.5835 -1.4448 -0.0640
 9270SOL    HW239273   2.491   0.323   2.083 -1.6365 -0.6118 -0.1528
 9271SOL     OW39274   4.421   2.117   0.266  0.5539  0.4117  0.5638
 9271SOL    HW139275   4.501   2.066   0.279 -0.4814 -1.6614 -1.2737
 9271SOL    HW239276   4.383   2.058   0.201  1.1204 -1.0682  1.5571
 9272SOL     OW39277   3.316   1.516   2.783 -0.1189 -0.4720 -0.1416
 9272SOL    HW139278   3.248   1.458   2.816  1.4031 -1.4848  1.2187
 9272SOL    HW239279   3.276   1.603   2.775  1.6105  0.3768  0.3739
 9273SOL     OW39280   2.549   2.846   3.303  0.1320  0.1990  0.2345
 9273SOL    HW139281   2.476   2.800   3.262  0.6616 -0.2788 -0.1696
 9273SOL    HW239282   2.554   2.805   3.389  0.1830 -0.8017 -0.2474
 9274SOL     OW39283   0.957   3.053  14.883  0.0597 -0.4556  0.5249
 9274SOL    HW139284   0.992   3.142  14.874 -2.8998  0.4787 -1.4553
 9274SOL    HW239285   0.866   3.059  14.855 -0.3664 -0.5498  1.8797
 9275SOL     OW39286   4.655   1.451   4.799 -0.0088  0.4451 -0.3828
 9275SOL    HW139287   4.590   1.411   4.857  0.0925  2.0849  0.8469
 9275SOL    HW239288   0.013   1.433   4.851 -0.7391  2.7651  1.5414
 9276SOL     OW39289   1.637   1.452   3.245  0.0321  0.0244  0.0385
 9276SOL    HW139290   1.604   1.429   3.158  1.6131 -0.9367 -0.3037
 9276SOL    HW239291   1.687   1.532   3.227  1.0006 -0.4744  0.4850
 9277SOL     OW39292   3.310   3.619  14.239 -0.0812 -0.1287  0.1826
 9277SOL    HW139293   3.358   3.576  14.310  2.4086  0.2803 -1.2320
 9277SOL    HW239294   3.352   3.703  14.225  3.5629 -2.3080 -2.0625
 9278SOL     OW39295   4.102   1.501   3.614 -0.3181 -0.4581 -0.5675
 9278SOL    HW139296   4.183   1.547   3.593 -0.6277 -0.4875 -1.7723
 9278SOL    HW239297   4.149   1.435   3.666 -1.6033  0.3974  1.6862
 9279SOL     OW39298   3.511   0.763   5.655 -0.0187 -0.4139 -0.0446
 9279SOL    HW139299   3.587   0.768   5.713  0.2884  2.0690 -0.6427
 9279SOL    HW239300   3.456   0.831   5.695  2.0532  0.1266  1.9402
 9280SOL     OW39301   3.678   2.603  12.247 -0.2860  0.0592  0.4255
 9280SOL    HW139302   3.646   2.583  12.335  0.3321 -2.2707  0.1284
 9280SOL    HW239303   3.761   2.558  12.261 -1.4661 -2.2563 -0.0515
 9281SOL     OW39304   1.360   2.714   3.214  0.2931  0.3374  0.6361
 9281SOL    HW139305   1.384   2.806   3.226 -1.0626  0.9673 -1.4098
 9281SOL    HW239306   1.384   2.707   3.122  0.0176  0.9342  0.5165
 9282SOL     OW39307   2.538   3.580   6.223  0.7399  0.0128  0.3593
 9282SOL    HW139308   2.585   3.507   6.262  0.7550 -0.3801 -0.4008
 9282SOL    HW239309   2.562   3.573   6.131 -0.2426 -2.1501  0.2795
 9283SOL     OW39310   4.635   4.018   3.460 -0.6243 -0.2889  0.8419
 9283SOL    HW139311   4.647   4.051   3.370 -0.3878 -1.3274  0.4888
 9283SOL    HW239312   4.560   3.959   3.451  1.1677 -2.3349 -0.8376
 9284SOL     OW39313   3.886   0.600  13.058  0.4982  0.2090 -0.8663
 9284SOL    HW139314   3.818   0.645  13.007  1.4108 -0.0140 -2.2813
 9284SOL    HW239315   3.846   0.514  13.048  0.6224  0.2293 -1.5202
 9285SOL     OW39316   1.927   1.874   8.060 -0.1221  0.1999  0.5089
 9285SOL    HW139317   1.968   1.953   8.096  0.1988  0.3613 -0.2223
 9285SOL    HW239318   1.920   1.815   8.135 -0.7031 -0.0949  0.2217
 9286SOL     OW39319   1.511   1.775  10.765  0.2952  0.5056 -0.0594
 9286SOL    HW139320   1.544   1.860  10.736  0.9539  0.5777  0.8962
 9286SOL    HW239321   1.591   1.736  10.801 -0.2010  0.1322  0.6327
 9287SOL     OW39322   3.799   4.242   8.636  0.2901 -0.6621 -0.3170
 9287SOL    HW139323   3.733   4.297   8.679  0.4021 -0.1606 -0.7902
 9287SOL    HW239324   3.869   4.247   8.700  1.3212 -2.6034 -1.3041
 9288SOL     OW39325   0.524   4.311   8.999  0.4312  0.7734 -0.8838
 9288SOL    HW139326   0.594   4.342   9.056 -0.9709 -0.1520  1.3417
 9288SOL    HW239327   0.548   4.218   9.004 -3.5682 -0.2904 -1.0856
 9289SOL     OW39328   2.772   4.663   0.907  0.1971  0.2529 -0.2153
 9289SOL    HW139329   2.695   4.696   0.954 -0.6787 -0.7296 -0.9695
 9289SOL    HW239330   2.797   0.013   0.849  1.5363 -0.5144 -0.5687
 9290SOL     OW39331   2.724   0.738   2.203  0.2922  0.3581  0.1873
 9290SOL    HW139332   2.749   0.781   2.285 -0.7133 -1.0451  1.2209
 9290SOL    HW239333   2.660   0.671   2.228 -1.7490  1.8516 -1.0232
 9291SOL     OW39334   0.267   3.497   1.341 -0.0361  0.4562 -0.0574
 9291SOL    HW139335   0.232   3.460   1.260 -1.1650 -1.2867  1.2358
 9291SOL    HW239336   0.210   3.456   1.406 -1.9179  3.1684  0.0273
 9292SOL     OW39337   1.617   1.179   4.464 -0.9312  0.4025 -0.1006
 9292SOL    HW139338   1.701   1.175   4.509 -1.4411  0.6359  0.8679
 9292SOL    HW239339   1.570   1.225   4.533 -2.1881  0.4809 -0.9952
 9293SOL     OW39340   2.143   4.698   3.209 -0.2883 -0.3475 -0.2571
 9293SOL    HW139341   2.161   4.689   3.303 -4.2713 -0.9778  0.4614
 9293SOL    HW239342   2.051   4.675   3.200 -0.3163  0.1331 -1.1860
 9294SOL     OW39343   2.527   2.803  16.225  0.2996  0.6821 -0.2170
 9294SOL    HW139344   2.544   2.739  16.295  1.9007 -0.1929 -1.4000
 9294SOL    HW239345   2.569   2.752  16.155 -0.0039  1.8822 -1.2641
 9295SOL     OW39346   3.057   3.372   3.922 -0.8721 -0.4103 -0.2770
 9295SOL    HW139347   3.013   3.404   3.843  1.7456  0.8619 -1.2153
 9295SOL    HW239348   3.002   3.412   3.990 -1.0508  0.3594 -0.8768
 9296SOL     OW39349   4.686   4.620   4.237  0.7244  0.3336 -0.0381
 9296SOL    HW139350   0.017   4.681   4.185  0.7378  0.5897  0.2702
 9296SOL    HW239351   4.609   4.675   4.251  0.2567 -0.1719 -0.6324
 9297SOL     OW39352   2.770   1.743  12.095 -0.1617  0.0145  0.0249
 9297SOL    HW139353   2.777   1.745  12.191  1.8295 -0.6281 -0.1165
 9297SOL    HW239354   2.846   1.791  12.061  1.3821 -1.9811  0.6804
 9298SOL     OW39355   0.569   2.757   6.821  0.3399 -0.2916  0.1746
 9298SOL    HW139356   0.595   2.844   6.792  0.3849 -0.2957  0.2031
 9298SOL    HW239357   0.473   2.759   6.814  0.2776  1.4941  1.7484
 9299SOL     OW39358   3.085   0.576   9.222  0.1668 -0.9829 -0.0824
 9299SOL    HW139359   3.148   0.600   9.290 -2.0865  0.1746  1.6026
 9299SOL    HW239360   3.137   0.505   9.184 -0.1820 -2.3506  1.9667
 9300SOL     OW39361   4.171   2.712   4.439 -0.7283 -0.0390  1.1189
 9300SOL    HW139362   4.206   2.670   4.517 -1.2975  0.5527  1.6934
 9300SOL    HW239363   4.085   2.670   4.433 -1.7400  2.2285 -0.5342
 9301SOL     OW39364   3.427   2.057   8.697  0.3932  0.1314 -0.3959
 9301SOL    HW139365   3.370   2.131   8.677 -0.5057 -1.2576 -2.9197
 9301SOL    HW239366   3.458   2.026   8.612  2.5989  0.7527  0.1849
 9302SOL     OW39367   3.749   2.755   1.604  0.1038 -0.2250  0.4515
 9302SOL    HW139368   3.710   2.840   1.621  0.5843  0.2357 -0.7154
 9302SOL    HW239369   3.670   2.723   1.559 -0.8376  2.5979  0.1384
 9303SOL     OW39370   3.548   4.155   6.302  0.1973 -0.6103  0.2265
 9303SOL    HW139371   3.529   4.242   6.338  0.5665 -0.5990  0.3873
 9303SOL    HW239372   3.460   4.122   6.282  0.3377 -0.4699 -0.6292
 9304SOL     OW39373   1.724   0.095   6.934  0.0377  0.3668  0.2424
 9304SOL    HW139374   1.755   0.025   6.992  1.0028  0.2575 -0.4098
 9304SOL    HW239375   1.629   0.100   6.947 -0.2099  0.8717 -1.6900
 9305SOL     OW39376   0.243   0.326   3.375 -0.9290  0.1615 -0.0404
 9305SOL    HW139377   0.298   0.268   3.428 -0.5017  0.8622  0.2894
 9305SOL    HW239378   0.226   0.406   3.425 -0.4384 -1.5670  2.8836
 9306SOL     OW39379   0.089   3.141   4.228  0.6859  0.5498  0.5519
 9306SOL    HW139380   0.073   3.179   4.141  2.1562  1.1435  0.5476
 9306SOL    HW239381   0.175   3.102   4.220  0.8961  0.9755  0.7184
 9307SOL     OW39382   0.320   4.528   2.887 -0.2124 -0.1758 -0.2590
 9307SOL    HW139383   0.369   4.553   2.808  0.2236  0.3108  0.1654
 9307SOL    HW239384   0.361   4.443   2.905  2.4031  1.0573 -0.3374
 9308SOL     OW39385   3.794   3.049   0.121  0.0325 -0.0956 -0.0959
 9308SOL    HW139386   3.817   3.142   0.119  0.1069 -0.1429 -1.1176
 9308SOL    HW239387   3.799   3.018   0.031 -2.4182 -0.5071 -0.0921
 9309SOL     OW39388   1.732   3.654   8.712  0.0566  0.3111  0.4916
 9309SOL    HW139389   1.665   3.693   8.768  0.4225 -0.7752  1.6568
 9309SOL    HW239390   1.686   3.579   8.676  2.6654 -1.9620  1.9303
 9310SOL     OW39391   2.034   2.824  11.850 -0.1486  0.0844  0.4227
 9310SOL    HW139392   2.049   2.910  11.888 -1.3248  0.6107 -0.2916
 9310SOL    HW239393   1.979   2.842  11.773 -3.2308 -2.4586  2.0139
 9311SOL     OW39394   3.684   3.467  13.225  0.4367 -0.0348 -0.0827
 9311SOL    HW139395   3.682   3.378  13.259 -1.0571  0.0319 -0.0105
 9311SOL    HW239396   3.672   3.522  13.302  1.8778 -0.9172  0.7740
 9312SOL     OW39397   2.993   0.991   6.569  0.4395  0.0245 -0.3528
 9312SOL    HW139398   2.954   0.940   6.640  2.1396  0.0658  0.6243
 9312SOL    HW239399   2.925   1.056   6.556  1.5358  1.5089  1.3588
 9313SOL     OW39400   0.898   3.450   8.492 -0.2508 -0.4696 -0.3979
 9313SOL    HW139401   0.924   3.358   8.488  1.3590 -0.1590  3.2197
 9313SOL    HW239402   0.835   3.442   8.563  0.8819 -1.9508  0.4436
 9314SOL     OW39403   4.226   1.392   5.623  0.5137  0.3277 -0.6270
 9314SOL    HW139404   4.163   1.352   5.564  0.7328  0.4733 -0.9624
 9314SOL    HW239405   4.276   1.315   5.651  0.7090  1.7742  3.0031
 9315SOL     OW39406   3.109   2.430   9.567  0.4918 -0.1654  0.1273
 9315SOL    HW139407   3.131   2.522   9.556 -0.9910  0.1731  0.0388
 9315SOL    HW239408   3.186   2.394   9.610  1.1555  0.2967 -0.6892
 9316SOL     OW39409   3.413   2.183   2.744  0.4711 -0.5318 -0.4143
 9316SOL    HW139410   3.380   2.118   2.681 -0.2553  1.4714 -2.1026
 9316SOL    HW239411   3.441   2.119   2.809 -1.0387 -1.1051 -0.3316
 9317SOL     OW39412   2.736   3.158   6.722 -0.2552  0.2496 -0.4221
 9317SOL    HW139413   2.643   3.145   6.705  0.3448 -3.0081 -1.2719
 9317SOL    HW239414   2.766   3.120   6.639  0.8383 -0.1036  0.1319
 9318SOL     OW39415   3.242   0.162   3.383  0.2226 -0.2414 -0.1957
 9318SOL    HW139416   3.195   0.088   3.344 -0.3519  0.0553 -0.0777
 9318SOL    HW239417   3.193   0.233   3.342  1.5800  0.3476 -0.7915
 9319SOL     OW39418   4.421   3.832   5.856 -0.1884 -0.7295  0.1333
 9319SOL    HW139419   4.469   3.853   5.775 -0.6177 -3.8571 -0.9100
 9319SOL    HW239420   4.419   3.920   5.895 -2.1925  0.1295 -1.8815
 9320SOL     OW39421   0.330   3.494   6.028  0.3345 -0.0216  0.3703
 9320SOL    HW139422   0.422   3.511   6.007  0.4242 -1.2249 -0.1774
 9320SOL    HW239423   0.342   3.432   6.100 -0.0860 -1.2539 -0.6247
 9321SOL     OW39424   3.986   3.491  12.057 -0.1618  1.0616  0.1496
 9321SOL    HW139425   4.073   3.514  12.089  0.4640  1.7429 -2.0398
 9321SOL    HW239426   3.947   3.578  12.071 -0.0150  0.9684  1.1995
 9322SOL     OW39427   3.107   0.060   7.618  0.1872 -0.5531 -0.0263
 9322SOL    HW139428   3.029   0.098   7.575  0.4217 -1.3924 -1.2027
 9322SOL    HW239429   3.171   0.121   7.580 -1.4800  0.2621 -1.5875
 9323SOL     OW39430   0.123   4.681   6.381 -0.1217  0.2575 -0.1343
 9323SOL    HW139431   0.218   4.675   6.393  0.2001  2.5506 -1.4459
 9323SOL    HW239432   0.115   0.054   6.396  1.5105  0.4416 -0.3592
 9324SOL     OW39433   3.995   2.280   8.013 -0.3666 -0.4629 -0.1576
 9324SOL    HW139434   4.063   2.347   8.019 -0.4380 -0.5194  1.1152
 9324SOL    HW239435   3.938   2.318   7.947 -2.2115  0.9227  2.2676
 9325SOL     OW39436   2.229   1.497   4.158 -0.3857  0.3176 -0.3715
 9325SOL    HW139437   2.261   1.469   4.072 -0.3027 -0.6658 -0.0193
 9325SOL    HW239438   2.313   1.490   4.204  0.2562 -0.6384 -1.7010
 9326SOL     OW39439   0.990   0.461   5.858  0.0162  0.5114  0.0740
 9326SOL    HW139440   0.918   0.405   5.829  0.6917 -0.3714  0.0970
 9326SOL    HW239441   1.053   0.391   5.875 -2.2307 -1.8180 -1.1879
 9327SOL     OW39442   0.519   4.368   6.304  0.0412 -0.2885 -0.0594
 9327SOL    HW139443   0.540   4.329   6.219 -2.3462 -0.3074 -0.6322
 9327SOL    HW239444   0.587   4.324   6.354 -0.2708 -0.7530 -0.0464
 9328SOL     OW39445   2.391   3.573   0.075  0.0735  0.5408 -0.2782
 9328SOL    HW139446   2.324   3.533   0.130 -1.2566  1.1269 -1.4845
 9328SOL    HW239447   2.335   3.620   0.013 -0.7459 -1.3991 -1.0046
 9329SOL     OW39448   1.784   2.680   0.275  0.3175  0.1223 -0.8464
 9329SOL    HW139449   1.690   2.696   0.263 -0.0439 -0.1399  1.5251
 9329SOL    HW239450   1.815   2.770   0.270 -1.7342  0.9012  0.4021
 9330SOL     OW39451   0.129   4.178   8.962 -0.4077 -0.0962 -0.2342
 9330SOL    HW139452   0.167   4.264   8.982  0.5028  0.3943 -4.1407
 9330SOL    HW239453   0.046   4.205   8.925  0.2380  0.7046 -1.0993
 9331SOL     OW39454   1.798   2.970   6.071 -0.2925  0.4774  0.1846
 9331SOL    HW139455   1.851   3.038   6.028 -1.5512  0.0036 -2.1327
 9331SOL    HW239456   1.778   2.919   5.993 -0.8321  0.1371  0.5467
 9332SOL     OW39457   2.593   0.335   8.929  0.3033 -0.2684 -0.3291
 9332SOL    HW139458   2.639   0.359   8.848  0.8752 -0.7083 -0.1297
 9332SOL    HW239459   2.582   0.418   8.975 -0.7495 -1.7522  2.0647
 9333SOL     OW39460   4.564   3.456  11.957 -0.4364  0.2876  0.6108
 9333SOL    HW139461   4.561   3.456  11.861  1.5920 -0.2685  0.5415
 9333SOL    HW239462   4.511   3.533  11.978  1.0118  1.0025  1.6654
 9334SOL     OW39463   0.373   1.748  14.862  0.0800  0.0639 -0.5567
 9334SOL    HW139464   0.358   1.687  14.790  1.6240  0.1220 -0.9165
 9334SOL    HW239465   0.314   1.719  14.933 -0.0538 -0.0498 -0.7152
 9335SOL     OW39466   3.027   3.102   7.242 -0.0988 -0.1988 -0.4541
 9335SOL    HW139467   3.103   3.157   7.259 -1.1407  1.4849 -1.2895
 9335SOL    HW239468   2.982   3.165   7.187  2.2551  1.4856 -0.4217
 9336SOL     OW39469   0.576   0.117   2.718 -0.0821 -0.4023  0.1532
 9336SOL    HW139470   0.603   0.194   2.667 -1.5580 -0.4930 -0.7773
 9336SOL    HW239471   0.577   0.051   2.649 -0.6287  1.4152 -1.5959
 9337SOL     OW39472   3.152   4.395  11.993 -0.2887 -0.5558 -0.0452
 9337SOL    HW139473   3.196   4.393  11.908 -0.1246 -0.4597  0.0382
 9337SOL    HW239474   3.209   4.450  12.046 -0.0052 -0.9965  0.0998
 9338SOL     OW39475   2.540   4.485   7.875 -0.0348 -0.4009 -0.0298
 9338SOL    HW139476   2.460   4.471   7.825 -0.7648  2.0577  0.4336
 9338SOL    HW239477   2.610   4.461   7.813 -0.3355  0.2592 -0.6331
 9339SOL     OW39478   3.580   2.402   4.366 -0.3787  0.1963 -0.1293
 9339SOL    HW139479   3.552   2.333   4.426 -0.2371  1.1000  0.9805
 9339SOL    HW239480   3.620   2.347   4.298  0.3271  1.3332 -0.6380
 9340SOL     OW39481   3.739   1.899   6.864 -0.1989  0.1323  0.0289
 9340SOL    HW139482   3.701   1.986   6.867  0.9645  0.6439 -0.1752
 9340SOL    HW239483   3.821   1.920   6.820 -0.7379 -0.8902 -1.4584
 9341SOL     OW39484   3.540   0.088   3.376 -0.6806  0.0277 -0.1787
 9341SOL    HW139485   3.607   0.134   3.427 -1.2704 -0.2732  0.8687
 9341SOL    HW239486   3.465   0.143   3.399  0.0017  1.0191 -0.3422
 9342SOL     OW39487   1.729   2.769   5.769  0.2902 -0.2756  0.0515
 9342SOL    HW139488   1.687   2.683   5.760 -1.9453  0.8619 -0.4898
 9342SOL    HW239489   1.762   2.753   5.858 -0.4015  2.4616  0.8095
 9343SOL     OW39490   4.188   0.432   2.213 -0.2027  0.9919  0.3455
 9343SOL    HW139491   4.094   0.423   2.223 -0.4271  2.0456 -0.7409
 9343SOL    HW239492   4.179   0.526   2.197  0.5553  0.7872 -1.3821
 9344SOL     OW39493   4.666   1.458   1.065  0.2704  0.3197  0.3247
 9344SOL    HW139494   0.005   1.467   1.138  0.5150  0.1082  0.1497
 9344SOL    HW239495   4.683   1.365   1.053 -3.9356 -0.2754 -0.8383
 9345SOL     OW39496   0.054   0.940   3.961  0.5454 -0.4836  0.2946
 9345SOL    HW139497   0.143   0.909   3.946  1.4910  3.2128 -1.7005
 9345SOL    HW239498   0.017   0.909   3.878  0.6066  0.2403  0.0019
 9346SOL     OW39499   3.371   4.270   5.826 -0.3390 -0.2521  0.3469
 9346SOL    HW139500   3.421   4.345   5.795  0.9848 -1.0911  0.4527
 9346SOL    HW239501   3.430   4.241   5.896 -1.7090  0.5151  1.8136
 9347SOL     OW39502   4.273   0.124   9.421 -0.5354 -0.3088 -0.2138
 9347SOL    HW139503   4.297   0.104   9.330  0.7331  0.9747 -0.1657
 9347SOL    HW239504   4.182   0.095   9.430 -0.2584 -1.3933 -0.8415
 9348SOL     OW39505   2.915   0.501   4.852  0.1472  0.5985 -0.3068
 9348SOL    HW139506   2.841   0.447   4.881 -0.9841  2.2794 -0.0542
 9348SOL    HW239507   2.942   0.538   4.936 -0.4269  1.9392 -0.7197
 9349SOL     OW39508   4.234   4.240   3.314  0.0213  0.1773  0.3539
 9349SOL    HW139509   4.308   4.297   3.337 -1.0625  1.3807  0.8520
 9349SOL    HW239510   4.159   4.299   3.314 -0.7241 -0.7531  2.1470
 9350SOL     OW39511   0.946   0.353   0.967 -0.0646 -0.3092 -0.1355
 9350SOL    HW139512   1.009   0.417   1.001  1.9699 -1.5694 -1.5080
 9350SOL    HW239513   0.886   0.408   0.917  0.7574 -0.0641 -0.8439
 9351SOL     OW39514   4.072   3.880  16.914 -0.4733 -0.7233  0.3155
 9351SOL    HW139515   4.138   3.840  16.970 -1.5296  0.2440  2.2633
 9351SOL    HW239516   4.114   3.876  16.828  0.4329 -0.0138  0.7271
 9352SOL     OW39517   2.875   3.735   6.090 -0.0764 -0.3866  0.4340
 9352SOL    HW139518   2.970   3.751   6.093 -0.4009  1.7994 -0.3702
 9352SOL    HW239519   2.831   3.768   6.168 -0.2931  0.1705  0.0798
 9353SOL     OW39520   1.477   2.948   2.204  0.5438 -0.6958 -0.0565
 9353SOL    HW139521   1.479   3.035   2.243 -3.1403  0.2017 -1.9133
 9353SOL    HW239522   1.554   2.903   2.237 -0.1892 -0.2135  2.2577
 9354SOL     OW39523   4.170   3.972   1.505 -0.2884  0.6813 -0.3944
 9354SOL    HW139524   4.168   3.877   1.496 -0.3093  0.6142  0.3350
 9354SOL    HW239525   4.085   3.986   1.545  0.9394  1.6192  1.8788
 9355SOL     OW39526   0.216   2.318   4.596  0.0308 -0.1866 -0.0893
 9355SOL    HW139527   0.303   2.328   4.557 -0.7368  1.6063 -1.2833
 9355SOL    HW239528   0.165   2.316   4.515 -0.0940  0.4206 -0.0242
 9356SOL     OW39529   2.808   3.686   7.941  0.6063 -0.1242 -0.0932
 9356SOL    HW139530   2.763   3.634   7.875  0.5415 -1.1504  0.7597
 9356SOL    HW239531   2.866   3.618   7.977  1.9256  0.8998 -0.2986
 9357SOL     OW39532   3.198   4.705   6.722  0.1835 -0.3510  0.0428
 9357SOL    HW139533   3.257   0.054   6.749 -0.5327  1.2831 -2.6897
 9357SOL    HW239534   3.114   0.029   6.714 -0.5339 -1.5875  0.5299
 9358SOL     OW39535   0.382   3.648   1.138  0.3041  0.1554 -0.6885
 9358SOL    HW139536   0.313   3.712   1.122 -1.7642 -1.9812 -0.1585
 9358SOL    HW239537   0.355   3.591   1.209  1.8184  0.6538  0.2985
 9359SOL     OW39538   3.405   4.040   2.999 -0.2049 -0.5267  0.1383
 9359SOL    HW139539   3.423   3.982   3.073  0.5873 -1.2858 -0.6541
 9359SOL    HW239540   3.312   4.021   2.995 -0.3506  0.2003  0.0072
 9360SOL     OW39541   4.423   3.916   3.695 -0.0658  0.3840  0.3115
 9360SOL    HW139542   4.428   4.010   3.680 -0.5236  0.5675  1.3119
 9360SOL    HW239543   4.390   3.887   3.610  0.2822 -0.1118  0.3423
 9361SOL     OW39544   0.145   0.483   3.988 -0.0991  0.5179 -0.1676
 9361SOL    HW139545   0.055   0.487   4.019  0.7394  0.2460  2.2969
 9361SOL    HW239546   0.134   0.443   3.902  0.1197 -0.3766  0.2162
 9362SOL     OW39547   2.502   4.399   3.808  0.4807  0.4910 -0.8099
 9362SOL    HW139548   2.486   4.487   3.843 -0.1747  0.6184 -1.4251
 9362SOL    HW239549   2.465   4.407   3.720 -0.6120  0.1030 -0.3816
 9363SOL     OW39550   3.083   2.824   2.470 -0.4375 -0.0532 -0.3961
 9363SOL    HW139551   3.145   2.889   2.505  0.0826  0.1067 -1.6104
 9363SOL    HW239552   3.100   2.825   2.376  0.6831  1.9635 -0.1806
 9364SOL     OW39553   1.348   3.086   5.992  0.8968  0.3355  0.3887
 9364SOL    HW139554   1.379   3.026   6.060  0.2472 -0.5984 -0.1610
 9364SOL    HW239555   1.413   3.157   5.997  2.0725 -0.7944  1.2252
 9365SOL     OW39556   1.114   2.442   7.074 -0.0054 -0.4514 -0.1591
 9365SOL    HW139557   1.067   2.398   7.144  1.3939 -1.3429  0.2322
 9365SOL    HW239558   1.077   2.387   7.005 -0.8239 -0.6225  0.4247
 9366SOL     OW39559   3.904   2.837   5.418 -0.3427  0.3099  0.5140
 9366SOL    HW139560   3.896   2.881   5.503  2.1106 -2.2353  2.0695
 9366SOL    HW239561   3.997   2.859   5.408 -0.3794 -0.2876 -1.1219
 9367SOL     OW39562   0.736   3.691   8.620 -0.2659  0.2631 -0.3265
 9367SOL    HW139563   0.641   3.683   8.616 -0.1445 -0.6780 -1.3548
 9367SOL    HW239564   0.745   3.768   8.675 -0.1859  1.0892 -1.4871
 9368SOL     OW39565   3.621   4.274  12.973 -0.5325 -0.1436  0.2654
 9368SOL    HW139566   3.609   4.263  13.067  2.0149  0.0912  0.6252
 9368SOL    HW239567   3.601   4.185  12.946 -1.1098 -0.1144  0.6079
 9369SOL     OW39568   2.272   1.386  11.061  0.2609  0.6425  0.3313
 9369SOL    HW139569   2.177   1.375  11.071  0.5354  1.0440  3.4297
 9369SOL    HW239570   2.265   1.468  11.012 -0.8948  0.9717  1.0402
 9370SOL     OW39571   0.283   0.976  11.690 -0.3328  0.1068 -0.1560
 9370SOL    HW139572   0.315   1.044  11.749 -1.8816 -0.2439  1.0761
 9370SOL    HW239573   0.238   0.930  11.762 -1.6705  0.6168 -0.6728
 9371SOL     OW39574   0.876   0.044   3.387 -0.1453  0.1202  0.4462
 9371SOL    HW139575   0.924   0.115   3.346  1.2961  0.0705  2.0231
 9371SOL    HW239576   0.835   0.084   3.464  1.1823  2.9618 -0.3489
 9372SOL     OW39577   3.818   3.005  15.285  0.4060  0.3849  0.0938
 9372SOL    HW139578   3.871   2.927  15.300 -0.4766  0.1064  1.7074
 9372SOL    HW239579   3.733   2.972  15.313  1.3122 -0.8495  1.3692
 9373SOL     OW39580   3.143   0.255   3.113  0.1598  0.1916 -0.1845
 9373SOL    HW139581   3.074   0.305   3.070 -1.3428  0.5541  2.6508
 9373SOL    HW239582   3.119   0.168   3.080  0.7017  0.7304 -1.9816
 9374SOL     OW39583   1.569   3.645   2.421 -0.4957  0.2394  0.5313
 9374SOL    HW139584   1.537   3.610   2.337  3.7604 -0.5082 -0.7431
 9374SOL    HW239585   1.511   3.719   2.441  0.0326  0.6309  0.6025
 9375SOL     OW39586   3.751   4.202   9.101  0.3371  0.0802  0.0476
 9375SOL    HW139587   3.704   4.281   9.076  0.9655 -0.7170 -3.7413
 9375SOL    HW239588   3.721   4.211   9.191 -0.4738  1.6264 -0.3830
 9376SOL     OW39589   3.987   0.237   3.056  0.1196  0.1533  0.1452
 9376SOL    HW139590   3.976   0.148   3.089  0.8938  0.5336  1.4291
 9376SOL    HW239591   4.082   0.249   3.056  0.4185 -2.3362 -1.0315
 9377SOL     OW39592   2.858   3.114   3.878 -0.1766  0.7076 -0.4797
 9377SOL    HW139593   2.876   3.204   3.851  0.0732  1.2976  1.5836
 9377SOL    HW239594   2.944   3.075   3.889 -0.6922 -0.5677 -0.9614
 9378SOL     OW39595   3.777   4.380   7.051  0.3090  0.2943 -0.3557
 9378SOL    HW139596   3.790   4.323   6.976  1.0447  0.8806 -0.6729
 9378SOL    HW239597   3.837   4.454   7.039  2.2131 -1.3403 -0.8997
 9379SOL     OW39598   1.650   0.265  14.512  0.3617  0.1312  0.0097
 9379SOL    HW139599   1.615   0.265  14.423  0.6521 -1.4151 -0.1173
 9379SOL    HW239600   1.736   0.223  14.520  1.2988  2.0439 -0.1983
 9380SOL     OW39601   4.233   4.590   2.293 -0.0859 -0.3700  0.2166
 9380SOL    HW139602   4.175   4.616   2.364 -1.7409  0.8801 -1.5589
 9380SOL    HW239603   4.295   4.663   2.284  0.9894 -1.6655 -3.0044
 9381SOL     OW39604   1.908   3.208   0.827  0.4928 -0.0080  0.1450
 9381SOL    HW139605   1.865   3.293   0.837 -0.4067 -0.2965 -1.1506
 9381SOL    HW239606   1.945   3.194   0.914  0.5421 -0.3904  0.0608
 9382SOL     OW39607   3.994   3.699  12.334  0.6138  1.0495  0.0502
 9382SOL    HW139608   3.934   3.703  12.260  0.8021  0.5895 -0.1244
 9382SOL    HW239609   4.028   3.788  12.326 -0.4441  1.4078 -0.5178
 9383SOL     OW39610   3.511   1.561   7.970  0.1440  0.2137 -0.4624
 9383SOL    HW139611   3.574   1.608   8.025  0.5756  1.3434 -1.9271
 9383SOL    HW239612   3.434   1.618   7.969 -0.8313 -1.1263 -1.7236
 9384SOL     OW39613   4.180   3.030  11.985  0.4213 -0.0673  0.2905
 9384SOL    HW139614   4.263   3.077  11.989  0.2525  0.2232  0.3938
 9384SOL    HW239615   4.215   2.959  11.931 -2.3699  0.6099 -2.4025
 9385SOL     OW39616   4.086   2.674  10.740  0.5085  0.2823  0.2557
 9385SOL    HW139617   4.172   2.711  10.719 -0.3907  0.4532 -3.1561
 9385SOL    HW239618   4.039   2.707  10.663  0.6258 -3.1403 -1.2666
 9386SOL     OW39619   4.666   3.227   6.307  0.0355 -0.1757 -0.0741
 9386SOL    HW139620   4.592   3.209   6.365  0.1642 -1.3329 -0.2698
 9386SOL    HW239621   4.634   3.309   6.271  1.2489 -0.4447 -1.7685
 9387SOL     OW39622   0.747   4.430   5.278 -0.2772 -0.6343  0.2302
 9387SOL    HW139623   0.809   4.383   5.222  0.5832  2.9905 -1.8745
 9387SOL    HW239624   0.724   4.373   5.351 -0.7353 -1.8182 -0.8482
 9388SOL     OW39625   1.711   1.762   2.878 -0.5990 -0.1845  0.1581
 9388SOL    HW139626   1.719   1.854   2.855  2.7260 -0.4498  0.2984
 9388SOL    HW239627   1.618   1.744   2.862 -0.5074  0.0893 -0.6841
 9389SOL     OW39628   1.523   1.411   7.691 -0.7308 -0.4139  0.2136
 9389SOL    HW139629   1.523   1.443   7.782  0.0785 -0.6761  0.3089
 9389SOL    HW239630   1.540   1.318   7.702  1.0140 -0.3247 -1.8474
 9390SOL     OW39631   2.859   1.931   4.772  0.1721 -0.4618  0.2666
 9390SOL    HW139632   2.776   1.909   4.730  0.4370 -2.5113  0.8572
 9390SOL    HW239633   2.921   1.901   4.706 -0.0841 -0.7889  0.1746
 9391SOL     OW39634   1.878   3.976   4.905 -0.1766 -0.1642  0.2749
 9391SOL    HW139635   1.969   4.005   4.900 -0.5542  1.0005  0.4051
 9391SOL    HW239636   1.841   4.045   4.850 -1.4637  1.1459  2.8014
 9392SOL     OW39637   3.037   0.777   8.500  0.4419 -0.1354 -0.1168
 9392SOL    HW139638   3.121   0.766   8.456  0.5230 -0.9169  0.2435
 9392SOL    HW239639   3.027   0.870   8.477  0.5704  0.1667  1.0417
 9393SOL     OW39640   2.695   2.674   8.851  0.0491  0.1483  0.2074
 9393SOL    HW139641   2.692   2.744   8.786  0.8396  0.2627  0.3041
 9393SOL    HW239642   2.733   2.707   8.932  0.5385 -0.6399  0.3004
 9394SOL     OW39643   4.075   3.187   6.516 -0.3204  0.6909 -0.1501
 9394SOL    HW139644   4.042   3.097   6.518  0.7127  0.3109 -0.3261
 9394SOL    HW239645   4.167   3.163   6.530 -1.5545 -4.2183 -0.3557
 9395SOL     OW39646   1.940   0.901   1.896 -0.0732 -0.3091 -0.6120
 9395SOL    HW139647   1.903   0.830   1.845 -2.5170  0.0857  0.6140
 9395SOL    HW239648   1.928   0.871   1.986  2.4156 -2.5091 -1.0206
 9396SOL     OW39649   1.552   0.275   4.855 -0.8697 -0.2974 -0.3699
 9396SOL    HW139650   1.485   0.342   4.845 -0.1779 -0.2005 -4.6661
 9396SOL    HW239651   1.615   0.310   4.792 -1.1333 -0.5072 -0.7523
 9397SOL     OW39652   0.411   0.480   6.860  0.1345  0.4845  0.0517
 9397SOL    HW139653   0.505   0.487   6.846  0.2445  1.1861  1.1759
 9397SOL    HW239654   0.400   0.565   6.903 -1.3309 -0.9654  2.5319
 9398SOL     OW39655   2.900   1.715   0.156 -0.0677 -0.1507 -0.2404
 9398SOL    HW139656   2.982   1.669   0.172  0.5569  1.2259  0.5068
 9398SOL    HW239657   2.836   1.647   0.134 -1.4198  0.4547  1.8007
 9399SOL     OW39658   3.068   1.786   9.508  0.4491 -0.2778  0.7909
 9399SOL    HW139659   3.005   1.776   9.580  0.7643  0.9313  1.2303
 9399SOL    HW239660   3.108   1.699   9.507  0.2523 -0.3572  0.0610
 9400SOL     OW39661   3.302   1.391   7.542  0.0936 -0.1682 -0.4676
 9400SOL    HW139662   3.277   1.428   7.457 -1.9790  0.0181  0.2197
 9400SOL    HW239663   3.390   1.427   7.552 -0.3408  0.8780 -0.4221
 9401SOL     OW39664   4.539   1.753  11.017  0.3363 -0.2368 -0.0598
 9401SOL    HW139665   4.524   1.658  11.013 -0.5948 -0.1169  0.4704
 9401SOL    HW239666   4.502   1.771  10.930 -1.3096  0.8288  0.8594
 9402SOL     OW39667   1.908   2.290  15.821 -0.0600 -0.2402  0.0589
 9402SOL    HW139668   1.948   2.211  15.785 -0.7971 -0.1292 -0.9970
 9402SOL    HW239669   1.977   2.354  15.834 -0.3914  0.1814 -0.2712
 9403SOL     OW39670   2.555   4.002   0.054 -0.3827 -0.0969 -0.0312
 9403SOL    HW139671   2.613   4.066   0.095 -0.7373  2.0590 -2.8886
 9403SOL    HW239672   2.508   3.968   0.130 -1.5640 -0.2546 -0.8375
 9404SOL     OW39673   1.466   1.092   7.010  0.1006  0.0863  0.0294
 9404SOL    HW139674   1.508   1.093   6.924 -0.5267  2.9386 -0.2651
 9404SOL    HW239675   1.386   1.134   6.977  0.0645  0.4461  0.5725
 9405SOL     OW39676   4.089   1.598   6.542  1.1139  0.0925  0.2048
 9405SOL    HW139677   4.136   1.624   6.621  0.1230  0.7852  0.5741
 9405SOL    HW239678   4.155   1.604   6.473 -0.5356  0.4220 -1.3559
 9406SOL     OW39679   4.429   4.698   7.070 -0.0457 -0.0192  0.2667
 9406SOL    HW139680   4.405   4.627   7.010 -2.0460  1.7653 -1.0452
 9406SOL    HW239681   4.451   4.654   7.152  0.8184  0.7956  0.4691
 9407SOL     OW39682   2.968   0.307   5.486  0.2888 -0.1020  0.2049
 9407SOL    HW139683   3.021   0.384   5.468  1.7401 -1.3126 -0.6825
 9407SOL    HW239684   2.996   0.290   5.576  2.1930  3.8427  0.3703
 9408SOL     OW39685   3.778   4.016   1.391  0.5909  0.5031 -0.5252
 9408SOL    HW139686   3.842   3.991   1.325 -0.9599 -0.1106 -1.7935
 9408SOL    HW239687   3.832   4.047   1.463  1.3804 -1.2012 -0.3906
 9409SOL     OW39688   2.486   1.504  16.557  0.2616  0.0645 -0.5635
 9409SOL    HW139689   2.442   1.423  16.533 -1.8054  0.8690  0.4850
 9409SOL    HW239690   2.427   1.563  16.510  1.2304 -0.1395 -2.0153
 9410SOL     OW39691   0.920   3.375   8.993  0.0208 -0.1735  0.0141
 9410SOL    HW139692   0.999   3.324   8.976 -0.9639 -1.6678 -0.1025
 9410SOL    HW239693   0.935   3.442   8.927  3.6561 -0.5516  0.4389
 9411SOL     OW39694   1.982   4.347  16.160 -0.4445 -0.1927  0.1860
 9411SOL    HW139695   2.018   4.388  16.238  0.5253  0.2060 -0.4747
 9411SOL    HW239696   1.953   4.265  16.200 -2.4734  0.5190  0.1816
 9412SOL     OW39697   0.519   3.028   8.049  0.5204  0.5935  0.0697
 9412SOL    HW139698   0.579   3.097   8.077  2.3131 -0.7635 -0.3754
 9412SOL    HW239699   0.444   3.042   8.106  0.3378 -0.2069  0.0212
 9413SOL     OW39700   0.177   1.131   5.328 -0.3803  0.2865  0.3225
 9413SOL    HW139701   0.270   1.109   5.331 -0.5702 -0.4118  1.1262
 9413SOL    HW239702   0.153   1.040   5.343  1.8768  0.0048  2.2221
 9414SOL     OW39703   3.301   0.816   8.027  0.3563  0.0258  0.6552
 9414SOL    HW139704   3.299   0.811   7.931  0.2008  0.4054  0.6379
 9414SOL    HW239705   3.396   0.805   8.039  1.0614  1.4994 -3.3063
 9415SOL     OW39706   2.509   1.795   0.000  0.2638 -0.0312 -0.6616
 9415SOL    HW139707   2.507   1.890  17.682 -0.4368  0.0354  0.9183
 9415SOL    HW239708   2.519   1.786   0.095  0.9551  0.6725 -0.6711
 9416SOL     OW39709   3.006   2.272   2.017  0.4378  0.4247  0.3653
 9416SOL    HW139710   3.061   2.346   2.042 -1.3803  1.4682  1.3131
 9416SOL    HW239711   3.065   2.204   1.985 -0.6343 -0.9257  1.2454
 9417SOL     OW39712   3.145   1.593  15.821  0.1999  0.4095  0.3088
 9417SOL    HW139713   3.126   1.638  15.739 -2.8443 -0.8256  0.3614
 9417SOL    HW239714   3.183   1.661  15.877  0.0649  1.2948 -0.6823
 9418SOL     OW39715   0.387   2.912  10.142 -0.0949  0.0246 -0.5474
 9418SOL    HW139716   0.410   2.822  10.116 -3.4014 -1.2749  0.9759
 9418SOL    HW239717   0.445   2.928  10.216 -0.1871 -2.5317  0.0700
 9419SOL     OW39718   1.908   3.666   4.065  0.9424  0.0694 -0.3917
 9419SOL    HW139719   2.002   3.650   4.078  0.8554  0.0763  0.2709
 9419SOL    HW239720   1.873   3.579   4.048 -2.6643  1.3477  0.4944
 9420SOL     OW39721   1.741   1.977  15.354  0.0978 -0.6279 -0.0098
 9420SOL    HW139722   1.750   2.037  15.280  3.4653 -1.0186  0.0729
 9420SOL    HW239723   1.789   1.900  15.325 -1.1672 -0.4659 -2.5292
 9421SOL     OW39724   0.210   2.009   1.950 -1.0006 -0.3628 -0.4032
 9421SOL    HW139725   0.279   1.943   1.955 -1.5371 -0.8934 -0.0272
 9421SOL    HW239726   0.233   2.057   1.870 -0.8256  0.7090  0.2947
 9422SOL     OW39727   1.747   3.904   1.154  0.3713  0.0090  0.6015
 9422SOL    HW139728   1.816   3.957   1.195  0.5358  3.0794 -3.7046
 9422SOL    HW239729   1.687   3.926   1.225 -1.4294 -0.1210 -0.9072
 9423SOL     OW39730   2.037   2.495  10.869  0.1840 -0.1158 -0.1944
 9423SOL    HW139731   1.978   2.420  10.870  1.4751 -1.1073  1.2189
 9423SOL    HW239732   2.101   2.472  10.936  1.1052  2.9456 -0.0196
 9424SOL     OW39733   4.070   0.408  10.215 -0.0987  0.4783 -0.3268
 9424SOL    HW139734   4.100   0.321  10.188  3.0449  0.6872  2.5176
 9424SOL    HW239735   3.992   0.432  10.164 -0.2507 -0.6457 -0.6191
 9425SOL     OW39736   2.208   2.816   2.818  0.3941 -0.4535 -0.7292
 9425SOL    HW139737   2.267   2.742   2.831  2.7855  1.6469  0.3388
 9425SOL    HW239738   2.195   2.803   2.724 -0.5436  0.9406 -0.7914
 9426SOL     OW39739   2.978   1.002   3.853  0.3814  0.0181 -0.0472
 9426SOL    HW139740   3.021   1.086   3.865 -2.4012  1.3095  0.7643
 9426SOL    HW239741   2.943   1.011   3.764  0.4844 -0.2553 -0.1162
 9427SOL     OW39742   3.805   2.904   7.047  0.5837  0.1689  0.1946
 9427SOL    HW139743   3.866   2.968   7.010  1.1662 -1.4953 -1.7608
 9427SOL    HW239744   3.848   2.885   7.130  2.4663  1.2256 -0.5352
 9428SOL     OW39745   3.667   4.230   4.438  0.3342  0.0311  0.3219
 9428SOL    HW139746   3.595   4.268   4.389  1.4870 -0.0486 -1.4489
 9428SOL    HW239747   3.711   4.173   4.374 -2.1774 -1.9739  0.4076
 9429SOL     OW39748   2.981   1.378   4.683  0.3096 -0.7163  0.2035
 9429SOL    HW139749   3.054   1.369   4.621  0.8869  0.6635  0.6603
 9429SOL    HW239750   2.973   1.473   4.695  4.0360 -0.3844  0.2427
 9430SOL     OW39751   4.548   1.318   4.336 -0.1541  0.6034  0.4070
 9430SOL    HW139752   4.633   1.359   4.317  0.7256 -0.2585  2.4351
 9430SOL    HW239753   4.544   1.257   4.263  1.0414  0.5649  0.3598
 9431SOL     OW39754   1.204   1.197   6.586  0.0532 -0.2504 -0.1864
 9431SOL    HW139755   1.240   1.187   6.674 -0.6217  1.6976  0.3081
 9431SOL    HW239756   1.206   1.292   6.573 -0.6034 -0.4882 -1.9545
 9432SOL     OW39757   3.353   4.316   7.233 -0.0450  0.3441 -0.3940
 9432SOL    HW139758   3.326   4.371   7.306  3.2185  0.0043  1.0748
 9432SOL    HW239759   3.277   4.292   7.180 -0.8058  0.7737  0.5016
 9433SOL     OW39760   3.704   1.850   5.946  0.2141  0.3413  0.4448
 9433SOL    HW139761   3.791   1.827   5.914 -0.1634  1.2753 -1.3020
 9433SOL    HW239762   3.713   1.837   6.040  0.4826 -1.6051  0.1412
 9434SOL     OW39763   0.410   1.711   0.820 -0.2724  0.5070  0.1873
 9434SOL    HW139764   0.487   1.743   0.774 -0.1905  0.2943  0.1748
 9434SOL    HW239765   0.446   1.637   0.869 -0.0316 -0.3251 -1.2550
 9435SOL     OW39766   4.719   0.459   4.337  0.6545 -0.2808  0.0327
 9435SOL    HW139767   4.684   0.544   4.365 -1.0505 -1.0619  0.2451
 9435SOL    HW239768   0.046   0.489   4.260 -0.4307 -0.7976 -0.8525
 9436SOL     OW39769   3.685   3.277  10.287  0.7457 -0.1863  0.0335
 9436SOL    HW139770   3.621   3.293  10.217  0.8142 -0.4368 -0.0860
 9436SOL    HW239771   3.647   3.336  10.352  2.1460  0.6067  0.1315
 9437SOL     OW39772   0.826   4.398   8.909 -0.4399  0.0136 -0.2761
 9437SOL    HW139773   0.898   4.404   8.972  0.6857  1.2444 -1.6783
 9437SOL    HW239774   0.871   4.353   8.837 -3.0632 -1.2631 -1.1362
 9438SOL     OW39775   3.784   3.671   2.237  0.6686 -0.2342  0.0033
 9438SOL    HW139776   3.724   3.740   2.265 -0.1837 -0.2849 -1.6715
 9438SOL    HW239777   3.775   3.604   2.305  0.1916  0.2273  0.3961
 9439SOL     OW39778   0.891   1.299   5.615 -0.2485  0.0598  0.4394
 9439SOL    HW139779   0.934   1.221   5.651 -1.3862 -1.0868 -0.7109
 9439SOL    HW239780   0.956   1.365   5.639 -1.5271  1.1035  1.0136
 9440SOL     OW39781   1.863   2.737   3.947 -0.2718 -0.3237 -0.6280
 9440SOL    HW139782   1.809   2.811   3.920 -0.4042 -0.1382  0.1427
 9440SOL    HW239783   1.914   2.722   3.867  0.8146  0.6437 -0.1213
 9441SOL     OW39784   0.294   0.945   5.031  0.4161 -0.3486 -0.0459
 9441SOL    HW139785   0.217   0.996   5.007 -1.7954 -3.3308  0.8177
 9441SOL    HW239786   0.282   0.858   4.993 -1.5605 -0.3034  0.5001
 9442SOL     OW39787   4.386   4.056  16.787  0.1492  0.4731  0.5188
 9442SOL    HW139788   4.349   4.124  16.845 -1.0211  1.4231 -1.3438
 9442SOL    HW239789   4.314   4.026  16.731 -1.4005  1.4609  1.9607
 9443SOL     OW39790   3.538   4.254  13.226  0.1630 -0.3124 -0.4895
 9443SOL    HW139791   3.540   4.307  13.306  3.4059  1.6252 -1.8172
 9443SOL    HW239792   3.494   4.177  13.260 -0.4497  0.9181  1.5154
 9444SOL     OW39793   3.990   0.446   3.477  0.1733 -0.1459 -0.3194
 9444SOL    HW139794   4.074   0.486   3.500 -0.4540 -1.0649  3.6580
 9444SOL    HW239795   3.983   0.450   3.382  2.7415  1.7241 -0.4162
 9445SOL     OW39796   1.681   3.839   0.493 -0.5635  0.3879 -0.4791
 9445SOL    HW139797   1.724   3.884   0.420  0.9287  0.2013  0.2976
 9445SOL    HW239798   1.757   3.817   0.546 -1.1412  0.9044  0.5683
 9446SOL     OW39799   2.666   1.754   4.681  0.4324 -0.2980  0.1290
 9446SOL    HW139800   2.636   1.746   4.772 -1.5930 -1.7060 -0.6710
 9446SOL    HW239801   2.670   1.666   4.646  0.6266 -0.5945  0.8843
 9447SOL     OW39802   2.686   0.293   8.669  0.1371 -0.5841  0.3618
 9447SOL    HW139803   2.648   0.293   8.581  0.8361  0.6648  0.0653
 9447SOL    HW239804   2.774   0.261   8.651 -0.0050 -0.5995 -0.3052
 9448SOL     OW39805   3.805   3.247  15.581 -0.3259 -0.2870  0.6347
 9448SOL    HW139806   3.749   3.189  15.634  0.0518  1.1208  2.5569
 9448SOL    HW239807   3.890   3.243  15.626 -1.2080 -4.1091  2.0367
 9449SOL     OW39808   3.362   0.564  11.419  0.5393  0.4365  0.6258
 9449SOL    HW139809   3.349   0.513  11.499  2.2347 -1.7812 -0.5147
 9449SOL    HW239810   3.326   0.648  11.447  1.6402  1.2165 -0.3194
 9450SOL     OW39811   3.688   0.517  11.415 -0.1645 -0.2565  1.1985
 9450SOL    HW139812   3.771   0.534  11.371 -0.2452 -1.5552  0.5598
 9450SOL    HW239813   3.708   0.563  11.497  0.1727  1.1280  0.3431
 9451SOL     OW39814   0.751   2.314  16.774 -0.4582  0.9404 -0.0688
 9451SOL    HW139815   0.812   2.346  16.707 -0.4930 -0.5274 -0.8192
 9451SOL    HW239816   0.671   2.310  16.721 -1.2687  2.4158  1.0456
 9452SOL     OW39817   2.033   0.110   7.904 -0.9517  0.4479  0.0227
 9452SOL    HW139818   2.089   0.127   7.980  0.6937 -1.1119 -0.8509
 9452SOL    HW239819   2.014   0.196   7.867 -0.8359  0.8717  0.9300
 9453SOL     OW39820   4.345   4.684  12.397  0.1864 -0.2142  0.1675
 9453SOL    HW139821   4.395   4.719  12.324 -1.5778 -1.5919 -1.6895
 9453SOL    HW239822   4.408   4.700  12.467  0.4424  0.5394 -0.2418
 9454SOL     OW39823   1.191   3.317  17.551 -0.6881  0.3969  0.2497
 9454SOL    HW139824   1.235   3.327  17.635 -0.5832 -0.2281  0.2684
 9454SOL    HW239825   1.194   3.406  17.514  1.6220 -0.7539 -2.3562
 9455SOL     OW39826   2.882   1.859   5.392 -0.0461  0.5994 -0.1882
 9455SOL    HW139827   2.883   1.797   5.465  0.8201  0.5684 -0.2251
 9455SOL    HW239828   2.809   1.847   5.332  0.8171 -0.2940 -1.0473
 9456SOL     OW39829   3.129   2.367   5.990  0.3848 -0.4265 -0.3427
 9456SOL    HW139830   3.077   2.396   6.065 -1.3682  1.7644 -2.3954
 9456SOL    HW239831   3.215   2.381   6.030  0.6338 -1.3522 -0.5573
 9457SOL     OW39832   0.249   1.273   3.004 -0.2492  0.3450 -0.0328
 9457SOL    HW139833   0.322   1.212   3.008  0.1267  0.8646  0.8555
 9457SOL    HW239834   0.257   1.301   2.913 -0.1481 -2.5788 -0.9314
 9458SOL     OW39835   0.304   1.036   8.649  0.9356  0.1408  0.0906
 9458SOL    HW139836   0.303   1.128   8.625 -0.1229  0.9082  3.0337
 9458SOL    HW239837   0.389   1.032   8.695  0.2476 -1.9713  1.1868
 9459SOL     OW39838   3.825   4.399  14.911  0.3544  0.6610  0.5401
 9459SOL    HW139839   3.793   4.391  14.821  0.9961  2.7304  0.1459
 9459SOL    HW239840   3.881   4.476  14.910 -0.0106  0.9273  0.6975
 9460SOL     OW39841   4.040   0.855   9.843 -0.1461  0.7158 -0.1596
 9460SOL    HW139842   4.120   0.906   9.826  0.7634 -0.3262  1.0132
 9460SOL    HW239843   4.011   0.835   9.754  1.3902  0.5353 -0.6306
 9461SOL     OW39844   0.998   4.144  10.344 -0.8830 -0.7169 -0.2183
 9461SOL    HW139845   1.018   4.171  10.433 -0.1976 -0.0640 -0.5722
 9461SOL    HW239846   1.004   4.048  10.347 -0.3788 -0.7166 -1.0419
 9462SOL     OW39847   3.370   4.084   1.878 -0.3262  0.3682  0.7436
 9462SOL    HW139848   3.385   4.163   1.827 -1.1118 -0.2437 -0.4261
 9462SOL    HW239849   3.275   4.076   1.891 -0.2735 -0.1259  0.8365
 9463SOL     OW39850   3.176   1.199   9.478  0.7636  0.2097 -0.1475
 9463SOL    HW139851   3.140   1.124   9.429  1.6859 -0.6564  0.5035
 9463SOL    HW239852   3.154   1.268   9.415 -2.2858 -1.4110 -0.8779
 9464SOL     OW39853   2.866   0.207   6.470 -0.3052  0.0696 -0.4882
 9464SOL    HW139854   2.895   0.163   6.550  0.6511  0.1915 -0.7673
 9464SOL    HW239855   2.773   0.222   6.487  0.9092  2.6382  4.0363
 9465SOL     OW39856   0.164   4.521   9.423 -0.0495  0.0519  0.8717
 9465SOL    HW139857   0.201   4.596   9.470 -0.0946  1.1711 -0.8910
 9465SOL    HW239858   0.074   4.527   9.456 -0.4573  0.3655 -0.3030
 9466SOL     OW39859   2.690   3.029  15.534 -0.1973 -0.3641  0.5572
 9466SOL    HW139860   2.677   3.107  15.587  0.0455  0.1578 -0.1508
 9466SOL    HW239861   2.785   3.026  15.537 -0.1638  0.2746  0.0159
 9467SOL     OW39862   3.592   3.416  10.514 -0.8798  1.0437  0.0163
 9467SOL    HW139863   3.550   3.491  10.556  2.0648  2.1594  0.9661
 9467SOL    HW239864   3.572   3.345  10.575 -0.8867  0.9569 -0.0867
 9468SOL     OW39865   0.250   0.811   6.971  0.2047  0.3079 -0.1209
 9468SOL    HW139866   0.227   0.833   6.881  0.2743 -0.9405 -0.4529
 9468SOL    HW239867   0.300   0.892   6.981  1.5012 -0.2439 -2.1604
 9469SOL     OW39868   0.163   4.702  11.580 -0.0788 -0.1160 -0.5007
 9469SOL    HW139869   0.221   4.708  11.656 -2.2921  0.8842  1.0963
 9469SOL    HW239870   0.105   4.633  11.611 -0.3692  0.5698  0.5030
 9470SOL     OW39871   2.993   1.609   4.982  0.1589  0.2459  0.0716
 9470SOL    HW139872   3.004   1.699   5.014  0.9651 -0.4726  1.8673
 9470SOL    HW239873   2.901   1.590   5.001  0.1970  0.3338  0.3480
 9471SOL     OW39874   3.492   1.476   9.458 -0.4049 -0.8184 -0.3474
 9471SOL    HW139875   3.464   1.568   9.454  1.1566 -0.3798 -1.2449
 9471SOL    HW239876   3.579   1.487   9.420  0.4532 -2.4531  1.1619
 9472SOL     OW39877   2.081   3.813   2.183  0.0769 -0.2281 -0.3002
 9472SOL    HW139878   2.093   3.867   2.105  0.8571 -2.0616 -1.4562
 9472SOL    HW239879   1.987   3.811   2.167 -0.0833  0.2307  0.5879
 9473SOL     OW39880   2.575   4.620   5.759  0.3525 -0.3656 -0.2134
 9473SOL    HW139881   2.575   4.645   5.852  1.2372 -0.1594 -0.2639
 9473SOL    HW239882   2.610   4.696   5.712 -0.0163 -0.2389 -0.2799
 9474SOL     OW39883   3.314   3.231   5.623 -0.1020 -0.3547 -0.5675
 9474SOL    HW139884   3.335   3.232   5.530  0.5912 -0.5963 -0.4131
 9474SOL    HW239885   3.312   3.325   5.640 -2.4006 -0.3952 -0.6428
 9475SOL     OW39886   1.133   3.824   0.441  0.1133  0.4666  0.4427
 9475SOL    HW139887   1.104   3.869   0.520 -0.7461 -0.5885  0.7310
 9475SOL    HW239888   1.227   3.824   0.460 -0.2648 -1.8330  2.3015
 9476SOL     OW39889   3.903   0.919   4.359 -0.2947  0.8212 -0.0357
 9476SOL    HW139890   3.950   0.977   4.298  1.6856  1.1567  1.8363
 9476SOL    HW239891   3.931   0.956   4.442  0.3688  0.7002 -0.2109
 9477SOL     OW39892   4.559   1.060   6.457  0.0795  0.4091  0.1549
 9477SOL    HW139893   4.551   1.037   6.365  2.2901  2.7216 -0.6121
 9477SOL    HW239894   4.477   1.037   6.500  0.3915  0.4253  0.7608
 9478SOL     OW39895   3.231   1.266   5.853  0.6173  0.0751 -0.0183
 9478SOL    HW139896   3.231   1.196   5.788  0.7650 -0.0574  0.1231
 9478SOL    HW239897   3.314   1.248   5.897  0.5792 -0.9931 -0.3934
 9479SOL     OW39898   3.154   0.459   7.981 -0.0311  0.7519 -0.1968
 9479SOL    HW139899   3.132   0.423   8.067  0.8970 -1.4947 -0.9195
 9479SOL    HW239900   3.143   0.553   8.000  0.4594  1.2696 -2.5139
 9480SOL     OW39901   2.084   1.385   9.462  0.1819  0.0082  0.2928
 9480SOL    HW139902   2.174   1.351   9.468  0.6617  1.0403 -1.0423
 9480SOL    HW239903   2.111   1.476   9.456 -0.9134  0.3745  0.9559
 9481SOL     OW39904   4.356   4.638   8.407 -0.1346  0.4257 -0.5974
 9481SOL    HW139905   4.372   4.689   8.327  0.4928  1.8308  0.4120
 9481SOL    HW239906   4.261   4.640   8.414  0.0086 -1.6708  1.6499
 9482SOL     OW39907   1.319   3.014  15.452 -0.2715 -0.2241  0.0951
 9482SOL    HW139908   1.396   3.055  15.492 -0.1442 -0.6782  0.3120
 9482SOL    HW239909   1.256   3.055  15.512 -2.2764 -0.2374 -1.9890
 9483SOL     OW39910   0.088   3.078  13.249  0.1403  0.6761  0.4565
 9483SOL    HW139911   0.181   3.086  13.273  0.6746 -0.3919 -1.2882
 9483SOL    HW239912   0.049   3.144  13.307  0.7958  1.9208 -0.5171
 9484SOL     OW39913   4.076   0.039   6.898  0.5033 -0.4753 -0.0734
 9484SOL    HW139914   3.990   0.080   6.887  1.9885  2.2828 -1.1945
 9484SOL    HW239915   4.117   0.113   6.942 -0.6245  1.8667 -2.9853
 9485SOL     OW39916   0.109   1.674  17.253 -0.3975  0.0864  0.5246
 9485SOL    HW139917   0.197   1.709  17.270  0.1025 -1.0479  0.3036
 9485SOL    HW239918   0.068   1.760  17.254 -1.4844 -0.4197 -1.0669
 9486SOL     OW39919   1.643   2.870   8.071  0.0432 -0.3840 -0.6208
 9486SOL    HW139920   1.596   2.893   7.991  0.8374  1.2630 -0.6117
 9486SOL    HW239921   1.724   2.824   8.051  0.6693  1.0383 -1.3155
 9487SOL     OW39922   3.025   3.720   7.546 -0.5186 -0.2436  0.4258
 9487SOL    HW139923   3.068   3.693   7.627 -1.4377 -1.9056  0.3637
 9487SOL    HW239924   2.944   3.668   7.543 -2.6106  2.9198  1.4937
 9488SOL     OW39925   2.238   0.215   2.510  0.4341  0.0565 -0.5505
 9488SOL    HW139926   2.156   0.258   2.484 -0.5268  0.0550  2.5181
 9488SOL    HW239927   2.221   0.126   2.480  0.7534  0.1371 -0.9873
 9489SOL     OW39928   0.502   2.469  17.349  0.4402 -0.3038  0.5797
 9489SOL    HW139929   0.446   2.431  17.417 -3.6832 -0.9119 -3.2029
 9489SOL    HW239930   0.444   2.540  17.322  2.3797  0.3840 -1.7931
 9490SOL     OW39931   3.677   1.631   8.179 -0.6708  0.2301 -0.2893
 9490SOL    HW139932   3.721   1.546   8.182 -2.7370 -0.8071  0.4502
 9490SOL    HW239933   3.752   1.681   8.146  0.7420 -1.2894  0.6045
 9491SOL     OW39934   4.193   0.169  10.102 -0.4380  0.2019  0.1596
 9491SOL    HW139935   4.272   0.218  10.124 -0.5537  0.4809 -0.0375
 9491SOL    HW239936   4.204   0.077  10.124 -1.2651 -0.0967 -0.6634
 9492SOL     OW39937   1.700   2.797   3.660 -0.3120 -0.1011 -0.7442
 9492SOL    HW139938   1.672   2.879   3.701 -0.9828  0.2491 -1.9224
 9492SOL    HW239939   1.743   2.835   3.583 -0.0477 -0.5255 -0.8048
 9493SOL     OW39940   1.442   4.042   1.003  0.0199 -0.4049 -0.0215
 9493SOL    HW139941   1.485   4.123   1.032  2.0026 -1.7818  0.8762
 9493SOL    HW239942   1.512   3.998   0.954 -0.8566  0.0176 -1.6555
 9494SOL     OW39943   2.127   3.888   5.761  0.3106 -0.4803  0.2000
 9494SOL    HW139944   2.100   3.904   5.851  3.5622 -1.0949  1.2640
 9494SOL    HW239945   2.094   3.969   5.721 -3.5671 -1.9822  0.3641
 9495SOL     OW39946   4.628   0.786  16.309  0.5523  0.1483 -0.0351
 9495SOL    HW139947   4.666   0.807  16.395 -0.6369  0.8573  0.3211
 9495SOL    HW239948   4.648   0.863  16.257 -0.2844  1.2133  1.2065
 9496SOL     OW39949   1.167   1.060  14.411 -0.0291  0.2256  0.1302
 9496SOL    HW139950   1.097   1.109  14.368 -0.0697  1.4518  1.5904
 9496SOL    HW239951   1.107   1.002  14.457  0.5554  0.6167  1.3680
 9497SOL     OW39952   3.980   2.136   6.175 -0.2301 -0.2782  0.3113
 9497SOL    HW139953   4.056   2.169   6.224  1.4764 -0.8999 -1.9524
 9497SOL    HW239954   3.938   2.079   6.239  1.0114 -1.2457  0.2700
 9498SOL     OW39955   0.293   3.694   5.630 -0.1575  0.1239  0.1152
 9498SOL    HW139956   0.246   3.643   5.696  0.2866 -0.7353 -0.2241
 9498SOL    HW239957   0.240   3.773   5.627 -0.7118 -0.3046 -1.3198
 9499SOL     OW39958   0.267   0.454   4.742  0.1722  0.1583 -0.5256
 9499SOL    HW139959   0.204   0.384   4.756 -0.6312  0.7787 -1.0202
 9499SOL    HW239960   0.236   0.510   4.670  0.2391  0.1095 -0.5923
 9500SOL     OW39961   3.528   1.404   2.888 -0.2848  0.1609  0.2744
 9500SOL    HW139962   3.446   1.429   2.845 -0.4265  0.7753  0.8963
 9500SOL    HW239963   3.544   1.316   2.854  0.8418 -0.1004  1.5151
 9501SOL     OW39964   3.923   0.553   2.228 -0.6723  0.1851 -0.5741
 9501SOL    HW139965   3.852   0.526   2.169 -0.2649 -0.0204 -0.9680
 9501SOL    HW239966   3.882   0.629   2.269 -1.5031 -0.5982  0.0550
 9502SOL     OW39967   3.853   3.335   0.122  0.1279 -0.1688  0.1727
 9502SOL    HW139968   3.941   3.329   0.086  0.5718  1.6967  0.9742
 9502SOL    HW239969   3.839   3.427   0.142 -0.5982 -0.7473  2.3892
 9503SOL     OW39970   3.430   2.223   6.402 -0.0862 -0.4900 -0.4375
 9503SOL    HW139971   3.381   2.294   6.360  0.7820  0.2199 -0.2403
 9503SOL    HW239972   3.462   2.268   6.480 -2.6844  1.6304 -0.5743
 9504SOL     OW39973   1.085   4.027  12.720 -0.8848  0.4789 -0.0073
 9504SOL    HW139974   1.034   4.057  12.795  1.6136 -1.0798  2.3678
 9504SOL    HW239975   1.023   3.967  12.678  0.6425  0.0301 -1.6319
 9505SOL     OW39976   1.629   2.109  10.861  0.0427  0.0984  0.0287
 9505SOL    HW139977   1.669   2.054  10.794 -1.5441 -0.2565 -0.6203
 9505SOL    HW239978   1.690   2.182  10.871 -1.2374  1.1454  0.1524
 9506SOL     OW39979   1.734   2.526  16.228 -0.0295 -0.0743 -0.2193
 9506SOL    HW139980   1.800   2.516  16.297  0.2062  0.0285 -0.4279
 9506SOL    HW239981   1.738   2.446  16.176 -2.6762 -0.6966  0.5454
 9507SOL     OW39982   2.961   1.349   3.781  0.3074  0.0511  0.1287
 9507SOL    HW139983   2.923   1.377   3.864 -1.9522 -0.6056 -0.6866
 9507SOL    HW239984   3.017   1.285   3.825  1.0373 -0.9758 -2.2902
 9508SOL     OW39985   0.261   0.431  13.259  0.1040 -0.3795 -0.4926
 9508SOL    HW139986   0.340   0.483  13.271 -1.8335  2.0694  1.5002
 9508SOL    HW239987   0.244   0.406  13.350 -1.6766  1.0460 -0.4427
 9509SOL     OW39988   3.287   2.156   9.783  0.0319 -0.2362 -0.1241
 9509SOL    HW139989   3.236   2.143   9.704 -0.9855  1.0347  0.3355
 9509SOL    HW239990   3.338   2.075   9.784 -1.7456 -1.3499 -0.0158
 9510SOL     OW39991   0.586   4.363   6.938 -0.6954  0.0818 -0.2051
 9510SOL    HW139992   0.588   4.407   6.853  1.9046  1.0324  0.3696
 9510SOL    HW239993   0.532   4.288   6.912 -1.1060  1.0139 -2.0202
 9511SOL     OW39994   4.112   2.335   9.828  0.0115  0.1354 -0.9597
 9511SOL    HW139995   4.110   2.401   9.898  1.1045 -0.4924 -0.3258
 9511SOL    HW239996   4.163   2.263   9.867  0.9416  1.4727  0.3027
 9512SOL     OW39997   3.295   4.402  17.603  0.0395  0.1844  0.2625
 9512SOL    HW139998   3.369   4.463  17.612 -0.2063  0.7297 -1.4222
 9512SOL    HW239999   3.289   4.359   0.001 -0.1910 -1.3261 -0.5140
 9513SOL     OW40000   4.537   3.044   3.331 -0.5518 -0.8476 -0.0429
 9513SOL    HW140001   4.548   3.077   3.242 -0.5899 -1.0596 -0.1252
 9513SOL    HW240002   4.617   2.996   3.350  0.0046  1.6032  3.8007
 9514SOL     OW40003   2.700   4.151  15.992  0.3585 -0.1908  0.2682
 9514SOL    HW140004   2.740   4.105  15.918  0.1300 -2.5060  1.5731
 9514SOL    HW240005   2.620   4.185  15.952  1.4326 -1.2962 -2.8258
 9515SOL     OW40006   3.011   3.604   0.840  0.2870 -0.1245  0.1692
 9515SOL    HW140007   3.046   3.677   0.790 -0.0272  0.1096  0.2953
 9515SOL    HW240008   3.089   3.549   0.847  1.7785  1.7106 -2.2679
 9516SOL     OW40009   1.360   0.472  14.870 -0.3130 -0.6192 -0.3370
 9516SOL    HW140010   1.303   0.402  14.901 -1.4432 -1.2792 -3.8678
 9516SOL    HW240011   1.393   0.426  14.793 -1.9184 -0.1758 -1.2896
 9517SOL     OW40012   0.533   0.739  11.293 -0.0646 -0.1121 -0.3195
 9517SOL    HW140013   0.628   0.753  11.291 -0.0132 -0.4503 -0.2231
 9517SOL    HW240014   0.501   0.822  11.258  1.4202 -0.6818 -3.0583
 9518SOL     OW40015   1.297   3.995   7.951  0.0268 -0.0568  0.0503
 9518SOL    HW140016   1.320   3.905   7.929  0.2602  0.6107 -2.4486
 9518SOL    HW240017   1.316   3.987   8.044 -1.1355  0.0464  0.2937
 9519SOL     OW40018   3.919   2.973  12.205  0.0883 -0.2530  0.2739
 9519SOL    HW140019   3.974   2.995  12.280  0.7157 -0.2620 -0.1822
 9519SOL    HW240020   3.849   2.927  12.250  1.4159 -0.2173  2.3626
 9520SOL     OW40021   3.889   0.799   3.489  0.2370 -0.5113 -0.1871
 9520SOL    HW140022   3.959   0.766   3.545 -0.5547  0.2839  1.2954
 9520SOL    HW240023   3.816   0.742   3.516  2.5750 -3.4579 -0.1544
 9521SOL     OW40024   4.340   2.735   2.568  0.3210  0.5494  0.2750
 9521SOL    HW140025   4.374   2.821   2.593 -0.0039  0.6291  0.4415
 9521SOL    HW240026   4.405   2.679   2.611 -1.3304 -0.3644  1.5877
 9522SOL     OW40027   3.610   3.315  10.824 -0.0330 -0.4881  0.2104
 9522SOL    HW140028   3.525   3.357  10.810  0.2842  0.8373  2.2017
 9522SOL    HW240029   3.585   3.225  10.840 -1.0510 -0.1445  0.5349
 9523SOL     OW40030   1.184   1.732  12.296  0.0748  0.1741 -0.1025
 9523SOL    HW140031   1.172   1.638  12.303 -1.9964  0.3862 -0.9297
 9523SOL    HW240032   1.264   1.751  12.346  0.3297  0.4513 -0.6242
 9524SOL     OW40033   2.975   0.416  16.896 -0.2212 -0.4290 -0.1950
 9524SOL    HW140034   2.959   0.468  16.818 -0.1703 -3.1302 -1.9921
 9524SOL    HW240035   2.920   0.471  16.953 -0.9569 -0.1074 -1.2007
 9525SOL     OW40036   4.655   4.053   3.204  0.3457  0.0571 -0.4337
 9525SOL    HW140037   4.669   4.148   3.202  3.6697 -0.4185  0.9849
 9525SOL    HW240038   0.002   4.019   3.146 -0.1823 -1.5584 -0.1094
 9526SOL     OW40039   3.167   1.094   8.059 -0.1407  0.4657 -0.3486
 9526SOL    HW140040   3.230   1.022   8.054  1.3226  1.6916  0.3471
 9526SOL    HW240041   3.235   1.161   8.053  0.4051  0.3031  3.4965
 9527SOL     OW40042   3.379   0.308   1.154 -0.1962 -0.1592  0.1613
 9527SOL    HW140043   3.289   0.277   1.163 -0.4278  1.1668  2.2566
 9527SOL    HW240044   3.375   0.353   1.069  0.0823 -0.1909  0.1288
 9528SOL     OW40045   2.953   4.616   3.793 -0.4446 -0.2244  0.4410
 9528SOL    HW140046   2.955   4.696   3.740  0.4718 -0.9987 -0.6923
 9528SOL    HW240047   2.959   4.551   3.724  1.6177  2.4690 -1.9339
 9529SOL     OW40048   2.988   3.031   5.654 -0.0873  0.1676 -0.2893
 9529SOL    HW140049   3.018   3.105   5.601  2.4076 -1.0526 -0.5793
 9529SOL    HW240050   2.894   3.049   5.649  0.1519  1.7788  1.3395
 9530SOL     OW40051   0.697   0.852   5.872  0.1050 -0.7304 -0.3088
 9530SOL    HW140052   0.610   0.812   5.872  0.0079 -0.5272  0.9505
 9530SOL    HW240053   0.696   0.943   5.842  1.5658 -0.3903  0.6735
 9531SOL     OW40054   0.289   0.906   6.459  0.0250 -0.0437  0.4806
 9531SOL    HW140055   0.304   0.811   6.461  0.5648  0.0207 -0.4894
 9531SOL    HW240056   0.309   0.921   6.366 -0.1085  0.9514  0.6170
 9532SOL     OW40057   4.294   3.133   2.324 -0.5287  0.2425 -0.4406
 9532SOL    HW140058   4.235   3.060   2.302 -0.0661  0.8639 -3.7396
 9532SOL    HW240059   4.331   3.149   2.237  1.7242  0.3350  0.5635
 9533SOL     OW40060   2.663   0.661   3.125  0.5503  0.0105  0.0208
 9533SOL    HW140061   2.606   0.614   3.065 -1.1792 -1.5451  2.9404
 9533SOL    HW240062   2.744   0.670   3.075 -0.4103 -1.3437 -1.7666
 9534SOL     OW40063   4.146   1.390   4.170 -0.0095  0.4017 -0.1338
 9534SOL    HW140064   4.151   1.347   4.255 -1.6530  2.0076  0.7624
 9534SOL    HW240065   4.127   1.479   4.199 -0.9753  0.2237 -0.2187
 9535SOL     OW40066   2.593   2.602  16.703 -0.1435 -0.1778  0.8589
 9535SOL    HW140067   2.607   2.689  16.742  2.8957  0.2282 -1.1613
 9535SOL    HW240068   2.498   2.610  16.696 -0.0975  2.0618  2.8936
 9536SOL     OW40069   3.089   4.517  12.512  0.0986 -0.5613 -0.8398
 9536SOL    HW140070   3.090   4.534  12.606 -1.0235 -1.5348 -0.6514
 9536SOL    HW240071   3.096   4.608  12.484 -2.6163  0.1854  0.8667
 9537SOL     OW40072   2.452   2.419   4.757  0.0722  0.0470 -0.2631
 9537SOL    HW140073   2.413   2.506   4.756 -1.2664 -0.5362  0.8671
 9537SOL    HW240074   2.517   2.427   4.827 -1.4665 -2.9204  1.4874
 9538SOL     OW40075   2.378   3.611   2.135 -0.3215 -0.6221  0.0173
 9538SOL    HW140076   2.466   3.628   2.169 -1.3112  2.6686  0.9434
 9538SOL    HW240077   2.344   3.701   2.136  1.6405  0.1646 -1.8258
 9539SOL     OW40078   0.763   2.084  17.360 -0.1915 -0.6545  0.4104
 9539SOL    HW140079   0.753   2.175  17.330  2.1792 -0.8777 -1.0579
 9539SOL    HW240080   0.751   2.101  17.453 -0.7116  4.9808 -0.6421
 9540SOL     OW40081   3.888   4.023   3.713 -0.1044 -0.5021  0.4934
 9540SOL    HW140082   3.836   3.946   3.693 -0.2511 -0.0649 -0.8243
 9540SOL    HW240083   3.900   4.069   3.629 -0.5296  1.9273  1.7564
 9541SOL     OW40084   2.896   4.503   4.176 -0.2807  0.4682 -0.1571
 9541SOL    HW140085   2.842   4.486   4.099  1.4465 -1.2542 -1.0200
 9541SOL    HW240086   2.904   4.413   4.208 -0.0675  1.3595  2.3047
 9542SOL     OW40087   4.462   0.791   2.090 -0.3355 -0.0794 -0.2709
 9542SOL    HW140088   4.518   0.814   2.016  0.5270 -0.6391  0.2066
 9542SOL    HW240089   4.531   0.792   2.157 -1.1076 -0.5052  0.5366
 9543SOL     OW40090   3.374   0.170   4.003  0.6392 -0.3336  0.3993
 9543SOL    HW140091   3.292   0.132   3.971  1.7763 -0.3093 -2.5250
 9543SOL    HW240092   3.445   0.134   3.949  0.3095  2.7145 -2.0416
 9544SOL     OW40093   4.507   1.274   9.239 -0.8344 -0.0665  0.4808
 9544SOL    HW140094   4.569   1.217   9.285 -0.6997  0.3967  0.8748
 9544SOL    HW240095   4.550   1.353   9.272  1.8597 -1.6754  0.8213
 9545SOL     OW40096   2.151   0.452   9.208  0.7988  0.0292 -0.4148
 9545SOL    HW140097   2.162   0.527   9.267  2.7092 -0.5338 -0.0417
 9545SOL    HW240098   2.177   0.480   9.120 -0.9809 -1.9354 -1.5595
 9546SOL     OW40099   1.812   0.826   7.337  0.5775 -0.3914 -0.4033
 9546SOL    HW140100   1.864   0.904   7.359  0.2607 -0.1768 -0.4124
 9546SOL    HW240101   1.832   0.823   7.244  1.7172 -2.0798 -0.1043
 9547SOL     OW40102   2.319   4.527   9.580 -0.0343  0.1056 -0.1938
 9547SOL    HW140103   2.338   4.517   9.673  3.2050  0.1746 -0.8511
 9547SOL    HW240104   2.411   4.522   9.551 -0.4239 -0.4508 -1.3318
 9548SOL     OW40105   1.135   3.767   3.372  0.1459  0.0337 -0.2976
 9548SOL    HW140106   1.218   3.752   3.417 -0.2244 -0.5282  0.1997
 9548SOL    HW240107   1.123   3.862   3.369 -0.6661  0.0406  2.6833
 9549SOL     OW40108   2.905   1.379  14.615 -0.2274  0.2950 -0.9565
 9549SOL    HW140109   2.921   1.330  14.534  0.2812  1.3556 -1.5057
 9549SOL    HW240110   2.993   1.416  14.626 -1.0413  1.1581  2.5300
 9550SOL     OW40111   1.736   0.336  12.830  0.1792 -0.3756 -0.0750
 9550SOL    HW140112   1.779   0.345  12.745  1.0435 -1.9137  0.2104
 9550SOL    HW240113   1.715   0.243  12.830 -0.2602 -0.2815 -1.7480
 9551SOL     OW40114   3.463   1.243   2.610  0.6009 -0.1825 -0.0704
 9551SOL    HW140115   3.434   1.166   2.562 -2.2293  0.1880  1.0242
 9551SOL    HW240116   3.495   1.202   2.691 -1.5880  2.0808  1.9656
 9552SOL     OW40117   3.869   3.293  12.316  0.0877 -0.0703  0.2843
 9552SOL    HW140118   3.775   3.281  12.328  0.1970 -1.2673 -0.0337
 9552SOL    HW240119   3.857   3.366  12.255 -0.4222  0.0847  0.5695
 9553SOL     OW40120   3.819   1.171  13.248  0.1332 -0.2200 -0.2610
 9553SOL    HW140121   3.915   1.166  13.256 -0.1420 -1.1982  2.4226
 9553SOL    HW240122   3.789   1.228  13.318  0.7711 -1.1716  0.7863
 9554SOL     OW40123   3.166   3.099   3.905  0.1518 -0.6296  0.6672
 9554SOL    HW140124   3.175   3.096   3.810  1.1915 -0.8008  0.7800
 9554SOL    HW240125   3.136   3.190   3.914 -0.0757 -0.7024  0.6588
 9555SOL     OW40126   2.326   3.024  11.711  0.1730 -0.0041 -0.4142
 9555SOL    HW140127   2.246   3.014  11.660 -0.1022  1.4395 -0.2692
 9555SOL    HW240128   2.382   3.067  11.645 -0.3970  1.4362  0.0428
 9556SOL     OW40129   3.813   3.186   7.947 -0.4878 -0.3465  0.1235
 9556SOL    HW140130   3.775   3.136   8.020 -0.1514  1.1506  1.3393
 9556SOL    HW240131   3.905   3.166   7.962 -0.1889  3.0233  2.6884
 9557SOL     OW40132   4.369   3.159   3.524 -0.4750 -0.6491 -0.4224
 9557SOL    HW140133   4.438   3.126   3.466  1.4665  0.9120  0.9610
 9557SOL    HW240134   4.289   3.122   3.488 -1.0820  0.0689  0.1836
 9558SOL     OW40135   3.383   3.443  16.463  0.3411  0.7999 -0.5739
 9558SOL    HW140136   3.469   3.461  16.503  0.4166  0.4835 -0.5962
 9558SOL    HW240137   3.409   3.436  16.371  0.7768 -0.2666 -0.3699
 9559SOL     OW40138   2.892   1.685   7.791  0.4359  0.0870  0.1733
 9559SOL    HW140139   2.891   1.592   7.768 -2.2845  0.3534 -0.7310
 9559SOL    HW240140   2.818   1.711   7.737 -0.0092 -1.3100  0.1086
 9560SOL     OW40141   0.739   1.896  10.763 -0.5495  0.2622  0.2651
 9560SOL    HW140142   0.714   1.830  10.698 -1.6391  0.7304  0.2002
 9560SOL    HW240143   0.781   1.843  10.830 -2.4992  1.9882  2.8585
 9561SOL     OW40144   0.134   2.974   2.794 -0.1005  0.9336 -0.0767
 9561SOL    HW140145   0.052   2.991   2.746  1.2385 -1.2423 -3.0982
 9561SOL    HW240146   0.178   2.912   2.736 -0.7115 -1.4000  1.9530
 9562SOL     OW40147   2.629   3.084   8.484  0.0784  0.3198  0.0057
 9562SOL    HW140148   2.694   3.137   8.530  0.5505  0.5820 -0.9638
 9562SOL    HW240149   2.556   3.145   8.496 -0.6401 -0.2617 -1.4940
 9563SOL     OW40150   0.666   0.522   2.719 -0.6392 -0.3053  0.3979
 9563SOL    HW140151   0.733   0.530   2.787  0.0823 -2.5488 -0.0173
 9563SOL    HW240152   0.708   0.467   2.652 -0.3205 -0.5989  0.8355
 9564SOL     OW40153   0.084   0.290   4.851  0.1253 -0.4448  0.3870
 9564SOL    HW140154   0.132   0.230   4.908  1.4636  0.7189  0.4933
 9564SOL    HW240155   0.028   0.229   4.803 -0.2870  0.8879 -0.8030
 9565SOL     OW40156   1.253   0.947  14.990 -0.0560  0.0241  0.3239
 9565SOL    HW140157   1.230   0.875  14.932 -1.0991  1.0131 -0.4773
 9565SOL    HW240158   1.335   0.913  15.025  0.7837  0.9171 -0.8060
 9566SOL     OW40159   1.921   3.678   8.048 -0.3571  0.6123  0.4002
 9566SOL    HW140160   1.885   3.738   8.113 -3.1071 -1.5459  0.8403
 9566SOL    HW240161   1.908   3.732   7.970 -0.9665  2.3969  1.7290
 9567SOL     OW40162   1.726   2.891   2.325  0.9640  0.1328  0.4298
 9567SOL    HW140163   1.701   2.969   2.374  0.7875  0.0293  0.5034
 9567SOL    HW240164   1.807   2.918   2.281  0.0900 -0.3000 -1.4170
 9568SOL     OW40165   3.771   2.289   2.217  0.0360 -0.0099  0.2739
 9568SOL    HW140166   3.813   2.366   2.179  1.0116 -0.1322  1.1258
 9568SOL    HW240167   3.719   2.322   2.291 -0.4915 -0.6611  0.1997
   4.72121   4.72121  17.68720
